/mnt/lustre/scratch/nvme/SLURM/9663516/usccqdma.8nQQfIHUgP
OMP_STACKSIZE=0m
GAUSS_PDEF=16
GAUSS_MDEF=65536MB
GAUSS_RDEF=SCF=Direct
 Entering Gaussian System, Link 0=g16.exe
 Initial command:
 /opt/cesga/2020/software/Core/g16/c1/l1.exe "/mnt/lustre/scratch/nvme/SLURM/9663516/usccqdma.8nQQfIHUgP/Gau-1880073.inp" -scrdir="/mnt/lustre/scratch/nvme/SLURM/9663516/usccqdma.8nQQfIHUgP/"
 Default is to use a total of  16 processors:
                               16 via shared-memory
                                1 via Linda
 Entering Link 1 = /opt/cesga/2020/software/Core/g16/c1/l1.exe PID=   1880100.
  
 Copyright (c) 1988-2019, Gaussian, Inc.  All Rights Reserved.
  
 This is part of the Gaussian(R) 16 program.  It is based on
 the Gaussian(R) 09 system (copyright 2009, Gaussian, Inc.),
 the Gaussian(R) 03 system (copyright 2003, Gaussian, Inc.),
 the Gaussian(R) 98 system (copyright 1998, Gaussian, Inc.),
 the Gaussian(R) 94 system (copyright 1995, Gaussian, Inc.),
 the Gaussian 92(TM) system (copyright 1992, Gaussian, Inc.),
 the Gaussian 90(TM) system (copyright 1990, Gaussian, Inc.),
 the Gaussian 88(TM) system (copyright 1988, Gaussian, Inc.),
 the Gaussian 86(TM) system (copyright 1986, Carnegie Mellon
 University), and the Gaussian 82(TM) system (copyright 1983,
 Carnegie Mellon University). Gaussian is a federally registered
 trademark of Gaussian, Inc.
  
 This software contains proprietary and confidential information,
 including trade secrets, belonging to Gaussian, Inc.
  
 This software is provided under written license and may be
 used, copied, transmitted, or stored only in accord with that
 written license.
  
 The following legend is applicable only to US Government
 contracts under FAR:
  
                    RESTRICTED RIGHTS LEGEND
  
 Use, reproduction and disclosure by the US Government is
 subject to restrictions as set forth in subparagraphs (a)
 and (c) of the Commercial Computer Software - Restricted
 Rights clause in FAR 52.227-19.
  
 Gaussian, Inc.
 340 Quinnipiac St., Bldg. 40, Wallingford CT 06492
  
  
 ---------------------------------------------------------------
 Warning -- This program may not be used in any manner that
 competes with the business of Gaussian, Inc. or will provide
 assistance to any competitor of Gaussian, Inc.  The licensee
 of this program is prohibited from giving any competitor of
 Gaussian, Inc. access to this program.  By using this program,
 the user acknowledges that Gaussian, Inc. is engaged in the
 business of creating and licensing software in the field of
 computational chemistry and represents and warrants to the
 licensee that it is not a competitor of Gaussian, Inc. and that
 it will not use this program in any manner prohibited above.
 ---------------------------------------------------------------
  

 Cite this work as:
 Gaussian 16, Revision C.01,
 M. J. Frisch, G. W. Trucks, H. B. Schlegel, G. E. Scuseria, 
 M. A. Robb, J. R. Cheeseman, G. Scalmani, V. Barone, 
 G. A. Petersson, H. Nakatsuji, X. Li, M. Caricato, A. V. Marenich, 
 J. Bloino, B. G. Janesko, R. Gomperts, B. Mennucci, H. P. Hratchian, 
 J. V. Ortiz, A. F. Izmaylov, J. L. Sonnenberg, D. Williams-Young, 
 F. Ding, F. Lipparini, F. Egidi, J. Goings, B. Peng, A. Petrone, 
 T. Henderson, D. Ranasinghe, V. G. Zakrzewski, J. Gao, N. Rega, 
 G. Zheng, W. Liang, M. Hada, M. Ehara, K. Toyota, R. Fukuda, 
 J. Hasegawa, M. Ishida, T. Nakajima, Y. Honda, O. Kitao, H. Nakai, 
 T. Vreven, K. Throssell, J. A. Montgomery, Jr., J. E. Peralta, 
 F. Ogliaro, M. J. Bearpark, J. J. Heyd, E. N. Brothers, K. N. Kudin, 
 V. N. Staroverov, T. A. Keith, R. Kobayashi, J. Normand, 
 K. Raghavachari, A. P. Rendell, J. C. Burant, S. S. Iyengar, 
 J. Tomasi, M. Cossi, J. M. Millam, M. Klene, C. Adamo, R. Cammi, 
 J. W. Ochterski, R. L. Martin, K. Morokuma, O. Farkas, 
 J. B. Foresman, and D. J. Fox, Gaussian, Inc., Wallingford CT, 2019.
 
 ******************************************
 Gaussian 16:  ES64L-G16RevC.01  3-Jul-2019
                 7-Dec-2024 
 ******************************************
 Default route: SCF=Direct
 ----------------------------------------------------
 # m06/genecp scf=tight int=ultrafine 5d freq=noraman
 ----------------------------------------------------
 1/10=4,30=1,38=1/1,3;
 2/12=2,17=6,18=5,40=1/2;
 3/5=7,8=1,11=2,16=1,17=8,25=1,30=1,71=2,74=-54,75=-5,140=1/1,2,3;
 4//1;
 5/5=2,32=2,38=5,98=1/2;
 8/6=4,10=90,11=11/1;
 11/6=1,8=1,9=11,15=111,16=1/1,2,10;
 10/6=1/2;
 6/7=2,8=2,9=2,10=2,28=1/1;
 7/8=1,10=1,25=1/1,2,3,16;
 1/10=4,30=1/3;
 99//99;
 ------
 OPT-TS
 ------
 Symbolic Z-matrix:
 Charge =  0 Multiplicity = 1
 C                     2.99312  -1.13183  -0.67901 
 C                     4.01665  -1.99247  -0.29838 
 C                     3.69627  -3.2411    0.21671 
 C                     2.35633  -3.578     0.34955 
 C                    -0.59238  -4.15458   0.43054 
 C                    -1.95753  -4.29414   0.6397 
 C                    -2.75495  -3.16004   0.58618 
 C                    -2.16993  -1.93163   0.30582 
 H                    -2.74619  -1.00297   0.27853 
 C                    -0.06128  -2.89595   0.16082 
 C                     1.38188  -2.65781  -0.03168 
 C                    -3.78074   1.84603  -0.09832 
 C                    -3.07553   3.00514  -0.85792 
 C                    -4.67744   0.99866  -0.99462 
 H                    -4.14662   0.68883  -1.90514 
 H                    -5.59261   1.53041  -1.28773 
 H                    -4.97464   0.09184  -0.44873 
 C                    -4.53988   2.25614   1.14718 
 H                    -4.98528   1.36881   1.6169 
 H                    -5.35323   2.95376   0.9 
 H                    -3.87992   2.73058   1.88122 
 C                    -3.89108   3.61571  -1.98062 
 H                    -3.31688   4.41948  -2.45859 
 H                    -4.82613   4.0487   -1.59582 
 H                    -4.13694   2.87694  -2.75138 
 C                    -2.57111   4.10096   0.07265 
 H                    -1.9625    3.67709   0.88183 
 H                    -3.39461   4.6884    0.50166 
 H                    -1.93069   4.77827  -0.50769 
 B                    -1.62832   1.24394  -0.63721 
 N                     1.70601  -1.45201  -0.54575 
 N                    -0.85725  -1.79938   0.08496 
 O                    -2.6704    1.02189   0.28013 
 O                    -1.92423   2.35639  -1.41202 
 Ir                   -0.02032   0.02383  -0.75222 
 B                     0.94811   1.54132   0.09932 
 O                     2.34098   1.65046   0.06246 
 O                     0.4055    2.55233   0.8764 
 C                     2.7245    2.59278   1.07341 
 C                     1.45589   3.48767   1.1699 
 C                     2.99882   1.7985    2.34466 
 C                     3.98542   3.30429   0.6272 
 C                     1.20479   4.0981    2.5331 
 C                     1.40799   4.56533   0.09527 
 H                     2.09219   1.28892   2.697 
 H                     3.3824    2.43339   3.15465 
 H                     3.75444   1.03343   2.12043 
 H                     4.81309   2.58464   0.57019 
 H                     4.26675   4.09021   1.34278 
 H                     3.86475   3.75744  -0.36265 
 H                     0.2875    4.70081   2.50367 
 H                     2.03485   4.75735   2.82566 
 H                     1.07692   3.32983   3.3035 
 H                     1.58935   4.14001  -0.90052 
 H                     2.1401    5.36328   0.27955 
 H                     0.40515   5.01068   0.08966 
 H                     3.20031  -0.13461  -1.06408 
 H                     0.57703   1.17717  -1.71226 
 H                     4.47939  -3.93009   0.52298 
 H                     2.0788   -4.5358    0.78232 
 H                     0.05257  -5.029     0.45766 
 H                    -2.39431  -5.26893   0.84291 
 C                     5.4281   -1.50849  -0.42779 
 F                     5.69984  -1.13944  -1.68145 
 F                     5.6363   -0.43936   0.34993 
 F                     6.30991  -2.44736  -0.07422 
 C                    -4.24081  -3.20082   0.77751 
 F                    -4.63404  -2.30787   1.68861 
 F                    -4.87551  -2.90353  -0.3613 
 F                    -4.65515  -4.4073    1.17291 
 

 GradGradGradGradGradGradGradGradGradGradGradGradGradGradGradGradGradGrad
 Berny optimization.
 Initialization pass.
 Trust Radius=3.00D-01 FncErr=1.00D-07 GrdErr=1.00D-07 EigMax=2.50D+02 EigMin=1.00D-04
 Number of steps in this run=      2 maximum allowed number of steps=      2.
 GradGradGradGradGradGradGradGradGradGradGradGradGradGradGradGradGradGrad

 Stoichiometry    C24H31B2F6IrN2O4
 Framework group  C1[X(C24H31B2F6IrN2O4)]
 Deg. of freedom   204
 Full point group                 C1      NOp   1
 Largest Abelian subgroup         C1      NOp   1
 Largest concise Abelian subgroup C1      NOp   1
                         Standard orientation:                         
 ---------------------------------------------------------------------
 Center     Atomic      Atomic             Coordinates (Angstroms)
 Number     Number       Type             X           Y           Z
 ---------------------------------------------------------------------
      1          6           0        2.993119   -1.131831   -0.679010
      2          6           0        4.016649   -1.992471   -0.298380
      3          6           0        3.696268   -3.241101    0.216710
      4          6           0        2.356328   -3.578001    0.349550
      5          6           0       -0.592382   -4.154579    0.430540
      6          6           0       -1.957532   -4.294139    0.639700
      7          6           0       -2.754952   -3.160039    0.586180
      8          6           0       -2.169931   -1.931629    0.305820
      9          1           0       -2.746191   -1.002969    0.278530
     10          6           0       -0.061282   -2.895950    0.160820
     11          6           0        1.381878   -2.657810   -0.031680
     12          6           0       -3.780740    1.846032   -0.098320
     13          6           0       -3.075529    3.005142   -0.857920
     14          6           0       -4.677440    0.998662   -0.994620
     15          1           0       -4.146620    0.688832   -1.905140
     16          1           0       -5.592610    1.530412   -1.287730
     17          1           0       -4.974641    0.091842   -0.448730
     18          6           0       -4.539880    2.256142    1.147180
     19          1           0       -4.985280    1.368812    1.616900
     20          1           0       -5.353229    2.953762    0.900000
     21          1           0       -3.879920    2.730582    1.881220
     22          6           0       -3.891079    3.615712   -1.980620
     23          1           0       -3.316879    4.419482   -2.458590
     24          1           0       -4.826129    4.048702   -1.595820
     25          1           0       -4.136940    2.876942   -2.751380
     26          6           0       -2.571109    4.100961    0.072650
     27          1           0       -1.962499    3.677091    0.881830
     28          1           0       -3.394609    4.688402    0.501660
     29          1           0       -1.930689    4.778271   -0.507690
     30          5           0       -1.628320    1.243941   -0.637210
     31          7           0        1.706009   -1.452010   -0.545750
     32          7           0       -0.857251   -1.799379    0.084960
     33          8           0       -2.670400    1.021891    0.280130
     34          8           0       -1.924230    2.356391   -1.412020
     35         77           0       -0.020321    0.023830   -0.752220
     36          5           0        0.948110    1.541320    0.099320
     37          8           0        2.340980    1.650459    0.062460
     38          8           0        0.405500    2.552330    0.876400
     39          6           0        2.724500    2.592779    1.073410
     40          6           0        1.455891    3.487670    1.169900
     41          6           0        2.998820    1.798499    2.344660
     42          6           0        3.985421    3.304289    0.627200
     43          6           0        1.204791    4.098100    2.533100
     44          6           0        1.407991    4.565330    0.095270
     45          1           0        2.092190    1.288920    2.697000
     46          1           0        3.382400    2.433389    3.154650
     47          1           0        3.754440    1.033429    2.120430
     48          1           0        4.813090    2.584639    0.570190
     49          1           0        4.266751    4.090209    1.342780
     50          1           0        3.864751    3.757439   -0.362650
     51          1           0        0.287501    4.700810    2.503670
     52          1           0        2.034851    4.757350    2.825660
     53          1           0        1.076921    3.329830    3.303500
     54          1           0        1.589351    4.140010   -0.900520
     55          1           0        2.140101    5.363280    0.279550
     56          1           0        0.405151    5.010680    0.089660
     57          1           0        3.200309   -0.134611   -1.064080
     58          1           0        0.577030    1.177170   -1.712260
     59          1           0        4.479388   -3.930091    0.522980
     60          1           0        2.078798   -4.535800    0.782320
     61          1           0        0.052567   -5.029000    0.457660
     62          1           0       -2.394313   -5.268929    0.842910
     63          6           0        5.428099   -1.508492   -0.427790
     64          9           0        5.699839   -1.139442   -1.681450
     65          9           0        5.636299   -0.439362    0.349930
     66          9           0        6.309908   -2.447362   -0.074220
     67          6           0       -4.240812   -3.200818    0.777510
     68          9           0       -4.634041   -2.307868    1.688610
     69          9           0       -4.875512   -2.903528   -0.361300
     70          9           0       -4.655152   -4.407298    1.172910
 ---------------------------------------------------------------------
 Rotational constants (GHZ):           0.1030101           0.0675944           0.0458325
 General basis read from cards:  (5D, 7F)
 ======================================================================================================
                                       Pseudopotential Parameters
 ======================================================================================================
  Center     Atomic      Valence      Angular      Power
  Number     Number     Electrons     Momentum     of R      Exponent        Coefficient   SO-Coeffient
 ======================================================================================================
    1          6
                                   No pseudopotential on this center.
    2          6
                                   No pseudopotential on this center.
    3          6
                                   No pseudopotential on this center.
    4          6
                                   No pseudopotential on this center.
    5          6
                                   No pseudopotential on this center.
    6          6
                                   No pseudopotential on this center.
    7          6
                                   No pseudopotential on this center.
    8          6
                                   No pseudopotential on this center.
    9          1
                                   No pseudopotential on this center.
   10          6
                                   No pseudopotential on this center.
   11          6
                                   No pseudopotential on this center.
   12          6
                                   No pseudopotential on this center.
   13          6
                                   No pseudopotential on this center.
   14          6
                                   No pseudopotential on this center.
   15          1
                                   No pseudopotential on this center.
   16          1
                                   No pseudopotential on this center.
   17          1
                                   No pseudopotential on this center.
   18          6
                                   No pseudopotential on this center.
   19          1
                                   No pseudopotential on this center.
   20          1
                                   No pseudopotential on this center.
   21          1
                                   No pseudopotential on this center.
   22          6
                                   No pseudopotential on this center.
   23          1
                                   No pseudopotential on this center.
   24          1
                                   No pseudopotential on this center.
   25          1
                                   No pseudopotential on this center.
   26          6
                                   No pseudopotential on this center.
   27          1
                                   No pseudopotential on this center.
   28          1
                                   No pseudopotential on this center.
   29          1
                                   No pseudopotential on this center.
   30          5
                                   No pseudopotential on this center.
   31          7
                                   No pseudopotential on this center.
   32          7
                                   No pseudopotential on this center.
   33          8
                                   No pseudopotential on this center.
   34          8
                                   No pseudopotential on this center.
   35         77           17
                                      G and up 
                                                     1      823.5880147       -0.15780140    0.00000000
                                                     2      364.6613336    -1517.52704460    0.00000000
                                                     2       55.7082801     -316.53065290    0.00000000
                                                     2       12.0464544      -91.88809410    0.00000000
                                                     2        3.5120610       -9.22417730    0.00000000
                                      S - G
                                                     0      188.0490770        3.15780140    0.00000000
                                                     1      340.4194712       26.83225770    0.00000000
                                                     2      128.2373673      800.42500070    0.00000000
                                                     2       33.8644961      369.40506830    0.00000000
                                                     2        4.7560005      242.41718990    0.00000000
                                                     2        3.9649974     -118.21732820    0.00000000
                                      P - G
                                                     0      289.7291139        2.15780140    0.00000000
                                                     1       87.4633789       61.96786100    0.00000000
                                                     2       30.4363766      269.05819860    0.00000000
                                                     2        4.0553412      231.16547930    0.00000000
                                                     2        3.5525341     -133.69526670    0.00000000
                                      D - G
                                                     0      136.4017106        3.15780140    0.00000000
                                                     1       95.0776925       45.93498030    0.00000000
                                                     2       49.2258410      359.03446680    0.00000000
                                                     2       15.0874145      176.47401190    0.00000000
                                                     2        4.0405764       54.51552860    0.00000000
                                      F - G
                                                     0      127.3507908        3.95461970    0.00000000
                                                     1       66.2364374       52.97736550    0.00000000
                                                     2       34.4299229      274.86433830    0.00000000
                                                     2       10.1995721      137.20473380    0.00000000
                                                     2        2.5409702       14.86333050    0.00000000
   36          5
                                   No pseudopotential on this center.
   37          8
                                   No pseudopotential on this center.
   38          8
                                   No pseudopotential on this center.
   39          6
                                   No pseudopotential on this center.
   40          6
                                   No pseudopotential on this center.
   41          6
                                   No pseudopotential on this center.
   42          6
                                   No pseudopotential on this center.
   43          6
                                   No pseudopotential on this center.
   44          6
                                   No pseudopotential on this center.
   45          1
                                   No pseudopotential on this center.
   46          1
                                   No pseudopotential on this center.
   47          1
                                   No pseudopotential on this center.
   48          1
                                   No pseudopotential on this center.
   49          1
                                   No pseudopotential on this center.
   50          1
                                   No pseudopotential on this center.
   51          1
                                   No pseudopotential on this center.
   52          1
                                   No pseudopotential on this center.
   53          1
                                   No pseudopotential on this center.
   54          1
                                   No pseudopotential on this center.
   55          1
                                   No pseudopotential on this center.
   56          1
                                   No pseudopotential on this center.
   57          1
                                   No pseudopotential on this center.
   58          1
                                   No pseudopotential on this center.
   59          1
                                   No pseudopotential on this center.
   60          1
                                   No pseudopotential on this center.
   61          1
                                   No pseudopotential on this center.
   62          1
                                   No pseudopotential on this center.
   63          6
                                   No pseudopotential on this center.
   64          9
                                   No pseudopotential on this center.
   65          9
                                   No pseudopotential on this center.
   66          9
                                   No pseudopotential on this center.
   67          6
                                   No pseudopotential on this center.
   68          9
                                   No pseudopotential on this center.
   69          9
                                   No pseudopotential on this center.
   70          9
                                   No pseudopotential on this center.
 ======================================================================================================
 There are   656 symmetry adapted cartesian basis functions of A   symmetry.
 There are   616 symmetry adapted basis functions of A   symmetry.
   616 basis functions,  1231 primitive gaussians,   656 cartesian basis functions
   151 alpha electrons      151 beta electrons
       nuclear repulsion energy      5187.0676857184 Hartrees.
 NAtoms=   70 NActive=   70 NUniq=   70 SFac= 1.00D+00 NAtFMM=   60 NAOKFM=T Big=T
 Integral buffers will be    131072 words long.
 Raffenetti 2 integral format.
 Two-electron integral symmetry is turned on.
 One-electron integrals computed using PRISM.
   1 Symmetry operations used in ECPInt.
 ECPInt:  NShTT=   24753 NPrTT=  156749 LenC2=   18668 LenP2D=   61840.
 LDataN:  DoStor=T MaxTD1= 6 Len=  172
 NBasis=   616 RedAO= T EigKep=  4.89D-04  NBF=   616
 NBsUse=   616 1.00D-06 EigRej= -1.00D+00 NBFU=   616
 Defaulting to unpruned grid for atomic number  77.
 ExpMin= 2.90D-02 ExpMax= 7.00D+03 ExpMxC= 1.05D+03 IAcc=3 IRadAn=         5 AccDes= 0.00D+00
 Harris functional with IExCor= 1009 and IRadAn=       5 diagonalized for initial guess.
 HarFok:  IExCor= 1009 AccDes= 0.00D+00 IRadAn=         5 IDoV= 1 UseB2=F ITyADJ=14
 ICtDFT=  3500011 ScaDFX=  1.000000  1.000000  1.000000  1.000000
 Defaulting to unpruned grid for atomic number  77.
 FoFCou: FMM=F IPFlag=           0 FMFlag=      100000 FMFlg1=        2001
         NFxFlg=           0 DoJE=T BraDBF=F KetDBF=T FulRan=T
         wScrn=  0.000000 ICntrl=       500 IOpCl=  0 I1Cent=   200000004 NGrid=           0
         NMat0=    1 NMatS0=      1 NMatT0=    0 NMatD0=    1 NMtDS0=    0 NMtDT0=    0
 Petite list used in FoFCou.
 Requested convergence on RMS density matrix=1.00D-08 within 128 cycles.
 Requested convergence on MAX density matrix=1.00D-06.
 Requested convergence on             energy=1.00D-06.
 No special actions if energy rises.
 Defaulting to unpruned grid for atomic number  77.
 Defaulting to unpruned grid for atomic number  77.
 Defaulting to unpruned grid for atomic number  77.
 Defaulting to unpruned grid for atomic number  77.
 Defaulting to unpruned grid for atomic number  77.
 Defaulting to unpruned grid for atomic number  77.
 Defaulting to unpruned grid for atomic number  77.
 Defaulting to unpruned grid for atomic number  77.
 Defaulting to unpruned grid for atomic number  77.
 Defaulting to unpruned grid for atomic number  77.
 Defaulting to unpruned grid for atomic number  77.
 Defaulting to unpruned grid for atomic number  77.
 Defaulting to unpruned grid for atomic number  77.
 Defaulting to unpruned grid for atomic number  77.
 Defaulting to unpruned grid for atomic number  77.
 Defaulting to unpruned grid for atomic number  77.
 SCF Done:  E(RM06) =  -2096.20097281     A.U. after   18 cycles
            NFock= 18  Conv=0.44D-08     -V/T= 2.0413
 DoSCS=F DFT=T ScalE2(SS,OS)=  1.000000  1.000000
 Range of M.O.s used for correlation:     1   616
 NBasis=   616 NAE=   151 NBE=   151 NFC=     0 NFV=     0
 NROrb=    616 NOA=   151 NOB=   151 NVA=   465 NVB=   465

 **** Warning!!: The smallest alpha delta epsilon is  0.97950231D-01

   1 Symmetry operations used in ECPInt.
 ECPInt:  NShTT=   24753 NPrTT=  156749 LenC2=   18668 LenP2D=   61840.
 LDataN:  DoStor=T MaxTD1= 7 Len=  274
 Number of processors reduced to  13 by ecpmxn.
 Symmetrizing basis deriv contribution to polar:
 IMax=3 JMax=2 DiffMx= 0.00D+00
 G2DrvN: will do    71 centers at a time, making    1 passes.
 Calling FoFCou, ICntrl=  3107 FMM=T I1Cent=   0 AccDes= 0.00D+00.
 Defaulting to unpruned grid for atomic number  77.
 Defaulting to unpruned grid for atomic number  77.
 Defaulting to unpruned grid for atomic number  77.
 Defaulting to unpruned grid for atomic number  77.
 Defaulting to unpruned grid for atomic number  77.
 Defaulting to unpruned grid for atomic number  77.
 Defaulting to unpruned grid for atomic number  77.
 Defaulting to unpruned grid for atomic number  77.
 Defaulting to unpruned grid for atomic number  77.
 Defaulting to unpruned grid for atomic number  77.
 Defaulting to unpruned grid for atomic number  77.
 Defaulting to unpruned grid for atomic number  77.
 Defaulting to unpruned grid for atomic number  77.
 Defaulting to unpruned grid for atomic number  77.
 Defaulting to unpruned grid for atomic number  77.
 Defaulting to unpruned grid for atomic number  77.
 End of G2Drv F.D. properties file   721 does not exist.
 End of G2Drv F.D. properties file   722 does not exist.
 End of G2Drv F.D. properties file   788 does not exist.
          IDoAtm=11111111111111111111111111111111111111111111111111
          IDoAtm=11111111111111111111
          Differentiating once with respect to electric field.
                with respect to dipole field.
          Differentiating once with respect to nuclear coordinates.
 Defaulting to unpruned grid for atomic number  77.
 CalDSu exits because no D1Ps are significant.
 Defaulting to unpruned grid for atomic number  77.
 Defaulting to unpruned grid for atomic number  77.
 Defaulting to unpruned grid for atomic number  77.
 Defaulting to unpruned grid for atomic number  77.
 Defaulting to unpruned grid for atomic number  77.
 Defaulting to unpruned grid for atomic number  77.
 Defaulting to unpruned grid for atomic number  77.
 Defaulting to unpruned grid for atomic number  77.
 Defaulting to unpruned grid for atomic number  77.
 Defaulting to unpruned grid for atomic number  77.
 Defaulting to unpruned grid for atomic number  77.
 Defaulting to unpruned grid for atomic number  77.
 Defaulting to unpruned grid for atomic number  77.
 Defaulting to unpruned grid for atomic number  77.
 Defaulting to unpruned grid for atomic number  77.
 Defaulting to unpruned grid for atomic number  77.
          There are   213 degrees of freedom in the 1st order CPHF.  IDoFFX=6 NUNeed=     3.
    210 vectors produced by pass  0 Test12= 7.02D-14 1.00D-09 XBig12= 4.71D+02 1.18D+01.
 AX will form    72 AO Fock derivatives at one time.
    210 vectors produced by pass  1 Test12= 7.02D-14 1.00D-09 XBig12= 5.98D+01 1.26D+00.
    210 vectors produced by pass  2 Test12= 7.02D-14 1.00D-09 XBig12= 9.07D-01 1.44D-01.
    210 vectors produced by pass  3 Test12= 7.02D-14 1.00D-09 XBig12= 8.23D-03 1.08D-02.
    210 vectors produced by pass  4 Test12= 7.02D-14 1.00D-09 XBig12= 3.85D-05 4.38D-04.
    198 vectors produced by pass  5 Test12= 7.02D-14 1.00D-09 XBig12= 8.93D-08 1.99D-05.
     69 vectors produced by pass  6 Test12= 7.02D-14 1.00D-09 XBig12= 1.39D-10 8.55D-07.
      3 vectors produced by pass  7 Test12= 7.02D-14 1.00D-09 XBig12= 1.98D-13 3.74D-08.
      2 vectors produced by pass  8 Test12= 7.02D-14 1.00D-09 XBig12= 3.00D-16 1.17D-09.
 InvSVY:  IOpt=1 It=  1 EMax= 6.13D-15
 Solved reduced A of dimension  1322 with   213 vectors.
 Isotropic polarizability for W=    0.000000      361.71 Bohr**3.
 End of Minotr F.D. properties file   721 does not exist.
 End of Minotr F.D. properties file   722 does not exist.
 End of Minotr F.D. properties file   788 does not exist.

 **********************************************************************

            Population analysis using the SCF Density.

 **********************************************************************

 Orbital symmetries:
       Occupied  (A) (A) (A) (A) (A) (A) (A) (A) (A) (A) (A) (A)
                 (A) (A) (A) (A) (A) (A) (A) (A) (A) (A) (A) (A)
                 (A) (A) (A) (A) (A) (A) (A) (A) (A) (A) (A) (A)
                 (A) (A) (A) (A) (A) (A) (A) (A) (A) (A) (A) (A)
                 (A) (A) (A) (A) (A) (A) (A) (A) (A) (A) (A) (A)
                 (A) (A) (A) (A) (A) (A) (A) (A) (A) (A) (A) (A)
                 (A) (A) (A) (A) (A) (A) (A) (A) (A) (A) (A) (A)
                 (A) (A) (A) (A) (A) (A) (A) (A) (A) (A) (A) (A)
                 (A) (A) (A) (A) (A) (A) (A) (A) (A) (A) (A) (A)
                 (A) (A) (A) (A) (A) (A) (A) (A) (A) (A) (A) (A)
                 (A) (A) (A) (A) (A) (A) (A) (A) (A) (A) (A) (A)
                 (A) (A) (A) (A) (A) (A) (A) (A) (A) (A) (A) (A)
                 (A) (A) (A) (A) (A) (A) (A)
       Virtual   (A) (A) (A) (A) (A) (A) (A) (A) (A) (A) (A) (A)
                 (A) (A) (A) (A) (A) (A) (A) (A) (A) (A) (A) (A)
                 (A) (A) (A) (A) (A) (A) (A) (A) (A) (A) (A) (A)
                 (A) (A) (A) (A) (A) (A) (A) (A) (A) (A) (A) (A)
                 (A) (A) (A) (A) (A) (A) (A) (A) (A) (A) (A) (A)
                 (A) (A) (A) (A) (A) (A) (A) (A) (A) (A) (A) (A)
                 (A) (A) (A) (A) (A) (A) (A) (A) (A) (A) (A) (A)
                 (A) (A) (A) (A) (A) (A) (A) (A) (A) (A) (A) (A)
                 (A) (A) (A) (A) (A) (A) (A) (A) (A) (A) (A) (A)
                 (A) (A) (A) (A) (A) (A) (A) (A) (A) (A) (A) (A)
                 (A) (A) (A) (A) (A) (A) (A) (A) (A) (A) (A) (A)
                 (A) (A) (A) (A) (A) (A) (A) (A) (A) (A) (A) (A)
                 (A) (A) (A) (A) (A) (A) (A) (A) (A) (A) (A) (A)
                 (A) (A) (A) (A) (A) (A) (A) (A) (A) (A) (A) (A)
                 (A) (A) (A) (A) (A) (A) (A) (A) (A) (A) (A) (A)
                 (A) (A) (A) (A) (A) (A) (A) (A) (A) (A) (A) (A)
                 (A) (A) (A) (A) (A) (A) (A) (A) (A) (A) (A) (A)
                 (A) (A) (A) (A) (A) (A) (A) (A) (A) (A) (A) (A)
                 (A) (A) (A) (A) (A) (A) (A) (A) (A) (A) (A) (A)
                 (A) (A) (A) (A) (A) (A) (A) (A) (A) (A) (A) (A)
                 (A) (A) (A) (A) (A) (A) (A) (A) (A) (A) (A) (A)
                 (A) (A) (A) (A) (A) (A) (A) (A) (A) (A) (A) (A)
                 (A) (A) (A) (A) (A) (A) (A) (A) (A) (A) (A) (A)
                 (A) (A) (A) (A) (A) (A) (A) (A) (A) (A) (A) (A)
                 (A) (A) (A) (A) (A) (A) (A) (A) (A) (A) (A) (A)
                 (A) (A) (A) (A) (A) (A) (A) (A) (A) (A) (A) (A)
                 (A) (A) (A) (A) (A) (A) (A) (A) (A) (A) (A) (A)
                 (A) (A) (A) (A) (A) (A) (A) (A) (A) (A) (A) (A)
                 (A) (A) (A) (A) (A) (A) (A) (A) (A) (A) (A) (A)
                 (A) (A) (A) (A) (A) (A) (A) (A) (A) (A) (A) (A)
                 (A) (A) (A) (A) (A) (A) (A) (A) (A) (A) (A) (A)
                 (A) (A) (A) (A) (A) (A) (A) (A) (A) (A) (A) (A)
                 (A) (A) (A) (A) (A) (A) (A) (A) (A) (A) (A) (A)
                 (A) (A) (A) (A) (A) (A) (A) (A) (A) (A) (A) (A)
                 (A) (A) (A) (A) (A) (A) (A) (A) (A) (A) (A) (A)
                 (A) (A) (A) (A) (A) (A) (A) (A) (A) (A) (A) (A)
                 (A) (A) (A) (A) (A) (A) (A) (A) (A) (A) (A) (A)
                 (A) (A) (A) (A) (A) (A) (A) (A) (A) (A) (A) (A)
                 (A) (A) (A) (A) (A) (A) (A) (A) (A)
 The electronic state is 1-A.
 Alpha  occ. eigenvalues --  -24.84156 -24.83973 -24.83498 -24.83382 -24.83293
 Alpha  occ. eigenvalues --  -24.83268 -19.20411 -19.20135 -19.19633 -19.18900
 Alpha  occ. eigenvalues --  -14.47357 -14.46088 -10.52296 -10.52098 -10.34473
 Alpha  occ. eigenvalues --  -10.33879 -10.32356 -10.32075 -10.31480 -10.30903
 Alpha  occ. eigenvalues --  -10.30719 -10.30552 -10.30397 -10.30220 -10.29467
 Alpha  occ. eigenvalues --  -10.29283 -10.28723 -10.28336 -10.22795 -10.22678
 Alpha  occ. eigenvalues --  -10.22626 -10.22271 -10.22227 -10.22047 -10.21931
 Alpha  occ. eigenvalues --  -10.21192  -6.80892  -6.77938  -3.60584  -2.03993
 Alpha  occ. eigenvalues --   -2.02255  -2.01620  -1.36616  -1.36434  -1.28161
 Alpha  occ. eigenvalues --   -1.27968  -1.27535  -1.27374  -1.06333  -1.05226
 Alpha  occ. eigenvalues --   -1.02114  -0.99598  -0.99371  -0.98274  -0.87884
 Alpha  occ. eigenvalues --   -0.86943  -0.85496  -0.81692  -0.80387  -0.79635
 Alpha  occ. eigenvalues --   -0.76653  -0.74910  -0.74124  -0.73311  -0.70485
 Alpha  occ. eigenvalues --   -0.70347  -0.69739  -0.69666  -0.67669  -0.67537
 Alpha  occ. eigenvalues --   -0.66944  -0.66303  -0.62809  -0.62532  -0.62380
 Alpha  occ. eigenvalues --   -0.62260  -0.61999  -0.61626  -0.61201  -0.60742
 Alpha  occ. eigenvalues --   -0.57799  -0.55585  -0.54689  -0.53700  -0.53639
 Alpha  occ. eigenvalues --   -0.52637  -0.52450  -0.50640  -0.50399  -0.49959
 Alpha  occ. eigenvalues --   -0.49829  -0.49711  -0.48995  -0.48618  -0.48179
 Alpha  occ. eigenvalues --   -0.48018  -0.46994  -0.46485  -0.46427  -0.46312
 Alpha  occ. eigenvalues --   -0.46159  -0.45838  -0.45699  -0.45475  -0.45052
 Alpha  occ. eigenvalues --   -0.44486  -0.44299  -0.43951  -0.43809  -0.43718
 Alpha  occ. eigenvalues --   -0.43646  -0.43484  -0.42731  -0.41063  -0.40945
 Alpha  occ. eigenvalues --   -0.40635  -0.40000  -0.39739  -0.39359  -0.39255
 Alpha  occ. eigenvalues --   -0.39201  -0.38836  -0.38577  -0.38119  -0.37501
 Alpha  occ. eigenvalues --   -0.36775  -0.36697  -0.36305  -0.35965  -0.35777
 Alpha  occ. eigenvalues --   -0.35546  -0.35365  -0.34950  -0.34453  -0.34135
 Alpha  occ. eigenvalues --   -0.33863  -0.32974  -0.32160  -0.31273  -0.30962
 Alpha  occ. eigenvalues --   -0.30800  -0.30220  -0.29390  -0.29023  -0.27432
 Alpha  occ. eigenvalues --   -0.26302  -0.25525  -0.24688  -0.21565  -0.19910
 Alpha  occ. eigenvalues --   -0.19662
 Alpha virt. eigenvalues --   -0.09867  -0.06229  -0.05018  -0.01615  -0.00802
 Alpha virt. eigenvalues --    0.02238   0.03375   0.05489   0.06812   0.07328
 Alpha virt. eigenvalues --    0.08408   0.08731   0.10216   0.10347   0.10989
 Alpha virt. eigenvalues --    0.11913   0.12686   0.12774   0.13466   0.13581
 Alpha virt. eigenvalues --    0.13822   0.14507   0.14599   0.14897   0.15057
 Alpha virt. eigenvalues --    0.15450   0.15645   0.16057   0.16438   0.16810
 Alpha virt. eigenvalues --    0.17346   0.17447   0.18016   0.18126   0.18306
 Alpha virt. eigenvalues --    0.18852   0.18884   0.19395   0.19502   0.19775
 Alpha virt. eigenvalues --    0.20091   0.20272   0.20486   0.20750   0.21134
 Alpha virt. eigenvalues --    0.21315   0.21700   0.22017   0.22267   0.22553
 Alpha virt. eigenvalues --    0.22719   0.23395   0.23813   0.23886   0.24119
 Alpha virt. eigenvalues --    0.24856   0.25211   0.25797   0.25841   0.26253
 Alpha virt. eigenvalues --    0.26427   0.26842   0.27115   0.27551   0.28103
 Alpha virt. eigenvalues --    0.29165   0.29790   0.30269   0.31604   0.31846
 Alpha virt. eigenvalues --    0.32214   0.33740   0.34376   0.34480   0.35267
 Alpha virt. eigenvalues --    0.36126   0.36314   0.36940   0.37846   0.39078
 Alpha virt. eigenvalues --    0.39656   0.40955   0.41535   0.43993   0.45073
 Alpha virt. eigenvalues --    0.46255   0.47106   0.47170   0.47950   0.48592
 Alpha virt. eigenvalues --    0.49107   0.50479   0.50736   0.50980   0.51154
 Alpha virt. eigenvalues --    0.51344   0.52188   0.52699   0.53004   0.53393
 Alpha virt. eigenvalues --    0.54246   0.54855   0.55615   0.55928   0.56140
 Alpha virt. eigenvalues --    0.56953   0.57104   0.57180   0.57764   0.58099
 Alpha virt. eigenvalues --    0.58372   0.58685   0.58808   0.59039   0.59596
 Alpha virt. eigenvalues --    0.59975   0.60344   0.60892   0.61420   0.61900
 Alpha virt. eigenvalues --    0.62139   0.63063   0.63452   0.63913   0.64122
 Alpha virt. eigenvalues --    0.64410   0.65841   0.65976   0.67039   0.67238
 Alpha virt. eigenvalues --    0.67809   0.68681   0.69828   0.70147   0.70349
 Alpha virt. eigenvalues --    0.70613   0.71074   0.71539   0.71680   0.72382
 Alpha virt. eigenvalues --    0.73151   0.73619   0.73976   0.74215   0.75109
 Alpha virt. eigenvalues --    0.75322   0.75720   0.76181   0.76739   0.77646
 Alpha virt. eigenvalues --    0.77945   0.78233   0.80095   0.80399   0.81190
 Alpha virt. eigenvalues --    0.81469   0.81892   0.82930   0.83680   0.84110
 Alpha virt. eigenvalues --    0.84472   0.84902   0.85608   0.85721   0.86031
 Alpha virt. eigenvalues --    0.86540   0.86888   0.87017   0.87722   0.88482
 Alpha virt. eigenvalues --    0.88590   0.88783   0.89692   0.90007   0.90373
 Alpha virt. eigenvalues --    0.90480   0.90916   0.91234   0.91639   0.92026
 Alpha virt. eigenvalues --    0.92431   0.92675   0.93269   0.93525   0.93994
 Alpha virt. eigenvalues --    0.94328   0.94886   0.95637   0.96033   0.96295
 Alpha virt. eigenvalues --    0.96892   0.97657   0.97840   0.98668   0.99053
 Alpha virt. eigenvalues --    0.99316   1.00120   1.00652   1.01902   1.02760
 Alpha virt. eigenvalues --    1.03873   1.05239   1.05522   1.06264   1.06671
 Alpha virt. eigenvalues --    1.07318   1.08575   1.08789   1.09269   1.09689
 Alpha virt. eigenvalues --    1.11741   1.12581   1.14069   1.14408   1.14758
 Alpha virt. eigenvalues --    1.15663   1.16137   1.16584   1.17123   1.17760
 Alpha virt. eigenvalues --    1.18320   1.19227   1.19904   1.20290   1.20848
 Alpha virt. eigenvalues --    1.21278   1.22127   1.22401   1.23179   1.23672
 Alpha virt. eigenvalues --    1.24284   1.25506   1.25942   1.26633   1.28650
 Alpha virt. eigenvalues --    1.29169   1.31068   1.31520   1.32478   1.33158
 Alpha virt. eigenvalues --    1.33469   1.33611   1.33945   1.34189   1.35201
 Alpha virt. eigenvalues --    1.35471   1.36941   1.37061   1.37388   1.37760
 Alpha virt. eigenvalues --    1.38561   1.39166   1.39424   1.39824   1.40208
 Alpha virt. eigenvalues --    1.40543   1.41455   1.41912   1.42783   1.43135
 Alpha virt. eigenvalues --    1.43690   1.44109   1.45405   1.46123   1.46876
 Alpha virt. eigenvalues --    1.47583   1.48424   1.50480   1.50662   1.51591
 Alpha virt. eigenvalues --    1.51919   1.54042   1.54785   1.56097   1.57132
 Alpha virt. eigenvalues --    1.58999   1.60168   1.61714   1.62411   1.63298
 Alpha virt. eigenvalues --    1.63537   1.64352   1.64959   1.65865   1.66931
 Alpha virt. eigenvalues --    1.67574   1.68146   1.68995   1.69094   1.70391
 Alpha virt. eigenvalues --    1.70397   1.71306   1.71867   1.72960   1.73343
 Alpha virt. eigenvalues --    1.74389   1.74593   1.75807   1.76060   1.77058
 Alpha virt. eigenvalues --    1.78109   1.78623   1.79013   1.79356   1.80533
 Alpha virt. eigenvalues --    1.80628   1.80826   1.82762   1.83430   1.83806
 Alpha virt. eigenvalues --    1.84295   1.84516   1.84777   1.85979   1.86801
 Alpha virt. eigenvalues --    1.87166   1.87248   1.87377   1.88779   1.89335
 Alpha virt. eigenvalues --    1.90044   1.90624   1.91942   1.92258   1.92755
 Alpha virt. eigenvalues --    1.92805   1.93179   1.93761   1.93828   1.95088
 Alpha virt. eigenvalues --    1.95394   1.95704   1.97531   1.98550   1.98788
 Alpha virt. eigenvalues --    1.99190   2.00572   2.00996   2.01541   2.02132
 Alpha virt. eigenvalues --    2.02247   2.02334   2.02589   2.03203   2.03394
 Alpha virt. eigenvalues --    2.04133   2.04696   2.06156   2.06569   2.06920
 Alpha virt. eigenvalues --    2.07213   2.07597   2.07926   2.07997   2.08899
 Alpha virt. eigenvalues --    2.08986   2.09328   2.09657   2.09789   2.10198
 Alpha virt. eigenvalues --    2.11221   2.11327   2.12065   2.13249   2.13582
 Alpha virt. eigenvalues --    2.13923   2.14561   2.15475   2.15925   2.16407
 Alpha virt. eigenvalues --    2.16703   2.17646   2.18694   2.18973   2.19602
 Alpha virt. eigenvalues --    2.20658   2.21046   2.21818   2.22308   2.22965
 Alpha virt. eigenvalues --    2.23119   2.23341   2.23875   2.25347   2.25785
 Alpha virt. eigenvalues --    2.26553   2.26651   2.27138   2.27554   2.28338
 Alpha virt. eigenvalues --    2.30964   2.31297   2.31881   2.32013   2.33040
 Alpha virt. eigenvalues --    2.33458   2.34269   2.34895   2.38239   2.38703
 Alpha virt. eigenvalues --    2.39089   2.41620   2.42597   2.43584   2.44715
 Alpha virt. eigenvalues --    2.45399   2.47557   2.47667   2.48086   2.48392
 Alpha virt. eigenvalues --    2.48838   2.49141   2.49699   2.52192   2.58078
 Alpha virt. eigenvalues --    2.58627   2.59271   2.59575   2.60413   2.61259
 Alpha virt. eigenvalues --    2.63355   2.64196   2.64597   2.65292   2.66256
 Alpha virt. eigenvalues --    2.68611   2.72861   2.75903   2.76067   2.76694
 Alpha virt. eigenvalues --    2.78078   2.78142   2.78779   2.79313   2.79677
 Alpha virt. eigenvalues --    2.80020   2.80894   2.81100   2.83529   2.84952
 Alpha virt. eigenvalues --    2.85329   2.85655   2.87149   2.88101   2.89770
 Alpha virt. eigenvalues --    2.90904   2.91866   2.95507   2.96082   3.01821
 Alpha virt. eigenvalues --    3.03412   3.04082   3.04561   3.05036   3.05415
 Alpha virt. eigenvalues --    3.07570   3.09819   3.10544   3.11258   3.14822
 Alpha virt. eigenvalues --    3.15799   3.24977   3.29922   3.42929   8.31587
          Condensed to atoms (all electrons):
 Mulliken charges:
               1
     1  C    0.054041
     2  C   -0.084542
     3  C   -0.152254
     4  C   -0.194912
     5  C   -0.198320
     6  C   -0.145666
     7  C   -0.079008
     8  C    0.054893
     9  H    0.251005
    10  C    0.318925
    11  C    0.301598
    12  C    0.306262
    13  C    0.295491
    14  C   -0.517482
    15  H    0.177007
    16  H    0.155167
    17  H    0.154480
    18  C   -0.508552
    19  H    0.162377
    20  H    0.148678
    21  H    0.176433
    22  C   -0.509984
    23  H    0.170964
    24  H    0.145102
    25  H    0.168933
    26  C   -0.505677
    27  H    0.183853
    28  H    0.141822
    29  H    0.162051
    30  B    0.384342
    31  N   -0.509229
    32  N   -0.603305
    33  O   -0.526999
    34  O   -0.502096
    35  Ir  -0.038355
    36  B    0.445657
    37  O   -0.533755
    38  O   -0.504915
    39  C    0.299242
    40  C    0.296650
    41  C   -0.511084
    42  C   -0.511525
    43  C   -0.510660
    44  C   -0.504860
    45  H    0.178529
    46  H    0.152960
    47  H    0.159164
    48  H    0.166255
    49  H    0.151438
    50  H    0.175084
    51  H    0.170229
    52  H    0.149867
    53  H    0.171899
    54  H    0.182704
    55  H    0.148457
    56  H    0.167139
    57  H    0.240593
    58  H    0.122797
    59  H    0.202837
    60  H    0.179435
    61  H    0.183057
    62  H    0.206579
    63  C    0.972113
    64  F   -0.306457
    65  F   -0.305098
    66  F   -0.317218
    67  C    0.975319
    68  F   -0.307010
    69  F   -0.305268
    70  F   -0.317193
 Sum of Mulliken charges =  -0.00000
 Mulliken charges with hydrogens summed into heavy atoms:
               1
     1  C    0.294634
     2  C   -0.084542
     3  C    0.050583
     4  C   -0.015476
     5  C   -0.015263
     6  C    0.060912
     7  C   -0.079008
     8  C    0.305897
    10  C    0.318925
    11  C    0.301598
    12  C    0.306262
    13  C    0.295491
    14  C   -0.030828
    18  C   -0.021065
    22  C   -0.024985
    26  C   -0.017950
    30  B    0.384342
    31  N   -0.509229
    32  N   -0.603305
    33  O   -0.526999
    34  O   -0.502096
    35  Ir   0.084442
    36  B    0.445657
    37  O   -0.533755
    38  O   -0.504915
    39  C    0.299242
    40  C    0.296650
    41  C   -0.020431
    42  C   -0.018749
    43  C   -0.018665
    44  C   -0.006561
    63  C    0.972113
    64  F   -0.306457
    65  F   -0.305098
    66  F   -0.317218
    67  C    0.975319
    68  F   -0.307010
    69  F   -0.305268
    70  F   -0.317193
 APT charges:
               1
     1  C    0.015911
     2  C   -0.133162
     3  C    0.038032
     4  C   -0.168806
     5  C   -0.206679
     6  C    0.084926
     7  C   -0.172089
     8  C    0.008360
     9  H    0.175449
    10  C    0.194906
    11  C    0.139872
    12  C    0.527842
    13  C    0.507127
    14  C   -0.040308
    15  H    0.006832
    16  H   -0.021470
    17  H   -0.016332
    18  C   -0.015283
    19  H   -0.003843
    20  H   -0.020253
    21  H    0.005326
    22  C   -0.006357
    23  H   -0.003015
    24  H   -0.023397
    25  H    0.000242
    26  C   -0.048001
    27  H    0.026164
    28  H   -0.032197
    29  H   -0.001926
    30  B    1.318917
    31  N   -0.051002
    32  N   -0.056791
    33  O   -1.034597
    34  O   -1.036251
    35  Ir  -0.654247
    36  B    1.338408
    37  O   -1.001196
    38  O   -1.020162
    39  C    0.507809
    40  C    0.517964
    41  C   -0.036760
    42  C   -0.015612
    43  C   -0.012132
    44  C   -0.040890
    45  H    0.003261
    46  H   -0.014341
    47  H   -0.012345
    48  H   -0.002555
    49  H   -0.015448
    50  H    0.005841
    51  H    0.000879
    52  H   -0.016526
    53  H    0.003912
    54  H    0.013977
    55  H   -0.024681
    56  H    0.008263
    57  H    0.115531
    58  H   -0.050729
    59  H    0.072041
    60  H    0.046248
    61  H    0.048703
    62  H    0.072318
    63  C    1.843325
    64  F   -0.577966
    65  F   -0.572338
    66  F   -0.595144
    67  C    1.813222
    68  F   -0.547174
    69  F   -0.569223
    70  F   -0.590379
 Sum of APT charges =  -0.00000
 APT charges with hydrogens summed into heavy atoms:
               1
     1  C    0.131442
     2  C   -0.133162
     3  C    0.110072
     4  C   -0.122558
     5  C   -0.157976
     6  C    0.157244
     7  C   -0.172089
     8  C    0.183810
    10  C    0.194906
    11  C    0.139872
    12  C    0.527842
    13  C    0.507127
    14  C   -0.071277
    18  C   -0.034053
    22  C   -0.032527
    26  C   -0.055960
    30  B    1.318917
    31  N   -0.051002
    32  N   -0.056791
    33  O   -1.034597
    34  O   -1.036251
    35  Ir  -0.704975
    36  B    1.338408
    37  O   -1.001196
    38  O   -1.020162
    39  C    0.507809
    40  C    0.517964
    41  C   -0.060185
    42  C   -0.027775
    43  C   -0.023868
    44  C   -0.043332
    63  C    1.843325
    64  F   -0.577966
    65  F   -0.572338
    66  F   -0.595144
    67  C    1.813222
    68  F   -0.547174
    69  F   -0.569223
    70  F   -0.590379
 Electronic spatial extent (au):  <R**2>=          22340.7557
 Charge=             -0.0000 electrons
 Dipole moment (field-independent basis, Debye):
    X=              1.4151    Y=             -6.1195    Z=              2.5808  Tot=              6.7905
 Quadrupole moment (field-independent basis, Debye-Ang):
   XX=           -242.9486   YY=           -203.5042   ZZ=           -246.5074
   XY=             -6.1663   XZ=              5.4126   YZ=              0.0520
 Traceless Quadrupole moment (field-independent basis, Debye-Ang):
   XX=            -11.9619   YY=             27.4825   ZZ=            -15.5206
   XY=             -6.1663   XZ=              5.4126   YZ=              0.0520
 Octapole moment (field-independent basis, Debye-Ang**2):
  XXX=            -19.9194  YYY=           -175.6590  ZZZ=            -70.0326  XYY=             42.0985
  XXY=             10.0725  XXZ=            -20.7870  XZZ=             12.5678  YZZ=            -18.8174
  YYZ=              8.9587  XYZ=             -0.7529
 Hexadecapole moment (field-independent basis, Debye-Ang**3):
 XXXX=         -15384.5174 YYYY=          -9961.0520 ZZZZ=          -1802.2294 XXXY=            -71.7450
 XXXZ=            -16.5449 YYYX=             76.7839 YYYZ=           -124.6988 ZZZX=           -118.9541
 ZZZY=            -20.1863 XXYY=          -4118.3044 XXZZ=          -2811.9090 YYZZ=          -2109.5044
 XXYZ=            -23.1228 YYXZ=             12.6813 ZZXY=             71.4570
 N-N= 5.187067685718D+03 E-N=-1.526045591705D+04  KE= 2.013039529994D+03
  Exact polarizability:     441.587     -12.946     415.749       0.883     -22.745     227.808
 Approx polarizability:     611.529     -14.169     581.965      -8.584     -51.382     380.153
   1 Symmetry operations used in ECPInt.
 ECPInt:  NShTT=   24753 NPrTT=  156749 LenC2=   18668 LenP2D=   61840.
 LDataN:  DoStor=T MaxTD1= 8 Len=  415
 Calling FoFJK, ICntrl=    100127 FMM=F ISym2X=0 I1Cent= 0 IOpClX= 0 NMat=1 NMatS=1 NMatT=0.
 Defaulting to unpruned grid for atomic number  77.
 Defaulting to unpruned grid for atomic number  77.
 Defaulting to unpruned grid for atomic number  77.
 Defaulting to unpruned grid for atomic number  77.
 Defaulting to unpruned grid for atomic number  77.
 Defaulting to unpruned grid for atomic number  77.
 Defaulting to unpruned grid for atomic number  77.
 Defaulting to unpruned grid for atomic number  77.
 Defaulting to unpruned grid for atomic number  77.
 Defaulting to unpruned grid for atomic number  77.
 Defaulting to unpruned grid for atomic number  77.
 Defaulting to unpruned grid for atomic number  77.
 Defaulting to unpruned grid for atomic number  77.
 Defaulting to unpruned grid for atomic number  77.
 Defaulting to unpruned grid for atomic number  77.
 Defaulting to unpruned grid for atomic number  77.
 Full mass-weighted force constant matrix:
 Low frequencies ---   -2.0571   -0.0005   -0.0003    0.0005    3.2370    6.4704
 Low frequencies ---   14.3644   22.1706   28.7154
 Diagonal vibrational polarizability:
       64.6675965      63.6221561     111.8973045
 Harmonic frequencies (cm**-1), IR intensities (KM/Mole), Raman scattering
 activities (A**4/AMU), depolarization ratios for plane and unpolarized
 incident light, reduced masses (AMU), force constants (mDyne/A),
 and normal coordinates:
                      1                      2                      3
                      A                      A                      A
 Frequencies --     14.3082                22.1659                28.7089
 Red. masses --      6.7869                 7.5859                 6.9658
 Frc consts  --      0.0008                 0.0022                 0.0034
 IR Inten    --      0.1946                 0.3964                 0.4436
  Atom AN      X      Y      Z        X      Y      Z        X      Y      Z
     1   6     0.00   0.00   0.07     0.01   0.02   0.03    -0.01  -0.02  -0.06
     2   6    -0.00  -0.02   0.04     0.00  -0.02  -0.03    -0.00   0.03   0.02
     3   6    -0.01  -0.04  -0.02    -0.01  -0.06  -0.14     0.01   0.09   0.17
     4   6    -0.01  -0.03  -0.03    -0.01  -0.06  -0.17     0.02   0.08   0.20
     5   6    -0.01  -0.03  -0.07    -0.01  -0.02  -0.12     0.02   0.03   0.16
     6   6    -0.02  -0.03  -0.10    -0.01  -0.01  -0.08     0.01   0.01   0.11
     7   6    -0.02  -0.03  -0.08     0.01  -0.00  -0.01    -0.00  -0.00   0.01
     8   6    -0.01  -0.02  -0.02     0.01  -0.00  -0.00    -0.01  -0.01  -0.02
     9   1    -0.01  -0.02   0.00     0.02   0.01   0.04    -0.02  -0.02  -0.07
    10   6    -0.01  -0.02  -0.02    -0.01  -0.02  -0.10     0.01   0.02   0.10
    11   6    -0.01  -0.01   0.00    -0.00  -0.02  -0.10     0.01   0.03   0.10
    12   6    -0.02  -0.01   0.06    -0.01   0.00   0.02     0.01   0.00   0.04
    13   6    -0.01  -0.01   0.07    -0.02  -0.03  -0.04     0.02   0.03   0.08
    14   6    -0.02  -0.00   0.05    -0.03  -0.03   0.07     0.00   0.04   0.01
    15   1    -0.01   0.00   0.05    -0.05  -0.07   0.07    -0.01   0.08  -0.01
    16   1    -0.01   0.00   0.05    -0.03  -0.03   0.07     0.00   0.05   0.04
    17   1    -0.02  -0.00   0.04    -0.03  -0.00   0.11     0.01   0.02  -0.03
    18   6    -0.02  -0.02   0.06     0.02   0.05   0.02     0.02  -0.04   0.05
    19   1    -0.02  -0.02   0.06     0.04   0.07   0.07     0.02  -0.05   0.02
    20   1    -0.02  -0.02   0.07     0.02   0.04   0.02     0.03  -0.02   0.09
    21   1    -0.02  -0.03   0.07     0.04   0.08  -0.01     0.03  -0.07   0.07
    22   6    -0.01   0.00   0.08    -0.05  -0.07  -0.05     0.01   0.08   0.11
    23   1    -0.01   0.01   0.09    -0.06  -0.09  -0.09     0.02   0.09   0.14
    24   1    -0.01   0.00   0.08    -0.04  -0.05  -0.04     0.02   0.07   0.13
    25   1    -0.01   0.01   0.07    -0.07  -0.10  -0.01     0.00   0.11   0.08
    26   6    -0.01  -0.02   0.08     0.00   0.01  -0.10     0.03  -0.02   0.12
    27   1    -0.01  -0.02   0.08     0.02   0.04  -0.09     0.03  -0.05   0.09
    28   1    -0.01  -0.02   0.09     0.01   0.03  -0.11     0.04  -0.03   0.15
    29   1    -0.01  -0.01   0.09    -0.01  -0.02  -0.14     0.03   0.01   0.14
    30   5    -0.02  -0.01   0.07    -0.02  -0.02  -0.00     0.01   0.01  -0.00
    31   7     0.00   0.01   0.06     0.00   0.01  -0.01    -0.01  -0.02  -0.02
    32   7    -0.01  -0.01   0.01     0.00  -0.01  -0.04    -0.01   0.01   0.02
    33   8    -0.02  -0.02   0.06     0.00   0.01   0.02     0.01  -0.02  -0.00
    34   8    -0.02  -0.01   0.07    -0.04  -0.05  -0.04     0.01   0.04   0.04
    35  77    -0.01  -0.00   0.07     0.00   0.00   0.01    -0.01  -0.01  -0.04
    36   5     0.02   0.05  -0.04     0.00   0.04  -0.04     0.00  -0.05  -0.00
    37   8     0.03   0.04  -0.07     0.01   0.00   0.00     0.01  -0.07   0.01
    38   8     0.04   0.08  -0.08     0.00   0.08  -0.09     0.02  -0.03  -0.01
    39   6     0.05   0.08  -0.11    -0.01  -0.01   0.02     0.01  -0.04  -0.02
    40   6     0.05   0.09  -0.13     0.02   0.04  -0.05     0.02  -0.03  -0.05
    41   6     0.06   0.12  -0.08    -0.10  -0.01   0.03     0.00  -0.00   0.01
    42   6     0.05   0.05  -0.16     0.04  -0.06   0.08     0.02  -0.07  -0.04
    43   6     0.08   0.15  -0.15    -0.02   0.06  -0.07     0.03   0.03  -0.08
    44   6     0.05   0.05  -0.17     0.11   0.04  -0.06     0.03  -0.07  -0.10
    45   1     0.06   0.14  -0.05    -0.14   0.02  -0.01    -0.00   0.03   0.03
    46   1     0.07   0.15  -0.11    -0.12  -0.03   0.05     0.02   0.02  -0.02
    47   1     0.05   0.11  -0.06    -0.12  -0.04   0.07    -0.01  -0.02   0.04
    48   1     0.04   0.04  -0.14     0.01  -0.10   0.11     0.02  -0.07  -0.01
    49   1     0.07   0.07  -0.19     0.04  -0.07   0.09     0.02  -0.04  -0.07
    50   1     0.04   0.02  -0.17     0.11  -0.05   0.07     0.02  -0.10  -0.06
    51   1     0.08   0.15  -0.16     0.00   0.09  -0.11     0.04   0.03  -0.10
    52   1     0.08   0.15  -0.19    -0.01   0.03  -0.03     0.04   0.03  -0.10
    53   1     0.08   0.18  -0.12    -0.09   0.07  -0.07     0.03   0.06  -0.04
    54   1     0.04   0.01  -0.16     0.16   0.03  -0.04     0.02  -0.12  -0.08
    55   1     0.05   0.05  -0.21     0.12   0.02  -0.01     0.03  -0.07  -0.13
    56   1     0.05   0.05  -0.18     0.12   0.06  -0.12     0.03  -0.07  -0.11
    57   1     0.01   0.02   0.12     0.01   0.05   0.11    -0.03  -0.06  -0.18
    58   1    -0.01   0.02   0.08     0.01   0.04   0.05    -0.03  -0.03  -0.06
    59   1    -0.02  -0.06  -0.04    -0.01  -0.09  -0.19     0.02   0.13   0.24
    60   1    -0.02  -0.05  -0.07    -0.02  -0.10  -0.25     0.03   0.13   0.30
    61   1    -0.01  -0.03  -0.09    -0.02  -0.03  -0.17     0.04   0.04   0.22
    62   1    -0.02  -0.04  -0.15    -0.01  -0.01  -0.09     0.02   0.02   0.14
    63   6     0.00  -0.03   0.04     0.00   0.00   0.06    -0.01   0.04   0.00
    64   9     0.01  -0.07   0.03     0.01   0.25   0.13    -0.09   0.23   0.04
    65   9    -0.00  -0.01   0.01     0.00  -0.15   0.27     0.05  -0.07   0.15
    66   9    -0.01  -0.02   0.07    -0.00  -0.07  -0.12     0.01  -0.01  -0.19
    67   6    -0.02  -0.04  -0.11     0.01   0.01   0.06    -0.01  -0.01  -0.05
    68   9    -0.04  -0.08  -0.08     0.06   0.01   0.08    -0.06  -0.03  -0.06
    69   9     0.00  -0.00  -0.11    -0.04   0.01   0.09     0.04   0.00  -0.08
    70   9    -0.03  -0.06  -0.16     0.03   0.01   0.08    -0.03  -0.02  -0.09
                      4                      5                      6
                      A                      A                      A
 Frequencies --     32.9894                37.8646                48.9375
 Red. masses --      7.5165                 4.1660                 4.5970
 Frc consts  --      0.0048                 0.0035                 0.0065
 IR Inten    --      0.0350                 0.6327                 1.3225
  Atom AN      X      Y      Z        X      Y      Z        X      Y      Z
     1   6    -0.01   0.02   0.03     0.00   0.00   0.00    -0.03  -0.02  -0.04
     2   6     0.00  -0.00  -0.05     0.01   0.01   0.02    -0.02  -0.00  -0.04
     3   6     0.01  -0.01  -0.07     0.01   0.03   0.05    -0.00  -0.01  -0.05
     4   6     0.02  -0.00  -0.01     0.01   0.03   0.07     0.00  -0.03  -0.04
     5   6     0.01   0.02   0.10     0.01   0.01   0.03    -0.02  -0.03  -0.05
     6   6     0.01   0.01   0.07     0.01   0.00   0.00    -0.02  -0.02  -0.05
     7   6    -0.00   0.00   0.03     0.00  -0.00  -0.01    -0.01  -0.01   0.00
     8   6    -0.00   0.00   0.04     0.00   0.00   0.01     0.00  -0.00   0.05
     9   1    -0.01  -0.00   0.01    -0.00  -0.00   0.01     0.02   0.01   0.09
    10   6     0.01   0.01   0.09     0.01   0.01   0.04    -0.01  -0.03  -0.01
    11   6     0.01   0.01   0.06     0.01   0.02   0.05    -0.01  -0.03  -0.03
    12   6    -0.05  -0.01  -0.12     0.02   0.04   0.07     0.04   0.04  -0.01
    13   6    -0.01  -0.02  -0.09    -0.01  -0.02  -0.06     0.05   0.02  -0.05
    14   6     0.01  -0.04  -0.15    -0.06   0.00   0.19     0.04   0.02   0.02
    15   1     0.07  -0.04  -0.12    -0.12  -0.09   0.19     0.05  -0.02   0.03
    16   1     0.02  -0.06  -0.21    -0.05   0.01   0.20     0.05   0.01  -0.01
    17   1    -0.00  -0.04  -0.16    -0.06   0.06   0.28     0.03   0.04   0.05
    18   6    -0.13   0.00  -0.17     0.12   0.14   0.10     0.04   0.09  -0.03
    19   1    -0.15   0.01  -0.18     0.14   0.18   0.19     0.04   0.10   0.00
    20   1    -0.12  -0.01  -0.23     0.11   0.13   0.11     0.04   0.08  -0.05
    21   1    -0.18   0.03  -0.14     0.18   0.18   0.02     0.04   0.11  -0.04
    22   6     0.04  -0.04  -0.15    -0.07  -0.10  -0.06     0.06  -0.03  -0.08
    23   1     0.07  -0.04  -0.13    -0.09  -0.15  -0.16     0.07  -0.05  -0.11
    24   1     0.02  -0.04  -0.20    -0.05  -0.06  -0.04     0.06  -0.02  -0.12
    25   1     0.09  -0.05  -0.15    -0.12  -0.16   0.02     0.07  -0.07  -0.05
    26   6    -0.06  -0.01  -0.08     0.05   0.05  -0.17     0.03   0.06  -0.08
    27   1    -0.10   0.01  -0.05     0.09   0.11  -0.17     0.03   0.09  -0.06
    28   1    -0.08   0.00  -0.13     0.08   0.09  -0.17     0.02   0.06  -0.11
    29   1    -0.03  -0.02  -0.06     0.02  -0.00  -0.26     0.02   0.05  -0.10
    30   5    -0.02  -0.01   0.01    -0.01  -0.01  -0.01     0.04   0.02   0.02
    31   7    -0.01   0.03   0.09     0.00   0.01   0.02    -0.02  -0.03  -0.03
    32   7     0.00   0.01   0.07     0.00   0.01   0.03     0.00  -0.02   0.04
    33   8    -0.06   0.00  -0.04     0.04   0.05   0.05     0.03   0.05   0.02
    34   8     0.02  -0.03  -0.02    -0.05  -0.06  -0.07     0.06   0.01  -0.00
    35  77    -0.00   0.00   0.09    -0.00  -0.00   0.00     0.01  -0.02   0.02
    36   5     0.01   0.04   0.00    -0.01   0.01  -0.03    -0.01  -0.07   0.13
    37   8     0.01   0.04  -0.03    -0.01   0.01  -0.02    -0.02  -0.06   0.11
    38   8     0.03   0.05   0.01    -0.01   0.02  -0.03    -0.01  -0.09   0.15
    39   6     0.04   0.00   0.00    -0.01  -0.02   0.01    -0.00   0.03   0.02
    40   6     0.05   0.02   0.04    -0.00  -0.01   0.01    -0.04  -0.02   0.02
    41   6     0.04  -0.05  -0.03    -0.03  -0.06  -0.01     0.10   0.14   0.07
    42   6     0.05  -0.01   0.01     0.00  -0.02   0.04    -0.06   0.05  -0.11
    43   6     0.06  -0.04   0.07    -0.02  -0.05   0.03     0.01   0.08  -0.01
    44   6     0.06   0.06   0.09     0.03   0.03   0.05    -0.15  -0.11  -0.06
    45   1     0.04  -0.06  -0.05    -0.04  -0.06  -0.04     0.14   0.15   0.17
    46   1     0.04  -0.08  -0.01    -0.05  -0.08   0.01     0.15   0.21  -0.01
    47   1     0.03  -0.05  -0.06    -0.03  -0.05  -0.02     0.10   0.14   0.07
    48   1     0.03  -0.03  -0.03    -0.00  -0.02   0.04    -0.04   0.08  -0.10
    49   1     0.08  -0.05   0.04    -0.00  -0.04   0.07    -0.05   0.12  -0.18
    50   1     0.04   0.04   0.03     0.02   0.01   0.05    -0.14  -0.03  -0.13
    51   1     0.07  -0.03   0.10    -0.00  -0.03   0.04    -0.02   0.03  -0.00
    52   1     0.07  -0.06   0.09    -0.01  -0.07   0.07    -0.01   0.14  -0.11
    53   1     0.06  -0.07   0.04    -0.04  -0.07   0.00     0.10   0.13   0.06
    54   1     0.05   0.10   0.07     0.04   0.06   0.04    -0.21  -0.18  -0.04
    55   1     0.07   0.05   0.12     0.04   0.01   0.09    -0.16  -0.07  -0.18
    56   1     0.07   0.08   0.11     0.04   0.05   0.05    -0.16  -0.14  -0.02
    57   1    -0.03   0.03   0.06     0.00  -0.01  -0.02    -0.04  -0.02  -0.04
    58   1     0.01   0.01   0.09    -0.01  -0.02  -0.02     0.01  -0.06  -0.01
    59   1     0.02  -0.03  -0.13     0.01   0.04   0.07     0.01  -0.00  -0.05
    60   1     0.03  -0.01  -0.02     0.01   0.04   0.10     0.01  -0.04  -0.05
    61   1     0.02   0.02   0.13     0.02   0.01   0.04    -0.03  -0.04  -0.09
    62   1     0.01   0.01   0.08     0.01  -0.00  -0.01    -0.04  -0.02  -0.09
    63   6    -0.00  -0.01  -0.12     0.01   0.00  -0.02    -0.03   0.04  -0.02
    64   9    -0.09   0.08  -0.11    -0.01  -0.03  -0.03    -0.04   0.09  -0.01
    65   9     0.06  -0.06  -0.06     0.02   0.02  -0.04    -0.06   0.02   0.01
    66   9     0.01  -0.04  -0.25     0.01   0.01  -0.01    -0.00   0.05  -0.05
    67   6    -0.01  -0.01  -0.04    -0.00  -0.01  -0.05    -0.01   0.00  -0.00
    68   9    -0.07  -0.00  -0.07    -0.02  -0.08   0.01    -0.01  -0.03   0.03
    69   9     0.04  -0.04  -0.07     0.03   0.07  -0.04    -0.00   0.05   0.00
    70   9    -0.02  -0.01  -0.04    -0.02  -0.04  -0.15    -0.03  -0.01  -0.05
                      7                      8                      9
                      A                      A                      A
 Frequencies --     62.7259                67.0553                70.6419
 Red. masses --      5.0296                 4.7966                 9.9155
 Frc consts  --      0.0117                 0.0127                 0.0292
 IR Inten    --      0.1391                 0.4811                 0.0330
  Atom AN      X      Y      Z        X      Y      Z        X      Y      Z
     1   6    -0.03  -0.01  -0.03    -0.01  -0.01  -0.08    -0.00   0.01  -0.01
     2   6    -0.01   0.00  -0.06    -0.01   0.02  -0.01    -0.00   0.02   0.02
     3   6     0.01  -0.02  -0.09    -0.02   0.06   0.08     0.00   0.04   0.06
     4   6     0.02  -0.03  -0.07    -0.02   0.06   0.07     0.00   0.04   0.06
     5   6    -0.00  -0.01   0.09     0.00   0.01  -0.06     0.01  -0.01  -0.06
     6   6    -0.00   0.00   0.09     0.00  -0.00  -0.06     0.02  -0.03  -0.06
     7   6    -0.00   0.00   0.02    -0.00  -0.01  -0.03     0.01  -0.03  -0.01
     8   6     0.00  -0.01  -0.02    -0.02   0.00  -0.01    -0.00  -0.02   0.02
     9   1     0.01  -0.01  -0.06    -0.02  -0.00   0.01    -0.01  -0.02   0.05
    10   6     0.00  -0.03   0.02    -0.01   0.02  -0.03     0.00   0.00  -0.01
    11   6     0.00  -0.03  -0.02    -0.01   0.03  -0.01     0.00   0.02   0.01
    12   6     0.02   0.02   0.01    -0.02  -0.02   0.00    -0.03   0.02  -0.09
    13   6     0.06   0.01   0.02    -0.06  -0.02  -0.02     0.03   0.04  -0.01
    14   6     0.01   0.04  -0.01     0.02  -0.08   0.01     0.02   0.04  -0.16
    15   1     0.01   0.05  -0.01     0.05  -0.10   0.04     0.06   0.06  -0.14
    16   1     0.02   0.06   0.00     0.01  -0.11  -0.03     0.03   0.05  -0.19
    17   1    -0.00   0.04  -0.02     0.03  -0.07   0.03    -0.00   0.03  -0.18
    18   6     0.03   0.02   0.01    -0.06  -0.01  -0.02    -0.10  -0.02  -0.13
    19   1     0.00   0.03  -0.00    -0.03  -0.01  -0.00    -0.13  -0.03  -0.18
    20   1     0.05   0.05   0.01    -0.08  -0.05  -0.06    -0.08  -0.01  -0.15
    21   1     0.03  -0.00   0.02    -0.09   0.04  -0.03    -0.14  -0.04  -0.07
    22   6     0.08   0.04   0.03    -0.07  -0.08  -0.05     0.09   0.10  -0.03
    23   1     0.10   0.03   0.04    -0.10  -0.07  -0.07     0.13   0.10   0.03
    24   1     0.09   0.07   0.03    -0.09  -0.11  -0.08     0.08   0.10  -0.06
    25   1     0.06   0.06   0.02    -0.03  -0.12  -0.03     0.12   0.13  -0.07
    26   6     0.08  -0.02   0.04    -0.10   0.03  -0.05    -0.00  -0.01   0.06
    27   1     0.06  -0.04   0.04    -0.09   0.07  -0.04    -0.05  -0.05   0.07
    28   1     0.09   0.00   0.04    -0.12   0.01  -0.07    -0.01  -0.02   0.04
    29   1     0.10  -0.03   0.05    -0.12   0.03  -0.07     0.04   0.00   0.12
    30   5     0.02  -0.02   0.02    -0.00   0.03   0.04    -0.01   0.01  -0.01
    31   7    -0.02  -0.02  -0.01    -0.01   0.00  -0.07    -0.00   0.01  -0.01
    32   7     0.00  -0.02  -0.02    -0.02   0.02  -0.02    -0.01  -0.00   0.02
    33   8     0.00  -0.01   0.01     0.00   0.03   0.04    -0.06  -0.01  -0.06
    34   8     0.04  -0.02   0.02    -0.03   0.01   0.01     0.04   0.04   0.02
    35  77     0.01  -0.04   0.02    -0.01   0.04   0.00    -0.02   0.00   0.00
    36   5     0.01  -0.00  -0.03     0.03  -0.03   0.07    -0.00   0.01  -0.03
    37   8     0.02  -0.02   0.05     0.04  -0.11   0.12     0.00  -0.01  -0.02
    38   8    -0.02   0.04  -0.10     0.06   0.02   0.03     0.01   0.02  -0.04
    39   6    -0.04  -0.01   0.07     0.05  -0.07   0.08     0.00  -0.03   0.00
    40   6    -0.03   0.02  -0.05     0.09  -0.01  -0.01     0.02  -0.00  -0.02
    41   6    -0.17  -0.01   0.10     0.01  -0.01   0.12    -0.05  -0.05   0.00
    42   6     0.01  -0.03   0.18     0.08  -0.12   0.07     0.03  -0.05   0.05
    43   6    -0.12   0.08  -0.10     0.09   0.10  -0.05     0.01   0.01  -0.03
    44   6     0.08  -0.01  -0.10     0.15  -0.08  -0.08     0.07  -0.00  -0.03
    45   1    -0.21   0.03   0.04    -0.02   0.06   0.15    -0.07  -0.04  -0.03
    46   1    -0.20  -0.02   0.12     0.04   0.02   0.09    -0.06  -0.07   0.02
    47   1    -0.18  -0.04   0.15    -0.03  -0.06   0.16    -0.06  -0.07   0.01
    48   1     0.02  -0.02   0.29     0.08  -0.12   0.16     0.02  -0.06   0.07
    49   1    -0.07  -0.01   0.19     0.06  -0.07   0.02     0.01  -0.06   0.06
    50   1     0.11  -0.05   0.16     0.13  -0.19   0.03     0.07  -0.05   0.04
    51   1    -0.10   0.10  -0.19     0.12   0.13  -0.11     0.03   0.03  -0.05
    52   1    -0.12   0.07  -0.05     0.12   0.08  -0.09     0.02  -0.01  -0.01
    53   1    -0.20   0.11  -0.08     0.05   0.16  -0.00    -0.03   0.01  -0.03
    54   1     0.17  -0.05  -0.07     0.18  -0.16  -0.05     0.09  -0.01  -0.02
    55   1     0.07  -0.01  -0.06     0.16  -0.09  -0.12     0.08  -0.01  -0.01
    56   1     0.09  -0.01  -0.21     0.16  -0.06  -0.15     0.08   0.01  -0.06
    57   1    -0.04  -0.00  -0.03    -0.00  -0.04  -0.15    -0.00  -0.00  -0.04
    58   1     0.05  -0.00   0.08    -0.01   0.06   0.03    -0.03  -0.00  -0.01
    59   1     0.03  -0.01  -0.12    -0.02   0.08   0.15     0.00   0.05   0.09
    60   1     0.04  -0.05  -0.09    -0.03   0.09   0.14     0.00   0.05   0.09
    61   1    -0.00  -0.01   0.14     0.01   0.02  -0.09     0.02  -0.01  -0.10
    62   1    -0.01   0.02   0.14     0.01  -0.01  -0.08     0.02  -0.04  -0.10
    63   6    -0.03   0.06  -0.06    -0.01   0.00  -0.02     0.00   0.01   0.00
    64   9    -0.02   0.02  -0.07     0.00  -0.05  -0.04    -0.01  -0.02  -0.01
    65   9    -0.11   0.10  -0.10    -0.01   0.03  -0.06     0.01   0.03  -0.02
    66   9     0.01   0.12   0.00    -0.02   0.02   0.03    -0.00   0.01   0.01
    67   6    -0.01   0.02  -0.01    -0.00  -0.04  -0.00     0.02  -0.04   0.07
    68   9    -0.02   0.04  -0.03    -0.01  -0.02  -0.02     0.12  -0.26   0.34
    69   9     0.03   0.03  -0.03    -0.03  -0.10   0.00    -0.05   0.29   0.20
    70   9    -0.04   0.04  -0.01     0.04  -0.04   0.05     0.01  -0.13  -0.23
                     10                     11                     12
                      A                      A                      A
 Frequencies --     79.6249                89.1903                90.1704
 Red. masses --      6.3823                 6.3616                 6.5169
 Frc consts  --      0.0238                 0.0298                 0.0312
 IR Inten    --      0.0168                 0.1292                 0.4892
  Atom AN      X      Y      Z        X      Y      Z        X      Y      Z
     1   6     0.04   0.00   0.02    -0.02   0.03  -0.04    -0.03  -0.03   0.01
     2   6     0.03  -0.05  -0.07    -0.00   0.06  -0.02    -0.03  -0.02   0.03
     3   6     0.01  -0.09  -0.19     0.02   0.04  -0.05    -0.03  -0.01   0.06
     4   6     0.01  -0.06  -0.16     0.02   0.00  -0.08    -0.04  -0.01   0.05
     5   6     0.05   0.05   0.20     0.01   0.01   0.10    -0.05   0.01   0.06
     6   6     0.05   0.05   0.22     0.01   0.01   0.11    -0.06   0.03   0.04
     7   6     0.03   0.03   0.09    -0.00  -0.01  -0.02    -0.06   0.02  -0.08
     8   6     0.02   0.02   0.02    -0.02  -0.03  -0.14    -0.04  -0.01  -0.17
     9   1     0.00   0.00  -0.05    -0.03  -0.04  -0.20    -0.04  -0.01  -0.23
    10   6     0.03   0.03   0.06     0.00  -0.02  -0.04    -0.04  -0.01  -0.02
    11   6     0.02   0.01  -0.02     0.00  -0.01  -0.06    -0.03  -0.02   0.02
    12   6    -0.04  -0.03  -0.01    -0.05   0.01  -0.00     0.01  -0.12   0.02
    13   6    -0.07  -0.01  -0.01    -0.02  -0.02  -0.01    -0.05  -0.09   0.01
    14   6    -0.06  -0.02   0.00    -0.08   0.03   0.01     0.00  -0.13   0.02
    15   1    -0.09  -0.02  -0.01    -0.09   0.00   0.01     0.02  -0.18   0.05
    16   1    -0.07  -0.01   0.03    -0.06   0.06   0.00     0.03  -0.10  -0.02
    17   1    -0.06  -0.02   0.01    -0.11   0.05   0.02    -0.06  -0.08   0.05
    18   6    -0.01  -0.06   0.02    -0.04   0.05  -0.01     0.02  -0.17   0.04
    19   1     0.01  -0.08   0.02    -0.07   0.07  -0.00     0.09  -0.20   0.05
    20   1    -0.03  -0.07   0.06    -0.01   0.08  -0.02    -0.03  -0.22   0.08
    21   1     0.01  -0.07   0.01    -0.03   0.04  -0.01     0.02  -0.14   0.03
    22   6    -0.10  -0.01   0.02     0.01  -0.01  -0.03    -0.09  -0.15   0.00
    23   1    -0.13   0.01   0.02     0.04  -0.04  -0.04    -0.14  -0.11   0.01
    24   1    -0.10  -0.04   0.04     0.02   0.02  -0.05    -0.12  -0.21  -0.00
    25   1    -0.10  -0.01   0.01    -0.01  -0.02  -0.02    -0.03  -0.17   0.00
    26   6    -0.07  -0.01  -0.00     0.01  -0.01  -0.03    -0.12  -0.06   0.00
    27   1    -0.04  -0.01  -0.02    -0.00  -0.01  -0.02    -0.09  -0.02   0.00
    28   1    -0.08  -0.04   0.03     0.02   0.01  -0.04    -0.15  -0.11   0.01
    29   1    -0.10   0.01  -0.01     0.03  -0.04  -0.04    -0.16  -0.02   0.00
    30   5    -0.03   0.01  -0.05    -0.05  -0.04   0.03     0.04  -0.02  -0.01
    31   7     0.03   0.02   0.03    -0.01   0.00  -0.05    -0.03  -0.02   0.01
    32   7     0.02   0.02   0.01    -0.02  -0.03  -0.13    -0.04  -0.02  -0.13
    33   8    -0.03  -0.03  -0.05    -0.08  -0.02   0.00     0.04  -0.09  -0.02
    34   8    -0.06   0.02  -0.03    -0.03  -0.05   0.01    -0.02  -0.02   0.01
    35  77    -0.01   0.04  -0.02    -0.03  -0.02   0.01     0.06   0.00  -0.00
    36   5    -0.02  -0.02   0.08     0.05  -0.04  -0.02     0.06   0.02   0.00
    37   8    -0.02  -0.05   0.09     0.05  -0.07  -0.04     0.06   0.04   0.04
    38   8    -0.01  -0.01   0.07     0.08  -0.04   0.01     0.03   0.01  -0.01
    39   6    -0.01  -0.01   0.05     0.10  -0.07  -0.05     0.03   0.06   0.03
    40   6    -0.00   0.00   0.01     0.10  -0.06   0.01     0.00   0.03   0.02
    41   6     0.01   0.05   0.08     0.15  -0.05  -0.05     0.06   0.09   0.04
    42   6    -0.01  -0.04  -0.00     0.07  -0.05  -0.11     0.01   0.09   0.02
    43   6     0.02   0.09  -0.02     0.15  -0.12   0.05    -0.03   0.01   0.02
    44   6    -0.02  -0.06  -0.05     0.08  -0.02   0.06    -0.01   0.05   0.03
    45   1     0.01   0.08   0.13     0.17  -0.07  -0.03     0.08   0.07   0.05
    46   1     0.05   0.07   0.04     0.15  -0.03  -0.07     0.05   0.11   0.02
    47   1    -0.01   0.02   0.08     0.17  -0.04  -0.05     0.08   0.10   0.04
    48   1    -0.02  -0.05   0.01     0.10  -0.01  -0.10     0.02   0.10   0.01
    49   1     0.01  -0.01  -0.04     0.06  -0.01  -0.14     0.01   0.09   0.02
    50   1    -0.02  -0.08  -0.02     0.03  -0.08  -0.12    -0.00   0.09   0.02
    51   1     0.01   0.08  -0.04     0.17  -0.10   0.10    -0.05  -0.02   0.01
    52   1     0.02   0.11  -0.08     0.18  -0.15   0.05    -0.06   0.03   0.04
    53   1     0.03   0.13   0.03     0.16  -0.15   0.02    -0.02  -0.00   0.01
    54   1    -0.03  -0.12  -0.03     0.04   0.02   0.04     0.02   0.07   0.03
    55   1    -0.01  -0.05  -0.11     0.10  -0.04   0.07    -0.03   0.06   0.05
    56   1    -0.02  -0.06  -0.07     0.09  -0.00   0.12    -0.02   0.02   0.02
    57   1     0.05   0.03   0.09    -0.03   0.03  -0.03    -0.02  -0.03  -0.00
    58   1    -0.02   0.05  -0.01    -0.01   0.11   0.16     0.14   0.05   0.10
    59   1     0.01  -0.14  -0.28     0.02   0.05  -0.05    -0.03  -0.00   0.08
    60   1     0.01  -0.09  -0.23     0.04  -0.02  -0.12    -0.04  -0.00   0.06
    61   1     0.05   0.06   0.29     0.02   0.02   0.21    -0.06   0.01   0.15
    62   1     0.07   0.06   0.30     0.03   0.03   0.22    -0.06   0.05   0.12
    63   6     0.05  -0.07  -0.00    -0.01   0.11   0.06    -0.04  -0.00  -0.02
    64   9     0.13  -0.07   0.02     0.06   0.11   0.07    -0.11   0.01  -0.03
    65   9     0.01  -0.08   0.02    -0.09   0.13   0.05    -0.03  -0.00  -0.02
    66   9     0.01  -0.09   0.04     0.00   0.15   0.13    -0.02   0.01  -0.07
    67   6     0.02   0.02  -0.00    -0.00   0.03  -0.01    -0.05   0.08  -0.02
    68   9    -0.05  -0.04   0.03     0.03   0.04  -0.00     0.05   0.05   0.05
    69   9     0.11   0.10  -0.03    -0.00   0.05  -0.00    -0.11   0.16   0.04
    70   9    -0.01  -0.01  -0.12    -0.04   0.04  -0.01    -0.09   0.08  -0.05
                     13                     14                     15
                      A                      A                      A
 Frequencies --     94.8208                95.6322               106.8510
 Red. masses --      8.6607                 5.6016                 5.2846
 Frc consts  --      0.0459                 0.0302                 0.0355
 IR Inten    --      0.2389                 0.2892                 0.9942
  Atom AN      X      Y      Z        X      Y      Z        X      Y      Z
     1   6     0.06  -0.00  -0.03    -0.03  -0.06  -0.14    -0.03   0.03   0.11
     2   6     0.07   0.02   0.01    -0.03  -0.03  -0.08    -0.02   0.02   0.05
     3   6     0.07   0.04   0.06    -0.03  -0.01  -0.03    -0.01  -0.02  -0.04
     4   6     0.07   0.03   0.06    -0.02  -0.01  -0.03    -0.01  -0.03  -0.04
     5   6     0.02  -0.01  -0.15    -0.03   0.01   0.01    -0.04  -0.02  -0.10
     6   6     0.01   0.02  -0.16    -0.02   0.02   0.04    -0.05  -0.01  -0.10
     7   6     0.06   0.07  -0.01    -0.00   0.04   0.11    -0.02   0.02   0.07
     8   6     0.10   0.07   0.11     0.01   0.05   0.18     0.01   0.04   0.20
     9   1     0.13   0.09   0.19     0.03   0.06   0.24     0.03   0.06   0.27
    10   6     0.06   0.00  -0.01    -0.02   0.01   0.03    -0.02   0.00   0.05
    11   6     0.07   0.00   0.00    -0.02  -0.02  -0.05    -0.02  -0.01   0.04
    12   6    -0.07  -0.04   0.02     0.04  -0.03   0.03    -0.00  -0.05  -0.04
    13   6    -0.06  -0.05   0.02    -0.00  -0.01   0.03    -0.03  -0.03  -0.03
    14   6    -0.06  -0.04   0.00     0.15  -0.12  -0.00    -0.05  -0.01  -0.03
    15   1    -0.03  -0.09   0.04     0.24  -0.16   0.07    -0.10   0.04  -0.08
    16   1    -0.02  -0.02  -0.05     0.16  -0.17  -0.12    -0.07  -0.00   0.06
    17   1    -0.12  -0.00   0.03     0.12  -0.09   0.03    -0.01  -0.04  -0.06
    18   6    -0.10  -0.04  -0.00    -0.06  -0.05  -0.03     0.06  -0.10   0.02
    19   1    -0.11  -0.03  -0.00    -0.01  -0.08  -0.02     0.08  -0.12  -0.00
    20   1    -0.10  -0.05  -0.03    -0.11  -0.14  -0.10     0.06  -0.08   0.09
    21   1    -0.12  -0.02   0.01    -0.15   0.04  -0.01     0.11  -0.14   0.01
    22   6    -0.03  -0.07  -0.01     0.00  -0.10  -0.02    -0.10   0.06   0.08
    23   1    -0.03  -0.07  -0.00    -0.04  -0.06  -0.01    -0.13   0.08   0.08
    24   1    -0.05  -0.08  -0.04    -0.05  -0.16  -0.08    -0.06   0.04   0.18
    25   1    -0.00  -0.09  -0.00     0.10  -0.14  -0.02    -0.18   0.11   0.05
    26   6    -0.09  -0.04   0.02    -0.11   0.05   0.02     0.07  -0.10   0.00
    27   1    -0.10  -0.03   0.04    -0.13   0.11   0.07     0.11  -0.16  -0.06
[...]
 1,0.00001856,0.00079066,-0.00073474,0.00042068,0.00282072,0.00253909,-
 0.00163302,0.01275976,-0.01848195,-0.00617929,-0.00070697,-0.00128218,
 0.00044601,0.00078172,0.00036703,-0.00154167,-0.00041990,-0.00004324,-
 0.00017610,-0.00019055,0.00006662,-0.00003665,0.00022181,-0.00031156,-
 0.00018619,0.00021608,0.00001727,-0.00014983,0.00039080,0.00085669,-0.
 00023027,-0.00010765,-0.00022227,0.00024591,-0.00010434,-0.00010023,0.
 00007872,-0.00023048,0.00093858,-0.00137407,0.00025021,0.00031863,-0.0
 0014289,-0.00021381,-0.00005098,-0.00000661,-0.00004011,-0.00008072,0.
 00008749,0.00000196,0.00003015,0.00003991,-0.00003974,-0.00001737,0.00
 000855,-0.00000372,-0.00002104,0.00000785,-0.00002683,0.00002974,-0.00
 001007,0.00001410,0.00000603,0.00000298,-0.00004048,-0.00000872,0.0000
 3497,0.00004990,-0.00000050,-0.00001771,-0.00002765,0.00005814,0.00000
 758,-0.00001389,-0.00002730,0.00002552,0.00097806,-0.00064980,-0.00043
 004,0.00020862,-0.00001223,-0.00007576,0.00057221,-0.00001902,0.000107
 46,-0.00085869,0.00044708,0.00065019,-0.00050933,0.00028384,0.00018800
 ,0.00001711,0.00034360,0.00057375,-0.00025182,-0.00076310,-0.00048402,
 0.00019910,0.00030323,0.00023094,-0.00000071,0.00041209,0.00031387,-0.
 00004617,-0.00012593,-0.00016720,-0.00007305,-0.00009943,-0.00005383,0
 .00003196,0.00001177,0.00002088,0.00001212,0.00000981,0.00002864,0.000
 00847,0.00002640,-0.00001154,0.00002608,0.00001339,0.00000872,-0.00000
 446,-0.00001223,-0.00002083,0.00001337,0.00001436,0.00002128,-0.000021
 12,0.00000295,-0.00000323,-0.00000952,-0.00000117,-0.00000767,0.000013
 41,0.00001737,0.00000788,-0.00000337,-0.00001001,0.00000077,-0.0000132
 0,0.00002256,-0.00000396,-0.00000278,0.00000418,0.00001567,0.00001855,
 -0.00001680,0.00000829,-0.00000462,-0.00001037,0.00001827,0.00000583,0
 .00001476,-0.00000528,-0.00000741,0.00000712,-0.00000153,0.00000769,-0
 .00002327,-0.00001100,0.00000680,0.00004333,-0.00012902,0.00001405,-0.
 00000812,-0.00000462,-0.00005615,0.00003432,-0.00003404,0.00038981,0.0
 0003546,0.00004730,-0.00025472,0.00005034,-0.00019609,-0.00043072,-0.0
 0017855,-0.00003332,0.00011136,0.00006135,-0.00004552,0.00012853,0.000
 13324,0.00006044,0.00012648,-0.00001268,0.00002306,0.06197569,-0.09455
 017,-0.17835954,-0.07106926,0.16176311,0.25320458,-0.00010233,0.000231
 69,-0.00007601,-0.00041288,-0.00021638,0.00013243,0.00028430,-0.000048
 21,0.00004011,-0.00047172,-0.00018228,0.00010058,-0.00196340,-0.000201
 55,0.00251813,-0.00105747,-0.00542849,-0.00073809,-0.03078334,0.014336
 00,-0.03907455,-0.00072165,0.00194851,-0.00062337,-0.00072294,0.000083
 34,-0.00056391,0.00042541,0.00073031,-0.00030173,0.00025224,-0.0002393
 2,-0.00033926,-0.00115098,0.00034919,-0.00066003,-0.00044641,0.0001241
 6,0.00033432,0.00010041,-0.00024378,0.00063167,-0.00010339,-0.00003915
 ,0.00000587,0.00009957,0.00001334,0.00003842,-0.00012362,0.00042806,-0
 .00063489,0.00015427,-0.00004414,0.00012574,-0.00003492,0.00003595,-0.
 00012561,0.00005142,-0.00006933,-0.00002802,0.00000924,0.00008216,0.00
 006657,0.00004007,-0.00004955,-0.00005038,0.00001964,0.00003764,0.0000
 1731,0.00005200,-0.00006002,0.00000180,-0.00002793,0.00000732,0.000078
 09,0.00014542,0.00002060,-0.00009958,-0.00003374,0.00002136,0.00005602
 ,0.00002941,-0.00006274,-0.00002890,0.00000992,0.00006132,-0.00000057,
 -0.00169704,0.00135490,0.00025556,-0.00046351,0.00023611,0.00016457,0.
 00021343,0.00094934,0.00153734,0.00159524,-0.00101818,-0.00005807,0.00
 103971,-0.00082191,0.00012512,-0.00004983,-0.00055865,-0.00133743,0.00
 044608,0.00118838,0.00084566,-0.00037632,-0.00052169,-0.00034701,-0.00
 005148,-0.00072322,-0.00040728,0.00008641,0.00025213,0.00022370,0.0001
 6380,0.00023088,0.00004030,-0.00001121,-0.00002130,-0.00003677,-0.0000
 2151,-0.00001638,-0.00002808,-0.00001995,-0.00002414,-0.00000026,-0.00
 003671,-0.00002429,0.00000419,-0.00001339,0.00001450,0.00003394,-0.000
 01974,-0.00002901,-0.00003698,0.00003584,-0.00000191,0.00000964,0.0000
 1442,0.00001051,0.00000928,-0.00001912,-0.00003041,-0.00001902,0.00000
 441,0.00000556,0.00001455,0.00002663,-0.00002194,-0.00000401,-0.000012
 95,-0.00001734,-0.00001921,-0.00000671,0.00001317,0.00001320,0.0000017
 1,0.00002699,-0.00001890,-0.00001825,-0.00003438,0.00000475,0.00001936
 ,-0.00001321,-0.00000578,-0.00001128,0.00003385,0.00000152,0.00004692,
 -0.00005005,0.00036007,-0.00003538,0.00000827,-0.00001610,0.00009817,-
 0.00004967,0.00002880,-0.00047869,0.00002135,0.00021953,-0.00004665,0.
 00006377,-0.00102191,0.00113983,0.00036408,-0.00013675,-0.00031508,-0.
 00016820,0.00022456,-0.00031615,-0.00026187,-0.00006879,-0.00033511,0.
 00005812,-0.00002504,-0.15325386,0.02422579,-0.10234465,0.01858002,-0.
 00493542,-0.00328790,0.15189520,-0.00002673,-0.00002632,-0.00000101,0.
 00006733,-0.00000915,-0.00000530,-0.00002335,0.00005246,-0.00003528,0.
 00001002,0.00002520,-0.00001897,-0.00059763,0.00036738,-0.00036426,-0.
 00064739,-0.00082242,-0.00050383,0.00509441,0.01074861,0.00548814,0.00
 017825,-0.00233366,0.00080817,0.00064698,-0.00058119,0.00061484,-0.000
 36733,0.00083762,-0.00004248,0.00001502,0.00012700,0.00013076,0.000392
 28,0.00023998,0.00009459,0.00010682,0.00006396,-0.00010530,-0.00044082
 ,-0.00036065,0.00030808,0.00003901,0.00012603,-0.00008985,0.00006138,0
 .00004519,-0.00008872,0.00034690,-0.00576175,0.00012559,-0.00001574,0.
 00006571,-0.00009260,-0.00003492,0.00001212,0.00010883,-0.00000826,-0.
 00001190,0.00002475,-0.00001938,-0.00005397,-0.00002546,-0.00002303,-0
 .00000738,0.00002845,-0.00001488,-0.00002824,0.00000689,-0.00001002,0.
 00002075,-0.00000603,0.00000912,0.00000876,-0.00003570,-0.00004945,-0.
 00002300,0.00004039,0.00002218,0.00000376,-0.00001278,-0.00000243,0.00
 001894,0.00000070,-0.00001642,-0.00003264,0.00001166,0.00082106,-0.000
 26558,-0.00028845,0.00014502,-0.00003180,-0.00001625,0.00119219,0.0001
 8778,-0.00131694,-0.00072571,0.00006211,0.00014606,-0.00033145,0.00008
 116,0.00007455,-0.00008597,-0.00004893,0.00024802,0.00003503,-0.000083
 36,-0.00010576,-0.00004455,0.00003649,0.00002251,-0.00006338,0.0000702
 2,0.00003843,0.00000755,-0.00002415,0.00000036,0.00001552,0.00000077,0
 .00001080,0.00000059,0.00000486,0.00000020,-0.00000091,0.00000288,0.00
 000011,0.00000518,-0.00000361,-0.00000258,0.00000661,-0.00000477,-0.00
 000216,0.00000434,-0.00000591,-0.00000030,0.00000158,0.00000079,0.0000
 0100,-0.00000956,0.00000486,0.00000212,-0.00000682,0.00000256,-0.00000
 007,0.00000163,0.00000031,0.00000118,0.00000267,-0.00000070,-0.0000027
 7,-0.00000309,0.00001171,0.00000255,-0.00000544,-0.00000158,0.00000163
 ,0.00000555,-0.00000056,-0.00000067,0.00000466,-0.00000204,0.00000143,
 -0.00000502,-0.00000039,-0.00000291,-0.00000083,0.00001248,0.00000406,
 0.00000966,-0.00001155,0.00000026,-0.00001021,0.00002272,-0.00005675,0
 .00000381,-0.00000118,0.00000283,-0.00001155,0.00001262,-0.00000092,-0
 .00001933,-0.00001922,0.00008336,-0.00036725,0.00030911,0.00034447,-0.
 00010070,-0.00007422,0.00001307,0.00002992,0.00002555,-0.00002551,0.00
 003208,0.00004295,0.00001200,0.00001800,0.00000925,-0.00000088,0.02522
 853,-0.08553109,0.03866561,-0.01060951,0.00987884,-0.03423315,-0.03696
 227,0.10356445,-0.00000507,0.00006660,-0.00001119,-0.00014159,-0.00003
 563,0.00003129,0.00006676,-0.00006253,0.00003909,-0.00010499,-0.000034
 06,0.00004315,-0.00057859,0.00036347,0.00052203,-0.00186782,-0.0017913
 5,-0.00009614,-0.01486229,0.00601532,-0.00681478,0.00076972,0.00195520
 ,-0.00018488,-0.00023647,-0.00025421,-0.00068829,0.00055608,-0.0002837
 1,-0.00031065,-0.00000347,-0.00013354,-0.00010595,-0.00079252,0.000061
 27,-0.00077233,-0.00019828,0.00004718,0.00019616,0.00009659,0.00000766
 ,0.00060250,-0.00017247,-0.00024074,0.00020468,0.00004043,0.00009477,0
 .00003384,0.00010865,-0.00006879,-0.00087268,0.00027146,0.00016060,0.0
 0005000,-0.00011723,-0.00001637,-0.00008068,0.00001083,-0.00008180,0.0
 0001712,0.00000713,0.00008798,0.00009875,0.00001810,-0.00004512,-0.000
 04940,0.00002441,0.00003295,0.00001557,0.00001546,-0.00002973,-0.00000
 012,-0.00001180,0.00000219,0.00008553,0.00010485,0.00002626,-0.0000716
 3,0.00000238,0.00000920,0.00003237,-0.00000387,-0.00000594,-0.00001069
 ,0.00001017,0.00004432,0.00001429,-0.00081168,0.00053420,-0.00001866,-
 0.00021469,0.00005544,0.00004717,-0.00109286,-0.00007663,0.00108315,0.
 00077708,-0.00040722,0.00034873,0.00048369,-0.00034605,0.00019279,-0.0
 0003416,-0.00003243,-0.00056956,0.00007019,0.00016828,0.00029353,-0.00
 004638,-0.00010117,-0.00005544,0.00002154,-0.00016473,-0.00004591,0.00
 000776,0.00007152,0.00000382,0.00002753,0.00005861,-0.00002823,0.00001
 461,-0.00001029,-0.00000659,-0.00000210,-0.00000445,0.00000326,-0.0000
 1030,0.00000654,-0.00000513,-0.00000666,-0.00000020,0.00000947,-0.0000
 1369,0.00000325,0.00000391,-0.00000271,-0.00000527,-0.00000654,0.00001
 100,-0.00000371,0.00000010,0.00000567,0.00000252,-0.00000095,-0.000002
 65,-0.00000446,-0.00000526,-0.00000198,-0.00000422,0.00001010,0.000007
 42,-0.00000561,-0.00000719,-0.00000399,-0.00000521,-0.00000163,0.00000
 424,-0.00000425,0.00001299,-0.00000685,0.00000903,-0.00000037,-0.00000
 143,-0.00000805,0.00000115,0.00000566,-0.00001260,-0.00000809,-0.00000
 655,0.00000974,-0.00001305,0.00000829,-0.00002881,0.00017066,-0.000009
 29,0.00000151,-0.00001305,0.00004928,-0.00004023,0.00000273,-0.0002708
 8,0.00001187,0.00007691,0.00036753,-0.00025222,-0.00048642,0.00034317,
 0.00011528,-0.00011808,-0.00010307,-0.00006051,0.00010699,-0.00009332,
 -0.00007052,-0.00000072,-0.00009376,0.00000915,0.00000810,-0.09965091,
 0.03597523,-0.21850011,-0.01710099,-0.02072776,-0.07872613,0.14271862,
 -0.06503132,0.33818195,-0.00004009,0.00015292,-0.00005433,-0.00026475,
 -0.00015310,0.00008231,0.00015083,0.00003647,0.00000096,-0.00036055,-0
 .00010477,0.00004376,-0.00025435,-0.00107428,0.00001427,-0.00050356,-0
 .00142232,0.00049578,-0.01513316,-0.04265818,0.01476280,-0.00680782,0.
 00445731,0.00095490,-0.00004646,0.00049068,0.00005065,0.00068767,-0.00
 061959,0.00003933,0.00035754,0.00000895,0.00000641,-0.00059015,0.00027
 057,-0.00017339,-0.00025774,0.00013775,0.00013865,0.00008610,-0.000059
 92,0.00011751,-0.00002783,0.00000979,-0.00004939,0.00005830,-0.0000533
 4,0.00003262,-0.00007033,-0.00001799,-0.00004118,0.00004941,-0.0000530
 5,0.00003795,-0.00001508,0.00004120,-0.00002435,0.00004073,-0.00004353
 ,-0.00001250,-0.00000885,0.00001658,0.00001080,0.00000799,-0.00003393,
 -0.00001148,-0.00000388,-0.00000038,0.00001452,0.00003879,-0.00002820,
 -0.00000194,-0.00001281,0.00001181,0.00001250,0.00005361,-0.00001118,-
 0.00003107,-0.00001824,0.00002116,0.00003240,0.00003042,-0.00004437,-0
 .00002306,-0.00000933,0.00001499,-0.00000071,-0.00077863,0.00093062,-0
 .00000222,-0.00028840,-0.00002106,0.00011899,-0.00209678,-0.00246829,0
 .00054174,0.00076858,-0.00079473,-0.00007190,0.00058220,-0.00059604,0.
 00010920,-0.00020536,-0.00004563,-0.00101453,0.00052459,0.00097763,0.0
 0080637,-0.00043688,-0.00045040,-0.00033034,-0.00012721,-0.00061977,-0
 .00039033,0.00009252,0.00021720,0.00022239,0.00018092,0.00022246,0.000
 05866,-0.00001385,-0.00001762,-0.00003806,-0.00002016,-0.00001279,-0.0
 0002851,-0.00001528,-0.00003026,-0.00000178,-0.00003063,-0.00002753,0.
 00000092,-0.00000493,0.00000782,0.00003272,-0.00001836,-0.00002555,-0.
 00003540,0.00002190,0.00000461,0.00001213,0.00000470,0.00001226,0.0000
 0937,-0.00001721,-0.00002855,-0.00001614,0.00000783,0.00000660,0.00000
 871,0.00002146,-0.00000965,0.00000106,-0.00001661,-0.00001835,-0.00001
 824,-0.00000282,0.00001448,0.00000832,0.00000907,0.00002346,-0.0000183
 2,-0.00002249,-0.00003318,0.00000136,0.00001658,0.00000226,0.00000020,
 0.00000037,0.00001342,0.00000539,-0.00005177,-0.00018770,0.00028379,-0
 .00002676,0.00000556,-0.00000504,0.00007365,-0.00003296,0.00001138,-0.
 00010295,0.00009262,0.00000408,-0.00195153,-0.00063352,0.00047554,0.00
 083179,0.00022121,-0.00008434,-0.00022396,-0.00010607,0.00014635,-0.00
 022751,-0.00017278,-0.00005148,-0.00026500,0.00005803,-0.00002495,-0.1
 2476641,-0.07762775,0.02900747,0.01714301,0.00670540,-0.00434542,0.018
 68618,0.01710040,-0.00834894,0.11560974,-0.00011372,0.00013371,-0.0000
 7225,-0.00014854,-0.00015920,0.00007351,0.00011636,0.00011086,-0.00002
 334,-0.00029796,-0.00012490,0.00005347,-0.00120713,0.00107009,-0.00021
 978,0.00371565,-0.00468347,-0.00027132,-0.01130106,-0.01800982,0.00916
 271,-0.00421698,0.00173216,0.00075853,0.00042179,0.00064081,-0.0001313
 1,0.00047394,0.00015008,-0.00000366,0.00012851,0.00025072,-0.00003661,
 0.00005765,0.00017356,0.00012876,0.00002666,0.00018241,-0.00011903,0.0
 0015306,0.00037331,-0.00033716,-0.00000950,0.00000808,-0.00001139,0.00
 000202,-0.00016209,0.00004149,-0.00017165,-0.00028566,0.00025159,0.000
 08079,0.00011910,-0.00011818,-0.00011629,0.00001466,0.00009583,0.00001
 180,-0.00007181,0.00005067,-0.00002917,-0.00003761,-0.00002154,-0.0000
 4593,-0.00003619,0.00003100,-0.00002830,-0.00005144,0.00002122,0.00001
 255,0.00001784,-0.00001210,0.00000819,0.00002236,-0.00004855,-0.000051
 88,-0.00005041,0.00005418,0.00002793,0.00002316,0.00000077,0.00001627,
 0.00000429,-0.00001569,-0.00003747,-0.00004729,0.00001767,0.00071324,0
 .00020180,-0.00050555,0.00001010,0.00011044,0.00003873,-0.00049150,-0.
 00118515,0.00006207,-0.00056587,-0.00043143,0.00033879,-0.00012944,-0.
 00028793,0.00022888,-0.00015672,0.00019925,-0.00028362,0.00038528,0.00
 045976,0.00031727,-0.00035657,-0.00024450,-0.00018174,-0.00020035,-0.0
 0030206,-0.00018320,0.00008065,0.00011322,0.00014710,0.00015273,0.0001
 5815,0.00005459,-0.00000610,-0.00000048,-0.00002649,-0.00001684,-0.000
 00259,-0.00001601,-0.00000090,-0.00002435,-0.00000813,-0.00000824,-0.0
 0002713,-0.00000068,0.00000181,-0.00000505,0.00002279,-0.00000957,-0.0
 0001904,-0.00002264,0.00000119,0.00001163,0.00001376,-0.00000700,0.000
 01400,0.00000664,-0.00000788,-0.00001969,-0.00001028,0.00000974,0.0000
 0259,0.00000317,0.00001019,0.00001502,0.00000371,-0.00002315,-0.000016
 46,-0.00000828,0.00001060,0.00000752,0.00000808,0.00001317,0.00001393,
 -0.00000875,-0.00002497,-0.00002425,-0.00000444,0.00001095,0.00002237,
 0.00000622,0.00001451,-0.00000750,0.00000377,-0.00005258,-0.00014788,0
 .00008728,-0.00002273,-0.00000061,-0.00000235,0.00001346,0.00000625,-0
 .00002430,-0.00026115,-0.00000662,0.00004959,-0.00088781,0.00272477,-0
 .00006866,0.00057042,0.00007025,-0.00005999,-0.00014851,-0.00005526,0.
 00009040,-0.00014793,-0.00008113,-0.00002026,-0.00019840,0.00007040,-0
 .00002401,-0.08397898,-0.24598721,0.05932847,-0.00544621,-0.07683439,-
 0.01724255,0.00562170,-0.03094505,0.04448429,0.09805208,0.37114709,0.0
 0003912,-0.00004838,0.00003065,0.00006444,0.00006638,-0.00002879,-0.00
 004978,-0.00004410,0.00001279,0.00013767,0.00005084,-0.00000585,0.0003
 8611,-0.00000407,0.00000681,-0.00096197,0.00121818,-0.00031959,0.00600
 727,0.01276937,0.00515843,0.00249491,-0.00093566,0.00130199,-0.0000290
 4,-0.00018861,-0.00016358,-0.00017369,-0.00008699,-0.00004908,-0.00010
 195,-0.00004965,0.00006519,-0.00004008,-0.00008532,-0.00020108,0.00002
 589,-0.00004750,0.00002052,-0.00001599,-0.00000861,0.00018336,-0.00004
 215,-0.00006351,0.00007849,-0.00000720,0.00005757,-0.00000494,0.000074
 31,-0.00001366,-0.00028934,0.00006068,0.00005948,0.00001276,-0.0000271
 5,-0.00002242,-0.00002873,-0.00001207,-0.00000644,0.00000690,0.0000099
 5,0.00002791,0.00002842,0.00000678,0.00000143,-0.00001300,0.00001151,0
 .00001504,-0.00000221,-0.00001017,-0.00000130,0.00000109,-0.00000011,-
 0.00000471,0.00002739,0.00001891,0.00001763,-0.00001673,0.00000530,-0.
 00000680,-0.00000108,-0.00001362,0.00001392,0.00000602,0.00000978,0.00
 001300,0.00000339,-0.00000983,-0.00019162,0.00003937,0.00002626,-0.000
 01644,-0.00003221,0.00006840,0.00069595,-0.00086050,0.00000609,0.00020
 896,0.00010868,-0.00004996,0.00013093,0.00000487,0.00014446,0.00002650
 ,0.00017385,-0.00020774,-0.00033997,-0.00022943,0.00017877,0.00015574,
 0.00012430,0.00007337,0.00020237,0.00015110,-0.00003973,-0.00006510,-0
 .00009879,-0.00007131,-0.00007589,-0.00003640,0.00001288,0.00000246,0.
 00001488,0.00000866,0.00000321,0.00001442,0.00000228,0.00001686,-0.000
 00103,0.00001012,0.00001270,0.00000357,-0.00000439,-0.00000087,-0.0000
 1311,0.00000683,0.00000965,0.00001312,-0.00000408,-0.00000362,-0.00000
 592,0.00000079,-0.00000469,-0.00000466,0.00000631,0.00001105,0.0000049
 3,-0.00000456,-0.00000448,0.00000060,-0.00000618,0.00000045,-0.0000031
 5,0.00000659,0.00000647,0.00000715,0.00000179,-0.00000790,0.00000123,-
 0.00000676,-0.00000661,0.00000815,0.00000980,0.00001157,0.00000012,-0.
 00000495,-0.00000711,-0.00000339,-0.00000431,-0.00000213,-0.00000619,0
 .00000121,0.00007396,-0.00004696,0.00000970,-0.00000191,-0.00000263,-0
 .00001341,-0.00000220,-0.00000600,0.00007362,-0.00001399,-0.00001601,0
 .00054938,-0.00044797,-0.00036400,-0.00024453,-0.00005353,-0.00001552,
 0.00006205,0.00002451,-0.00002339,0.00006641,0.00004943,0.00002351,0.0
 0008480,-0.00002461,0.00001629,0.03054030,0.05791769,-0.09574632,-0.00
 726472,-0.03013615,0.01358698,0.00158287,0.05504650,-0.03385738,-0.033
 46492,-0.09589317,0.11125566\\0.00000987,0.00001938,-0.00000036,0.0000
 0557,-0.00001214,0.00000279,-0.00000034,0.00000481,-0.00000535,0.00000
 257,0.00000077,-0.00000209,-0.00001093,0.00000543,0.00000263,0.0000072
 0,0.00000105,0.00000168,-0.00001165,-0.00000741,-0.00001247,0.00002211
 ,0.00000096,0.00000119,0.00000264,-0.00000294,-0.00000150,0.00000233,-
 0.00000494,0.00000018,0.00000913,0.00000068,-0.00000476,0.00000157,-0.
 00000455,0.00000571,0.00000469,-0.00000026,-0.00000728,-0.00001072,-0.
 00000617,0.00001306,0.00000180,-0.00000290,-0.00000205,0.00000511,0.00
 000066,-0.00000023,0.00000337,0.00000360,-0.00000472,-0.00000190,0.000
 00153,0.00000013,0.00000012,-0.00000638,0.00000259,-0.00000124,-0.0000
 0028,0.00000303,0.00000055,-0.00000171,0.00000467,-0.00000479,-0.00000
 059,0.00000447,-0.00000208,-0.00000126,0.00000320,0.00000110,-0.000000
 80,0.00000042,-0.00000056,0.00000106,0.00000255,0.00000472,0.00000397,
 -0.00000255,0.00000106,-0.00000177,0.00000406,-0.00000263,0.00000301,0
 .00000674,-0.00000304,-0.00000025,0.00000160,-0.00001207,-0.00001210,0
 .00000688,-0.00002693,-0.00000726,-0.00000070,-0.00002181,0.00000254,0
 .00000426,0.00000162,0.00000651,-0.00000897,0.00000051,0.00000593,0.00
 000113,0.00002933,0.00001178,-0.00001052,0.00001561,-0.00000541,-0.000
 01753,-0.00000840,-0.00000583,0.00000252,-0.00001154,0.00001121,0.0000
 1718,-0.00000134,0.00000276,-0.00000354,0.00000748,0.00000306,0.000006
 48,0.00000543,-0.00000485,0.00000443,0.00000097,0.00000316,-0.00000052
 ,-0.00000557,-0.00000332,-0.00000792,0.00000139,0.00000420,0.00000745,
 0.00000338,-0.00000182,-0.00000040,-0.00000196,0.00000214,-0.00000347,
 -0.00000800,-0.00000205,-0.00000925,0.00000476,-0.00000208,-0.00000017
 ,-0.00000050,0.00000088,-0.00000102,-0.00000458,-0.00000227,0.00000149
 ,-0.00000062,-0.00000051,0.00000190,0.00000159,0.00000008,-0.00000046,
 0.00000107,0.00000162,0.00000347,-0.00000217,-0.00000009,-0.00000515,-
 0.00000185,-0.00000247,-0.00000055,-0.00000173,-0.00000071,-0.00000180
 ,0.00000300,-0.00000054,-0.00000025,-0.00000663,-0.00000101,0.00000378
 ,0.00000256,-0.00000215,-0.00000126,0.00000166,-0.00000159,-0.00000358
 ,0.00000419,-0.00000187,-0.00000214,0.00000197,-0.00000423,0.00000013,
 0.00000082,0.00001423,0.00000239,-0.00000099,-0.00000098,-0.00000211,-
 0.00000208,-0.00000078,-0.00000485,-0.00000557,0.00000162,-0.00000487,
 0.00000544,-0.00000112,0.00001611,-0.00000571,-0.00000443,0.00000516,-
 0.00000262,-0.00000099,-0.00001102,0.00000426,0.00000616,-0.00000004\\
 \@
 The archive entry for this job was punched.


 Luck is a matter of preparation meeting opportunity.
                                    -- Oprah Winfrey
 Job cpu time:       0 days 12 hours 39 minutes 44.1 seconds.
 Elapsed time:       0 days  0 hours 48 minutes 32.3 seconds.
 File lengths (MBytes):  RWF=   3070 Int=      0 D2E=      0 Chk=     27 Scr=      1
 Normal termination of Gaussian 16 at Sat Dec  7 19:36:09 2024.
