/mnt/lustre/scratch/nvme/SLURM/9663800/usccqdma.wrieh6lmJf
OMP_STACKSIZE=0m
GAUSS_PDEF=16
GAUSS_MDEF=65536MB
GAUSS_RDEF=SCF=Direct
 Entering Gaussian System, Link 0=g16.exe
 Initial command:
 /opt/cesga/2020/software/Core/g16/c1/l1.exe "/mnt/lustre/scratch/nvme/SLURM/9663800/usccqdma.wrieh6lmJf/Gau-1009434.inp" -scrdir="/mnt/lustre/scratch/nvme/SLURM/9663800/usccqdma.wrieh6lmJf/"
 Default is to use a total of  16 processors:
                               16 via shared-memory
                                1 via Linda
 Entering Link 1 = /opt/cesga/2020/software/Core/g16/c1/l1.exe PID=   1009460.
  
 Copyright (c) 1988-2019, Gaussian, Inc.  All Rights Reserved.
  
 This is part of the Gaussian(R) 16 program.  It is based on
 the Gaussian(R) 09 system (copyright 2009, Gaussian, Inc.),
 the Gaussian(R) 03 system (copyright 2003, Gaussian, Inc.),
 the Gaussian(R) 98 system (copyright 1998, Gaussian, Inc.),
 the Gaussian(R) 94 system (copyright 1995, Gaussian, Inc.),
 the Gaussian 92(TM) system (copyright 1992, Gaussian, Inc.),
 the Gaussian 90(TM) system (copyright 1990, Gaussian, Inc.),
 the Gaussian 88(TM) system (copyright 1988, Gaussian, Inc.),
 the Gaussian 86(TM) system (copyright 1986, Carnegie Mellon
 University), and the Gaussian 82(TM) system (copyright 1983,
 Carnegie Mellon University). Gaussian is a federally registered
 trademark of Gaussian, Inc.
  
 This software contains proprietary and confidential information,
 including trade secrets, belonging to Gaussian, Inc.
  
 This software is provided under written license and may be
 used, copied, transmitted, or stored only in accord with that
 written license.
  
 The following legend is applicable only to US Government
 contracts under FAR:
  
                    RESTRICTED RIGHTS LEGEND
  
 Use, reproduction and disclosure by the US Government is
 subject to restrictions as set forth in subparagraphs (a)
 and (c) of the Commercial Computer Software - Restricted
 Rights clause in FAR 52.227-19.
  
 Gaussian, Inc.
 340 Quinnipiac St., Bldg. 40, Wallingford CT 06492
  
  
 ---------------------------------------------------------------
 Warning -- This program may not be used in any manner that
 competes with the business of Gaussian, Inc. or will provide
 assistance to any competitor of Gaussian, Inc.  The licensee
 of this program is prohibited from giving any competitor of
 Gaussian, Inc. access to this program.  By using this program,
 the user acknowledges that Gaussian, Inc. is engaged in the
 business of creating and licensing software in the field of
 computational chemistry and represents and warrants to the
 licensee that it is not a competitor of Gaussian, Inc. and that
 it will not use this program in any manner prohibited above.
 ---------------------------------------------------------------
  

 Cite this work as:
 Gaussian 16, Revision C.01,
 M. J. Frisch, G. W. Trucks, H. B. Schlegel, G. E. Scuseria, 
 M. A. Robb, J. R. Cheeseman, G. Scalmani, V. Barone, 
 G. A. Petersson, H. Nakatsuji, X. Li, M. Caricato, A. V. Marenich, 
 J. Bloino, B. G. Janesko, R. Gomperts, B. Mennucci, H. P. Hratchian, 
 J. V. Ortiz, A. F. Izmaylov, J. L. Sonnenberg, D. Williams-Young, 
 F. Ding, F. Lipparini, F. Egidi, J. Goings, B. Peng, A. Petrone, 
 T. Henderson, D. Ranasinghe, V. G. Zakrzewski, J. Gao, N. Rega, 
 G. Zheng, W. Liang, M. Hada, M. Ehara, K. Toyota, R. Fukuda, 
 J. Hasegawa, M. Ishida, T. Nakajima, Y. Honda, O. Kitao, H. Nakai, 
 T. Vreven, K. Throssell, J. A. Montgomery, Jr., J. E. Peralta, 
 F. Ogliaro, M. J. Bearpark, J. J. Heyd, E. N. Brothers, K. N. Kudin, 
 V. N. Staroverov, T. A. Keith, R. Kobayashi, J. Normand, 
 K. Raghavachari, A. P. Rendell, J. C. Burant, S. S. Iyengar, 
 J. Tomasi, M. Cossi, J. M. Millam, M. Klene, C. Adamo, R. Cammi, 
 J. W. Ochterski, R. L. Martin, K. Morokuma, O. Farkas, 
 J. B. Foresman, and D. J. Fox, Gaussian, Inc., Wallingford CT, 2019.
 
 ******************************************
 Gaussian 16:  ES64L-G16RevC.01  3-Jul-2019
                 7-Dec-2024 
 ******************************************
 Default route: SCF=Direct
 -
 #
 -
 1/38=1,172=1/1;
 2/12=2,17=6,18=5,40=1/2;
 3/11=9,25=1,30=1/1,2,3;
 4//1;
 5/5=2,38=5/2;
 6/7=2,8=2,9=2,10=2,28=1/1;
 99/5=1,9=1/99;
 ----------------------------------------------------------------------
 /Users/danielmarcosatanes/Desktop/Tesis/sp3/Estructuras_supporting_gjf
 /44f/C-CH3/bis-5-CF3-Bipy/OA/Ir(Bpin)3(R)(H)/L28-Ir(Bpin)3(R)(H).log
 ----------------------------------------------------------------------
 Symbolic Z-matrix:
 Charge =  0 Multiplicity = 1
 C                     1.02739  -2.6437    0.81371 
 C                     2.97951  -1.88028  -0.15733 
 C                     3.63304  -3.07505   0.12136 
 C                     2.93339  -4.09611   0.75155 
 C                     1.61189  -3.87567   1.10417 
 C                    -0.36206  -2.31815   1.16875 
 C                    -2.14913  -0.8604    0.88467 
 C                    -2.93619  -1.5917    1.75478 
 C                    -2.40536  -2.72458   2.36678 
 C                    -1.10719  -3.08793   2.06507 
 H                     3.48532  -1.04621  -0.64337 
 H                     3.41469  -5.0488    0.95769 
 H                     1.03369  -4.6694    1.56877 
 H                    -2.51493   0.03687   0.38684 
 H                    -3.00409  -3.30865   3.0639 
 H                    -0.66362  -3.96084   2.53482 
 N                     1.70813  -1.67353   0.17573 
 N                    -0.88591  -1.21057   0.5994 
 Ir                    0.40276   0.02971  -0.63256 
 O                    -0.88509   1.95261   1.39201 
 O                    -2.31538   1.09161  -1.37937 
 O                     1.68521   2.88536  -0.18392 
 B                    -0.93099   1.30986  -1.44341 
 B                     0.23071   1.1664    1.17876 
 B                     1.82389   1.50794  -0.25601 
 O                     3.16604   1.14531  -0.16099 
 O                     0.92679   0.96844   2.35987 
 C                     0.13905   1.50336   3.44209 
 C                    -0.79963   2.51222   2.71339 
 C                     2.99057   3.45449  -0.37736 
 C                     3.92214   2.32646   0.15185 
 C                    -2.96985   2.2817   -1.84913 
 C                    -1.89198   2.87489  -2.79848 
 O                    -0.67019   2.44943  -2.182 
 C                    -2.19984   2.61379   3.28604 
 H                    -2.738     1.65966   3.22496 
 H                    -2.17437   2.93514   4.33728 
 H                    -2.77548   3.35825   2.72076 
 C                    -0.19226   3.89942   2.56399 
 H                    -0.13696   4.42938   3.5244 
 H                     0.8094    3.84349   2.11918 
 H                    -0.81879   4.48576   1.87977 
 C                    -0.60618   0.33239   4.06851 
 H                    -1.31625  -0.11868   3.36279 
 H                     0.12261  -0.43684   4.35551 
 H                    -1.16291   0.63479   4.96553 
 C                     1.06621   2.1205    4.46994 
 H                     1.71617   2.8851    4.02979 
 H                     0.4914    2.58174   5.28597 
 H                     1.70722   1.34213   4.90343 
 C                    -4.27397   1.89288  -2.51535 
 H                    -4.96153   1.4764   -1.76581 
 H                    -4.76043   2.76909  -2.96755 
 H                    -4.12254   1.13725  -3.296 
 C                    -3.24411   3.15239  -0.6304 
 H                    -3.81887   2.56245   0.09832 
 H                    -2.30708   3.45207  -0.14478 
 H                    -3.82597   4.04734  -0.88949 
 C                    -1.92521   2.25731  -4.19102 
 H                    -1.01873   2.55971  -4.72982 
 H                    -1.93025   1.15925  -4.13687 
 H                    -2.79864   2.58646  -4.77025 
 C                    -1.89679   4.38669  -2.89859 
 H                    -1.71081   4.85329  -1.92522 
 H                    -1.10517   4.71342  -3.58504 
 H                    -2.85768   4.7519   -3.28943 
 C                     5.27095   2.24177  -0.53375 
 H                     5.84518   3.16674  -0.38013 
 H                     5.85005   1.41043  -0.11086 
 H                     5.16946   2.068    -1.61057 
 C                     4.10539   2.35695   1.66244 
 H                     3.13545   2.39877   2.17436 
 H                     4.60163   1.42941   1.97455 
 H                     4.72494   3.20495   1.98407 
 C                     3.08121   4.76479   0.37651 
 H                     2.86753   4.64      1.44436 
 H                     4.08408   5.20347   0.27353 
 H                     2.35367   5.47674  -0.03391 
 C                     3.13439   3.70422  -1.87325 
 H                     3.09219   2.76459  -2.43994 
 H                     2.29243   4.32535  -2.20336 
 H                     4.07225   4.22102  -2.11758 
 H                     1.32671   0.7794   -1.73873 
 C                    -1.79863  -2.88127  -1.67443 
 O                    -1.00775  -3.73626  -1.2838 
 N                    -3.12708  -2.92723  -1.31003 
 C                     0.03645  -1.27727  -2.36853 
 C                    -1.36795  -1.80195  -2.65273 
 C                    -1.44566  -2.46006  -4.03878 
 C                     5.06486  -3.21551  -0.29287 
 F                     5.19438  -3.13895  -1.62034 
 F                     5.81288  -2.23754   0.22965 
 F                     5.58415  -4.38185   0.10132 
 C                    -4.32024  -1.1361    2.08465 
 F                    -5.18735  -2.15956   2.05497 
 F                    -4.37316  -0.61982   3.32014 
 F                    -4.76268  -0.20568   1.23707 
 C                    -3.62934  -4.0976   -0.62209 
 C                    -4.12635  -1.93934  -1.67378 
 H                    -4.37035  -4.62556  -1.24149 
 H                    -4.11784  -3.81243   0.32238 
 H                    -2.7898   -4.76482  -0.41343 
 H                     0.7181   -2.13971  -2.29006 
 H                     0.34969  -0.71487  -3.26044 
 H                    -2.45189  -2.84644  -4.26418 
 H                    -0.73883  -3.2993   -4.09295 
 H                    -1.17704  -1.73464  -4.81812 
 H                    -3.72894  -0.92004  -1.61051 
 H                    -4.95621  -2.01057  -0.95802 
 H                    -4.53513  -2.10237  -2.68419 
 H                    -2.07371  -0.96212  -2.64003 
 
 Stoichiometry    C36H55B3F6IrN3O7
 Framework group  C1[X(C36H55B3F6IrN3O7)]
 Deg. of freedom   327
 Full point group                 C1      NOp   1
 Largest Abelian subgroup         C1      NOp   1
 Largest concise Abelian subgroup C1      NOp   1
                         Standard orientation:                         
 ---------------------------------------------------------------------
 Center     Atomic      Atomic             Coordinates (Angstroms)
 Number     Number       Type             X           Y           Z
 ---------------------------------------------------------------------
      1          6           0        1.027391   -2.643699    0.813710
      2          6           0        2.979511   -1.880279   -0.157330
      3          6           0        3.633041   -3.075049    0.121360
      4          6           0        2.933391   -4.096109    0.751550
      5          6           0        1.611891   -3.875669    1.104170
      6          6           0       -0.362059   -2.318149    1.168750
      7          6           0       -2.149129   -0.860399    0.884670
      8          6           0       -2.936189   -1.591699    1.754780
      9          6           0       -2.405359   -2.724579    2.366780
     10          6           0       -1.107189   -3.087929    2.065070
     11          1           0        3.485321   -1.046209   -0.643370
     12          1           0        3.414691   -5.048799    0.957690
     13          1           0        1.033691   -4.669399    1.568770
     14          1           0       -2.514929    0.036871    0.386840
     15          1           0       -3.004089   -3.308649    3.063900
     16          1           0       -0.663619   -3.960839    2.534820
     17          7           0        1.708131   -1.673529    0.175730
     18          7           0       -0.885909   -1.210569    0.599400
     19         77           0        0.402761    0.029711   -0.632560
     20          8           0       -0.885089    1.952611    1.392010
     21          8           0       -2.315379    1.091611   -1.379370
     22          8           0        1.685211    2.885361   -0.183920
     23          5           0       -0.930989    1.309861   -1.443410
     24          5           0        0.230711    1.166401    1.178760
     25          5           0        1.823891    1.507941   -0.256010
     26          8           0        3.166041    1.145311   -0.160990
     27          8           0        0.926791    0.968441    2.359870
     28          6           0        0.139051    1.503361    3.442090
     29          6           0       -0.799629    2.512221    2.713390
     30          6           0        2.990571    3.454491   -0.377360
     31          6           0        3.922141    2.326461    0.151850
     32          6           0       -2.969849    2.281701   -1.849130
     33          6           0       -1.891979    2.874891   -2.798480
     34          8           0       -0.670189    2.449431   -2.182000
     35          6           0       -2.199839    2.613791    3.286040
     36          1           0       -2.737999    1.659661    3.224960
     37          1           0       -2.174369    2.935141    4.337280
     38          1           0       -2.775479    3.358251    2.720760
     39          6           0       -0.192259    3.899421    2.563990
     40          1           0       -0.136959    4.429381    3.524400
     41          1           0        0.809401    3.843491    2.119180
     42          1           0       -0.818789    4.485761    1.879770
     43          6           0       -0.606179    0.332391    4.068510
     44          1           0       -1.316249   -0.118679    3.362790
     45          1           0        0.122611   -0.436839    4.355510
     46          1           0       -1.162909    0.634791    4.965530
     47          6           0        1.066211    2.120501    4.469940
     48          1           0        1.716171    2.885101    4.029790
     49          1           0        0.491401    2.581741    5.285970
     50          1           0        1.707221    1.342131    4.903430
     51          6           0       -4.273969    1.892881   -2.515350
     52          1           0       -4.961529    1.476401   -1.765810
     53          1           0       -4.760429    2.769091   -2.967550
     54          1           0       -4.122539    1.137251   -3.296000
     55          6           0       -3.244109    3.152391   -0.630400
     56          1           0       -3.818869    2.562451    0.098320
     57          1           0       -2.307079    3.452071   -0.144780
     58          1           0       -3.825969    4.047341   -0.889490
     59          6           0       -1.925209    2.257311   -4.191020
     60          1           0       -1.018729    2.559711   -4.729820
     61          1           0       -1.930249    1.159251   -4.136870
     62          1           0       -2.798639    2.586461   -4.770250
     63          6           0       -1.896789    4.386691   -2.898590
     64          1           0       -1.710809    4.853291   -1.925220
     65          1           0       -1.105169    4.713421   -3.585040
     66          1           0       -2.857679    4.751901   -3.289430
     67          6           0        5.270951    2.241771   -0.533750
     68          1           0        5.845181    3.166741   -0.380130
     69          1           0        5.850051    1.410431   -0.110860
     70          1           0        5.169461    2.068001   -1.610570
     71          6           0        4.105391    2.356951    1.662440
     72          1           0        3.135451    2.398771    2.174360
     73          1           0        4.601631    1.429411    1.974550
     74          1           0        4.724941    3.204951    1.984070
     75          6           0        3.081211    4.764791    0.376510
     76          1           0        2.867531    4.640001    1.444360
     77          1           0        4.084081    5.203471    0.273530
     78          1           0        2.353671    5.476741   -0.033910
     79          6           0        3.134391    3.704221   -1.873250
     80          1           0        3.092191    2.764591   -2.439940
     81          1           0        2.292431    4.325351   -2.203360
     82          1           0        4.072251    4.221021   -2.117580
     83          1           0        1.326711    0.779401   -1.738730
     84          6           0       -1.798629   -2.881269   -1.674430
     85          8           0       -1.007749   -3.736259   -1.283800
     86          7           0       -3.127079   -2.927229   -1.310030
     87          6           0        0.036451   -1.277269   -2.368530
     88          6           0       -1.367949   -1.801949   -2.652730
     89          6           0       -1.445659   -2.460059   -4.038780
     90          6           0        5.064861   -3.215509   -0.292870
     91          9           0        5.194381   -3.138949   -1.620340
     92          9           0        5.812881   -2.237539    0.229650
     93          9           0        5.584151   -4.381849    0.101320
     94          6           0       -4.320239   -1.136099    2.084650
     95          9           0       -5.187349   -2.159559    2.054970
     96          9           0       -4.373159   -0.619819    3.320140
     97          9           0       -4.762679   -0.205679    1.237070
     98          6           0       -3.629339   -4.097599   -0.622090
     99          6           0       -4.126349   -1.939339   -1.673780
    100          1           0       -4.370349   -4.625559   -1.241490
    101          1           0       -4.117839   -3.812429    0.322380
    102          1           0       -2.789799   -4.764819   -0.413430
    103          1           0        0.718101   -2.139709   -2.290060
    104          1           0        0.349691   -0.714869   -3.260440
    105          1           0       -2.451889   -2.846439   -4.264180
    106          1           0       -0.738829   -3.299299   -4.092950
    107          1           0       -1.177039   -1.734639   -4.818120
    108          1           0       -3.728939   -0.920039   -1.610510
    109          1           0       -4.956209   -2.010569   -0.958020
    110          1           0       -4.535129   -2.102369   -2.684190
    111          1           0       -2.073709   -0.962119   -2.640030
 ---------------------------------------------------------------------
 Rotational constants (GHZ):           0.0572283           0.0461796           0.0388334
 Standard basis: STO-3G (5D, 7F)
 IA out of range in STO.
 Error termination via Lnk1e in /opt/cesga/2020/software/Core/g16/c1/l301.exe at Sat Dec  7 22:09:37 2024.
 Job cpu time:       0 days  0 hours  0 minutes  0.4 seconds.
 Elapsed time:       0 days  0 hours  0 minutes  0.1 seconds.
 File lengths (MBytes):  RWF=      6 Int=      0 D2E=      0 Chk=      1 Scr=      1
