/mnt/lustre/scratch/nvme/SLURM/9698476/usccqdma.qNF4XftmOW
OMP_STACKSIZE=0m
GAUSS_PDEF=16
GAUSS_MDEF=65536MB
GAUSS_RDEF=SCF=Direct
 Entering Gaussian System, Link 0=g16.exe
 Initial command:
 /opt/cesga/2020/software/Core/g16/c1/l1.exe "/mnt/lustre/scratch/nvme/SLURM/9698476/usccqdma.qNF4XftmOW/Gau-2892742.inp" -scrdir="/mnt/lustre/scratch/nvme/SLURM/9698476/usccqdma.qNF4XftmOW/"
 Default is to use a total of  16 processors:
                               16 via shared-memory
                                1 via Linda
 Entering Link 1 = /opt/cesga/2020/software/Core/g16/c1/l1.exe PID=   2892768.
  
 Copyright (c) 1988-2019, Gaussian, Inc.  All Rights Reserved.
  
 This is part of the Gaussian(R) 16 program.  It is based on
 the Gaussian(R) 09 system (copyright 2009, Gaussian, Inc.),
 the Gaussian(R) 03 system (copyright 2003, Gaussian, Inc.),
 the Gaussian(R) 98 system (copyright 1998, Gaussian, Inc.),
 the Gaussian(R) 94 system (copyright 1995, Gaussian, Inc.),
 the Gaussian 92(TM) system (copyright 1992, Gaussian, Inc.),
 the Gaussian 90(TM) system (copyright 1990, Gaussian, Inc.),
 the Gaussian 88(TM) system (copyright 1988, Gaussian, Inc.),
 the Gaussian 86(TM) system (copyright 1986, Carnegie Mellon
 University), and the Gaussian 82(TM) system (copyright 1983,
 Carnegie Mellon University). Gaussian is a federally registered
 trademark of Gaussian, Inc.
  
 This software contains proprietary and confidential information,
 including trade secrets, belonging to Gaussian, Inc.
  
 This software is provided under written license and may be
 used, copied, transmitted, or stored only in accord with that
 written license.
  
 The following legend is applicable only to US Government
 contracts under FAR:
  
                    RESTRICTED RIGHTS LEGEND
  
 Use, reproduction and disclosure by the US Government is
 subject to restrictions as set forth in subparagraphs (a)
 and (c) of the Commercial Computer Software - Restricted
 Rights clause in FAR 52.227-19.
  
 Gaussian, Inc.
 340 Quinnipiac St., Bldg. 40, Wallingford CT 06492
  
  
 ---------------------------------------------------------------
 Warning -- This program may not be used in any manner that
 competes with the business of Gaussian, Inc. or will provide
 assistance to any competitor of Gaussian, Inc.  The licensee
 of this program is prohibited from giving any competitor of
 Gaussian, Inc. access to this program.  By using this program,
 the user acknowledges that Gaussian, Inc. is engaged in the
 business of creating and licensing software in the field of
 computational chemistry and represents and warrants to the
 licensee that it is not a competitor of Gaussian, Inc. and that
 it will not use this program in any manner prohibited above.
 ---------------------------------------------------------------
  

 Cite this work as:
 Gaussian 16, Revision C.01,
 M. J. Frisch, G. W. Trucks, H. B. Schlegel, G. E. Scuseria, 
 M. A. Robb, J. R. Cheeseman, G. Scalmani, V. Barone, 
 G. A. Petersson, H. Nakatsuji, X. Li, M. Caricato, A. V. Marenich, 
 J. Bloino, B. G. Janesko, R. Gomperts, B. Mennucci, H. P. Hratchian, 
 J. V. Ortiz, A. F. Izmaylov, J. L. Sonnenberg, D. Williams-Young, 
 F. Ding, F. Lipparini, F. Egidi, J. Goings, B. Peng, A. Petrone, 
 T. Henderson, D. Ranasinghe, V. G. Zakrzewski, J. Gao, N. Rega, 
 G. Zheng, W. Liang, M. Hada, M. Ehara, K. Toyota, R. Fukuda, 
 J. Hasegawa, M. Ishida, T. Nakajima, Y. Honda, O. Kitao, H. Nakai, 
 T. Vreven, K. Throssell, J. A. Montgomery, Jr., J. E. Peralta, 
 F. Ogliaro, M. J. Bearpark, J. J. Heyd, E. N. Brothers, K. N. Kudin, 
 V. N. Staroverov, T. A. Keith, R. Kobayashi, J. Normand, 
 K. Raghavachari, A. P. Rendell, J. C. Burant, S. S. Iyengar, 
 J. Tomasi, M. Cossi, J. M. Millam, M. Klene, C. Adamo, R. Cammi, 
 J. W. Ochterski, R. L. Martin, K. Morokuma, O. Farkas, 
 J. B. Foresman, and D. J. Fox, Gaussian, Inc., Wallingford CT, 2019.
 
 ******************************************
 Gaussian 16:  ES64L-G16RevC.01  3-Jul-2019
                10-Dec-2024 
 ******************************************
 Default route: SCF=Direct
 ----------------------------------------------------
 # m06/genecp scf=tight int=ultrafine 5d freq=noraman
 ----------------------------------------------------
 1/10=4,30=1,38=1/1,3;
 2/12=2,17=6,18=5,40=1/2;
 3/5=7,8=1,11=2,16=1,17=8,25=1,30=1,71=2,74=-54,75=-5,140=1/1,2,3;
 4//1;
 5/5=2,32=2,38=5,98=1/2;
 8/6=4,10=90,11=11/1;
 11/6=1,8=1,9=11,15=111,16=1/1,2,10;
 10/6=1/2;
 6/7=2,8=2,9=2,10=2,28=1/1;
 7/8=1,10=1,25=1/1,2,3,16;
 1/10=4,30=1/3;
 99//99;
 ------
 OPT-TS
 ------
 Symbolic Z-matrix:
 Charge =  0 Multiplicity = 1
 C                     2.59544   0.57198  -1.04696 
 C                     2.4983   -0.78173   0.82312 
 C                     3.83346  -1.14266   0.70317 
 C                     4.56336  -0.59456  -0.33849 
 C                     3.94104   0.26654  -1.23079 
 C                     1.84059   1.40846  -2.00133 
 C                    -0.25333   2.07169  -2.75493 
 C                     0.29956   2.77639  -3.81593 
 C                     1.68138   2.81241  -3.94382 
 C                     2.45969   2.11676  -3.03085 
 H                     1.87031  -1.168     1.62546 
 H                     4.50728   0.67233  -2.06553 
 H                    -1.3295    2.01318  -2.59066 
 H                     2.15328   3.37288  -4.74842 
 H                     3.54303   2.13819  -3.11199 
 N                     1.89909   0.05716  -0.01904 
 N                     0.49931   1.41804  -1.86275 
 Ir                   -0.36509   0.53604   0.03422 
 O                    -3.35768   0.58583   0.70059 
 O                    -1.9663   -1.90901   1.12805 
 O                    -1.50203  -1.40786  -2.14488 
 B                    -0.92421  -1.00571   1.28022 
 B                    -2.35205   0.82756  -0.22595 
 B                    -0.59555  -1.22437  -1.11578 
 O                     0.27924  -2.30332  -1.03716 
 O                    -2.90902   1.35243  -1.39513 
 C                    -4.3201    1.53158  -1.18682 
 C                    -4.59535   0.54497  -0.01891 
 C                    -1.35908  -2.75603  -2.62942 
 C                     0.10066  -3.09883  -2.21836 
 C                    -2.09375  -2.65513   2.34412 
 C                    -0.64791  -2.60303   2.90768 
 O                    -0.19475  -1.32256   2.4325 
 C                    -5.72762   0.94373   0.90468 
 H                    -6.67804   1.00658   0.35502 
 H                    -5.84375   0.18916   1.69359 
 H                    -5.53709   1.90806   1.38856 
 C                    -4.78427  -0.8901   -0.49943 
 H                    -4.72508  -1.56429   0.36595 
 H                    -5.75509  -1.03341  -0.99377 
 H                    -3.97852  -1.17663  -1.18916 
 C                    -4.54753   2.98643  -0.80002 
 H                    -4.11648   3.63242  -1.57681 
 H                    -5.61655   3.22385  -0.71384 
 H                    -4.05776   3.22594   0.15304 
 C                    -5.04802   1.21526  -2.47781 
 H                    -6.13715   1.22102  -2.32589 
 H                    -4.8103    1.97271  -3.23642 
 H                    -4.75056   0.23763  -2.87304 
 C                    -3.1      -1.91394   3.21575 
 H                    -4.04616  -1.82661   2.66635 
 H                    -3.29587  -2.44027   4.1597 
 H                    -2.75692  -0.89392   3.43597 
 C                    -2.60613  -4.04435   2.02384 
 H                    -2.67322  -4.6583    2.93354 
 H                    -3.61104  -3.97355   1.58602 
 H                    -1.961    -4.56032   1.30256 
 C                    -0.55374  -2.63616   4.41983 
 H                    -0.99578  -3.56157   4.81652 
 H                     0.49854  -2.60881   4.73333 
 H                    -1.0655   -1.78207   4.87817 
 C                     0.27212  -3.65387   2.30015 
 H                     1.30409  -3.4442    2.61644 
 H                     0.01834  -4.66801   2.63713 
 H                     0.24191  -3.61685   1.20161 
 C                     0.34868  -4.55374  -1.87688 
 H                     1.39819  -4.69215  -1.58581 
 H                    -0.27934  -4.88326  -1.04044 
 H                     0.1474   -5.20209  -2.74186 
 C                     1.13708  -2.61228  -3.22411 
 H                     2.13161  -2.68213  -2.76367 
 H                     1.13883  -3.21085  -4.14503 
 H                     0.96121  -1.56009  -3.49021 
 C                    -1.62311  -2.77201  -4.12125 
 H                    -1.45602  -3.77592  -4.5381 
 H                    -2.66802  -2.4954   -4.312 
 H                    -0.98522  -2.05951  -4.65572 
 C                    -2.39555  -3.60547  -1.90668 
 H                    -3.39586  -3.21134  -2.12828 
 H                    -2.36468  -4.65451  -2.23074 
 H                    -2.252    -3.55289  -0.81919 
 H                    -0.34985   3.29368  -4.51746 
 C                     1.05744   2.96149   1.681 
 C                     1.38061   4.3126    1.83848 
 C                    -0.02701   2.56369   0.87873 
 C                     0.60318   5.30335   1.25575 
 C                    -0.8092    3.5872    0.32105 
 C                    -0.50405   4.93297   0.49915 
 H                     0.85499   6.35349   1.39606 
 H                    -0.72174   1.19851   1.49788 
 H                     2.25623   4.57505   2.43296 
 H                    -1.67071   3.32419  -0.29459 
 C                     1.98108   1.99827   2.36653 
 O                     3.14258   1.87549   1.98762 
 N                     1.48637   1.3139    3.44309 
 C                     2.30351   0.3091    4.08314 
 H                     3.29045   0.3087    3.61325 
 H                     2.41269   0.52834   5.15556 
 H                     1.83092  -0.68076   3.97473 
 C                     0.16928   1.48944   4.0155 
 H                    -0.32354   2.36655   3.58843 
 H                    -0.4513    0.59869   3.83176 
 H                     0.2604    1.64023   5.10179 
 H                    -1.13487   5.69467   0.04071 
 H                     4.28816  -1.82662   1.41428 
 C                     6.00224  -0.9479   -0.57121 
 F                     6.51714  -1.65321   0.43593 
 F                     6.13252  -1.67681  -1.68751 
 F                     6.74923   0.14765  -0.73317 
 

 GradGradGradGradGradGradGradGradGradGradGradGradGradGradGradGradGradGrad
 Berny optimization.
 Initialization pass.
 Trust Radius=3.00D-01 FncErr=1.00D-07 GrdErr=1.00D-07 EigMax=2.50D+02 EigMin=1.00D-04
 Number of steps in this run=      2 maximum allowed number of steps=      2.
 GradGradGradGradGradGradGradGradGradGradGradGradGradGradGradGradGradGrad

 Stoichiometry    C38H54B3F3IrN3O7
 Framework group  C1[X(C38H54B3F3IrN3O7)]
 Deg. of freedom   321
 Full point group                 C1      NOp   1
 Largest Abelian subgroup         C1      NOp   1
 Largest concise Abelian subgroup C1      NOp   1
                         Standard orientation:                         
 ---------------------------------------------------------------------
 Center     Atomic      Atomic             Coordinates (Angstroms)
 Number     Number       Type             X           Y           Z
 ---------------------------------------------------------------------
      1          6           0        2.595440    0.571980   -1.046960
      2          6           0        2.498300   -0.781730    0.823120
      3          6           0        3.833460   -1.142660    0.703170
      4          6           0        4.563360   -0.594560   -0.338490
      5          6           0        3.941040    0.266540   -1.230790
      6          6           0        1.840591    1.408460   -2.001330
      7          6           0       -0.253329    2.071691   -2.754930
      8          6           0        0.299561    2.776391   -3.815930
      9          6           0        1.681381    2.812410   -3.943820
     10          6           0        2.459691    2.116760   -3.030850
     11          1           0        1.870310   -1.168000    1.625460
     12          1           0        4.507281    0.672330   -2.065530
     13          1           0       -1.329499    2.013181   -2.590660
     14          1           0        2.153281    3.372880   -4.748420
     15          1           0        3.543031    2.138190   -3.111990
     16          7           0        1.899090    0.057160   -0.019040
     17          7           0        0.499311    1.418041   -1.862750
     18         77           0       -0.365090    0.536041    0.034220
     19          8           0       -3.357680    0.585831    0.700590
     20          8           0       -1.966300   -1.909009    1.128050
     21          8           0       -1.502030   -1.407859   -2.144880
     22          5           0       -0.924210   -1.005709    1.280220
     23          5           0       -2.352049    0.827561   -0.225950
     24          5           0       -0.595550   -1.224369   -1.115780
     25          8           0        0.279240   -2.303319   -1.037160
     26          8           0       -2.909019    1.352431   -1.395130
     27          6           0       -4.320099    1.531581   -1.186820
     28          6           0       -4.595350    0.544971   -0.018910
     29          6           0       -1.359080   -2.756029   -2.629420
     30          6           0        0.100660   -3.098829   -2.218360
     31          6           0       -2.093750   -2.655129    2.344120
     32          6           0       -0.647910   -2.603029    2.907680
     33          8           0       -0.194750   -1.322559    2.432500
     34          6           0       -5.727619    0.943731    0.904680
     35          1           0       -6.678039    1.006581    0.355020
     36          1           0       -5.843750    0.189161    1.693590
     37          1           0       -5.537089    1.908061    1.388560
     38          6           0       -4.784270   -0.890099   -0.499430
     39          1           0       -4.725080   -1.564289    0.365950
     40          1           0       -5.755090   -1.033409   -0.993770
     41          1           0       -3.978520   -1.176629   -1.189160
     42          6           0       -4.547529    2.986431   -0.800020
     43          1           0       -4.116479    3.632421   -1.576810
     44          1           0       -5.616549    3.223851   -0.713840
     45          1           0       -4.057759    3.225941    0.153040
     46          6           0       -5.048019    1.215261   -2.477810
     47          1           0       -6.137149    1.221021   -2.325890
     48          1           0       -4.810299    1.972711   -3.236420
     49          1           0       -4.750560    0.237631   -2.873040
     50          6           0       -3.100000   -1.913939    3.215750
     51          1           0       -4.046160   -1.826609    2.666350
     52          1           0       -3.295870   -2.440269    4.159700
     53          1           0       -2.756920   -0.893919    3.435970
     54          6           0       -2.606130   -4.044349    2.023840
     55          1           0       -2.673220   -4.658299    2.933540
     56          1           0       -3.611040   -3.973549    1.586020
     57          1           0       -1.961000   -4.560319    1.302560
     58          6           0       -0.553740   -2.636159    4.419830
     59          1           0       -0.995780   -3.561569    4.816520
     60          1           0        0.498540   -2.608809    4.733330
     61          1           0       -1.065500   -1.782069    4.878170
     62          6           0        0.272120   -3.653869    2.300150
     63          1           0        1.304090   -3.444199    2.616440
     64          1           0        0.018340   -4.668009    2.637130
     65          1           0        0.241910   -3.616849    1.201610
     66          6           0        0.348680   -4.553739   -1.876880
     67          1           0        1.398190   -4.692149   -1.585810
     68          1           0       -0.279340   -4.883259   -1.040440
     69          1           0        0.147400   -5.202089   -2.741860
     70          6           0        1.137080   -2.612279   -3.224110
     71          1           0        2.131610   -2.682130   -2.763670
     72          1           0        1.138830   -3.210849   -4.145030
     73          1           0        0.961210   -1.560089   -3.490210
     74          6           0       -1.623110   -2.772009   -4.121250
     75          1           0       -1.456020   -3.775919   -4.538100
     76          1           0       -2.668020   -2.495399   -4.312000
     77          1           0       -0.985220   -2.059509   -4.655720
     78          6           0       -2.395550   -3.605469   -1.906680
     79          1           0       -3.395860   -3.211339   -2.128280
     80          1           0       -2.364680   -4.654509   -2.230740
     81          1           0       -2.252000   -3.552889   -0.819190
     82          1           0       -0.349849    3.293681   -4.517460
     83          6           0        1.057441    2.961491    1.681000
     84          6           0        1.380611    4.312601    1.838480
     85          6           0       -0.027009    2.563691    0.878730
     86          6           0        0.603181    5.303351    1.255750
     87          6           0       -0.809199    3.587201    0.321050
     88          6           0       -0.504049    4.932971    0.499150
     89          1           0        0.854991    6.353491    1.396060
     90          1           0       -0.721739    1.198511    1.497880
     91          1           0        2.256231    4.575050    2.432960
     92          1           0       -1.670709    3.324191   -0.294590
     93          6           0        1.981081    1.998270    2.366530
     94          8           0        3.142581    1.875490    1.987620
     95          7           0        1.486371    1.313900    3.443090
     96          6           0        2.303510    0.309100    4.083140
     97          1           0        3.290450    0.308700    3.613250
     98          1           0        2.412690    0.528340    5.155560
     99          1           0        1.830920   -0.680760    3.974730
    100          6           0        0.169281    1.489441    4.015500
    101          1           0       -0.323539    2.366551    3.588430
    102          1           0       -0.451299    0.598691    3.831760
    103          1           0        0.260401    1.640231    5.101790
    104          1           0       -1.134869    5.694671    0.040710
    105          1           0        4.288160   -1.826620    1.414280
    106          6           0        6.002240   -0.947900   -0.571210
    107          9           0        6.517140   -1.653210    0.435930
    108          9           0        6.132520   -1.676810   -1.687510
    109          9           0        6.749230    0.147650   -0.733170
 ---------------------------------------------------------------------
 Rotational constants (GHZ):           0.0638272           0.0462900           0.0437021
 General basis read from cards:  (5D, 7F)
 ======================================================================================================
                                       Pseudopotential Parameters
 ======================================================================================================
  Center     Atomic      Valence      Angular      Power
  Number     Number     Electrons     Momentum     of R      Exponent        Coefficient   SO-Coeffient
 ======================================================================================================
    1          6
                                   No pseudopotential on this center.
    2          6
                                   No pseudopotential on this center.
    3          6
                                   No pseudopotential on this center.
    4          6
                                   No pseudopotential on this center.
    5          6
                                   No pseudopotential on this center.
    6          6
                                   No pseudopotential on this center.
    7          6
                                   No pseudopotential on this center.
    8          6
                                   No pseudopotential on this center.
    9          6
                                   No pseudopotential on this center.
   10          6
                                   No pseudopotential on this center.
   11          1
                                   No pseudopotential on this center.
   12          1
                                   No pseudopotential on this center.
   13          1
                                   No pseudopotential on this center.
   14          1
                                   No pseudopotential on this center.
   15          1
                                   No pseudopotential on this center.
   16          7
                                   No pseudopotential on this center.
   17          7
                                   No pseudopotential on this center.
   18         77           17
                                      G and up 
                                                     1      823.5880147       -0.15780140    0.00000000
                                                     2      364.6613336    -1517.52704460    0.00000000
                                                     2       55.7082801     -316.53065290    0.00000000
                                                     2       12.0464544      -91.88809410    0.00000000
                                                     2        3.5120610       -9.22417730    0.00000000
                                      S - G
                                                     0      188.0490770        3.15780140    0.00000000
                                                     1      340.4194712       26.83225770    0.00000000
                                                     2      128.2373673      800.42500070    0.00000000
                                                     2       33.8644961      369.40506830    0.00000000
                                                     2        4.7560005      242.41718990    0.00000000
                                                     2        3.9649974     -118.21732820    0.00000000
                                      P - G
                                                     0      289.7291139        2.15780140    0.00000000
                                                     1       87.4633789       61.96786100    0.00000000
                                                     2       30.4363766      269.05819860    0.00000000
                                                     2        4.0553412      231.16547930    0.00000000
                                                     2        3.5525341     -133.69526670    0.00000000
                                      D - G
                                                     0      136.4017106        3.15780140    0.00000000
                                                     1       95.0776925       45.93498030    0.00000000
                                                     2       49.2258410      359.03446680    0.00000000
                                                     2       15.0874145      176.47401190    0.00000000
                                                     2        4.0405764       54.51552860    0.00000000
                                      F - G
                                                     0      127.3507908        3.95461970    0.00000000
                                                     1       66.2364374       52.97736550    0.00000000
                                                     2       34.4299229      274.86433830    0.00000000
                                                     2       10.1995721      137.20473380    0.00000000
                                                     2        2.5409702       14.86333050    0.00000000
   19          8
                                   No pseudopotential on this center.
   20          8
                                   No pseudopotential on this center.
   21          8
                                   No pseudopotential on this center.
   22          5
                                   No pseudopotential on this center.
   23          5
                                   No pseudopotential on this center.
   24          5
                                   No pseudopotential on this center.
   25          8
                                   No pseudopotential on this center.
   26          8
                                   No pseudopotential on this center.
   27          6
                                   No pseudopotential on this center.
   28          6
                                   No pseudopotential on this center.
   29          6
                                   No pseudopotential on this center.
   30          6
                                   No pseudopotential on this center.
   31          6
                                   No pseudopotential on this center.
   32          6
                                   No pseudopotential on this center.
   33          8
                                   No pseudopotential on this center.
   34          6
                                   No pseudopotential on this center.
   35          1
                                   No pseudopotential on this center.
   36          1
                                   No pseudopotential on this center.
   37          1
                                   No pseudopotential on this center.
   38          6
                                   No pseudopotential on this center.
   39          1
                                   No pseudopotential on this center.
   40          1
                                   No pseudopotential on this center.
   41          1
                                   No pseudopotential on this center.
   42          6
                                   No pseudopotential on this center.
   43          1
                                   No pseudopotential on this center.
   44          1
                                   No pseudopotential on this center.
   45          1
                                   No pseudopotential on this center.
   46          6
                                   No pseudopotential on this center.
   47          1
                                   No pseudopotential on this center.
   48          1
                                   No pseudopotential on this center.
   49          1
                                   No pseudopotential on this center.
   50          6
                                   No pseudopotential on this center.
   51          1
                                   No pseudopotential on this center.
   52          1
                                   No pseudopotential on this center.
   53          1
                                   No pseudopotential on this center.
   54          6
                                   No pseudopotential on this center.
   55          1
                                   No pseudopotential on this center.
   56          1
                                   No pseudopotential on this center.
   57          1
                                   No pseudopotential on this center.
   58          6
                                   No pseudopotential on this center.
   59          1
                                   No pseudopotential on this center.
   60          1
                                   No pseudopotential on this center.
   61          1
                                   No pseudopotential on this center.
   62          6
                                   No pseudopotential on this center.
   63          1
                                   No pseudopotential on this center.
   64          1
                                   No pseudopotential on this center.
   65          1
                                   No pseudopotential on this center.
   66          6
                                   No pseudopotential on this center.
   67          1
                                   No pseudopotential on this center.
   68          1
                                   No pseudopotential on this center.
   69          1
                                   No pseudopotential on this center.
   70          6
                                   No pseudopotential on this center.
   71          1
                                   No pseudopotential on this center.
   72          1
                                   No pseudopotential on this center.
   73          1
                                   No pseudopotential on this center.
   74          6
                                   No pseudopotential on this center.
   75          1
                                   No pseudopotential on this center.
   76          1
                                   No pseudopotential on this center.
   77          1
                                   No pseudopotential on this center.
   78          6
                                   No pseudopotential on this center.
   79          1
                                   No pseudopotential on this center.
   80          1
                                   No pseudopotential on this center.
   81          1
                                   No pseudopotential on this center.
   82          1
                                   No pseudopotential on this center.
   83          6
                                   No pseudopotential on this center.
   84          6
                                   No pseudopotential on this center.
   85          6
                                   No pseudopotential on this center.
   86          6
                                   No pseudopotential on this center.
   87          6
                                   No pseudopotential on this center.
   88          6
                                   No pseudopotential on this center.
   89          1
                                   No pseudopotential on this center.
   90          1
                                   No pseudopotential on this center.
   91          1
                                   No pseudopotential on this center.
   92          1
                                   No pseudopotential on this center.
   93          6
                                   No pseudopotential on this center.
   94          8
                                   No pseudopotential on this center.
   95          7
                                   No pseudopotential on this center.
   96          6
                                   No pseudopotential on this center.
   97          1
                                   No pseudopotential on this center.
   98          1
                                   No pseudopotential on this center.
   99          1
                                   No pseudopotential on this center.
  100          6
                                   No pseudopotential on this center.
  101          1
                                   No pseudopotential on this center.
  102          1
                                   No pseudopotential on this center.
  103          1
                                   No pseudopotential on this center.
  104          1
                                   No pseudopotential on this center.
  105          1
                                   No pseudopotential on this center.
  106          6
                                   No pseudopotential on this center.
  107          9
                                   No pseudopotential on this center.
  108          9
                                   No pseudopotential on this center.
  109          9
                                   No pseudopotential on this center.
 ======================================================================================================
 There are   942 symmetry adapted cartesian basis functions of A   symmetry.
 There are   886 symmetry adapted basis functions of A   symmetry.
   886 basis functions,  1771 primitive gaussians,   942 cartesian basis functions
   209 alpha electrons      209 beta electrons
       nuclear repulsion energy      9495.0131650123 Hartrees.
 NAtoms=  109 NActive=  109 NUniq=  109 SFac= 1.00D+00 NAtFMM=   60 NAOKFM=T Big=T
 Integral buffers will be    131072 words long.
 Raffenetti 2 integral format.
 Two-electron integral symmetry is turned on.
 One-electron integrals computed using PRISM.
   1 Symmetry operations used in ECPInt.
 ECPInt:  NShTT=   55278 NPrTT=  342696 LenC2=   42398 LenP2D=  131857.
 LDataN:  DoStor=T MaxTD1= 6 Len=  172
 NBasis=   886 RedAO= T EigKep=  4.56D-04  NBF=   886
 NBsUse=   886 1.00D-06 EigRej= -1.00D+00 NBFU=   886
 Defaulting to unpruned grid for atomic number  77.
 ExpMin= 2.90D-02 ExpMax= 7.00D+03 ExpMxC= 1.05D+03 IAcc=3 IRadAn=         5 AccDes= 0.00D+00
 Harris functional with IExCor= 1009 and IRadAn=       5 diagonalized for initial guess.
 HarFok:  IExCor= 1009 AccDes= 0.00D+00 IRadAn=         5 IDoV= 1 UseB2=F ITyADJ=14
 ICtDFT=  3500011 ScaDFX=  1.000000  1.000000  1.000000  1.000000
 Defaulting to unpruned grid for atomic number  77.
 FoFCou: FMM=F IPFlag=           0 FMFlag=      100000 FMFlg1=        2001
         NFxFlg=           0 DoJE=T BraDBF=F KetDBF=T FulRan=T
         wScrn=  0.000000 ICntrl=       500 IOpCl=  0 I1Cent=   200000004 NGrid=           0
         NMat0=    1 NMatS0=      1 NMatT0=    0 NMatD0=    1 NMtDS0=    0 NMtDT0=    0
 Petite list used in FoFCou.
 Requested convergence on RMS density matrix=1.00D-08 within 128 cycles.
 Requested convergence on MAX density matrix=1.00D-06.
 Requested convergence on             energy=1.00D-06.
 No special actions if energy rises.
 Defaulting to unpruned grid for atomic number  77.
 Defaulting to unpruned grid for atomic number  77.
 Defaulting to unpruned grid for atomic number  77.
 Defaulting to unpruned grid for atomic number  77.
 Defaulting to unpruned grid for atomic number  77.
 Defaulting to unpruned grid for atomic number  77.
 Defaulting to unpruned grid for atomic number  77.
 Defaulting to unpruned grid for atomic number  77.
 Defaulting to unpruned grid for atomic number  77.
 Defaulting to unpruned grid for atomic number  77.
 Defaulting to unpruned grid for atomic number  77.
 Defaulting to unpruned grid for atomic number  77.
 Defaulting to unpruned grid for atomic number  77.
 Defaulting to unpruned grid for atomic number  77.
 Defaulting to unpruned grid for atomic number  77.
 Defaulting to unpruned grid for atomic number  77.
 SCF Done:  E(RM06) =  -2648.91023231     A.U. after   15 cycles
            NFock= 15  Conv=0.55D-08     -V/T= 2.0341
 DoSCS=F DFT=T ScalE2(SS,OS)=  1.000000  1.000000
 Range of M.O.s used for correlation:     1   886
 NBasis=   886 NAE=   209 NBE=   209 NFC=     0 NFV=     0
 NROrb=    886 NOA=   209 NOB=   209 NVA=   677 NVB=   677

 **** Warning!!: The largest alpha MO coefficient is  0.14569678D+02

   1 Symmetry operations used in ECPInt.
 ECPInt:  NShTT=   55278 NPrTT=  342696 LenC2=   42398 LenP2D=  131857.
 LDataN:  DoStor=T MaxTD1= 7 Len=  274
 Number of processors reduced to   7 by ecpmxn.
 Symmetrizing basis deriv contribution to polar:
 IMax=3 JMax=2 DiffMx= 0.00D+00
 G2DrvN: will do   110 centers at a time, making    1 passes.
 Calling FoFCou, ICntrl=  3107 FMM=T I1Cent=   0 AccDes= 0.00D+00.
 Defaulting to unpruned grid for atomic number  77.
 Defaulting to unpruned grid for atomic number  77.
 Defaulting to unpruned grid for atomic number  77.
 Defaulting to unpruned grid for atomic number  77.
 Defaulting to unpruned grid for atomic number  77.
 Defaulting to unpruned grid for atomic number  77.
 Defaulting to unpruned grid for atomic number  77.
 Defaulting to unpruned grid for atomic number  77.
 Defaulting to unpruned grid for atomic number  77.
 Defaulting to unpruned grid for atomic number  77.
 Defaulting to unpruned grid for atomic number  77.
 Defaulting to unpruned grid for atomic number  77.
 Defaulting to unpruned grid for atomic number  77.
 Defaulting to unpruned grid for atomic number  77.
 Defaulting to unpruned grid for atomic number  77.
 Defaulting to unpruned grid for atomic number  77.
 End of G2Drv F.D. properties file   721 does not exist.
 End of G2Drv F.D. properties file   722 does not exist.
 End of G2Drv F.D. properties file   788 does not exist.
          IDoAtm=11111111111111111111111111111111111111111111111111
          IDoAtm=11111111111111111111111111111111111111111111111111
          IDoAtm=111111111
          Differentiating once with respect to electric field.
                with respect to dipole field.
          Differentiating once with respect to nuclear coordinates.
 Defaulting to unpruned grid for atomic number  77.
 CalDSu exits because no D1Ps are significant.
 Defaulting to unpruned grid for atomic number  77.
 Defaulting to unpruned grid for atomic number  77.
 Defaulting to unpruned grid for atomic number  77.
 Defaulting to unpruned grid for atomic number  77.
 Defaulting to unpruned grid for atomic number  77.
 Defaulting to unpruned grid for atomic number  77.
 Defaulting to unpruned grid for atomic number  77.
 Defaulting to unpruned grid for atomic number  77.
 Defaulting to unpruned grid for atomic number  77.
 Defaulting to unpruned grid for atomic number  77.
 Defaulting to unpruned grid for atomic number  77.
 Defaulting to unpruned grid for atomic number  77.
 Defaulting to unpruned grid for atomic number  77.
 Defaulting to unpruned grid for atomic number  77.
 Defaulting to unpruned grid for atomic number  77.
 Defaulting to unpruned grid for atomic number  77.
          There are   330 degrees of freedom in the 1st order CPHF.  IDoFFX=6 NUNeed=     3.
    327 vectors produced by pass  0 Test12= 1.41D-13 1.00D-09 XBig12= 4.88D+02 5.41D+00.
 AX will form    72 AO Fock derivatives at one time.
    327 vectors produced by pass  1 Test12= 1.41D-13 1.00D-09 XBig12= 9.95D+01 1.42D+00.
    327 vectors produced by pass  2 Test12= 1.41D-13 1.00D-09 XBig12= 1.12D+00 9.74D-02.
    327 vectors produced by pass  3 Test12= 1.41D-13 1.00D-09 XBig12= 1.00D-02 7.74D-03.
    327 vectors produced by pass  4 Test12= 1.41D-13 1.00D-09 XBig12= 3.82D-05 5.19D-04.
    297 vectors produced by pass  5 Test12= 1.41D-13 1.00D-09 XBig12= 8.52D-08 1.88D-05.
     92 vectors produced by pass  6 Test12= 1.41D-13 1.00D-09 XBig12= 1.43D-10 6.68D-07.
      3 vectors produced by pass  7 Test12= 1.41D-13 1.00D-09 XBig12= 1.96D-13 2.56D-08.
      1 vectors produced by pass  8 Test12= 1.41D-13 1.00D-09 XBig12= 2.72D-16 1.00D-09.
 InvSVY:  IOpt=1 It=  1 EMax= 1.07D-14
 Solved reduced A of dimension  2028 with   330 vectors.
 Isotropic polarizability for W=    0.000000      509.06 Bohr**3.
 End of Minotr F.D. properties file   721 does not exist.
 End of Minotr F.D. properties file   722 does not exist.
 End of Minotr F.D. properties file   788 does not exist.
 Hyperfine terms turned off by default for NAtoms > 100.

 **********************************************************************

            Population analysis using the SCF Density.

 **********************************************************************

 Orbital symmetries:
       Occupied  (A) (A) (A) (A) (A) (A) (A) (A) (A) (A) (A) (A)
                 (A) (A) (A) (A) (A) (A) (A) (A) (A) (A) (A) (A)
                 (A) (A) (A) (A) (A) (A) (A) (A) (A) (A) (A) (A)
                 (A) (A) (A) (A) (A) (A) (A) (A) (A) (A) (A) (A)
                 (A) (A) (A) (A) (A) (A) (A) (A) (A) (A) (A) (A)
                 (A) (A) (A) (A) (A) (A) (A) (A) (A) (A) (A) (A)
                 (A) (A) (A) (A) (A) (A) (A) (A) (A) (A) (A) (A)
                 (A) (A) (A) (A) (A) (A) (A) (A) (A) (A) (A) (A)
                 (A) (A) (A) (A) (A) (A) (A) (A) (A) (A) (A) (A)
                 (A) (A) (A) (A) (A) (A) (A) (A) (A) (A) (A) (A)
                 (A) (A) (A) (A) (A) (A) (A) (A) (A) (A) (A) (A)
                 (A) (A) (A) (A) (A) (A) (A) (A) (A) (A) (A) (A)
                 (A) (A) (A) (A) (A) (A) (A) (A) (A) (A) (A) (A)
                 (A) (A) (A) (A) (A) (A) (A) (A) (A) (A) (A) (A)
                 (A) (A) (A) (A) (A) (A) (A) (A) (A) (A) (A) (A)
                 (A) (A) (A) (A) (A) (A) (A) (A) (A) (A) (A) (A)
                 (A) (A) (A) (A) (A) (A) (A) (A) (A) (A) (A) (A)
                 (A) (A) (A) (A) (A)
       Virtual   (A) (A) (A) (A) (A) (A) (A) (A) (A) (A) (A) (A)
                 (A) (A) (A) (A) (A) (A) (A) (A) (A) (A) (A) (A)
                 (A) (A) (A) (A) (A) (A) (A) (A) (A) (A) (A) (A)
                 (A) (A) (A) (A) (A) (A) (A) (A) (A) (A) (A) (A)
                 (A) (A) (A) (A) (A) (A) (A) (A) (A) (A) (A) (A)
                 (A) (A) (A) (A) (A) (A) (A) (A) (A) (A) (A) (A)
                 (A) (A) (A) (A) (A) (A) (A) (A) (A) (A) (A) (A)
                 (A) (A) (A) (A) (A) (A) (A) (A) (A) (A) (A) (A)
                 (A) (A) (A) (A) (A) (A) (A) (A) (A) (A) (A) (A)
                 (A) (A) (A) (A) (A) (A) (A) (A) (A) (A) (A) (A)
                 (A) (A) (A) (A) (A) (A) (A) (A) (A) (A) (A) (A)
                 (A) (A) (A) (A) (A) (A) (A) (A) (A) (A) (A) (A)
                 (A) (A) (A) (A) (A) (A) (A) (A) (A) (A) (A) (A)
                 (A) (A) (A) (A) (A) (A) (A) (A) (A) (A) (A) (A)
                 (A) (A) (A) (A) (A) (A) (A) (A) (A) (A) (A) (A)
                 (A) (A) (A) (A) (A) (A) (A) (A) (A) (A) (A) (A)
                 (A) (A) (A) (A) (A) (A) (A) (A) (A) (A) (A) (A)
                 (A) (A) (A) (A) (A) (A) (A) (A) (A) (A) (A) (A)
                 (A) (A) (A) (A) (A) (A) (A) (A) (A) (A) (A) (A)
                 (A) (A) (A) (A) (A) (A) (A) (A) (A) (A) (A) (A)
                 (A) (A) (A) (A) (A) (A) (A) (A) (A) (A) (A) (A)
                 (A) (A) (A) (A) (A) (A) (A) (A) (A) (A) (A) (A)
                 (A) (A) (A) (A) (A) (A) (A) (A) (A) (A) (A) (A)
                 (A) (A) (A) (A) (A) (A) (A) (A) (A) (A) (A) (A)
                 (A) (A) (A) (A) (A) (A) (A) (A) (A) (A) (A) (A)
                 (A) (A) (A) (A) (A) (A) (A) (A) (A) (A) (A) (A)
                 (A) (A) (A) (A) (A) (A) (A) (A) (A) (A) (A) (A)
                 (A) (A) (A) (A) (A) (A) (A) (A) (A) (A) (A) (A)
                 (A) (A) (A) (A) (A) (A) (A) (A) (A) (A) (A) (A)
                 (A) (A) (A) (A) (A) (A) (A) (A) (A) (A) (A) (A)
                 (A) (A) (A) (A) (A) (A) (A) (A) (A) (A) (A) (A)
                 (A) (A) (A) (A) (A) (A) (A) (A) (A) (A) (A) (A)
                 (A) (A) (A) (A) (A) (A) (A) (A) (A) (A) (A) (A)
                 (A) (A) (A) (A) (A) (A) (A) (A) (A) (A) (A) (A)
                 (A) (A) (A) (A) (A) (A) (A) (A) (A) (A) (A) (A)
                 (A) (A) (A) (A) (A) (A) (A) (A) (A) (A) (A) (A)
                 (A) (A) (A) (A) (A) (A) (A) (A) (A) (A) (A) (A)
                 (A) (A) (A) (A) (A) (A) (A) (A) (A) (A) (A) (A)
                 (A) (A) (A) (A) (A) (A) (A) (A) (A) (A) (A) (A)
                 (A) (A) (A) (A) (A) (A) (A) (A) (A) (A) (A) (A)
                 (A) (A) (A) (A) (A) (A) (A) (A) (A) (A) (A) (A)
                 (A) (A) (A) (A) (A) (A) (A) (A) (A) (A) (A) (A)
                 (A) (A) (A) (A) (A) (A) (A) (A) (A) (A) (A) (A)
                 (A) (A) (A) (A) (A) (A) (A) (A) (A) (A) (A) (A)
                 (A) (A) (A) (A) (A) (A) (A) (A) (A) (A) (A) (A)
                 (A) (A) (A) (A) (A) (A) (A) (A) (A) (A) (A) (A)
                 (A) (A) (A) (A) (A) (A) (A) (A) (A) (A) (A) (A)
                 (A) (A) (A) (A) (A) (A) (A) (A) (A) (A) (A) (A)
                 (A) (A) (A) (A) (A) (A) (A) (A) (A) (A) (A) (A)
                 (A) (A) (A) (A) (A) (A) (A) (A) (A) (A) (A) (A)
                 (A) (A) (A) (A) (A) (A) (A) (A) (A) (A) (A) (A)
                 (A) (A) (A) (A) (A) (A) (A) (A) (A) (A) (A) (A)
                 (A) (A) (A) (A) (A) (A) (A) (A) (A) (A) (A) (A)
                 (A) (A) (A) (A) (A) (A) (A) (A) (A) (A) (A) (A)
                 (A) (A) (A) (A) (A) (A) (A) (A) (A) (A) (A) (A)
                 (A) (A) (A) (A) (A) (A) (A) (A) (A) (A) (A) (A)
                 (A) (A) (A) (A) (A)
 The electronic state is 1-A.
 Alpha  occ. eigenvalues --  -24.83094 -24.82607 -24.82475 -19.21345 -19.20819
 Alpha  occ. eigenvalues --  -19.20688 -19.20649 -19.20372 -19.19517 -19.17380
 Alpha  occ. eigenvalues --  -14.45104 -14.44158 -14.41567 -10.51169 -10.33160
 Alpha  occ. eigenvalues --  -10.32132 -10.31915 -10.30054 -10.29929 -10.29904
 Alpha  occ. eigenvalues --  -10.29836 -10.29817 -10.29760 -10.29600 -10.29270
 Alpha  occ. eigenvalues --  -10.28936 -10.28926 -10.28461 -10.28181 -10.27825
 Alpha  occ. eigenvalues --  -10.27615 -10.25938 -10.25792 -10.24671 -10.23895
 Alpha  occ. eigenvalues --  -10.23628 -10.23531 -10.23488 -10.23376 -10.23361
 Alpha  occ. eigenvalues --  -10.23358 -10.23132 -10.23071 -10.22950 -10.22948
 Alpha  occ. eigenvalues --  -10.22732 -10.22611 -10.22580 -10.22555 -10.22258
 Alpha  occ. eigenvalues --  -10.21546  -6.81341  -6.80250  -6.79332  -3.63707
 Alpha  occ. eigenvalues --   -2.06229  -2.06000  -2.04583  -1.35674  -1.27181
 Alpha  occ. eigenvalues --   -1.26631  -1.07045  -1.06603  -1.05998  -1.03298
 Alpha  occ. eigenvalues --   -1.00028  -0.99924  -0.99689  -0.98957  -0.97442
 Alpha  occ. eigenvalues --   -0.93225  -0.86179  -0.84709  -0.83893  -0.82771
 Alpha  occ. eigenvalues --   -0.81078  -0.80805  -0.80210  -0.77427  -0.75479
 Alpha  occ. eigenvalues --   -0.75448  -0.75260  -0.74631  -0.74443  -0.73431
 Alpha  occ. eigenvalues --   -0.71251  -0.71004  -0.70783  -0.70219  -0.69144
 Alpha  occ. eigenvalues --   -0.68617  -0.68250  -0.67988  -0.67744  -0.67431
 Alpha  occ. eigenvalues --   -0.65251  -0.64490  -0.62505  -0.61824  -0.61639
 Alpha  occ. eigenvalues --   -0.61536  -0.61303  -0.60560  -0.59615  -0.59264
 Alpha  occ. eigenvalues --   -0.55448  -0.55243  -0.55028  -0.54418  -0.54315
 Alpha  occ. eigenvalues --   -0.53994  -0.53559  -0.53331  -0.53055  -0.51846
 Alpha  occ. eigenvalues --   -0.51420  -0.50582  -0.50106  -0.49019  -0.48662
 Alpha  occ. eigenvalues --   -0.48401  -0.47807  -0.47587  -0.47284  -0.47182
 Alpha  occ. eigenvalues --   -0.46962  -0.46838  -0.46434  -0.46329  -0.46212
 Alpha  occ. eigenvalues --   -0.46077  -0.46015  -0.45214  -0.45094  -0.44908
 Alpha  occ. eigenvalues --   -0.44754  -0.44567  -0.44323  -0.44287  -0.43992
 Alpha  occ. eigenvalues --   -0.43904  -0.43407  -0.43150  -0.42913  -0.42298
 Alpha  occ. eigenvalues --   -0.41959  -0.41198  -0.40870  -0.40704  -0.40641
 Alpha  occ. eigenvalues --   -0.40456  -0.40328  -0.40124  -0.40083  -0.39976
 Alpha  occ. eigenvalues --   -0.39825  -0.39789  -0.39638  -0.39478  -0.39384
 Alpha  occ. eigenvalues --   -0.39157  -0.39059  -0.38893  -0.38566  -0.38265
 Alpha  occ. eigenvalues --   -0.38077  -0.37909  -0.37381  -0.37118  -0.37037
 Alpha  occ. eigenvalues --   -0.36987  -0.36617  -0.36416  -0.36310  -0.36212
 Alpha  occ. eigenvalues --   -0.35805  -0.35672  -0.35575  -0.35229  -0.34988
 Alpha  occ. eigenvalues --   -0.34659  -0.34531  -0.34039  -0.33670  -0.33263
 Alpha  occ. eigenvalues --   -0.32691  -0.32491  -0.32205  -0.32034  -0.31889
 Alpha  occ. eigenvalues --   -0.31434  -0.31103  -0.31000  -0.30385  -0.30082
 Alpha  occ. eigenvalues --   -0.29958  -0.28070  -0.26945  -0.26702  -0.26500
 Alpha  occ. eigenvalues --   -0.26129  -0.25821  -0.25389  -0.23815  -0.23446
 Alpha  occ. eigenvalues --   -0.23255  -0.22583  -0.22417  -0.21175
 Alpha virt. eigenvalues --   -0.06956  -0.04108  -0.03263   0.00536   0.01323
 Alpha virt. eigenvalues --    0.02031   0.03948   0.04863   0.05681   0.06189
 Alpha virt. eigenvalues --    0.06573   0.06984   0.07549   0.08456   0.09076
 Alpha virt. eigenvalues --    0.09365   0.09858   0.10115   0.10518   0.10894
 Alpha virt. eigenvalues --    0.11181   0.11568   0.11623   0.12383   0.12599
 Alpha virt. eigenvalues --    0.13056   0.13282   0.13630   0.14011   0.14172
 Alpha virt. eigenvalues --    0.14266   0.14496   0.14827   0.15035   0.15207
 Alpha virt. eigenvalues --    0.15416   0.15440   0.15688   0.15846   0.16095
 Alpha virt. eigenvalues --    0.16296   0.16373   0.16798   0.16871   0.16903
 Alpha virt. eigenvalues --    0.17185   0.17345   0.17644   0.18045   0.18396
 Alpha virt. eigenvalues --    0.18471   0.18576   0.18778   0.18836   0.19026
 Alpha virt. eigenvalues --    0.19104   0.19362   0.19598   0.19829   0.19923
 Alpha virt. eigenvalues --    0.20079   0.20387   0.20590   0.20686   0.20810
 Alpha virt. eigenvalues --    0.20939   0.21297   0.21471   0.21771   0.21940
 Alpha virt. eigenvalues --    0.22206   0.22479   0.22865   0.23228   0.23334
 Alpha virt. eigenvalues --    0.23644   0.23830   0.24004   0.24147   0.24284
 Alpha virt. eigenvalues --    0.24545   0.25022   0.25064   0.25687   0.25712
 Alpha virt. eigenvalues --    0.26073   0.26402   0.26468   0.26585   0.26803
 Alpha virt. eigenvalues --    0.27129   0.27259   0.27691   0.28185   0.28388
 Alpha virt. eigenvalues --    0.28548   0.28937   0.29582   0.30516   0.30685
 Alpha virt. eigenvalues --    0.30968   0.31176   0.31836   0.32498   0.32592
 Alpha virt. eigenvalues --    0.33170   0.33431   0.34134   0.34334   0.34735
 Alpha virt. eigenvalues --    0.35818   0.36100   0.36135   0.37001   0.37403
 Alpha virt. eigenvalues --    0.38206   0.38784   0.39901   0.40463   0.40881
 Alpha virt. eigenvalues --    0.41836   0.43114   0.43659   0.43843   0.45144
 Alpha virt. eigenvalues --    0.46348   0.46529   0.47468   0.47996   0.48300
 Alpha virt. eigenvalues --    0.48436   0.48918   0.49925   0.50065   0.50312
 Alpha virt. eigenvalues --    0.50524   0.50898   0.51289   0.51430   0.51696
 Alpha virt. eigenvalues --    0.52072   0.52350   0.52684   0.53121   0.54023
 Alpha virt. eigenvalues --    0.54458   0.55098   0.55289   0.55490   0.55857
 Alpha virt. eigenvalues --    0.56228   0.56491   0.56737   0.57017   0.57475
 Alpha virt. eigenvalues --    0.57669   0.57860   0.58129   0.58222   0.58442
 Alpha virt. eigenvalues --    0.58489   0.58573   0.58879   0.59080   0.59334
 Alpha virt. eigenvalues --    0.59466   0.60153   0.60556   0.60701   0.60784
 Alpha virt. eigenvalues --    0.61043   0.61290   0.61699   0.61948   0.62291
 Alpha virt. eigenvalues --    0.62756   0.63023   0.63444   0.63620   0.63792
 Alpha virt. eigenvalues --    0.63946   0.64248   0.64841   0.65284   0.65581
 Alpha virt. eigenvalues --    0.65872   0.66254   0.66414   0.66966   0.67352
 Alpha virt. eigenvalues --    0.67591   0.68082   0.68214   0.68623   0.68927
 Alpha virt. eigenvalues --    0.69765   0.69847   0.70081   0.70213   0.70348
 Alpha virt. eigenvalues --    0.70929   0.71373   0.71463   0.71945   0.72208
 Alpha virt. eigenvalues --    0.72401   0.72801   0.73047   0.73239   0.73467
 Alpha virt. eigenvalues --    0.73885   0.74623   0.74992   0.75327   0.75537
 Alpha virt. eigenvalues --    0.75819   0.76200   0.76598   0.77396   0.77477
 Alpha virt. eigenvalues --    0.77741   0.78358   0.78519   0.78895   0.79081
 Alpha virt. eigenvalues --    0.79570   0.79656   0.80481   0.81041   0.81229
 Alpha virt. eigenvalues --    0.81738   0.82034   0.82246   0.82526   0.82763
 Alpha virt. eigenvalues --    0.83094   0.83141   0.83415   0.83512   0.83990
 Alpha virt. eigenvalues --    0.84144   0.84278   0.84823   0.85037   0.85375
 Alpha virt. eigenvalues --    0.85558   0.85953   0.86107   0.86399   0.86574
 Alpha virt. eigenvalues --    0.86687   0.86974   0.87406   0.87655   0.87968
 Alpha virt. eigenvalues --    0.88184   0.88490   0.88681   0.88887   0.89170
 Alpha virt. eigenvalues --    0.89464   0.89848   0.89973   0.90067   0.90178
 Alpha virt. eigenvalues --    0.90460   0.90683   0.90945   0.91143   0.91380
 Alpha virt. eigenvalues --    0.91645   0.91982   0.92398   0.92631   0.93000
 Alpha virt. eigenvalues --    0.93141   0.93474   0.93919   0.94303   0.94656
 Alpha virt. eigenvalues --    0.95062   0.95479   0.95669   0.96004   0.96101
 Alpha virt. eigenvalues --    0.96480   0.96593   0.97138   0.97342   0.97522
 Alpha virt. eigenvalues --    0.97926   0.98607   0.98948   0.99360   0.99729
 Alpha virt. eigenvalues --    1.00480   1.00769   1.01402   1.01463   1.02489
 Alpha virt. eigenvalues --    1.02634   1.03006   1.03955   1.04221   1.04542
 Alpha virt. eigenvalues --    1.04724   1.05533   1.06150   1.06580   1.07480
 Alpha virt. eigenvalues --    1.07622   1.08422   1.08837   1.09396   1.09656
 Alpha virt. eigenvalues --    1.09973   1.10691   1.11164   1.11469   1.12032
 Alpha virt. eigenvalues --    1.12499   1.12889   1.13524   1.14100   1.14905
 Alpha virt. eigenvalues --    1.15418   1.15703   1.16277   1.17082   1.17520
 Alpha virt. eigenvalues --    1.17765   1.17819   1.18303   1.18774   1.19296
 Alpha virt. eigenvalues --    1.19549   1.20388   1.20697   1.20905   1.21499
 Alpha virt. eigenvalues --    1.21799   1.22491   1.22885   1.23851   1.24032
 Alpha virt. eigenvalues --    1.24779   1.25438   1.26141   1.26414   1.27117
 Alpha virt. eigenvalues --    1.27382   1.27714   1.28176   1.28895   1.29485
 Alpha virt. eigenvalues --    1.30074   1.30782   1.31386   1.32182   1.33326
 Alpha virt. eigenvalues --    1.33839   1.33919   1.34253   1.34588   1.35074
 Alpha virt. eigenvalues --    1.35449   1.36869   1.37339   1.38177   1.38484
 Alpha virt. eigenvalues --    1.38663   1.38796   1.39456   1.39883   1.40097
 Alpha virt. eigenvalues --    1.40956   1.41345   1.41867   1.42286   1.42856
 Alpha virt. eigenvalues --    1.43473   1.44074   1.44176   1.44890   1.45092
 Alpha virt. eigenvalues --    1.45229   1.45715   1.46147   1.46558   1.46684
 Alpha virt. eigenvalues --    1.47268   1.48057   1.48131   1.48508   1.49303
 Alpha virt. eigenvalues --    1.49773   1.50577   1.50798   1.51334   1.51917
 Alpha virt. eigenvalues --    1.52425   1.53177   1.55252   1.55746   1.55852
 Alpha virt. eigenvalues --    1.56979   1.57764   1.57886   1.58429   1.59665
 Alpha virt. eigenvalues --    1.59908   1.60624   1.61381   1.62794   1.63707
 Alpha virt. eigenvalues --    1.64420   1.64582   1.65096   1.65612   1.66085
 Alpha virt. eigenvalues --    1.66319   1.66866   1.67455   1.68339   1.69041
 Alpha virt. eigenvalues --    1.69641   1.70076   1.70494   1.70941   1.71470
 Alpha virt. eigenvalues --    1.72206   1.72618   1.73074   1.74546   1.75623
 Alpha virt. eigenvalues --    1.76302   1.76907   1.77090   1.78182   1.78420
 Alpha virt. eigenvalues --    1.78727   1.79215   1.79449   1.80285   1.80715
 Alpha virt. eigenvalues --    1.80825   1.81338   1.81660   1.82260   1.82613
 Alpha virt. eigenvalues --    1.83324   1.83696   1.84353   1.84771   1.85227
 Alpha virt. eigenvalues --    1.85660   1.85892   1.86357   1.86772   1.87056
 Alpha virt. eigenvalues --    1.87604   1.87878   1.88430   1.88545   1.89373
 Alpha virt. eigenvalues --    1.89384   1.89772   1.90407   1.90833   1.91145
 Alpha virt. eigenvalues --    1.91330   1.91679   1.91991   1.92136   1.92368
 Alpha virt. eigenvalues --    1.92543   1.92886   1.93069   1.93177   1.93415
 Alpha virt. eigenvalues --    1.93663   1.94073   1.94673   1.95217   1.95882
 Alpha virt. eigenvalues --    1.96457   1.96744   1.97464   1.97776   1.97981
 Alpha virt. eigenvalues --    1.98562   1.98988   2.00074   2.00517   2.01432
 Alpha virt. eigenvalues --    2.01856   2.02200   2.02698   2.02793   2.03005
 Alpha virt. eigenvalues --    2.03286   2.03788   2.04794   2.05171   2.05375
 Alpha virt. eigenvalues --    2.05788   2.06265   2.06490   2.06778   2.07159
 Alpha virt. eigenvalues --    2.07303   2.07955   2.08263   2.08542   2.09005
 Alpha virt. eigenvalues --    2.09706   2.09887   2.10042   2.10084   2.10404
 Alpha virt. eigenvalues --    2.10846   2.11094   2.11493   2.11796   2.12594
 Alpha virt. eigenvalues --    2.13097   2.13601   2.14135   2.14308   2.14517
 Alpha virt. eigenvalues --    2.14794   2.15391   2.15873   2.16014   2.16371
 Alpha virt. eigenvalues --    2.16619   2.16946   2.17506   2.17959   2.18103
 Alpha virt. eigenvalues --    2.18685   2.18725   2.18963   2.19632   2.19738
 Alpha virt. eigenvalues --    2.20431   2.20654   2.21050   2.21308   2.21573
 Alpha virt. eigenvalues --    2.21744   2.22197   2.22300   2.22471   2.23013
 Alpha virt. eigenvalues --    2.23447   2.23781   2.24242   2.25093   2.25761
 Alpha virt. eigenvalues --    2.26033   2.26543   2.26865   2.27416   2.27642
 Alpha virt. eigenvalues --    2.27818   2.28140   2.28749   2.29217   2.30532
 Alpha virt. eigenvalues --    2.30968   2.31709   2.31986   2.32401   2.32731
 Alpha virt. eigenvalues --    2.33055   2.33468   2.34377   2.34896   2.35259
 Alpha virt. eigenvalues --    2.35953   2.36292   2.37553   2.37886   2.38391
 Alpha virt. eigenvalues --    2.39105   2.39249   2.40714   2.41924   2.43062
 Alpha virt. eigenvalues --    2.43632   2.44562   2.45386   2.45853   2.46603
 Alpha virt. eigenvalues --    2.47709   2.47793   2.48401   2.48815   2.49556
 Alpha virt. eigenvalues --    2.49882   2.50579   2.51009   2.52465   2.53136
 Alpha virt. eigenvalues --    2.54390   2.56419   2.58338   2.58904   2.59464
 Alpha virt. eigenvalues --    2.60196   2.60552   2.61003   2.62164   2.62734
 Alpha virt. eigenvalues --    2.63534   2.63725   2.64002   2.64916   2.65320
 Alpha virt. eigenvalues --    2.66805   2.68211   2.68924   2.69252   2.70565
 Alpha virt. eigenvalues --    2.71790   2.73546   2.74928   2.75075   2.76526
 Alpha virt. eigenvalues --    2.77098   2.77748   2.78020   2.78915   2.79237
 Alpha virt. eigenvalues --    2.79697   2.80027   2.80632   2.80886   2.81260
 Alpha virt. eigenvalues --    2.81612   2.82238   2.83059   2.83528   2.84600
 Alpha virt. eigenvalues --    2.85133   2.86258   2.86812   2.88383   2.90657
 Alpha virt. eigenvalues --    2.92206   2.93151   2.94324   2.95964   2.96155
 Alpha virt. eigenvalues --    2.96913   2.97541   2.98916   3.00083   3.03407
 Alpha virt. eigenvalues --    3.04825   3.05251   3.05826   3.07641   3.07996
 Alpha virt. eigenvalues --    3.09592   3.11274   3.12421   3.13212   3.14160
 Alpha virt. eigenvalues --    3.14694   3.20741   3.27719   3.32279   3.37852
 Alpha virt. eigenvalues --    3.45799  15.15497
          Condensed to atoms (all electrons):
 Mulliken charges:
               1
     1  C    0.303523
     2  C    0.084104
     3  C   -0.183291
     4  C   -0.023330
     5  C   -0.205798
     6  C    0.303577
     7  C    0.049976
     8  C   -0.172099
     9  C   -0.138487
    10  C   -0.183351
    11  H    0.200500
    12  H    0.183275
    13  H    0.241911
    14  H    0.184181
    15  H    0.179371
    16  N   -0.450298
    17  N   -0.497727
    18  Ir  -0.225113
    19  O   -0.509750
    20  O   -0.523939
    21  O   -0.496449
    22  B    0.505375
    23  B    0.539003
    24  B    0.521868
    25  O   -0.521798
    26  O   -0.543910
    27  C    0.304978
    28  C    0.287418
    29  C    0.289346
    30  C    0.296160
    31  C    0.291477
    32  C    0.295149
    33  O   -0.531677
    34  C   -0.514176
    35  H    0.148207
    36  H    0.166513
    37  H    0.171685
    38  C   -0.494003
    39  H    0.154047
    40  H    0.140089
    41  H    0.184224
    42  C   -0.512350
    43  H    0.159888
    44  H    0.153786
    45  H    0.178024
    46  C   -0.510072
    47  H    0.149496
    48  H    0.161219
    49  H    0.178507
    50  C   -0.495491
    51  H    0.165601
    52  H    0.147597
    53  H    0.177267
    54  C   -0.507815
    55  H    0.153759
    56  H    0.169318
    57  H    0.162168
    58  C   -0.512518
    59  H    0.157017
    60  H    0.162924
    61  H    0.171023
    62  C   -0.509325
    63  H    0.148898
    64  H    0.153304
    65  H    0.188216
    66  C   -0.508260
    67  H    0.169420
    68  H    0.163928
    69  H    0.153544
    70  C   -0.506816
    71  H    0.168710
    72  H    0.154129
    73  H    0.165923
    74  C   -0.510740
    75  H    0.149571
    76  H    0.170692
    77  H    0.170145
    78  C   -0.500878
    79  H    0.163354
    80  H    0.146665
    81  H    0.176449
    82  H    0.183055
    83  C   -0.008181
    84  C   -0.162696
    85  C   -0.122487
    86  C   -0.170293
    87  C   -0.176300
    88  C   -0.141300
    89  H    0.149903
    90  H    0.224609
    91  H    0.160731
    92  H    0.135749
    93  C    0.483338
    94  O   -0.516972
    95  N   -0.362254
    96  C   -0.370357
    97  H    0.204057
    98  H    0.164668
    99  H    0.159354
   100  C   -0.372914
   101  H    0.200743
   102  H    0.185987
   103  H    0.162281
   104  H    0.144096
   105  H    0.191625
   106  C    0.963279
   107  F   -0.313514
   108  F   -0.312772
   109  F   -0.310470
 Sum of Mulliken charges =  -0.00000
 Mulliken charges with hydrogens summed into heavy atoms:
               1
     1  C    0.303523
     2  C    0.284604
     3  C    0.008334
     4  C   -0.023330
     5  C   -0.022522
     6  C    0.303577
     7  C    0.291887
     8  C    0.010956
     9  C    0.045694
    10  C   -0.003980
    16  N   -0.450298
    17  N   -0.497727
    18  Ir  -0.000504
    19  O   -0.509750
    20  O   -0.523939
    21  O   -0.496449
    22  B    0.505375
    23  B    0.539003
    24  B    0.521868
    25  O   -0.521798
    26  O   -0.543910
    27  C    0.304978
    28  C    0.287418
    29  C    0.289346
    30  C    0.296160
    31  C    0.291477
    32  C    0.295149
    33  O   -0.531677
    34  C   -0.027771
    38  C   -0.015644
    42  C   -0.020652
    46  C   -0.020850
    50  C   -0.005025
    54  C   -0.022571
    58  C   -0.021554
    62  C   -0.018907
    66  C   -0.021368
    70  C   -0.018054
    74  C   -0.020332
    78  C   -0.014411
    83  C   -0.008181
    84  C   -0.001965
    85  C   -0.122487
    86  C   -0.020389
    87  C   -0.040551
    88  C    0.002796
    93  C    0.483338
    94  O   -0.516972
    95  N   -0.362254
    96  C    0.157722
   100  C    0.176098
   106  C    0.963279
   107  F   -0.313514
   108  F   -0.312772
   109  F   -0.310470
 APT charges:
               1
     1  C    0.190920
     2  C    0.081200
     3  C   -0.087471
     4  C   -0.023053
     5  C   -0.161792
     6  C    0.201250
     7  C    0.051299
     8  C   -0.086153
     9  C    0.140064
    10  C   -0.176926
    11  H    0.107555
    12  H    0.059331
    13  H    0.151542
    14  H    0.030446
    15  H    0.043929
    16  N   -0.218962
    17  N   -0.173051
    18  Ir  -1.012781
    19  O   -0.948489
    20  O   -0.986651
    21  O   -0.934653
    22  B    1.313377
    23  B    1.255874
    24  B    1.223864
    25  O   -0.939798
    26  O   -1.020361
    27  C    0.517184
    28  C    0.478081
    29  C    0.462737
    30  C    0.450847
    31  C    0.484384
    32  C    0.488693
    33  O   -0.989900
    34  C   -0.002236
    35  H   -0.018566
    36  H   -0.004344
    37  H   -0.001150
    38  C   -0.031489
    39  H   -0.000594
    40  H   -0.030679
    41  H    0.024814
    42  C   -0.041639
    43  H    0.000209
    44  H   -0.024918
    45  H    0.010059
    46  C   -0.011762
    47  H   -0.018766
    48  H   -0.005229
    49  H    0.006533
    50  C   -0.026279
    51  H   -0.000096
    52  H   -0.025906
    53  H    0.010755
    54  C    0.005237
    55  H   -0.017645
    56  H    0.001202
    57  H   -0.005468
    58  C   -0.017480
    59  H   -0.013400
    60  H   -0.000560
    61  H    0.007137
    62  C   -0.028127
    63  H   -0.009021
    64  H   -0.019531
    65  H    0.025892
    66  C    0.003287
    67  H    0.001192
    68  H   -0.007216
    69  H   -0.018097
    70  C   -0.018025
    71  H   -0.008254
    72  H   -0.020664
    73  H   -0.010232
    74  C   -0.002481
    75  H   -0.016382
    76  H    0.001427
    77  H   -0.001994
    78  C   -0.037091
    79  H    0.005096
    80  H   -0.026731
    81  H    0.026142
    82  H    0.037201
    83  C   -0.161209
    84  C   -0.012839
    85  C    0.190288
    86  C   -0.051508
    87  C   -0.137098
    88  C    0.015140
    89  H   -0.002921
    90  H    0.299766
    91  H    0.011704
    92  H    0.044089
    93  C    1.010340
    94  O   -0.749645
    95  N   -0.718919
    96  C    0.262322
    97  H    0.064519
    98  H   -0.046435
    99  H   -0.020980
   100  C    0.262065
   101  H    0.036185
   102  H    0.002705
   103  H   -0.052860
   104  H   -0.007634
   105  H    0.067467
   106  C    1.812559
   107  F   -0.561271
   108  F   -0.593176
   109  F   -0.579317
 Sum of APT charges =  -0.00000
 APT charges with hydrogens summed into heavy atoms:
               1
     1  C    0.190920
     2  C    0.188755
     3  C   -0.020004
     4  C   -0.023053
     5  C   -0.102461
     6  C    0.201250
     7  C    0.202841
     8  C   -0.048952
     9  C    0.170510
    10  C   -0.132997
    16  N   -0.218962
    17  N   -0.173051
    18  Ir  -0.713015
    19  O   -0.948489
    20  O   -0.986651
    21  O   -0.934653
    22  B    1.313377
    23  B    1.255874
    24  B    1.223864
    25  O   -0.939798
    26  O   -1.020361
    27  C    0.517184
    28  C    0.478081
    29  C    0.462737
    30  C    0.450847
    31  C    0.484384
    32  C    0.488693
    33  O   -0.989900
    34  C   -0.026296
    38  C   -0.037948
    42  C   -0.056290
    46  C   -0.029224
    50  C   -0.041527
    54  C   -0.016673
    58  C   -0.024303
    62  C   -0.030787
    66  C   -0.020833
    70  C   -0.057176
    74  C   -0.019430
    78  C   -0.032584
    83  C   -0.161209
    84  C   -0.001135
    85  C    0.190288
    86  C   -0.054429
    87  C   -0.093009
    88  C    0.007506
    93  C    1.010340
    94  O   -0.749645
    95  N   -0.718919
    96  C    0.259426
   100  C    0.248095
   106  C    1.812559
   107  F   -0.561271
   108  F   -0.593176
   109  F   -0.579317
 Electronic spatial extent (au):  <R**2>=          30154.7731
 Charge=             -0.0000 electrons
 Dipole moment (field-independent basis, Debye):
    X=             -1.2473    Y=             -1.0849    Z=             -2.5223  Tot=              3.0157
 Quadrupole moment (field-independent basis, Debye-Ang):
   XX=           -344.2782   YY=           -322.0467   ZZ=           -309.1591
   XY=             -1.1094   XZ=             -6.1613   YZ=            -16.9578
 Traceless Quadrupole moment (field-independent basis, Debye-Ang):
   XX=            -19.1169   YY=              3.1146   ZZ=             16.0022
   XY=             -1.1094   XZ=             -6.1613   YZ=            -16.9578
 Octapole moment (field-independent basis, Debye-Ang**2):
  XXX=            -91.9682  YYY=             30.5025  ZZZ=            -15.1781  XYY=              2.0362
  XXY=             16.1397  XXZ=            -29.9799  XZZ=             49.6924  YZZ=             32.6033
  YYZ=            -33.3537  XYZ=            -22.0616
 Hexadecapole moment (field-independent basis, Debye-Ang**3):
 XXXX=         -17614.5779 YYYY=         -11361.5984 ZZZZ=          -9607.8614 XXXY=           -157.4442
 XXXZ=            -19.4128 YYYX=            -89.7479 YYYZ=            -52.1290 ZZZX=           -108.2772
 ZZZY=           -227.5962 XXYY=          -4832.4865 XXZZ=          -4469.4129 YYZZ=          -3343.7153
 XXYZ=           -187.1859 YYXZ=            -30.1956 ZZXY=             69.2510
 N-N= 9.495013165012D+03 E-N=-2.514991502792D+04  KE= 2.561556438314D+03
  Exact polarizability:     535.132      -7.979     510.373      10.840     -40.451     481.668
 Approx polarizability:     792.940     -25.510     732.639      27.819     -88.364     718.048
   1 Symmetry operations used in ECPInt.
 ECPInt:  NShTT=   55278 NPrTT=  342696 LenC2=   42398 LenP2D=  131857.
 LDataN:  DoStor=T MaxTD1= 8 Len=  415
 Calling FoFJK, ICntrl=    100127 FMM=F ISym2X=0 I1Cent= 0 IOpClX= 0 NMat=1 NMatS=1 NMatT=0.
 Defaulting to unpruned grid for atomic number  77.
 Defaulting to unpruned grid for atomic number  77.
 Defaulting to unpruned grid for atomic number  77.
 Defaulting to unpruned grid for atomic number  77.
 Defaulting to unpruned grid for atomic number  77.
 Defaulting to unpruned grid for atomic number  77.
 Defaulting to unpruned grid for atomic number  77.
 Defaulting to unpruned grid for atomic number  77.
 Defaulting to unpruned grid for atomic number  77.
 Defaulting to unpruned grid for atomic number  77.
 Defaulting to unpruned grid for atomic number  77.
 Defaulting to unpruned grid for atomic number  77.
 Defaulting to unpruned grid for atomic number  77.
 Defaulting to unpruned grid for atomic number  77.
 Defaulting to unpruned grid for atomic number  77.
 Defaulting to unpruned grid for atomic number  77.
 Full mass-weighted force constant matrix:
 Low frequencies --- -799.2947   -6.7122   -0.0004    0.0001    0.0006    3.6752
 Low frequencies ---    7.2690   15.8230   23.2192
 ******    1 imaginary frequencies (negative Signs) ****** 
 Diagonal vibrational polarizability:
       71.6403765     112.1563698      90.1836334
 Harmonic frequencies (cm**-1), IR intensities (KM/Mole), Raman scattering
 activities (A**4/AMU), depolarization ratios for plane and unpolarized
 incident light, reduced masses (AMU), force constants (mDyne/A),
 and normal coordinates:
                      1                      2                      3
                      A                      A                      A
 Frequencies --   -799.2941                15.8082                23.1755
 Red. masses --      1.1052                 7.4937                 9.7749
 Frc consts  --      0.4160                 0.0011                 0.0031
 IR Inten    --    555.3365                 0.1532                 0.0829
  Atom AN      X      Y      Z        X      Y      Z        X      Y      Z
     1   6    -0.00   0.00  -0.00     0.01  -0.01  -0.01     0.00   0.02   0.00
     2   6    -0.00  -0.00  -0.00     0.01  -0.00  -0.00     0.01  -0.05  -0.05
     3   6    -0.00  -0.00   0.00     0.02   0.04   0.03     0.01  -0.02  -0.05
     4   6    -0.00  -0.00   0.00     0.03   0.07   0.06     0.01   0.02  -0.02
     5   6    -0.00   0.00  -0.00     0.03   0.04   0.03     0.01   0.04   0.00
     6   6     0.00   0.00  -0.00    -0.00  -0.05  -0.04     0.00   0.04   0.02
     7   6     0.00   0.00  -0.00    -0.01  -0.09  -0.05     0.00   0.02   0.01
     8   6     0.00   0.00  -0.00    -0.02  -0.14  -0.09     0.01   0.08   0.05
     9   6     0.00   0.00  -0.00    -0.03  -0.15  -0.11     0.01   0.13   0.09
    10   6     0.00   0.00  -0.00    -0.02  -0.11  -0.09     0.01   0.11   0.07
    11   1    -0.00  -0.00  -0.00     0.00  -0.02  -0.02     0.00  -0.09  -0.07
    12   1    -0.00  -0.00  -0.00     0.04   0.07   0.05     0.01   0.08   0.02
    13   1     0.00   0.00   0.00    -0.01  -0.07  -0.03    -0.00  -0.02  -0.02
    14   1     0.00   0.00  -0.00    -0.03  -0.20  -0.15     0.01   0.19   0.13
    15   1     0.00   0.00  -0.01    -0.02  -0.12  -0.11     0.01   0.15   0.10
    16   7    -0.00  -0.00  -0.00     0.00  -0.02  -0.02     0.00  -0.03  -0.02
    17   7     0.01   0.02  -0.00    -0.00  -0.05  -0.03    -0.00  -0.00  -0.01
    18  77    -0.00  -0.01  -0.00     0.00  -0.02  -0.01    -0.00  -0.02  -0.01
    19   8    -0.00   0.00   0.00     0.02   0.01   0.03    -0.00   0.03  -0.01
    20   8     0.00  -0.00   0.00    -0.01  -0.01  -0.01    -0.03   0.02   0.03
    21   8    -0.00   0.00   0.00    -0.07   0.01   0.01    -0.02  -0.04   0.01
    22   5    -0.01   0.03   0.01    -0.00  -0.01  -0.01    -0.01  -0.01   0.00
    23   5     0.00  -0.01   0.00     0.00   0.01   0.01     0.00  -0.00  -0.02
    24   5     0.00   0.01  -0.00    -0.04  -0.01  -0.02    -0.02  -0.03   0.01
    25   8    -0.00   0.00   0.00    -0.04  -0.01  -0.06    -0.04  -0.05   0.04
    26   8    -0.00   0.00   0.00    -0.01   0.03   0.03     0.01  -0.02  -0.03
    27   6     0.00  -0.00  -0.00    -0.00   0.05   0.05     0.01  -0.01  -0.04
    28   6    -0.00   0.00   0.00     0.00   0.04   0.05    -0.00   0.02  -0.02
    29   6    -0.00   0.00   0.00    -0.09   0.01  -0.01    -0.03  -0.05   0.03
    30   6    -0.00   0.00   0.00    -0.07   0.00  -0.06    -0.04  -0.06   0.05
    31   6     0.00   0.00  -0.00    -0.00  -0.01  -0.01    -0.04   0.04   0.04
    32   6    -0.00   0.00   0.00    -0.00  -0.02  -0.02    -0.03   0.01   0.02
    33   8     0.00  -0.00   0.01     0.00  -0.02  -0.02    -0.00  -0.01  -0.00
    34   6    -0.00   0.00  -0.00     0.02   0.04   0.07    -0.00   0.05  -0.03
    35   1    -0.00   0.00   0.00     0.02   0.06   0.08     0.00   0.05  -0.04
    36   1     0.00   0.00  -0.00     0.03   0.03   0.06    -0.01   0.07  -0.02
    37   1    -0.00   0.00   0.00     0.05   0.03   0.08     0.01   0.06  -0.05
    38   6    -0.00   0.00  -0.00    -0.02   0.05   0.03    -0.01   0.01   0.01
    39   1     0.00   0.00  -0.00    -0.02   0.03   0.02    -0.03   0.03   0.03
    40   1    -0.00  -0.00  -0.00    -0.03   0.06   0.05    -0.01   0.01   0.01
    41   1     0.00   0.00   0.00    -0.04   0.04   0.01    -0.01  -0.01   0.02
    42   6    -0.00   0.00  -0.00     0.03   0.05   0.08     0.02   0.00  -0.07
    43   1    -0.00   0.00  -0.00     0.02   0.05   0.08     0.03  -0.02  -0.08
    44   1    -0.00   0.00   0.00     0.03   0.06   0.10     0.02   0.02  -0.08
    45   1    -0.00  -0.00   0.00     0.05   0.03   0.07     0.02   0.02  -0.07
    46   6    -0.00   0.00  -0.00    -0.03   0.08   0.06     0.01  -0.03  -0.03
    47   1    -0.00  -0.00  -0.00    -0.02   0.09   0.08     0.01  -0.02  -0.04
    48   1     0.00  -0.00  -0.00    -0.03   0.08   0.07     0.02  -0.05  -0.05
    49   1     0.00   0.00   0.00    -0.05   0.08   0.04     0.01  -0.04  -0.01
    50   6     0.00  -0.00   0.00     0.01  -0.01  -0.00    -0.01   0.08   0.04
    51   1     0.00  -0.00  -0.00     0.00   0.00   0.01    -0.01   0.10   0.05
    52   1    -0.00  -0.00   0.00     0.01  -0.01  -0.00    -0.01   0.10   0.05
    53   1     0.00  -0.00  -0.00     0.02  -0.01  -0.00     0.02   0.07   0.02
    54   6     0.00  -0.00   0.00    -0.02  -0.01  -0.01    -0.07   0.05   0.07
    55   1    -0.00  -0.00   0.00    -0.02  -0.01  -0.01    -0.08   0.06   0.08
    56   1     0.00   0.00  -0.00    -0.02   0.00  -0.01    -0.08   0.06   0.08
    57   1    -0.00  -0.00  -0.00    -0.02  -0.01  -0.02    -0.10   0.02   0.07
    58   6    -0.00  -0.00   0.00     0.01  -0.03  -0.02    -0.02   0.03   0.02
    59   1     0.00  -0.00   0.00     0.00  -0.03  -0.03    -0.03   0.05   0.04
    60   1     0.00  -0.00   0.00     0.01  -0.05  -0.03    -0.01   0.01   0.01
    61   1    -0.00  -0.00   0.00     0.02  -0.03  -0.01     0.01   0.05   0.02
    62   6    -0.00  -0.00   0.00    -0.01  -0.02  -0.04    -0.06  -0.02   0.03
    63   1     0.00  -0.00  -0.00    -0.01  -0.03  -0.05    -0.05  -0.05   0.02
    64   1     0.00  -0.00  -0.00    -0.01  -0.02  -0.04    -0.09  -0.01   0.05
    65   1    -0.00   0.00   0.00    -0.02  -0.02  -0.04    -0.07  -0.04   0.03
    66   6    -0.00   0.00   0.00    -0.07  -0.00  -0.08    -0.05  -0.06   0.07
    67   1     0.00   0.00   0.00    -0.06  -0.01  -0.12    -0.05  -0.06   0.08
    68   1     0.00   0.00   0.00    -0.03  -0.01  -0.06    -0.06  -0.04   0.07
    69   1    -0.00   0.00  -0.00    -0.10   0.01  -0.08    -0.05  -0.06   0.07
    70   6    -0.00   0.00   0.00    -0.11   0.01  -0.09    -0.02  -0.07   0.05
    71   1    -0.00   0.00   0.00    -0.10   0.04  -0.10    -0.03  -0.06   0.07
    72   1    -0.00  -0.00   0.00    -0.11   0.00  -0.08    -0.01  -0.09   0.06
    73   1    -0.00   0.00   0.00    -0.13   0.01  -0.09    -0.02  -0.08   0.04
    74   6     0.00   0.00   0.00    -0.13   0.02  -0.00    -0.02  -0.08   0.03
    75   1     0.00   0.00   0.00    -0.15   0.03  -0.02    -0.03  -0.09   0.05
    76   1     0.00   0.00   0.00    -0.14   0.03   0.03    -0.02  -0.07   0.02
    77   1     0.00   0.00   0.00    -0.15   0.02  -0.02    -0.01  -0.09   0.02
    78   6     0.00   0.00   0.00    -0.07   0.00   0.01    -0.04  -0.03   0.04
    79   1     0.00   0.00  -0.00    -0.07   0.01   0.05    -0.04  -0.02   0.03
    80   1     0.00   0.00  -0.00    -0.08   0.01   0.00    -0.05  -0.03   0.06
    81   1     0.00   0.00   0.00    -0.03  -0.01   0.01    -0.05  -0.01   0.04
    82   1     0.00   0.00  -0.01    -0.03  -0.18  -0.11     0.01   0.10   0.06
    83   6     0.01   0.00   0.01     0.03  -0.03  -0.00     0.03  -0.04  -0.02
    84   6     0.01   0.00  -0.01     0.05  -0.04  -0.01     0.05  -0.04  -0.02
    85   6    -0.03  -0.00   0.06     0.04  -0.02  -0.02     0.02  -0.02  -0.02
    86   6     0.00  -0.00  -0.00     0.07  -0.03  -0.02     0.06  -0.03  -0.03
    87   6    -0.01  -0.00   0.01     0.06  -0.01  -0.03     0.04  -0.01  -0.02
    88   6     0.00  -0.01  -0.01     0.08  -0.01  -0.04     0.06  -0.02  -0.02
    89   1    -0.01  -0.00   0.01     0.09  -0.03  -0.02     0.08  -0.03  -0.03
    90   1     0.28   0.94  -0.18     0.02  -0.01  -0.01    -0.00  -0.02  -0.01
    91   1     0.01   0.00  -0.01     0.05  -0.05   0.00     0.06  -0.05  -0.03
    92   1    -0.03  -0.02   0.04     0.07  -0.00  -0.04     0.03  -0.00  -0.01
    93   6     0.00  -0.00   0.01     0.01  -0.04   0.01     0.02  -0.05  -0.02
    94   8    -0.00   0.00  -0.00     0.02  -0.05   0.03     0.02  -0.06  -0.02
    95   7     0.00   0.00   0.00    -0.01  -0.04   0.00     0.01  -0.05  -0.02
    96   6     0.00  -0.00   0.00    -0.03  -0.05   0.01    -0.01  -0.07  -0.03
    97   1     0.00  -0.00   0.00    -0.02  -0.05   0.04    -0.00  -0.07  -0.03
    98   1    -0.00   0.00  -0.00    -0.05  -0.06   0.02    -0.01  -0.09  -0.03
    99   1    -0.00   0.00  -0.00    -0.03  -0.04  -0.01    -0.02  -0.06  -0.06
   100   6    -0.00  -0.00   0.00    -0.02  -0.02  -0.01     0.02  -0.02  -0.02
   101   1     0.00   0.01   0.02    -0.00  -0.02  -0.02     0.04  -0.01  -0.01
   102   1    -0.00   0.00  -0.01    -0.02  -0.02  -0.02    -0.01  -0.01  -0.03
   103   1     0.00  -0.01   0.00    -0.03  -0.02  -0.01     0.02  -0.04  -0.02
   104   1     0.01  -0.01  -0.01     0.10  -0.01  -0.05     0.07  -0.01  -0.02
   105   1    -0.00  -0.00  -0.00     0.03   0.07   0.05     0.02  -0.04  -0.07
   106   6    -0.00  -0.00  -0.00     0.06   0.14   0.11     0.03   0.09  -0.01
   107   9     0.00   0.00   0.00     0.06   0.20   0.15    -0.02  -0.15  -0.16
   108   9     0.00   0.00   0.00     0.13   0.11   0.14     0.11   0.37  -0.19
   109   9     0.00   0.00   0.00     0.01   0.17   0.09     0.03   0.14   0.30
                      4                      5                      6
                      A                      A                      A
 Frequencies --     25.3428                29.0597                34.5176
 Red. masses --      7.4022                 4.1746                 5.3089
 Frc consts  --      0.0028                 0.0021                 0.0037
 IR Inten    --      0.4472                 0.1642                 0.1613
  Atom AN      X      Y      Z        X      Y      Z        X      Y      Z
     1   6     0.00   0.03   0.00    -0.01  -0.00  -0.03     0.01   0.00  -0.03
     2   6     0.00  -0.05  -0.06     0.00   0.01  -0.02     0.03   0.02  -0.02
     3   6     0.01  -0.01  -0.05     0.01   0.02  -0.03     0.03   0.02  -0.03
     4   6     0.02   0.05  -0.02    -0.00   0.02  -0.03     0.02   0.01  -0.04
     5   6     0.01   0.07   0.00    -0.01   0.01  -0.04     0.01   0.00  -0.04
     6   6     0.00   0.07   0.03    -0.03  -0.02  -0.04     0.00  -0.02  -0.04
     7   6     0.00   0.05   0.03    -0.03  -0.02  -0.02    -0.00  -0.01  -0.02
     8   6     0.01   0.15   0.09    -0.05  -0.05  -0.04    -0.01  -0.05  -0.06
     9   6     0.01   0.20   0.13    -0.05  -0.06  -0.07    -0.01  -0.08  -0.09
    10   6     0.01   0.16   0.10    -0.04  -0.05  -0.07    -0.01  -0.06  -0.08
    11   1     0.00  -0.09  -0.08     0.01   0.01  -0.02     0.04   0.02  -0.01
[...]
 -0.00001122,0.00001693,0.00001801,-0.00012974,0.00002560,0.00005731,0.
 00000696,-0.00000535,0.00001028,0.00003282,0.00000919,-0.00000549,0.00
 001229,-0.00000468,-0.00003704,0.00000834,-0.00001350,0.00001065,-0.00
 012044,-0.00020107,-0.00035648,0.02705518,-0.14270754,-0.09685120,-0.0
 0393229,0.02102752,0.00733114,-0.01641205,0.18497168,0.00119707,0.0008
 5839,0.00059126,-0.00018165,0.00130793,0.00051750,0.00196288,-0.001265
 00,0.00126005,0.01023541,-0.01874807,-0.01862636,0.00080193,0.00219173
 ,-0.00154265,0.00003695,0.00027470,-0.00051731,-0.00005564,-0.00006950
 ,0.00006482,0.00014391,-0.00001176,0.00003137,-0.00007880,0.00009825,-
 0.00004232,0.00018905,-0.00010076,0.00027409,0.00009082,-0.00018313,0.
 00002014,-0.00020547,-0.00195402,-0.00011835,0.00000537,-0.00001335,0.
 00000133,0.00000635,-0.00005675,0.00002759,-0.00001985,-0.00008696,-0.
 00014476,0.00005052,-0.00111245,0.00054344,0.00012170,-0.00017931,0.00
 016054,0.00058708,0.00026528,0.00013311,0.00038926,0.00002212,0.000016
 54,0.00021455,0.00027586,0.00001588,0.00003563,0.00044418,0.00040747,-
 0.00039207,-0.00033842,-0.00004330,-0.00060312,-0.00005382,-0.00013847
 ,-0.00016303,-0.00084077,-0.00063229,-0.00015088,0.00068695,0.00060143
 ,0.00037562,-0.00004687,0.00016593,-0.00014780,0.00001686,0.00000971,-
 0.00014128,-0.00003113,-0.00008202,0.00008477,-0.00026577,-0.00002526,
 0.00008664,-0.00019410,-0.00061579,-0.00005357,-0.00005765,0.00003798,
 -0.00004914,-0.00020858,0.00006646,0.00030194,0.00021175,-0.00005801,0
 .00001780,0.00001169,0.00000760,0.00001973,-0.00000395,0.00000428,-0.0
 0000439,0.00000097,-0.00000754,-0.00000840,0.00000434,0.00000293,0.000
 02398,0.00001803,0.00000337,-0.00000930,-0.00000229,-0.00000448,0.0000
 2240,0.00000718,0.00001217,-0.00000563,-0.00001544,-0.00000666,0.00002
 662,-0.00000113,-0.00000647,-0.00001146,0.00000204,-0.00000471,0.00002
 119,-0.00000703,-0.00000228,-0.00000961,0.00000770,0.00001568,0.000020
 66,-0.00001143,-0.00000277,0.00001777,0.00000235,0.00000606,-0.0000057
 2,-0.00000754,0.00000564,-0.00000364,0.00000906,-0.00000173,0.00001104
 ,0.00000351,-0.00000252,0.00001276,-0.00000299,0.00000790,-0.00000086,
 0.00000402,-0.00001212,-0.00001081,0.00001581,0.00001032,0.00003398,-0
 .00001333,-0.00001059,-0.00000383,0.00000924,-0.00000236,0.00002045,0.
 00000119,0.00000638,-0.00001876,0.00000628,0.00000054,-0.00002313,0.00
 003080,-0.00001784,0.00001588,0.00002167,-0.00000949,0.00001638,-0.000
 02055,0.00001725,-0.00001074,-0.00000558,0.00001083,-0.00007476,0.0000
 2863,-0.00004818,0.00003222,-0.00002239,0.00004165,0.00002873,0.000030
 17,-0.00001650,-0.00000093,-0.00002880,-0.00000969,0.00003950,0.000020
 62,0.00008499,-0.00001770,0.00001555,-0.00008865,-0.00005831,-0.000032
 06,0.00002591,0.00002398,0.00004024,0.00002517,0.00006331,-0.00009667,
 0.00026425,0.00005725,0.00000454,-0.00019831,0.00003748,0.00005088,0.0
 0007552,-0.00002182,0.00001522,-0.00005125,0.00000100,0.00003060,0.000
 00610,0.00001589,0.00003669,0.00002180,-0.00002653,-0.00000978,0.00000
 533,0.00001266,-0.00004134,0.00001477,-0.00005548,0.00006245,-0.000003
 17,-0.00002715,-0.00001404,-0.00000387,0.00001662,0.00003437,0.0000077
 4,0.00000174,-0.00002927,0.00000072,0.00001054,-0.00002569,0.00000121,
 0.00001089,-0.00002708,-0.00000890,0.00003047,0.00001680,-0.00000191,-
 0.00010501,0.00012314,0.00000541,0.00001373,0.00000587,0.00001317,-0.0
 0000477,-0.00000605,-0.00001688,-0.00000276,-0.00001579,0.00000319,-0.
 00000321,-0.00002257,-0.00000108,-0.00002831,-0.00003131,0.00003343,-0
 .00000604,0.00001891,0.00000617,0.00000577,0.00000512,0.00000614,-0.00
 072417,0.00010629,0.00032883,0.00063904,-0.00033159,-0.00026779,0.0002
 6152,0.00005440,-0.00025920,-0.00005643,-0.00001542,0.00004169,-0.0000
 0184,0.00004889,0.00004480,0.00001537,-0.00002522,-0.00003732,-0.00003
 231,0.00000019,0.00002486,-0.00016187,0.00001229,0.00009096,0.00002154
 ,-0.00001328,0.00000661,0.00003535,0.00001541,-0.00001078,0.00001269,-
 0.00000076,-0.00003845,0.00001490,-0.00001972,0.00001152,-0.00074878,-
 0.00068228,-0.00017425,0.03709284,-0.09944750,-0.22105450,-0.01211446,
 -0.00707796,-0.08060978,-0.02616229,0.15872515,0.32038307,0.00155785,0
 .00004602,0.00096524,-0.00027020,0.00092928,0.00245001,-0.00538432,0.0
 0336511,-0.00400425,-0.03129379,-0.04037249,0.01153301,-0.00149826,-0.
 00047942,0.00121204,0.00011314,-0.00048994,0.00052418,0.00007546,0.000
 13156,-0.00016595,-0.00025422,0.00000452,-0.00000165,0.00013429,-0.000
 13666,0.00016730,-0.00032755,0.00035687,-0.00032983,-0.00033182,0.0002
 7347,-0.00018751,-0.00179257,-0.00041367,-0.00083203,0.00002035,0.0000
 1805,-0.00002085,-0.00001061,0.00004166,-0.00006478,-0.00005651,-0.000
 11604,0.00008191,-0.00079060,-0.00053105,0.00007393,-0.00010546,0.0001
 1248,-0.00021399,-0.00065389,-0.00011631,0.00000963,-0.00060653,-0.000
 00092,0.00003882,-0.00028930,-0.00034646,0.00017737,-0.00023916,-0.000
 25274,-0.00032905,0.00049879,0.00036659,-0.00023457,0.00089601,0.00001
 915,0.00008843,0.00055152,0.00032093,0.00047554,-0.00025524,-0.0003087
 1,-0.00029451,-0.00060884,0.00013165,-0.00017175,0.00025687,-0.0000686
 3,-0.00003759,0.00019584,0.00000749,0.00009793,0.00005212,0.00015664,0
 .00007632,0.00004328,0.00020945,0.00021606,0.00007007,0.00009258,-0.00
 014752,0.00009715,0.00024983,-0.00016502,-0.00040349,-0.00026843,0.000
 34703,-0.00002205,-0.00001024,-0.00000649,-0.00002914,0.00000467,-0.00
 000717,0.00000562,-0.00000779,0.00001121,0.00000899,0.00000763,0.00000
 143,-0.00002190,-0.00000339,-0.00001748,0.00001613,0.00000036,0.000004
 16,-0.00003288,-0.00000987,-0.00001786,0.00001495,0.00001040,0.0000157
 2,-0.00003836,0.00001176,0.00000443,0.00001692,-0.00000420,-0.00000185
 ,-0.00003649,0.00001471,0.00000516,0.00001392,-0.00001402,-0.00000928,
 -0.00003208,0.00000849,0.00000179,-0.00003372,-0.00000285,-0.00000447,
 0.00001361,0.00000567,-0.00001004,0.00001309,0.00000190,0.00000738,-0.
 00001830,-0.00000219,0.00001118,-0.00001024,0.00000656,-0.00001059,-0.
 00000824,-0.00001494,0.00003128,0.00001114,-0.00000901,-0.00001775,-0.
 00002028,-0.00000533,0.00000017,0.00000115,-0.00001683,0.00002104,-0.0
 0001722,0.00000136,-0.00001391,0.00000733,0.00001479,0.00000218,-0.000
 01279,-0.00001647,0.00001638,-0.00001412,-0.00002597,0.00001850,0.0000
 1208,0.00000998,-0.00001694,-0.00000598,0.00001623,0.00000376,0.000037
 30,-0.00003120,0.00003740,-0.00003142,0.00003343,-0.00007797,-0.000044
 08,-0.00004439,0.00002215,0.00004232,0.00004302,0.00001987,0.00002240,
 -0.00002615,-0.00000739,-0.00000770,0.00003666,0.00001595,-0.00000462,
 0.00000144,0.00001601,-0.00001865,-0.00002628,-0.00003291,0.00011365,-
 0.00002248,0.00001108,-0.00008740,0.00005384,0.00000133,-0.00004717,-0
 .00004630,-0.00005306,0.00002728,-0.00000542,0.00005116,-0.00002494,-0
 .00000297,-0.00000944,0.00000725,-0.00002413,-0.00001086,-0.00002468,0
 .00001062,-0.00000548,0.00000905,0.00000278,0.00001820,-0.00001542,-0.
 00001076,-0.00000909,-0.00001961,0.00001046,0.00000077,-0.00000045,-0.
 00003221,-0.00000452,0.00001286,0.00001622,-0.00000546,-0.00002142,0.0
 0001115,-0.00001651,0.00001496,0.00014023,-0.00000461,-0.00003608,-0.0
 0005073,0.00000047,0.00022024,-0.00032002,-0.00013081,0.00002048,0.000
 04337,-0.00000046,0.00007271,0.00013019,0.00007516,-0.00001972,-0.0000
 1121,0.00000792,0.00000167,0.00004857,0.00000399,-0.00003921,-0.000183
 78,-0.00008066,0.00002439,0.00002717,0.00003888,0.00001729,-0.00002754
 ,-0.00000748,0.00013055,-0.00012638,-0.00033400,0.00017165,0.00044324,
 0.00039749,0.00004385,0.00005296,0.00018789,-0.00007343,-0.00002072,-0
 .00003985,-0.00007699,-0.00007820,-0.00010501,-0.00003573,0.00005074,0
 .00008903,0.00006178,0.00003198,-0.00006977,0.00006113,-0.00005727,-0.
 00008065,-0.00000183,-0.00000480,-0.00002894,0.00000271,-0.00000769,-0
 .00002542,0.00000877,0.00000496,0.00005443,-0.00001155,0.00003531,-0.0
 0001365,0.00007262,-0.00072044,-0.00037624,-0.17868549,-0.10767769,0.0
 1717906,0.01999154,-0.00004302,0.00519124,0.01002960,-0.01893289,-0.01
 288959,0.18893801,-0.00089690,0.00083395,0.00019903,0.00068712,-0.0005
 7916,0.00070116,-0.00222012,0.00126280,-0.00046334,-0.01083371,-0.0051
 4181,0.00330072,0.00159802,-0.00014607,0.00249150,-0.00007054,-0.00015
 790,0.00028909,0.00004008,0.00000876,-0.00002440,-0.00005361,0.0000155
 0,-0.00001280,0.00009726,0.00001320,0.00002464,-0.00029295,0.00008290,
 -0.00006828,-0.00012396,0.00009238,-0.00008676,-0.00026339,-0.00032265
 ,-0.00171672,-0.00002042,-0.00000798,0.00000291,-0.00001826,0.00000890
 ,-0.00003675,-0.00002093,-0.00002944,-0.00008553,0.00006383,0.00050300
 ,-0.00117684,-0.00002567,0.00004642,-0.00011600,-0.00017665,0.00024515
 ,0.00004234,-0.00011562,0.00003397,-0.00000522,-0.00005293,0.00002947,
 0.00001324,-0.00011842,0.00012729,-0.00001031,0.00010086,-0.00014218,0
 .00003144,0.00018492,-0.00007221,0.00005940,0.00022634,-0.00032545,0.0
 0001174,-0.00023244,0.00023431,0.00006032,-0.00011180,0.00007847,-0.00
 006169,0.00004153,-0.00002847,-0.00001180,0.00003174,-0.00002246,0.000
 01778,0.00007181,-0.00005510,0.00003107,0.00004078,-0.00001839,-0.0000
 9699,0.00003261,0.00000133,-0.00000200,0.00002869,-0.00006789,-0.00005
 121,-0.00014464,0.00010568,0.00002989,-0.00000389,0.00000087,-0.000000
 40,-0.00000650,0.00000005,-0.00000184,0.00000323,-0.00000029,-0.000001
 70,0.00000005,0.00000610,0.00000429,0.00000005,0.00000604,-0.00000499,
 0.00000704,0.00000279,-0.00000485,-0.00000719,-0.00000059,-0.00000327,
 0.00000491,-0.00000476,0.00000711,-0.00000675,0.00000391,0.00000045,0.
 00000206,0.00000338,-0.00000834,-0.00000581,0.00000460,0.00000192,0.00
 000008,-0.00000572,0.00000404,-0.00000582,-0.00000180,0.00000148,-0.00
 000589,-0.00000098,-0.00000049,0.00000220,0.00000436,-0.00000609,0.000
 00275,0.00000368,0.00000573,-0.00001443,0.00000150,-0.00000925,-0.0000
 0978,0.00000124,-0.00000153,0.00000030,-0.00000298,0.00000532,0.000003
 90,0.00000215,0.00000178,0.00000302,-0.00000396,-0.00001132,0.00000452
 ,-0.00000045,0.00000332,-0.00000984,0.00000198,-0.00000378,-0.00000037
 ,0.00001121,0.00001199,-0.00000292,0.00002077,0.00000306,0.00000477,-0
 .00000140,0.00000020,0.00000224,-0.00001465,-0.00001019,-0.00001637,0.
 00001031,0.00001339,0.00001304,0.00003207,0.00003121,-0.00002172,-0.00
 001504,-0.00004989,-0.00000826,0.00000066,0.00000302,0.00003050,0.0000
 0106,0.00001454,0.00006654,-0.00000465,0.00002651,-0.00003040,0.000023
 28,-0.00001732,-0.00001476,-0.00000330,0.00001095,-0.00000707,0.000005
 06,-0.00001082,0.00011866,-0.00003592,0.00010120,-0.00003491,-0.000005
 51,-0.00004942,-0.00001229,-0.00000573,0.00000296,-0.00002528,0.000024
 62,-0.00000742,-0.00002012,0.00000886,0.00000092,0.00001019,0.00000592
 ,0.00000700,-0.00002506,0.00000048,-0.00000293,0.00001393,-0.00001154,
 0.00000913,-0.00002812,0.00002088,-0.00000761,-0.00002324,0.00000144,-
 0.00000354,0.00001042,0.00000497,0.00000511,0.00000956,-0.00000635,-0.
 00000578,0.00000852,-0.00000624,-0.00000997,0.00003696,0.00006301,-0.0
 0001180,-0.00000860,-0.00002462,-0.00002235,0.00006954,-0.00015611,-0.
 00008076,0.00002576,0.00004108,-0.00000289,0.00004510,0.00007454,0.000
 02562,-0.00001409,-0.00000354,-0.00000316,-0.00000736,0.00002282,0.000
 00771,-0.00004343,-0.00013712,-0.00002523,0.00000588,0.00002585,0.0000
 4646,0.00000382,-0.00001472,0.00000425,-0.00054397,-0.00015404,0.00025
 625,0.00063675,0.00018803,-0.00010268,0.00017925,0.00021109,-0.0002177
 5,0.00003984,-0.00009438,0.00002891,-0.00004469,-0.00009423,-0.0000053
 8,-0.00001922,0.00002523,0.00001057,0.00004634,0.00005393,-0.00003771,
 -0.00006581,0.00000480,-0.00002186,-0.00000656,-0.00000199,-0.00000413
 ,0.00003358,-0.00000043,-0.00001807,0.00001875,-0.00000464,-0.00000352
 ,-0.00000234,0.00001208,0.00000177,0.00045221,-0.00006534,-0.00060676,
 -0.11029386,-0.20632341,0.02204606,-0.01347143,-0.05398408,0.04066624,
 -0.02890377,-0.05887489,-0.03238629,0.16440306,0.32252240,0.00006637,-
 0.00099078,-0.00035631,-0.00058523,-0.00082302,-0.00023706,0.00001406,
 -0.00021971,0.00012311,0.00839754,0.00831471,0.00827212,0.00020321,0.0
 0041307,-0.00152664,0.00006845,0.00009484,-0.00014685,-0.00002931,-0.0
 0001127,0.00000614,0.00002805,-0.00000638,0.00001509,-0.00005190,0.000
 00416,-0.00000423,0.00015696,0.00000296,0.00004801,0.00004264,0.000037
 87,0.00005045,-0.00008804,-0.00016122,0.00105724,0.00001406,-0.0000015
 2,-0.00000806,0.00001052,-0.00001960,0.00001618,-0.00000570,-0.0000570
 1,-0.00000724,0.00005706,0.00000240,0.00058529,-0.00000485,-0.00004484
 ,0.00009001,0.00031003,0.00008977,0.00007453,0.00013062,-0.00000071,0.
 00001434,0.00006740,0.00006293,0.00000966,0.00003301,0.00009704,0.0001
 2353,-0.00011901,-0.00006682,-0.00001871,-0.00021695,-0.00000765,-0.00
 008756,-0.00009095,-0.00017217,-0.00019729,-0.00000102,0.00014565,0.00
 016014,0.00011668,-0.00003008,0.00007344,-0.00004410,0.00000799,0.0000
 0379,-0.00004669,-0.00000213,-0.00002859,0.00001006,-0.00006002,-0.000
 01513,0.00001973,-0.00004912,-0.00015267,-0.00002167,-0.00001601,0.000
 00521,-0.00001762,-0.00003198,0.00001853,0.00008964,0.00002892,0.00000
 164,0.00000579,0.00000239,0.00000254,0.00000697,-0.00000100,0.00000157
 ,-0.00000236,-0.00000028,-0.00000126,-0.00000259,0.00000058,-0.0000003
 3,0.00000700,0.00000399,0.00000205,-0.00000435,-0.00000172,0.00000017,
 0.00000783,0.00000232,0.00000404,-0.00000268,-0.00000297,-0.00000324,0
 .00000849,-0.00000028,-0.00000328,-0.00000379,-0.00000097,0.00000049,0
 .00000661,-0.00000257,-0.00000077,-0.00000290,0.00000321,0.00000410,0.
 00000614,-0.00000200,-0.00000136,0.00000532,0.00000077,0.00000208,-0.0
 0000148,-0.00000410,0.00000340,-0.00000141,0.00000258,-0.00000176,0.00
 000556,0.00000004,0.00000143,0.00000611,-0.00000074,0.00000282,-0.0000
 0105,0.00000103,-0.00000351,-0.00000396,0.00000401,0.00000200,0.000008
 24,-0.00000313,-0.00000059,-0.00000235,0.00000205,-0.00000060,0.000008
 16,-0.00000029,0.00000234,-0.00000556,0.00000018,-0.00000236,-0.000009
 09,0.00000403,-0.00000654,0.00000381,0.00000653,-0.00000123,0.00000686
 ,-0.00000393,0.00000717,-0.00000120,-0.00000342,0.00000102,-0.00002339
 ,-0.00000172,-0.00001913,0.00001384,0.,0.00001818,0.00000724,0.0000065
 5,-0.00000462,-0.00000431,-0.00000608,-0.00000436,-0.00000313,0.000006
 52,0.00001934,0.00000171,-0.00000003,-0.00002140,-0.00001414,-0.000008
 93,0.00000584,0.00000808,0.00001043,0.00000918,-0.00001867,-0.00001547
 ,0.00004399,0.00002194,0.00000547,-0.00003665,0.00001363,0.00001473,0.
 00002124,0.00000269,-0.00000260,-0.00001093,0.00000555,0.00000763,0.00
 000082,0.00000238,0.00000871,0.00000481,-0.00000219,-0.00000266,0.0000
 0204,-0.00000017,-0.00000951,0.00000306,-0.00000988,0.00001303,0.00000
 143,-0.00000285,-0.00000419,-0.00000069,0.00000242,0.00000830,0.000000
 91,-0.00000143,-0.00000714,0.00000164,-0.00000289,-0.00000441,0.000002
 34,0.00000018,-0.00002534,-0.00000498,0.00000717,0.00000570,0.00000235
 ,-0.00006140,0.00007078,0.00000416,0.00000083,-0.00000259,0.00000720,-
 0.00000694,-0.00000923,-0.00000344,0.00000162,-0.00000805,0.00000485,0
 .00000092,-0.00001143,-0.00000272,-0.00000395,-0.00000117,0.00002075,-
 0.00000214,0.00000536,-0.00000529,0.00000527,0.00000377,0.00000048,-0.
 00019028,0.00005938,0.00005240,0.00018722,-0.00013011,-0.00003903,0.00
 008532,-0.00001250,-0.00004896,-0.00004189,0.00000915,0.00001466,-0.00
 000764,0.00002384,0.00000914,0.00000596,-0.00000765,-0.00000741,-0.000
 01072,-0.00000465,0.00000709,-0.00004809,-0.00000148,0.00003385,0.0000
 1060,-0.00000547,0.00000097,0.00000873,0.00000546,-0.00000342,0.000002
 51,0.00000112,-0.00001040,0.00000701,-0.00000858,0.00000285,-0.0002927
 5,0.00022767,0.00050187,0.01973454,0.02370416,-0.07973966,0.01491191,0
 .04811126,-0.01368147,-0.02250615,-0.04568757,-0.00105369,-0.02035544,
 -0.03286701,0.08592828\\-0.00000373,-0.00000214,-0.00000077,0.00000083
 ,-0.00000253,0.00000503,-0.00000475,-0.00000106,0.00000072,0.00000302,
 -0.00000591,0.00000442,-0.00000037,0.00000378,-0.00000781,-0.00000012,
 -0.00000082,-0.00000088,0.00000254,-0.00000106,0.00000496,0.00000215,0
 .00000133,-0.00000284,-0.00000528,-0.00000283,0.00000650,0.00000438,0.
 00000006,-0.00000262,0.00000460,0.00000074,0.00000120,0.00000006,-0.00
 000170,-0.00000051,0.00000068,0.00000073,0.00000086,0.00000271,0.00000
 233,-0.00000273,-0.00000007,-0.00000098,0.00000022,-0.00000026,-0.0000
 0368,-0.00000129,-0.00000010,0.00000466,-0.00000177,-0.00000382,-0.000
 01335,-0.00000801,-0.00000126,0.00000058,0.00000052,0.00000081,-0.0000
 0167,0.00000006,-0.00000685,0.00000677,0.00000089,0.00000338,0.0000067
 0,0.00000042,0.00000389,-0.00000034,-0.00000011,0.00000627,-0.00000062
 ,0.00000200,-0.00000433,-0.00000160,-0.00000098,-0.00000277,0.00000281
 ,0.00000276,0.00000226,-0.00000616,-0.00000470,0.00000396,0.00000276,-
 0.00000041,-0.00000498,-0.00000297,-0.00000869,-0.00000046,0.00000381,
 0.00000279,-0.00000220,0.00000106,-0.00000172,0.00000143,-0.00000026,-
 0.00000500,0.00000281,0.00000149,0.00000367,0.00000214,0.00000580,0.00
 000510,-0.00000009,0.00000217,0.00000027,0.00000035,0.00000122,0.00000
 097,-0.00000037,-0.00000324,-0.00000222,-0.00000736,0.00000258,-0.0000
 0101,-0.00000073,0.00000046,0.00000018,0.00000461,0.00000170,0.0000026
 7,0.00000257,-0.00000200,-0.00000513,-0.00000307,0.00000650,0.00000576
 ,0.00000235,0.00000251,-0.00000064,0.00000321,0.00000069,0.00000129,-0
 .00000018,0.00000039,-0.00000051,0.00000571,0.00000581,0.00000261,-0.0
 0000366,0.00000188,0.00000051,-0.00000055,0.00000028,0.00000222,-0.000
 00007,0.00000142,0.00000039,0.00000175,0.00000073,0.00000352,-0.000002
 44,-0.00000075,-0.00000051,-0.00000018,-0.00000074,0.00000073,0.000000
 72,0.00000242,-0.00000137,0.00000229,-0.00000553,-0.00000390,-0.000000
 53,0.00000128,-0.00000226,-0.00000015,0.00000061,0.00000020,-0.0000046
 5,0.00000329,0.00000335,-0.00000467,-0.00000266,0.00000342,0.00000067,
 0.00000161,-0.00000171,0.00000345,-0.00000186,0.00000028,-0.00000234,-
 0.00000080,-0.00000119,-0.00000384,-0.00000228,-0.00000027,0.00000159,
 -0.00000083,-0.00000021,-0.00000120,0.00000151,-0.00000124,-0.00000102
 ,-0.00000040,-0.00000185,-0.00000594,-0.00000389,0.00000649,-0.0000007
 2,-0.00000011,-0.00000164,0.00000234,0.00000155,-0.00000452,-0.0000015
 4,-0.00000091,-0.00000319,0.00000294,-0.00000334,-0.00000484,-0.000003
 36,0.00000246,-0.00000057,-0.00000260,0.00000243,0.00000158,0.00000169
 ,0.00000482,0.00000176,0.00000165,0.00000226,0.00000493,-0.00000220,0.
 00000197,-0.00000153,-0.00000032,0.00000047,-0.00000074,-0.00000199,0.
 00000010,-0.00000012,-0.00000010,0.00000273,0.00000548,-0.00000259,0.0
 0000243,-0.00000099,-0.00000053,-0.00000088,-0.00000162,-0.00000136,0.
 00000183,-0.00000600,0.00000100,0.00000040,0.00000173,0.00000516,0.000
 00827,-0.00000133,0.00000151,-0.00000821,-0.00000363,-0.00000319,0.000
 00027,0.00001014,0.00000518,-0.00000310,0.00000426,-0.00000212,-0.0000
 0074,-0.00000005,0.00000006,0.00000369,-0.00000335,0.00000188,0.000000
 87,0.00000116,-0.00000424,0.00000263,0.00000066,0.00000225,-0.00000142
 ,0.00000109,0.00000163,0.00000036,0.00000271,0.00001281,-0.00000466,-0
 .00000279,-0.00001017,0.00000426,0.00000770,0.00000391,-0.00000282,-0.
 00000254,-0.00000046,-0.00000092,-0.00000051,0.00000165,-0.00000157,-0
 .00000019,0.00000101,-0.00000155,-0.00000016,-0.00000244,-0.00000422,-
 0.00000210,-0.00000206,0.00000340,0.00000295,0.00000211,-0.00000235,0.
 00000143,-0.00000328,-0.00000748,-0.00000225,0.00000147,-0.00000209,-0
 .00000137,0.00000188,-0.00000098,0.00000155,-0.00000041,-0.00000186,-0
 .00000106,0.00000102,-0.00000411,-0.00000413,0.00000101,-0.00000156,0.
 00000027,-0.00000077,0.00000123,-0.00000019,-0.00000056,-0.00000331,-0
 .00000013\\\@
 The archive entry for this job was punched.


 The best way to pay for a lovely moment is to enjoy it.
 -- Richard Bach
 Job cpu time:       2 days  6 hours 34 minutes 58.0 seconds.
 Elapsed time:       0 days  3 hours 28 minutes 21.0 seconds.
 File lengths (MBytes):  RWF=   9709 Int=      0 D2E=      0 Chk=     55 Scr=      1
 Normal termination of Gaussian 16 at Tue Dec 10 04:21:47 2024.
