/mnt/lustre/scratch/nvme/SLURM/9698478/usccqdma.4lOQ21mHDD
OMP_STACKSIZE=0m
GAUSS_PDEF=16
GAUSS_MDEF=65536MB
GAUSS_RDEF=SCF=Direct
 Entering Gaussian System, Link 0=g16.exe
 Initial command:
 /opt/cesga/2020/software/Core/g16/c1/l1.exe "/mnt/lustre/scratch/nvme/SLURM/9698478/usccqdma.4lOQ21mHDD/Gau-1109356.inp" -scrdir="/mnt/lustre/scratch/nvme/SLURM/9698478/usccqdma.4lOQ21mHDD/"
 Default is to use a total of  16 processors:
                               16 via shared-memory
                                1 via Linda
 Entering Link 1 = /opt/cesga/2020/software/Core/g16/c1/l1.exe PID=   1109383.
  
 Copyright (c) 1988-2019, Gaussian, Inc.  All Rights Reserved.
  
 This is part of the Gaussian(R) 16 program.  It is based on
 the Gaussian(R) 09 system (copyright 2009, Gaussian, Inc.),
 the Gaussian(R) 03 system (copyright 2003, Gaussian, Inc.),
 the Gaussian(R) 98 system (copyright 1998, Gaussian, Inc.),
 the Gaussian(R) 94 system (copyright 1995, Gaussian, Inc.),
 the Gaussian 92(TM) system (copyright 1992, Gaussian, Inc.),
 the Gaussian 90(TM) system (copyright 1990, Gaussian, Inc.),
 the Gaussian 88(TM) system (copyright 1988, Gaussian, Inc.),
 the Gaussian 86(TM) system (copyright 1986, Carnegie Mellon
 University), and the Gaussian 82(TM) system (copyright 1983,
 Carnegie Mellon University). Gaussian is a federally registered
 trademark of Gaussian, Inc.
  
 This software contains proprietary and confidential information,
 including trade secrets, belonging to Gaussian, Inc.
  
 This software is provided under written license and may be
 used, copied, transmitted, or stored only in accord with that
 written license.
  
 The following legend is applicable only to US Government
 contracts under FAR:
  
                    RESTRICTED RIGHTS LEGEND
  
 Use, reproduction and disclosure by the US Government is
 subject to restrictions as set forth in subparagraphs (a)
 and (c) of the Commercial Computer Software - Restricted
 Rights clause in FAR 52.227-19.
  
 Gaussian, Inc.
 340 Quinnipiac St., Bldg. 40, Wallingford CT 06492
  
  
 ---------------------------------------------------------------
 Warning -- This program may not be used in any manner that
 competes with the business of Gaussian, Inc. or will provide
 assistance to any competitor of Gaussian, Inc.  The licensee
 of this program is prohibited from giving any competitor of
 Gaussian, Inc. access to this program.  By using this program,
 the user acknowledges that Gaussian, Inc. is engaged in the
 business of creating and licensing software in the field of
 computational chemistry and represents and warrants to the
 licensee that it is not a competitor of Gaussian, Inc. and that
 it will not use this program in any manner prohibited above.
 ---------------------------------------------------------------
  

 Cite this work as:
 Gaussian 16, Revision C.01,
 M. J. Frisch, G. W. Trucks, H. B. Schlegel, G. E. Scuseria, 
 M. A. Robb, J. R. Cheeseman, G. Scalmani, V. Barone, 
 G. A. Petersson, H. Nakatsuji, X. Li, M. Caricato, A. V. Marenich, 
 J. Bloino, B. G. Janesko, R. Gomperts, B. Mennucci, H. P. Hratchian, 
 J. V. Ortiz, A. F. Izmaylov, J. L. Sonnenberg, D. Williams-Young, 
 F. Ding, F. Lipparini, F. Egidi, J. Goings, B. Peng, A. Petrone, 
 T. Henderson, D. Ranasinghe, V. G. Zakrzewski, J. Gao, N. Rega, 
 G. Zheng, W. Liang, M. Hada, M. Ehara, K. Toyota, R. Fukuda, 
 J. Hasegawa, M. Ishida, T. Nakajima, Y. Honda, O. Kitao, H. Nakai, 
 T. Vreven, K. Throssell, J. A. Montgomery, Jr., J. E. Peralta, 
 F. Ogliaro, M. J. Bearpark, J. J. Heyd, E. N. Brothers, K. N. Kudin, 
 V. N. Staroverov, T. A. Keith, R. Kobayashi, J. Normand, 
 K. Raghavachari, A. P. Rendell, J. C. Burant, S. S. Iyengar, 
 J. Tomasi, M. Cossi, J. M. Millam, M. Klene, C. Adamo, R. Cammi, 
 J. W. Ochterski, R. L. Martin, K. Morokuma, O. Farkas, 
 J. B. Foresman, and D. J. Fox, Gaussian, Inc., Wallingford CT, 2019.
 
 ******************************************
 Gaussian 16:  ES64L-G16RevC.01  3-Jul-2019
                10-Dec-2024 
 ******************************************
 Default route: SCF=Direct
 ----------------------------------------------------
 # m06/genecp scf=tight int=ultrafine 5d freq=noraman
 ----------------------------------------------------
 1/10=4,30=1,38=1/1,3;
 2/12=2,17=6,18=5,40=1/2;
 3/5=7,8=1,11=2,16=1,17=8,25=1,30=1,71=2,74=-54,75=-5,140=1/1,2,3;
 4//1;
 5/5=2,32=2,38=5,98=1/2;
 8/6=4,10=90,11=11/1;
 11/6=1,8=1,9=11,15=111,16=1/1,2,10;
 10/6=1/2;
 6/7=2,8=2,9=2,10=2,28=1/1;
 7/8=1,10=1,25=1/1,2,3,16;
 1/10=4,30=1/3;
 99//99;
 ------
 OPT-TS
 ------
 Symbolic Z-matrix:
 Charge =  0 Multiplicity = 1
 C                     0.78267   2.8622   -1.12092 
 C                     0.98123   1.13443  -2.65501 
 C                     1.42179   1.99648  -3.64859 
 C                     1.55113   3.34517  -3.34686 
 C                     1.2329    3.78084  -2.06971 
 C                     0.41616   3.25741   0.25472 
 C                    -0.18743   2.54495   2.37488 
 C                    -0.28504   3.84908   2.84171 
 C                    -0.03047   4.8907    1.95879 
 C                     0.31853   4.59274   0.65024 
 H                     0.87661   0.0629   -2.82337 
 H                     1.90514   4.05312  -4.09354 
 H                     1.35423   4.82881  -1.80981 
 H                    -0.42144   1.68576   3.00304 
 H                    -0.10953   5.9271    2.28099 
 H                     0.49911   5.3968   -0.05814 
 N                     0.66692   1.55658  -1.42715 
 N                     0.159     2.25555   1.11655 
 Ir                    0.01002   0.13623   0.16388 
 O                    -1.30689  -2.19063   1.73645 
 O                    -1.79123  -2.01709  -1.08187 
 O                    -3.14397   0.52996   0.30365 
 B                    -0.54247  -1.40343  -1.03093 
 B                    -1.06102  -0.83273   1.63934 
 B                    -1.95626   0.68508  -0.39248 
 O                    -2.18801   1.39076  -1.57414 
 O                    -1.5726   -0.16665   2.74587 
 C                    -2.09071  -1.14711   3.66009 
 C                    -2.31775  -2.3774    2.73308 
 C                    -4.22276   0.93439  -0.55306 
 C                    -3.51323   1.93802  -1.49958 
 C                    -1.68108  -3.17084  -1.92011 
 C                    -0.55541  -2.74187  -2.89681 
 O                     0.27017  -1.92369  -2.04862 
 C                    -2.1148   -3.72375   3.39874 
 H                    -2.82127  -3.85975   4.23044 
 H                    -2.29353  -4.52489   2.66982 
 H                    -1.09483  -3.8401    3.78134 
 C                    -3.66122  -2.34794   2.01382 
 H                    -3.63049  -3.08289   1.19699 
 H                    -4.49365  -2.59928   2.68574 
 H                    -3.83737  -1.36395   1.56152 
 C                    -1.01859  -1.38445   4.71471 
 H                    -0.76777  -0.42596   5.18819 
 H                    -1.35739  -2.07386   5.49971 
 H                    -0.10286  -1.78832   4.26333 
 C                    -3.34735  -0.59529   4.30273 
 H                    -3.84238  -1.36004   4.91861 
 H                    -3.09368   0.25076   4.95505 
 H                    -4.05323  -0.23686   3.54494 
 C                    -1.28275  -4.33908  -1.02578 
 H                    -2.0174   -4.42041  -0.21412 
 H                    -1.25855  -5.28979  -1.57578 
 H                    -0.30318  -4.16879  -0.56098 
 C                    -3.02174  -3.4547   -2.56647 
 H                    -2.95289  -4.31413  -3.24898 
 H                    -3.75908  -3.69634  -1.78876 
 H                    -3.39974  -2.59358  -3.12888 
 C                     0.27502  -3.87669  -3.45838 
 H                    -0.35275  -4.56753  -4.03957 
 H                     1.04939  -3.47982  -4.12769 
 H                     0.7738   -4.44189  -2.6636 
 C                    -1.06122  -1.84712  -4.02184 
 H                    -0.19994  -1.43386  -4.56459 
 H                    -1.67762  -2.3997   -4.74352 
 H                    -1.64673  -1.00566  -3.62162 
 C                    -4.09607   2.03052  -2.8948 
 H                    -3.52684   2.75809  -3.48788 
 H                    -4.05385   1.06676  -3.41414 
 H                    -5.14304   2.36528  -2.86111 
 C                    -3.3787    3.33202  -0.89651 
 H                    -2.68237   3.91558  -1.51388 
 H                    -4.33897   3.86446  -0.8625 
 H                    -2.96747   3.28235   0.12212 
 C                    -5.32877   1.52005   0.30068 
 H                    -6.13726   1.92521  -0.3252 
 H                    -5.75691   0.73378   0.93728 
 H                    -4.95683   2.3159    0.95562 
 C                    -4.72129  -0.30749  -1.27994 
 H                    -4.99445  -1.07137  -0.53983 
 H                    -5.60346  -0.09158  -1.89816 
 H                    -3.93062  -0.73482  -1.90878 
 H                     2.40456  -1.48618  -1.24385 
 C                     2.92342  -0.90433  -0.48139 
 C                     4.3146   -0.89684  -0.45508 
 C                     2.17609  -0.16733   0.4463 
 C                     5.00683  -0.16112   0.51052 
 H                     4.87054  -1.45357  -1.2113 
 C                     2.88313   0.54849   1.42277 
 C                     4.27187   0.57484   1.44134 
 H                     4.81133   1.17028   2.17733 
 H                    -0.56734   4.036     3.87468 
 H                     0.76742  -0.94953   1.12352 
 H                     2.3373    1.11072   2.18297 
 C                     6.4928   -0.02642   0.53314 
 O                     7.01638   1.05705   0.75986 
 N                     7.24982  -1.14456   0.24828 
 C                     8.68267  -0.98108   0.1414 
 H                     9.06796  -1.62771  -0.65932 
 H                     8.90814   0.0637   -0.08163 
 H                     9.19038  -1.25533   1.08033 
 C                     6.8144   -2.51213   0.42922 
 H                     5.77379  -2.55082   0.75846 
 H                     6.9104   -3.09077  -0.50258 
 H                     7.43596  -3.00254   1.1954 
 H                     1.66376   1.60729  -4.63425 
 

 GradGradGradGradGradGradGradGradGradGradGradGradGradGradGradGradGradGrad
 Berny optimization.
 Initialization pass.
 Trust Radius=3.00D-01 FncErr=1.00D-07 GrdErr=1.00D-07 EigMax=2.50D+02 EigMin=1.00D-04
 Number of steps in this run=      2 maximum allowed number of steps=      2.
 GradGradGradGradGradGradGradGradGradGradGradGradGradGradGradGradGradGrad

 Stoichiometry    C37H55B3IrN3O7
 Framework group  C1[X(C37H55B3IrN3O7)]
 Deg. of freedom   312
 Full point group                 C1      NOp   1
 Largest Abelian subgroup         C1      NOp   1
 Largest concise Abelian subgroup C1      NOp   1
                         Standard orientation:                         
 ---------------------------------------------------------------------
 Center     Atomic      Atomic             Coordinates (Angstroms)
 Number     Number       Type             X           Y           Z
 ---------------------------------------------------------------------
      1          6           0        0.782670    2.862200   -1.120920
      2          6           0        0.981230    1.134430   -2.655010
      3          6           0        1.421790    1.996480   -3.648590
      4          6           0        1.551130    3.345170   -3.346860
      5          6           0        1.232900    3.780840   -2.069710
      6          6           0        0.416160    3.257410    0.254720
      7          6           0       -0.187430    2.544950    2.374880
      8          6           0       -0.285040    3.849080    2.841710
      9          6           0       -0.030469    4.890700    1.958790
     10          6           0        0.318530    4.592740    0.650240
     11          1           0        0.876610    0.062900   -2.823370
     12          1           0        1.905140    4.053120   -4.093540
     13          1           0        1.354231    4.828810   -1.809810
     14          1           0       -0.421440    1.685760    3.003040
     15          1           0       -0.109529    5.927100    2.280990
     16          1           0        0.499111    5.396800   -0.058140
     17          7           0        0.666920    1.556580   -1.427150
     18          7           0        0.159000    2.255550    1.116550
     19         77           0        0.010020    0.136230    0.163880
     20          8           0       -1.306890   -2.190630    1.736450
     21          8           0       -1.791230   -2.017090   -1.081870
     22          8           0       -3.143970    0.529960    0.303650
     23          5           0       -0.542470   -1.403430   -1.030930
     24          5           0       -1.061020   -0.832730    1.639340
     25          5           0       -1.956260    0.685080   -0.392480
     26          8           0       -2.188010    1.390760   -1.574140
     27          8           0       -1.572600   -0.166650    2.745870
     28          6           0       -2.090710   -1.147110    3.660090
     29          6           0       -2.317750   -2.377400    2.733080
     30          6           0       -4.222760    0.934390   -0.553060
     31          6           0       -3.513230    1.938020   -1.499580
     32          6           0       -1.681080   -3.170840   -1.920110
     33          6           0       -0.555410   -2.741870   -2.896810
     34          8           0        0.270170   -1.923690   -2.048620
     35          6           0       -2.114801   -3.723750    3.398740
     36          1           0       -2.821271   -3.859750    4.230440
     37          1           0       -2.293531   -4.524890    2.669820
     38          1           0       -1.094831   -3.840100    3.781340
     39          6           0       -3.661220   -2.347940    2.013820
     40          1           0       -3.630490   -3.082890    1.196990
     41          1           0       -4.493650   -2.599280    2.685740
     42          1           0       -3.837370   -1.363950    1.561520
     43          6           0       -1.018590   -1.384450    4.714710
     44          1           0       -0.767770   -0.425960    5.188190
     45          1           0       -1.357390   -2.073860    5.499710
     46          1           0       -0.102860   -1.788320    4.263330
     47          6           0       -3.347350   -0.595290    4.302730
     48          1           0       -3.842380   -1.360040    4.918610
     49          1           0       -3.093680    0.250760    4.955050
     50          1           0       -4.053230   -0.236860    3.544940
     51          6           0       -1.282751   -4.339080   -1.025780
     52          1           0       -2.017401   -4.420410   -0.214120
     53          1           0       -1.258551   -5.289790   -1.575780
     54          1           0       -0.303181   -4.168790   -0.560980
     55          6           0       -3.021741   -3.454700   -2.566470
     56          1           0       -2.952891   -4.314130   -3.248980
     57          1           0       -3.759081   -3.696340   -1.788760
     58          1           0       -3.399740   -2.593580   -3.128880
     59          6           0        0.275019   -3.876690   -3.458380
     60          1           0       -0.352751   -4.567530   -4.039570
     61          1           0        1.049389   -3.479820   -4.127690
     62          1           0        0.773799   -4.441890   -2.663600
     63          6           0       -1.061220   -1.847120   -4.021840
     64          1           0       -0.199940   -1.433860   -4.564590
     65          1           0       -1.677620   -2.399700   -4.743520
     66          1           0       -1.646730   -1.005660   -3.621620
     67          6           0       -4.096070    2.030520   -2.894800
     68          1           0       -3.526840    2.758090   -3.487880
     69          1           0       -4.053850    1.066760   -3.414140
     70          1           0       -5.143040    2.365280   -2.861110
     71          6           0       -3.378700    3.332020   -0.896510
     72          1           0       -2.682370    3.915580   -1.513880
     73          1           0       -4.338970    3.864460   -0.862500
     74          1           0       -2.967470    3.282350    0.122120
     75          6           0       -5.328770    1.520050    0.300680
     76          1           0       -6.137260    1.925211   -0.325200
     77          1           0       -5.756910    0.733780    0.937280
     78          1           0       -4.956830    2.315900    0.955620
     79          6           0       -4.721290   -0.307490   -1.279940
     80          1           0       -4.994450   -1.071370   -0.539830
     81          1           0       -5.603460   -0.091580   -1.898160
     82          1           0       -3.930620   -0.734820   -1.908780
     83          1           0        2.404560   -1.486181   -1.243850
     84          6           0        2.923420   -0.904331   -0.481390
     85          6           0        4.314600   -0.896841   -0.455080
     86          6           0        2.176090   -0.167331    0.446300
     87          6           0        5.006830   -0.161121    0.510520
     88          1           0        4.870540   -1.453571   -1.211300
     89          6           0        2.883130    0.548489    1.422770
     90          6           0        4.271870    0.574839    1.441340
     91          1           0        4.811330    1.170279    2.177330
     92          1           0       -0.567340    4.036000    3.874680
     93          1           0        0.767420   -0.949530    1.123520
     94          1           0        2.337300    1.110719    2.182970
     95          6           0        6.492800   -0.026421    0.533140
     96          8           0        7.016380    1.057049    0.759860
     97          7           0        7.249820   -1.144561    0.248280
     98          6           0        8.682670   -0.981081    0.141400
     99          1           0        9.067960   -1.627711   -0.659320
    100          1           0        8.908140    0.063699   -0.081630
    101          1           0        9.190380   -1.255331    1.080330
    102          6           0        6.814400   -2.512131    0.429220
    103          1           0        5.773790   -2.550821    0.758460
    104          1           0        6.910400   -3.090771   -0.502580
    105          1           0        7.435960   -3.002541    1.195400
    106          1           0        1.663760    1.607290   -4.634250
 ---------------------------------------------------------------------
 Rotational constants (GHZ):           0.0716549           0.0455813           0.0433759
 General basis read from cards:  (5D, 7F)
 ======================================================================================================
                                       Pseudopotential Parameters
 ======================================================================================================
  Center     Atomic      Valence      Angular      Power
  Number     Number     Electrons     Momentum     of R      Exponent        Coefficient   SO-Coeffient
 ======================================================================================================
    1          6
                                   No pseudopotential on this center.
    2          6
                                   No pseudopotential on this center.
    3          6
                                   No pseudopotential on this center.
    4          6
                                   No pseudopotential on this center.
    5          6
                                   No pseudopotential on this center.
    6          6
                                   No pseudopotential on this center.
    7          6
                                   No pseudopotential on this center.
    8          6
                                   No pseudopotential on this center.
    9          6
                                   No pseudopotential on this center.
   10          6
                                   No pseudopotential on this center.
   11          1
                                   No pseudopotential on this center.
   12          1
                                   No pseudopotential on this center.
   13          1
                                   No pseudopotential on this center.
   14          1
                                   No pseudopotential on this center.
   15          1
                                   No pseudopotential on this center.
   16          1
                                   No pseudopotential on this center.
   17          7
                                   No pseudopotential on this center.
   18          7
                                   No pseudopotential on this center.
   19         77           17
                                      G and up 
                                                     1      823.5880147       -0.15780140    0.00000000
                                                     2      364.6613336    -1517.52704460    0.00000000
                                                     2       55.7082801     -316.53065290    0.00000000
                                                     2       12.0464544      -91.88809410    0.00000000
                                                     2        3.5120610       -9.22417730    0.00000000
                                      S - G
                                                     0      188.0490770        3.15780140    0.00000000
                                                     1      340.4194712       26.83225770    0.00000000
                                                     2      128.2373673      800.42500070    0.00000000
                                                     2       33.8644961      369.40506830    0.00000000
                                                     2        4.7560005      242.41718990    0.00000000
                                                     2        3.9649974     -118.21732820    0.00000000
                                      P - G
                                                     0      289.7291139        2.15780140    0.00000000
                                                     1       87.4633789       61.96786100    0.00000000
                                                     2       30.4363766      269.05819860    0.00000000
                                                     2        4.0553412      231.16547930    0.00000000
                                                     2        3.5525341     -133.69526670    0.00000000
                                      D - G
                                                     0      136.4017106        3.15780140    0.00000000
                                                     1       95.0776925       45.93498030    0.00000000
                                                     2       49.2258410      359.03446680    0.00000000
                                                     2       15.0874145      176.47401190    0.00000000
                                                     2        4.0405764       54.51552860    0.00000000
                                      F - G
                                                     0      127.3507908        3.95461970    0.00000000
                                                     1       66.2364374       52.97736550    0.00000000
                                                     2       34.4299229      274.86433830    0.00000000
                                                     2       10.1995721      137.20473380    0.00000000
                                                     2        2.5409702       14.86333050    0.00000000
   20          8
                                   No pseudopotential on this center.
   21          8
                                   No pseudopotential on this center.
   22          8
                                   No pseudopotential on this center.
   23          5
                                   No pseudopotential on this center.
   24          5
                                   No pseudopotential on this center.
   25          5
                                   No pseudopotential on this center.
   26          8
                                   No pseudopotential on this center.
   27          8
                                   No pseudopotential on this center.
   28          6
                                   No pseudopotential on this center.
   29          6
                                   No pseudopotential on this center.
   30          6
                                   No pseudopotential on this center.
   31          6
                                   No pseudopotential on this center.
   32          6
                                   No pseudopotential on this center.
   33          6
                                   No pseudopotential on this center.
   34          8
                                   No pseudopotential on this center.
   35          6
                                   No pseudopotential on this center.
   36          1
                                   No pseudopotential on this center.
   37          1
                                   No pseudopotential on this center.
   38          1
                                   No pseudopotential on this center.
   39          6
                                   No pseudopotential on this center.
   40          1
                                   No pseudopotential on this center.
   41          1
                                   No pseudopotential on this center.
   42          1
                                   No pseudopotential on this center.
   43          6
                                   No pseudopotential on this center.
   44          1
                                   No pseudopotential on this center.
   45          1
                                   No pseudopotential on this center.
   46          1
                                   No pseudopotential on this center.
   47          6
                                   No pseudopotential on this center.
   48          1
                                   No pseudopotential on this center.
   49          1
                                   No pseudopotential on this center.
   50          1
                                   No pseudopotential on this center.
   51          6
                                   No pseudopotential on this center.
   52          1
                                   No pseudopotential on this center.
   53          1
                                   No pseudopotential on this center.
   54          1
                                   No pseudopotential on this center.
   55          6
                                   No pseudopotential on this center.
   56          1
                                   No pseudopotential on this center.
   57          1
                                   No pseudopotential on this center.
   58          1
                                   No pseudopotential on this center.
   59          6
                                   No pseudopotential on this center.
   60          1
                                   No pseudopotential on this center.
   61          1
                                   No pseudopotential on this center.
   62          1
                                   No pseudopotential on this center.
   63          6
                                   No pseudopotential on this center.
   64          1
                                   No pseudopotential on this center.
   65          1
                                   No pseudopotential on this center.
   66          1
                                   No pseudopotential on this center.
   67          6
                                   No pseudopotential on this center.
   68          1
                                   No pseudopotential on this center.
   69          1
                                   No pseudopotential on this center.
   70          1
                                   No pseudopotential on this center.
   71          6
                                   No pseudopotential on this center.
   72          1
                                   No pseudopotential on this center.
   73          1
                                   No pseudopotential on this center.
   74          1
                                   No pseudopotential on this center.
   75          6
                                   No pseudopotential on this center.
   76          1
                                   No pseudopotential on this center.
   77          1
                                   No pseudopotential on this center.
   78          1
                                   No pseudopotential on this center.
   79          6
                                   No pseudopotential on this center.
   80          1
                                   No pseudopotential on this center.
   81          1
                                   No pseudopotential on this center.
   82          1
                                   No pseudopotential on this center.
   83          1
                                   No pseudopotential on this center.
   84          6
                                   No pseudopotential on this center.
   85          6
                                   No pseudopotential on this center.
   86          6
                                   No pseudopotential on this center.
   87          6
                                   No pseudopotential on this center.
   88          1
                                   No pseudopotential on this center.
   89          6
                                   No pseudopotential on this center.
   90          6
                                   No pseudopotential on this center.
   91          1
                                   No pseudopotential on this center.
   92          1
                                   No pseudopotential on this center.
   93          1
                                   No pseudopotential on this center.
   94          1
                                   No pseudopotential on this center.
   95          6
                                   No pseudopotential on this center.
   96          8
                                   No pseudopotential on this center.
   97          7
                                   No pseudopotential on this center.
   98          6
                                   No pseudopotential on this center.
   99          1
                                   No pseudopotential on this center.
  100          1
                                   No pseudopotential on this center.
  101          1
                                   No pseudopotential on this center.
  102          6
                                   No pseudopotential on this center.
  103          1
                                   No pseudopotential on this center.
  104          1
                                   No pseudopotential on this center.
  105          1
                                   No pseudopotential on this center.
  106          1
                                   No pseudopotential on this center.
 ======================================================================================================
 There are   884 symmetry adapted cartesian basis functions of A   symmetry.
 There are   832 symmetry adapted basis functions of A   symmetry.
   832 basis functions,  1663 primitive gaussians,   884 cartesian basis functions
   193 alpha electrons      193 beta electrons
       nuclear repulsion energy      8047.7199429803 Hartrees.
 NAtoms=  106 NActive=  106 NUniq=  106 SFac= 1.00D+00 NAtFMM=   60 NAOKFM=T Big=T
 Integral buffers will be    131072 words long.
 Raffenetti 2 integral format.
 Two-electron integral symmetry is turned on.
 One-electron integrals computed using PRISM.
   1 Symmetry operations used in ECPInt.
 ECPInt:  NShTT=   50721 NPrTT=  310367 LenC2=   37748 LenP2D=  116816.
 LDataN:  DoStor=T MaxTD1= 6 Len=  172
 NBasis=   832 RedAO= T EigKep=  4.65D-04  NBF=   832
 NBsUse=   832 1.00D-06 EigRej= -1.00D+00 NBFU=   832
 Defaulting to unpruned grid for atomic number  77.
 ExpMin= 2.90D-02 ExpMax= 5.48D+03 ExpMxC= 8.25D+02 IAcc=3 IRadAn=         5 AccDes= 0.00D+00
 Harris functional with IExCor= 1009 and IRadAn=       5 diagonalized for initial guess.
 HarFok:  IExCor= 1009 AccDes= 0.00D+00 IRadAn=         5 IDoV= 1 UseB2=F ITyADJ=14
 ICtDFT=  3500011 ScaDFX=  1.000000  1.000000  1.000000  1.000000
 Defaulting to unpruned grid for atomic number  77.
 FoFCou: FMM=F IPFlag=           0 FMFlag=      100000 FMFlg1=        2001
         NFxFlg=           0 DoJE=T BraDBF=F KetDBF=T FulRan=T
         wScrn=  0.000000 ICntrl=       500 IOpCl=  0 I1Cent=   200000004 NGrid=           0
         NMat0=    1 NMatS0=      1 NMatT0=    0 NMatD0=    1 NMtDS0=    0 NMtDT0=    0
 Petite list used in FoFCou.
 Requested convergence on RMS density matrix=1.00D-08 within 128 cycles.
 Requested convergence on MAX density matrix=1.00D-06.
 Requested convergence on             energy=1.00D-06.
 No special actions if energy rises.
 Defaulting to unpruned grid for atomic number  77.
 Defaulting to unpruned grid for atomic number  77.
 Defaulting to unpruned grid for atomic number  77.
 Defaulting to unpruned grid for atomic number  77.
 Defaulting to unpruned grid for atomic number  77.
 Defaulting to unpruned grid for atomic number  77.
 Defaulting to unpruned grid for atomic number  77.
 Defaulting to unpruned grid for atomic number  77.
 Defaulting to unpruned grid for atomic number  77.
 Defaulting to unpruned grid for atomic number  77.
 Defaulting to unpruned grid for atomic number  77.
 Defaulting to unpruned grid for atomic number  77.
 Defaulting to unpruned grid for atomic number  77.
 Defaulting to unpruned grid for atomic number  77.
 Defaulting to unpruned grid for atomic number  77.
 Defaulting to unpruned grid for atomic number  77.
 SCF Done:  E(RM06) =  -2311.96045450     A.U. after   15 cycles
            NFock= 15  Conv=0.72D-08     -V/T= 2.0385
 DoSCS=F DFT=T ScalE2(SS,OS)=  1.000000  1.000000
 Range of M.O.s used for correlation:     1   832
 NBasis=   832 NAE=   193 NBE=   193 NFC=     0 NFV=     0
 NROrb=    832 NOA=   193 NOB=   193 NVA=   639 NVB=   639

 **** Warning!!: The largest alpha MO coefficient is  0.11837256D+02

   1 Symmetry operations used in ECPInt.
 ECPInt:  NShTT=   50721 NPrTT=  310367 LenC2=   37748 LenP2D=  116816.
 LDataN:  DoStor=T MaxTD1= 7 Len=  274
 Number of processors reduced to   8 by ecpmxn.
 Symmetrizing basis deriv contribution to polar:
 IMax=3 JMax=2 DiffMx= 0.00D+00
 G2DrvN: will do   107 centers at a time, making    1 passes.
 Calling FoFCou, ICntrl=  3107 FMM=T I1Cent=   0 AccDes= 0.00D+00.
 Defaulting to unpruned grid for atomic number  77.
 Defaulting to unpruned grid for atomic number  77.
 Defaulting to unpruned grid for atomic number  77.
 Defaulting to unpruned grid for atomic number  77.
 Defaulting to unpruned grid for atomic number  77.
 Defaulting to unpruned grid for atomic number  77.
 Defaulting to unpruned grid for atomic number  77.
 Defaulting to unpruned grid for atomic number  77.
 Defaulting to unpruned grid for atomic number  77.
 Defaulting to unpruned grid for atomic number  77.
 Defaulting to unpruned grid for atomic number  77.
 Defaulting to unpruned grid for atomic number  77.
 Defaulting to unpruned grid for atomic number  77.
 Defaulting to unpruned grid for atomic number  77.
 Defaulting to unpruned grid for atomic number  77.
 Defaulting to unpruned grid for atomic number  77.
 End of G2Drv F.D. properties file   721 does not exist.
 End of G2Drv F.D. properties file   722 does not exist.
 End of G2Drv F.D. properties file   788 does not exist.
          IDoAtm=11111111111111111111111111111111111111111111111111
          IDoAtm=11111111111111111111111111111111111111111111111111
          IDoAtm=111111
          Differentiating once with respect to electric field.
                with respect to dipole field.
          Differentiating once with respect to nuclear coordinates.
 Defaulting to unpruned grid for atomic number  77.
 CalDSu exits because no D1Ps are significant.
 Defaulting to unpruned grid for atomic number  77.
 Defaulting to unpruned grid for atomic number  77.
 Defaulting to unpruned grid for atomic number  77.
 Defaulting to unpruned grid for atomic number  77.
 Defaulting to unpruned grid for atomic number  77.
 Defaulting to unpruned grid for atomic number  77.
 Defaulting to unpruned grid for atomic number  77.
 Defaulting to unpruned grid for atomic number  77.
 Defaulting to unpruned grid for atomic number  77.
 Defaulting to unpruned grid for atomic number  77.
 Defaulting to unpruned grid for atomic number  77.
 Defaulting to unpruned grid for atomic number  77.
 Defaulting to unpruned grid for atomic number  77.
 Defaulting to unpruned grid for atomic number  77.
 Defaulting to unpruned grid for atomic number  77.
 Defaulting to unpruned grid for atomic number  77.
          There are   321 degrees of freedom in the 1st order CPHF.  IDoFFX=6 NUNeed=     3.
    318 vectors produced by pass  0 Test12= 1.23D-13 1.00D-09 XBig12= 4.60D+02 8.90D+00.
 AX will form    72 AO Fock derivatives at one time.
    318 vectors produced by pass  1 Test12= 1.23D-13 1.00D-09 XBig12= 8.78D+01 1.21D+00.
    318 vectors produced by pass  2 Test12= 1.23D-13 1.00D-09 XBig12= 9.46D-01 9.66D-02.
    318 vectors produced by pass  3 Test12= 1.23D-13 1.00D-09 XBig12= 5.34D-03 5.58D-03.
    318 vectors produced by pass  4 Test12= 1.23D-13 1.00D-09 XBig12= 1.51D-05 2.78D-04.
    282 vectors produced by pass  5 Test12= 1.23D-13 1.00D-09 XBig12= 2.75D-08 1.02D-05.
     86 vectors produced by pass  6 Test12= 1.23D-13 1.00D-09 XBig12= 4.03D-11 3.65D-07.
      3 vectors produced by pass  7 Test12= 1.23D-13 1.00D-09 XBig12= 5.72D-14 1.99D-08.
      1 vectors produced by pass  8 Test12= 1.23D-13 1.00D-09 XBig12= 6.37D-17 1.03D-09.
 InvSVY:  IOpt=1 It=  1 EMax= 2.84D-14
 Solved reduced A of dimension  1962 with   321 vectors.
 Isotropic polarizability for W=    0.000000      511.62 Bohr**3.
 End of Minotr F.D. properties file   721 does not exist.
 End of Minotr F.D. properties file   722 does not exist.
 End of Minotr F.D. properties file   788 does not exist.
 Hyperfine terms turned off by default for NAtoms > 100.

 **********************************************************************

            Population analysis using the SCF Density.

 **********************************************************************

 Orbital symmetries:
       Occupied  (A) (A) (A) (A) (A) (A) (A) (A) (A) (A) (A) (A)
                 (A) (A) (A) (A) (A) (A) (A) (A) (A) (A) (A) (A)
                 (A) (A) (A) (A) (A) (A) (A) (A) (A) (A) (A) (A)
                 (A) (A) (A) (A) (A) (A) (A) (A) (A) (A) (A) (A)
                 (A) (A) (A) (A) (A) (A) (A) (A) (A) (A) (A) (A)
                 (A) (A) (A) (A) (A) (A) (A) (A) (A) (A) (A) (A)
                 (A) (A) (A) (A) (A) (A) (A) (A) (A) (A) (A) (A)
                 (A) (A) (A) (A) (A) (A) (A) (A) (A) (A) (A) (A)
                 (A) (A) (A) (A) (A) (A) (A) (A) (A) (A) (A) (A)
                 (A) (A) (A) (A) (A) (A) (A) (A) (A) (A) (A) (A)
                 (A) (A) (A) (A) (A) (A) (A) (A) (A) (A) (A) (A)
                 (A) (A) (A) (A) (A) (A) (A) (A) (A) (A) (A) (A)
                 (A) (A) (A) (A) (A) (A) (A) (A) (A) (A) (A) (A)
                 (A) (A) (A) (A) (A) (A) (A) (A) (A) (A) (A) (A)
                 (A) (A) (A) (A) (A) (A) (A) (A) (A) (A) (A) (A)
                 (A) (A) (A) (A) (A) (A) (A) (A) (A) (A) (A) (A)
                 (A)
       Virtual   (A) (A) (A) (A) (A) (A) (A) (A) (A) (A) (A) (A)
                 (A) (A) (A) (A) (A) (A) (A) (A) (A) (A) (A) (A)
                 (A) (A) (A) (A) (A) (A) (A) (A) (A) (A) (A) (A)
                 (A) (A) (A) (A) (A) (A) (A) (A) (A) (A) (A) (A)
                 (A) (A) (A) (A) (A) (A) (A) (A) (A) (A) (A) (A)
                 (A) (A) (A) (A) (A) (A) (A) (A) (A) (A) (A) (A)
                 (A) (A) (A) (A) (A) (A) (A) (A) (A) (A) (A) (A)
                 (A) (A) (A) (A) (A) (A) (A) (A) (A) (A) (A) (A)
                 (A) (A) (A) (A) (A) (A) (A) (A) (A) (A) (A) (A)
                 (A) (A) (A) (A) (A) (A) (A) (A) (A) (A) (A) (A)
                 (A) (A) (A) (A) (A) (A) (A) (A) (A) (A) (A) (A)
                 (A) (A) (A) (A) (A) (A) (A) (A) (A) (A) (A) (A)
                 (A) (A) (A) (A) (A) (A) (A) (A) (A) (A) (A) (A)
                 (A) (A) (A) (A) (A) (A) (A) (A) (A) (A) (A) (A)
                 (A) (A) (A) (A) (A) (A) (A) (A) (A) (A) (A) (A)
                 (A) (A) (A) (A) (A) (A) (A) (A) (A) (A) (A) (A)
                 (A) (A) (A) (A) (A) (A) (A) (A) (A) (A) (A) (A)
                 (A) (A) (A) (A) (A) (A) (A) (A) (A) (A) (A) (A)
                 (A) (A) (A) (A) (A) (A) (A) (A) (A) (A) (A) (A)
                 (A) (A) (A) (A) (A) (A) (A) (A) (A) (A) (A) (A)
                 (A) (A) (A) (A) (A) (A) (A) (A) (A) (A) (A) (A)
                 (A) (A) (A) (A) (A) (A) (A) (A) (A) (A) (A) (A)
                 (A) (A) (A) (A) (A) (A) (A) (A) (A) (A) (A) (A)
                 (A) (A) (A) (A) (A) (A) (A) (A) (A) (A) (A) (A)
                 (A) (A) (A) (A) (A) (A) (A) (A) (A) (A) (A) (A)
                 (A) (A) (A) (A) (A) (A) (A) (A) (A) (A) (A) (A)
                 (A) (A) (A) (A) (A) (A) (A) (A) (A) (A) (A) (A)
                 (A) (A) (A) (A) (A) (A) (A) (A) (A) (A) (A) (A)
                 (A) (A) (A) (A) (A) (A) (A) (A) (A) (A) (A) (A)
                 (A) (A) (A) (A) (A) (A) (A) (A) (A) (A) (A) (A)
                 (A) (A) (A) (A) (A) (A) (A) (A) (A) (A) (A) (A)
                 (A) (A) (A) (A) (A) (A) (A) (A) (A) (A) (A) (A)
                 (A) (A) (A) (A) (A) (A) (A) (A) (A) (A) (A) (A)
                 (A) (A) (A) (A) (A) (A) (A) (A) (A) (A) (A) (A)
                 (A) (A) (A) (A) (A) (A) (A) (A) (A) (A) (A) (A)
                 (A) (A) (A) (A) (A) (A) (A) (A) (A) (A) (A) (A)
                 (A) (A) (A) (A) (A) (A) (A) (A) (A) (A) (A) (A)
                 (A) (A) (A) (A) (A) (A) (A) (A) (A) (A) (A) (A)
                 (A) (A) (A) (A) (A) (A) (A) (A) (A) (A) (A) (A)
                 (A) (A) (A) (A) (A) (A) (A) (A) (A) (A) (A) (A)
                 (A) (A) (A) (A) (A) (A) (A) (A) (A) (A) (A) (A)
                 (A) (A) (A) (A) (A) (A) (A) (A) (A) (A) (A) (A)
                 (A) (A) (A) (A) (A) (A) (A) (A) (A) (A) (A) (A)
                 (A) (A) (A) (A) (A) (A) (A) (A) (A) (A) (A) (A)
                 (A) (A) (A) (A) (A) (A) (A) (A) (A) (A) (A) (A)
                 (A) (A) (A) (A) (A) (A) (A) (A) (A) (A) (A) (A)
                 (A) (A) (A) (A) (A) (A) (A) (A) (A) (A) (A) (A)
                 (A) (A) (A) (A) (A) (A) (A) (A) (A) (A) (A) (A)
                 (A) (A) (A) (A) (A) (A) (A) (A) (A) (A) (A) (A)
                 (A) (A) (A) (A) (A) (A) (A) (A) (A) (A) (A) (A)
                 (A) (A) (A) (A) (A) (A) (A) (A) (A) (A) (A) (A)
                 (A) (A) (A) (A) (A) (A) (A) (A) (A) (A) (A) (A)
                 (A) (A) (A) (A) (A) (A) (A) (A) (A) (A) (A) (A)
                 (A) (A) (A)
 The electronic state is 1-A.
 Alpha  occ. eigenvalues --  -19.20686 -19.20296 -19.20135 -19.20091 -19.19764
 Alpha  occ. eigenvalues --  -19.19524 -19.16972 -14.44938 -14.44286 -14.41136
 Alpha  occ. eigenvalues --  -10.32824 -10.31946 -10.31900 -10.29927 -10.29854
 Alpha  occ. eigenvalues --  -10.29505 -10.29411 -10.29191 -10.29132 -10.29129
 Alpha  occ. eigenvalues --  -10.28808 -10.28798 -10.28732 -10.28173 -10.28066
 Alpha  occ. eigenvalues --  -10.27598 -10.27484 -10.26606 -10.25570 -10.23491
 Alpha  occ. eigenvalues --  -10.23178 -10.23098 -10.23044 -10.22992 -10.22937
 Alpha  occ. eigenvalues --  -10.22912 -10.22853 -10.22826 -10.22692 -10.22530
 Alpha  occ. eigenvalues --  -10.22424 -10.22340 -10.22268 -10.21922 -10.21892
 Alpha  occ. eigenvalues --  -10.21853 -10.21175  -6.80521  -6.79855  -6.79517
 Alpha  occ. eigenvalues --   -3.63922  -2.06728  -2.06044  -2.04604  -1.06337
 Alpha  occ. eigenvalues --   -1.06150  -1.05942  -1.02992  -0.99850  -0.99255
 Alpha  occ. eigenvalues --   -0.99148  -0.98938  -0.97331  -0.92921  -0.84215
 Alpha  occ. eigenvalues --   -0.83950  -0.83383  -0.82610  -0.80509  -0.80404
 Alpha  occ. eigenvalues --   -0.80036  -0.77208  -0.74953  -0.74935  -0.74492
 Alpha  occ. eigenvalues --   -0.74448  -0.72852  -0.71234  -0.70553  -0.70410
 Alpha  occ. eigenvalues --   -0.70025  -0.68750  -0.68145  -0.67843  -0.67743
 Alpha  occ. eigenvalues --   -0.67651  -0.67174  -0.64400  -0.63387  -0.62016
 Alpha  occ. eigenvalues --   -0.61467  -0.61101  -0.59594  -0.58641  -0.57425
 Alpha  occ. eigenvalues --   -0.54768  -0.54703  -0.54248  -0.53889  -0.53766
 Alpha  occ. eigenvalues --   -0.53294  -0.53137  -0.53030  -0.52925  -0.51189
 Alpha  occ. eigenvalues --   -0.50708  -0.49639  -0.47962  -0.47496  -0.47219
 Alpha  occ. eigenvalues --   -0.47087  -0.46693  -0.46416  -0.46357  -0.46332
 Alpha  occ. eigenvalues --   -0.46002  -0.45885  -0.45778  -0.45710  -0.44824
 Alpha  occ. eigenvalues --   -0.44652  -0.44543  -0.44149  -0.43939  -0.43825
 Alpha  occ. eigenvalues --   -0.43597  -0.43224  -0.43065  -0.42563  -0.41746
 Alpha  occ. eigenvalues --   -0.41422  -0.40465  -0.40331  -0.40209  -0.40108
 Alpha  occ. eigenvalues --   -0.39955  -0.39902  -0.39832  -0.39702  -0.39670
 Alpha  occ. eigenvalues --   -0.39613  -0.39459  -0.39284  -0.39086  -0.39068
 Alpha  occ. eigenvalues --   -0.38867  -0.38712  -0.38444  -0.37952  -0.37621
 Alpha  occ. eigenvalues --   -0.37595  -0.37203  -0.36866  -0.36751  -0.36671
 Alpha  occ. eigenvalues --   -0.36620  -0.36205  -0.36085  -0.35972  -0.35900
 Alpha  occ. eigenvalues --   -0.35645  -0.35152  -0.34941  -0.34759  -0.34366
 Alpha  occ. eigenvalues --   -0.33725  -0.33344  -0.32887  -0.32666  -0.32444
 Alpha  occ. eigenvalues --   -0.32082  -0.31919  -0.31646  -0.31330  -0.31252
 Alpha  occ. eigenvalues --   -0.30996  -0.30353  -0.29922  -0.29812  -0.29185
 Alpha  occ. eigenvalues --   -0.27900  -0.26832  -0.26522  -0.26270  -0.26038
 Alpha  occ. eigenvalues --   -0.25426  -0.25039  -0.23674  -0.23337  -0.23073
 Alpha  occ. eigenvalues --   -0.22023  -0.21544  -0.20993
 Alpha virt. eigenvalues --   -0.06756  -0.03631  -0.02794   0.00167   0.01758
 Alpha virt. eigenvalues --    0.02551   0.03087   0.04241   0.06031   0.06758
 Alpha virt. eigenvalues --    0.07000   0.07096   0.08266   0.08547   0.09053
 Alpha virt. eigenvalues --    0.09672   0.10097   0.10154   0.10813   0.11418
 Alpha virt. eigenvalues --    0.11599   0.11771   0.11912   0.12443   0.12736
 Alpha virt. eigenvalues --    0.13278   0.13477   0.13843   0.14111   0.14373
 Alpha virt. eigenvalues --    0.14588   0.15059   0.15215   0.15379   0.15608
 Alpha virt. eigenvalues --    0.15750   0.15905   0.15999   0.16185   0.16471
 Alpha virt. eigenvalues --    0.16610   0.16813   0.16992   0.17069   0.17110
 Alpha virt. eigenvalues --    0.17346   0.17506   0.17701   0.17944   0.18080
 Alpha virt. eigenvalues --    0.18264   0.18676   0.18944   0.19080   0.19153
 Alpha virt. eigenvalues --    0.19496   0.19543   0.19859   0.19998   0.20125
 Alpha virt. eigenvalues --    0.20295   0.20346   0.20469   0.20719   0.20891
 Alpha virt. eigenvalues --    0.21060   0.21442   0.21515   0.21898   0.22163
 Alpha virt. eigenvalues --    0.22678   0.23056   0.23266   0.23578   0.23725
 Alpha virt. eigenvalues --    0.24085   0.24199   0.24428   0.24667   0.24689
 Alpha virt. eigenvalues --    0.24882   0.25264   0.25667   0.25674   0.25813
 Alpha virt. eigenvalues --    0.26465   0.26775   0.26960   0.27188   0.27762
 Alpha virt. eigenvalues --    0.27955   0.28349   0.28871   0.29193   0.29259
 Alpha virt. eigenvalues --    0.29611   0.29981   0.30804   0.30994   0.31625
 Alpha virt. eigenvalues --    0.32036   0.32495   0.33072   0.33267   0.33914
 Alpha virt. eigenvalues --    0.34343   0.34786   0.35511   0.35755   0.36045
 Alpha virt. eigenvalues --    0.36183   0.36952   0.37436   0.37968   0.38447
 Alpha virt. eigenvalues --    0.39995   0.40566   0.40867   0.42665   0.44334
 Alpha virt. eigenvalues --    0.45430   0.46661   0.47360   0.47890   0.48945
 Alpha virt. eigenvalues --    0.49404   0.49866   0.49965   0.50097   0.50302
 Alpha virt. eigenvalues --    0.50808   0.50986   0.51183   0.51721   0.52052
 Alpha virt. eigenvalues --    0.52245   0.52641   0.52875   0.53220   0.53398
 Alpha virt. eigenvalues --    0.53568   0.54407   0.54800   0.55279   0.55756
 Alpha virt. eigenvalues --    0.55983   0.56324   0.56974   0.57216   0.57457
 Alpha virt. eigenvalues --    0.57536   0.57805   0.57847   0.58057   0.58200
 Alpha virt. eigenvalues --    0.58674   0.58765   0.58984   0.59153   0.59328
 Alpha virt. eigenvalues --    0.59378   0.59512   0.59851   0.60022   0.60259
 Alpha virt. eigenvalues --    0.60266   0.60701   0.61039   0.61224   0.61470
 Alpha virt. eigenvalues --    0.62090   0.62483   0.62630   0.62884   0.63414
 Alpha virt. eigenvalues --    0.63781   0.64109   0.64377   0.64888   0.65326
 Alpha virt. eigenvalues --    0.65591   0.65682   0.66278   0.66836   0.67150
 Alpha virt. eigenvalues --    0.67603   0.67834   0.67968   0.68612   0.68991
 Alpha virt. eigenvalues --    0.69774   0.70012   0.70523   0.70789   0.70980
 Alpha virt. eigenvalues --    0.71394   0.71680   0.71918   0.72193   0.72498
 Alpha virt. eigenvalues --    0.73006   0.73061   0.73378   0.73661   0.73783
 Alpha virt. eigenvalues --    0.73996   0.74485   0.75398   0.75494   0.75723
 Alpha virt. eigenvalues --    0.75937   0.76190   0.76403   0.76852   0.77417
 Alpha virt. eigenvalues --    0.77577   0.77908   0.78364   0.79149   0.79369
 Alpha virt. eigenvalues --    0.79632   0.79814   0.80192   0.80629   0.80863
 Alpha virt. eigenvalues --    0.81038   0.81219   0.81481   0.82356   0.82478
 Alpha virt. eigenvalues --    0.83326   0.83515   0.83561   0.83714   0.83915
 Alpha virt. eigenvalues --    0.84261   0.84376   0.84653   0.84821   0.85108
 Alpha virt. eigenvalues --    0.85373   0.85629   0.86041   0.86238   0.86402
 Alpha virt. eigenvalues --    0.86752   0.86895   0.87180   0.87436   0.87504
 Alpha virt. eigenvalues --    0.87781   0.87869   0.88331   0.88583   0.88923
 Alpha virt. eigenvalues --    0.89152   0.89506   0.89687   0.89770   0.90335
 Alpha virt. eigenvalues --    0.90469   0.90806   0.90859   0.91327   0.91507
 Alpha virt. eigenvalues --    0.91576   0.91741   0.91899   0.92050   0.92419
 Alpha virt. eigenvalues --    0.92817   0.93052   0.93349   0.93878   0.94095
 Alpha virt. eigenvalues --    0.94312   0.94817   0.95158   0.95343   0.95885
 Alpha virt. eigenvalues --    0.96260   0.96353   0.96529   0.96807   0.97253
 Alpha virt. eigenvalues --    0.97565   0.97623   0.98441   0.99045   0.99597
 Alpha virt. eigenvalues --    1.00244   1.00526   1.00798   1.01394   1.01881
 Alpha virt. eigenvalues --    1.02006   1.02357   1.03023   1.03289   1.03607
 Alpha virt. eigenvalues --    1.03807   1.04329   1.04620   1.05466   1.05527
 Alpha virt. eigenvalues --    1.05766   1.06143   1.06571   1.07794   1.08412
 Alpha virt. eigenvalues --    1.08755   1.09183   1.09278   1.09973   1.10323
 Alpha virt. eigenvalues --    1.11599   1.12424   1.12960   1.13984   1.14770
 Alpha virt. eigenvalues --    1.15200   1.15494   1.16086   1.16823   1.17290
 Alpha virt. eigenvalues --    1.17806   1.18091   1.18966   1.19161   1.20435
 Alpha virt. eigenvalues --    1.21029   1.21371   1.21665   1.21903   1.22902
 Alpha virt. eigenvalues --    1.23412   1.23926   1.24507   1.24759   1.25281
 Alpha virt. eigenvalues --    1.26265   1.26632   1.27711   1.27968   1.29653
 Alpha virt. eigenvalues --    1.29891   1.30248   1.31056   1.31615   1.31928
 Alpha virt. eigenvalues --    1.32709   1.33179   1.33808   1.34885   1.35534
 Alpha virt. eigenvalues --    1.36469   1.37766   1.38569   1.39107   1.39454
 Alpha virt. eigenvalues --    1.40073   1.40568   1.41062   1.41233   1.42186
 Alpha virt. eigenvalues --    1.42810   1.43196   1.43668   1.44013   1.44921
 Alpha virt. eigenvalues --    1.45228   1.45532   1.45833   1.46305   1.46809
 Alpha virt. eigenvalues --    1.47154   1.47979   1.48334   1.48684   1.49125
 Alpha virt. eigenvalues --    1.49973   1.50273   1.50797   1.51246   1.51488
 Alpha virt. eigenvalues --    1.52400   1.53200   1.53492   1.53563   1.55261
 Alpha virt. eigenvalues --    1.56130   1.56252   1.57188   1.57673   1.58790
 Alpha virt. eigenvalues --    1.60027   1.60648   1.61581   1.61917   1.62636
 Alpha virt. eigenvalues --    1.63370   1.64641   1.65077   1.65769   1.66191
 Alpha virt. eigenvalues --    1.66597   1.66787   1.68370   1.69526   1.69687
 Alpha virt. eigenvalues --    1.70098   1.70679   1.71743   1.72002   1.73998
 Alpha virt. eigenvalues --    1.74170   1.75114   1.76498   1.76698   1.77310
 Alpha virt. eigenvalues --    1.77798   1.78066   1.78774   1.79210   1.79482
 Alpha virt. eigenvalues --    1.80542   1.80820   1.81049   1.81832   1.81995
 Alpha virt. eigenvalues --    1.82330   1.82600   1.83402   1.83985   1.84637
 Alpha virt. eigenvalues --    1.85425   1.85736   1.86172   1.86309   1.86737
 Alpha virt. eigenvalues --    1.86939   1.87669   1.88078   1.88598   1.89243
 Alpha virt. eigenvalues --    1.89717   1.90441   1.91077   1.91233   1.91658
 Alpha virt. eigenvalues --    1.91691   1.91897   1.92212   1.92675   1.93070
 Alpha virt. eigenvalues --    1.93152   1.93664   1.94056   1.94227   1.94346
 Alpha virt. eigenvalues --    1.94773   1.95254   1.95566   1.96033   1.96783
 Alpha virt. eigenvalues --    1.97236   1.97476   1.98230   1.98938   1.99092
 Alpha virt. eigenvalues --    2.00628   2.01086   2.01261   2.01811   2.02603
 Alpha virt. eigenvalues --    2.02761   2.03014   2.03875   2.04529   2.04850
 Alpha virt. eigenvalues --    2.04986   2.05540   2.06072   2.06554   2.06730
 Alpha virt. eigenvalues --    2.06979   2.07349   2.07848   2.08289   2.08921
 Alpha virt. eigenvalues --    2.09692   2.09811   2.10189   2.10651   2.10777
 Alpha virt. eigenvalues --    2.11846   2.12088   2.12522   2.12923   2.13435
 Alpha virt. eigenvalues --    2.14142   2.14407   2.14716   2.15036   2.15640
 Alpha virt. eigenvalues --    2.15765   2.15878   2.16184   2.16843   2.17059
 Alpha virt. eigenvalues --    2.17678   2.17894   2.18294   2.18504   2.18642
 Alpha virt. eigenvalues --    2.18961   2.19104   2.19612   2.19679   2.20070
 Alpha virt. eigenvalues --    2.20810   2.21157   2.21765   2.22094   2.22304
 Alpha virt. eigenvalues --    2.22433   2.23527   2.23630   2.24121   2.25024
 Alpha virt. eigenvalues --    2.25763   2.26003   2.26484   2.26805   2.27463
 Alpha virt. eigenvalues --    2.27760   2.27964   2.28406   2.29290   2.29714
 Alpha virt. eigenvalues --    2.30361   2.30700   2.31496   2.31955   2.32521
 Alpha virt. eigenvalues --    2.32925   2.33062   2.33608   2.34016   2.34807
 Alpha virt. eigenvalues --    2.35240   2.35894   2.36739   2.37223   2.37781
 Alpha virt. eigenvalues --    2.38145   2.39309   2.39720   2.39890   2.40617
 Alpha virt. eigenvalues --    2.41448   2.44366   2.45606   2.46640   2.46922
 Alpha virt. eigenvalues --    2.48189   2.48841   2.49215   2.49324   2.49584
 Alpha virt. eigenvalues --    2.51359   2.51942   2.52189   2.53683   2.56422
 Alpha virt. eigenvalues --    2.57438   2.58352   2.58687   2.59689   2.59915
 Alpha virt. eigenvalues --    2.60604   2.60688   2.62139   2.63007   2.63267
 Alpha virt. eigenvalues --    2.64451   2.65102   2.65197   2.65613   2.66048
 Alpha virt. eigenvalues --    2.67321   2.68184   2.68902   2.69856   2.71757
 Alpha virt. eigenvalues --    2.72339   2.78008   2.78113   2.78627   2.78712
 Alpha virt. eigenvalues --    2.78899   2.79584   2.79810   2.80390   2.80813
 Alpha virt. eigenvalues --    2.81206   2.81435   2.81724   2.81966   2.82223
 Alpha virt. eigenvalues --    2.83794   2.84521   2.85185   2.86502   2.87419
 Alpha virt. eigenvalues --    2.88136   2.91246   2.91742   2.94309   2.95235
 Alpha virt. eigenvalues --    2.96135   2.96530   2.97460   2.98093   2.99349
 Alpha virt. eigenvalues --    3.03274   3.04475   3.05199   3.07755   3.11522
 Alpha virt. eigenvalues --    3.11745   3.13658   3.15773   3.21035   3.24865
 Alpha virt. eigenvalues --    3.30810   3.40069   3.44558  14.34240
          Condensed to atoms (all electrons):
 Mulliken charges:
               1
     1  C    0.327015
     2  C    0.071532
     3  C   -0.169749
     4  C   -0.135151
     5  C   -0.184379
     6  C    0.278759
     7  C    0.044351
     8  C   -0.173143
     9  C   -0.138817
    10  C   -0.184174
    11  H    0.212052
    12  H    0.182749
    13  H    0.171396
    14  H    0.219329
    15  H    0.182120
    16  H    0.170715
    17  N   -0.484714
    18  N   -0.456811
    19  Ir  -0.232371
    20  O   -0.502141
    21  O   -0.521733
    22  O   -0.512134
    23  B    0.487023
    24  B    0.521490
    25  B    0.524761
    26  O   -0.528109
    27  O   -0.528323
    28  C    0.300105
    29  C    0.288691
    30  C    0.290468
    31  C    0.299108
    32  C    0.294588
    33  C    0.305519
    34  O   -0.541175
    35  C   -0.512139
    36  H    0.147429
    37  H    0.167400
    38  H    0.170026
    39  C   -0.500625
    40  H    0.156570
    41  H    0.138771
    42  H    0.186860
    43  C   -0.511671
    44  H    0.159793
    45  H    0.152528
    46  H    0.180037
    47  C   -0.504674
    48  H    0.148798
    49  H    0.158942
    50  H    0.176568
    51  C   -0.501113
    52  H    0.166006
    53  H    0.143658
    54  H    0.185873
    55  C   -0.507795
    56  H    0.151102
    57  H    0.166730
    58  H    0.163189
    59  C   -0.514866
    60  H    0.151859
    61  H    0.165363
    62  H    0.177444
    63  C   -0.514061
    64  H    0.154335
    65  H    0.155217
    66  H    0.179352
    67  C   -0.511939
    68  H    0.165562
    69  H    0.170958
    70  H    0.150349
    71  C   -0.502616
    72  H    0.157278
    73  H    0.151724
    74  H    0.167720
    75  C   -0.511356
    76  H    0.148969
    77  H    0.165119
    78  H    0.170657
    79  C   -0.488585
    80  H    0.162759
    81  H    0.143512
    82  H    0.167895
    83  H    0.172123
    84  C   -0.201810
    85  C   -0.168992
    86  C   -0.064394
    87  C    0.023173
    88  H    0.142427
    89  C   -0.181193
    90  C   -0.154769
    91  H    0.162679
    92  H    0.182465
    93  H    0.225412
    94  H    0.136104
    95  C    0.503534
    96  O   -0.512421
    97  N   -0.401302
    98  C   -0.365731
    99  H    0.160893
   100  H    0.212416
   101  H    0.164713
   102  C   -0.373535
   103  H    0.198933
   104  H    0.167295
   105  H    0.167025
   106  H    0.181196
 Sum of Mulliken charges =  -0.00000
 Mulliken charges with hydrogens summed into heavy atoms:
               1
     1  C    0.327015
     2  C    0.283585
     3  C    0.011447
     4  C    0.047598
     5  C   -0.012983
     6  C    0.278759
     7  C    0.263680
     8  C    0.009322
     9  C    0.043303
    10  C   -0.013459
    17  N   -0.484714
    18  N   -0.456811
    19  Ir  -0.006959
    20  O   -0.502141
    21  O   -0.521733
    22  O   -0.512134
    23  B    0.487023
    24  B    0.521490
    25  B    0.524761
    26  O   -0.528109
    27  O   -0.528323
    28  C    0.300105
    29  C    0.288691
    30  C    0.290468
    31  C    0.299108
    32  C    0.294588
    33  C    0.305519
    34  O   -0.541175
    35  C   -0.027284
    39  C   -0.018424
    43  C   -0.019312
    47  C   -0.020366
    51  C   -0.005576
    55  C   -0.026775
    59  C   -0.020201
    63  C   -0.025157
    67  C   -0.025070
    71  C   -0.025895
    75  C   -0.026611
    79  C   -0.014420
    84  C   -0.029686
    85  C   -0.026565
    86  C   -0.064394
    87  C    0.023173
    89  C   -0.045089
    90  C    0.007910
    95  C    0.503534
    96  O   -0.512421
    97  N   -0.401302
    98  C    0.172290
   102  C    0.159718
 APT charges:
               1
     1  C    0.197312
     2  C    0.059859
     3  C   -0.079096
     4  C    0.129446
     5  C   -0.171481
     6  C    0.197744
     7  C    0.059968
     8  C   -0.061649
     9  C    0.117075
    10  C   -0.167178
    11  H    0.123706
    12  H    0.030630
    13  H    0.040631
    14  H    0.117304
    15  H    0.028461
    16  H    0.041050
    17  N   -0.163767
    18  N   -0.218591
    19  Ir  -1.048282
    20  O   -0.962785
    21  O   -0.982679
    22  O   -0.955079
    23  B    1.261586
    24  B    1.369476
    25  B    1.214023
    26  O   -0.948685
    27  O   -1.017937
    28  C    0.519502
    29  C    0.491027
    30  C    0.467626
    31  C    0.455781
    32  C    0.489609
    33  C    0.500036
    34  O   -1.010925
    35  C   -0.002747
    36  H   -0.018830
    37  H   -0.003838
    38  H   -0.001137
    39  C   -0.040703
    40  H    0.002481
    41  H   -0.033837
    42  H    0.040419
    43  C   -0.034391
    44  H   -0.003283
    45  H   -0.022317
    46  H    0.006008
    47  C   -0.010872
    48  H   -0.018981
    49  H   -0.006098
    50  H    0.002495
    51  C   -0.022783
    52  H   -0.005768
    53  H   -0.029693
    54  H    0.012429
    55  C   -0.009691
    56  H   -0.019153
    57  H    0.001439
    58  H    0.002039
    59  C   -0.009797
    60  H   -0.017667
    61  H   -0.003088
    62  H    0.006929
    63  C   -0.029889
    64  H   -0.008846
    65  H   -0.018534
    66  H    0.003048
    67  C   -0.004323
    68  H   -0.005123
    69  H    0.006014
    70  H   -0.018284
    71  C   -0.004053
    72  H   -0.014779
    73  H   -0.024366
    74  H   -0.022677
    75  C   -0.004503
    76  H   -0.018636
    77  H    0.002206
    78  H    0.001461
    79  C   -0.031922
    80  H    0.005176
    81  H   -0.030847
    82  H    0.019452
    83  H    0.076595
    84  C   -0.218241
    85  C    0.041164
    86  C    0.297530
    87  C   -0.304372
    88  H   -0.002686
    89  C   -0.198029
    90  C    0.057246
    91  H    0.022637
    92  H    0.035812
    93  H    0.308961
    94  H    0.016372
    95  C    1.373267
    96  O   -0.883446
    97  N   -0.872134
    98  C    0.348895
    99  H   -0.047467
   100  H    0.064908
   101  H   -0.070969
   102  C    0.296495
   103  H    0.037620
   104  H   -0.039464
   105  H   -0.062947
   106  H    0.038397
 Sum of APT charges =  -0.00000
 APT charges with hydrogens summed into heavy atoms:
               1
     1  C    0.197312
     2  C    0.183565
     3  C   -0.040700
     4  C    0.160076
     5  C   -0.130851
     6  C    0.197744
     7  C    0.177272
     8  C   -0.025836
     9  C    0.145536
    10  C   -0.126129
    17  N   -0.163767
    18  N   -0.218591
    19  Ir  -0.739321
    20  O   -0.962785
    21  O   -0.982679
    22  O   -0.955079
    23  B    1.261586
    24  B    1.369476
    25  B    1.214023
    26  O   -0.948685
    27  O   -1.017937
    28  C    0.519502
    29  C    0.491027
    30  C    0.467626
    31  C    0.455781
    32  C    0.489609
    33  C    0.500036
    34  O   -1.010925
    35  C   -0.026553
    39  C   -0.031640
    43  C   -0.053983
    47  C   -0.033455
    51  C   -0.045815
    55  C   -0.025366
    59  C   -0.023623
    63  C   -0.054221
    67  C   -0.021715
    71  C   -0.065875
    75  C   -0.019472
    79  C   -0.038139
    84  C   -0.141646
    85  C    0.038478
    86  C    0.297530
    87  C   -0.304372
    89  C   -0.181657
    90  C    0.079883
    95  C    1.373267
    96  O   -0.883446
    97  N   -0.872134
    98  C    0.295366
   102  C    0.231704
 Electronic spatial extent (au):  <R**2>=          30403.0189
 Charge=              0.0000 electrons
 Dipole moment (field-independent basis, Debye):
    X=             -3.2606    Y=              2.9498    Z=             -2.2660  Tot=              4.9465
 Quadrupole moment (field-independent basis, Debye-Ang):
   XX=           -333.1419   YY=           -280.5349   ZZ=           -291.2316
   XY=            -16.2110   XZ=            -10.5999   YZ=              0.3701
 Traceless Quadrupole moment (field-independent basis, Debye-Ang):
   XX=            -31.5058   YY=             21.1012   ZZ=             10.4046
   XY=            -16.2110   XZ=            -10.5999   YZ=              0.3701
 Octapole moment (field-independent basis, Debye-Ang**2):
  XXX=           -132.2660  YYY=            147.7659  ZZZ=              4.6851  XYY=              4.4669
  XXY=           -158.6394  XXZ=            -43.6735  XZZ=              2.9939  YZZ=             33.7816
  YYZ=             -1.8407  XYZ=            -26.6282
 Hexadecapole moment (field-independent basis, Debye-Ang**3):
 XXXX=         -21093.3160 YYYY=          -9678.9959 ZZZZ=          -8737.0317 XXXY=          -1250.1324
 XXXZ=           -217.4140 YYYX=             74.4901 YYYZ=            130.4142 ZZZX=           -187.2828
 ZZZY=             -8.2418 XXYY=          -5231.7850 XXZZ=          -4974.8665 YYZZ=          -2981.1452
 XXYZ=           -171.0259 YYXZ=            -88.0171 ZZXY=            114.6469
 N-N= 8.047719942980D+03 E-N=-2.145429858723D+04  KE= 2.226172521375D+03
  Exact polarizability:     540.276      -2.307     507.124     -23.294      22.084     487.447
 Approx polarizability:     685.256       9.105     753.110     -50.068      56.042     752.378
   1 Symmetry operations used in ECPInt.
 ECPInt:  NShTT=   50721 NPrTT=  310367 LenC2=   37748 LenP2D=  116816.
 LDataN:  DoStor=T MaxTD1= 8 Len=  415
 Calling FoFJK, ICntrl=    100127 FMM=F ISym2X=0 I1Cent= 0 IOpClX= 0 NMat=1 NMatS=1 NMatT=0.
 Defaulting to unpruned grid for atomic number  77.
 Defaulting to unpruned grid for atomic number  77.
 Defaulting to unpruned grid for atomic number  77.
 Defaulting to unpruned grid for atomic number  77.
 Defaulting to unpruned grid for atomic number  77.
 Defaulting to unpruned grid for atomic number  77.
 Defaulting to unpruned grid for atomic number  77.
 Defaulting to unpruned grid for atomic number  77.
 Defaulting to unpruned grid for atomic number  77.
 Defaulting to unpruned grid for atomic number  77.
 Defaulting to unpruned grid for atomic number  77.
 Defaulting to unpruned grid for atomic number  77.
 Defaulting to unpruned grid for atomic number  77.
 Defaulting to unpruned grid for atomic number  77.
 Defaulting to unpruned grid for atomic number  77.
 Defaulting to unpruned grid for atomic number  77.
 Full mass-weighted force constant matrix:
 Low frequencies --- -701.5946   -5.5445    0.0006    0.0008    0.0009    2.2745
 Low frequencies ---    4.5656   16.0807   18.3819
 ******    1 imaginary frequencies (negative Signs) ****** 
 Diagonal vibrational polarizability:
      210.0518631      49.4459749     212.2446171
 Harmonic frequencies (cm**-1), IR intensities (KM/Mole), Raman scattering
 activities (A**4/AMU), depolarization ratios for plane and unpolarized
 incident light, reduced masses (AMU), force constants (mDyne/A),
 and normal coordinates:
                      1                      2                      3
                      A                      A                      A
 Frequencies --   -701.5945                16.0650                18.1645
 Red. masses --      1.1083                 5.3267                 4.3387
 Frc consts  --      0.3214                 0.0008                 0.0008
 IR Inten    --    617.1983                 0.5516                 1.6127
  Atom AN      X      Y      Z        X      Y      Z        X      Y      Z
     1   6     0.00   0.00  -0.00     0.06  -0.04   0.03     0.01  -0.01  -0.02
     2   6     0.00   0.00  -0.00     0.05  -0.04   0.03    -0.05  -0.00  -0.03
     3   6     0.00   0.00  -0.01     0.10  -0.05   0.05    -0.08  -0.00  -0.04
     4   6     0.00   0.00  -0.00     0.13  -0.06   0.05    -0.06  -0.00  -0.04
     5   6     0.00   0.00  -0.00     0.12  -0.05   0.05    -0.02  -0.01  -0.03
     6   6     0.00  -0.00  -0.00     0.04  -0.03   0.03     0.04  -0.01  -0.00
     7   6    -0.00  -0.00  -0.00    -0.01  -0.02   0.01     0.06  -0.01  -0.00
     8   6    -0.00  -0.00  -0.00    -0.00  -0.02   0.01     0.10  -0.02   0.01
     9   6     0.00  -0.00   0.00     0.03  -0.02   0.01     0.12  -0.02   0.02
    10   6    -0.00  -0.00  -0.00     0.06  -0.03   0.02     0.09  -0.01   0.01
    11   1     0.00   0.00  -0.00     0.02  -0.04   0.03    -0.07  -0.00  -0.03
    12   1     0.00   0.00  -0.00     0.18  -0.07   0.06    -0.08  -0.00  -0.04
    13   1    -0.00   0.01  -0.01     0.14  -0.06   0.05    -0.00  -0.01  -0.03
    14   1    -0.01  -0.00  -0.00    -0.04  -0.01   0.01     0.04  -0.01  -0.01
    15   1    -0.00  -0.00   0.00     0.05  -0.02   0.01     0.16  -0.02   0.03
    16   1    -0.00  -0.00  -0.00     0.08  -0.04   0.02     0.11  -0.01   0.02
    17   7     0.02   0.01  -0.01     0.03  -0.04   0.03    -0.01  -0.01  -0.02
    18   7     0.00  -0.00  -0.00     0.01  -0.03   0.02     0.03  -0.01  -0.01
    19  77    -0.01   0.00  -0.00    -0.00  -0.03   0.02    -0.00  -0.01  -0.01
    20   8     0.00   0.00   0.00    -0.05  -0.01   0.01    -0.01   0.01   0.01
    21   8    -0.00  -0.00  -0.00    -0.02  -0.00   0.00    -0.01  -0.01   0.00
    22   8     0.00  -0.00  -0.00    -0.00   0.02  -0.01    -0.00  -0.00  -0.01
    23   5    -0.00  -0.00   0.01    -0.01  -0.02   0.02    -0.01  -0.01  -0.01
    24   5     0.02  -0.00  -0.00    -0.03  -0.02   0.01    -0.00   0.01  -0.00
    25   5     0.01   0.00  -0.00     0.01  -0.00   0.00    -0.00  -0.01  -0.01
    26   8     0.00   0.00  -0.00     0.03  -0.00  -0.00    -0.00  -0.01  -0.01
    27   8    -0.00  -0.00   0.00    -0.04  -0.01   0.01    -0.00   0.02  -0.01
    28   6    -0.00   0.00  -0.00    -0.07  -0.00  -0.00    -0.00   0.03  -0.00
    29   6     0.00   0.00   0.00    -0.07   0.00  -0.01    -0.00   0.02   0.01
    30   6     0.00  -0.00   0.00     0.02   0.04  -0.02    -0.00   0.00  -0.01
    31   6     0.00  -0.00  -0.00     0.04   0.02  -0.02    -0.00  -0.00  -0.01
    32   6    -0.00   0.00  -0.00    -0.03  -0.00   0.01    -0.01  -0.02   0.01
    33   6     0.00  -0.00   0.00    -0.01  -0.02   0.02    -0.01  -0.02   0.00
    34   8     0.00  -0.00   0.00    -0.01  -0.04   0.03    -0.01  -0.01  -0.01
    35   6    -0.00  -0.00   0.00    -0.10  -0.00  -0.01    -0.00   0.02   0.02
    36   1    -0.00  -0.00   0.00    -0.12   0.01  -0.02    -0.00   0.03   0.02
    37   1     0.00   0.00  -0.00    -0.10   0.00  -0.01    -0.01   0.02   0.03
    38   1    -0.00  -0.00   0.00    -0.11  -0.02   0.01    -0.00   0.03   0.02
    39   6     0.00  -0.00   0.00    -0.06   0.02  -0.03    -0.01   0.01   0.01
    40   1     0.00   0.00  -0.00    -0.06   0.02  -0.03    -0.01   0.01   0.02
    41   1     0.00  -0.00   0.00    -0.08   0.04  -0.04    -0.01   0.02   0.02
    42   1     0.00   0.00   0.00    -0.04   0.03  -0.03    -0.01   0.01   0.00
    43   6    -0.00  -0.00   0.00    -0.09  -0.02   0.01     0.00   0.03  -0.00
    44   1    -0.00   0.00   0.00    -0.08  -0.02   0.02     0.00   0.04  -0.01
    45   1     0.00  -0.00   0.00    -0.11  -0.01   0.01     0.00   0.04   0.01
    46   1    -0.00  -0.00  -0.00    -0.09  -0.03   0.03    -0.00   0.03   0.00
    47   6    -0.00  -0.00   0.00    -0.07   0.02  -0.02     0.00   0.03  -0.00
    48   1    -0.00   0.00   0.00    -0.09   0.02  -0.03     0.00   0.04   0.01
    49   1    -0.00   0.00  -0.00    -0.07   0.01  -0.02     0.00   0.04  -0.01
    50   1    -0.00  -0.00   0.00    -0.05   0.03  -0.03    -0.00   0.03  -0.00
    51   6    -0.00  -0.00  -0.00    -0.07  -0.01   0.01     0.00  -0.01   0.02
    52   1     0.00   0.00   0.00    -0.08   0.00   0.00     0.01  -0.01   0.02
    53   1    -0.00  -0.00  -0.00    -0.08  -0.01   0.01     0.01  -0.01   0.02
    54   1    -0.00   0.00   0.00    -0.07  -0.03   0.02     0.00  -0.00   0.01
    55   6     0.00  -0.00  -0.00    -0.03   0.02  -0.01    -0.01  -0.03   0.02
    56   1    -0.00  -0.00  -0.00    -0.04   0.02  -0.01    -0.01  -0.03   0.02
    57   1     0.00   0.00   0.00    -0.04   0.04  -0.02    -0.00  -0.03   0.02
    58   1    -0.00  -0.00  -0.00    -0.01   0.03  -0.02    -0.01  -0.03   0.01
    59   6    -0.00  -0.00  -0.00    -0.03  -0.04   0.03    -0.01  -0.02   0.01
    60   1     0.00  -0.00  -0.00    -0.03  -0.03   0.03    -0.01  -0.03   0.01
    61   1    -0.00  -0.00  -0.00    -0.01  -0.05   0.04    -0.01  -0.02  -0.00
    62   1    -0.00  -0.00  -0.00    -0.04  -0.05   0.04    -0.00  -0.01   0.01
    63   6     0.00  -0.00   0.00     0.02  -0.02   0.01    -0.02  -0.03  -0.00
    64   1     0.00   0.00   0.00     0.03  -0.03   0.02    -0.03  -0.03  -0.01
    65   1     0.00  -0.00   0.00     0.02  -0.00   0.01    -0.02  -0.04   0.00
    66   1     0.00  -0.00   0.00     0.03  -0.01   0.01    -0.02  -0.03  -0.01
    67   6     0.00  -0.00   0.00     0.06   0.03  -0.03    -0.00   0.01  -0.00
    68   1    -0.00   0.00   0.00     0.08   0.02  -0.02    -0.00   0.01  -0.00
    69   1     0.00  -0.00   0.00     0.05   0.02  -0.02    -0.01   0.01  -0.01
    70   1    -0.00  -0.00   0.00     0.07   0.04  -0.04    -0.00   0.01   0.00
    71   6     0.00  -0.00  -0.00     0.06   0.02  -0.02     0.01  -0.00   0.00
    72   1     0.00   0.00   0.00     0.08   0.01  -0.02     0.01  -0.01  -0.00
    73   1    -0.00  -0.00   0.00     0.07   0.04  -0.03     0.02   0.00   0.01
    74   1     0.00  -0.00   0.00     0.05   0.02  -0.02     0.02  -0.01  -0.00
    75   6     0.00  -0.00   0.00     0.02   0.06  -0.04    -0.00   0.00  -0.00
    76   1     0.00  -0.00  -0.00     0.03   0.07  -0.05     0.00   0.01  -0.00
    77   1     0.00  -0.00   0.00    -0.01   0.07  -0.04    -0.00   0.00  -0.01
    78   1     0.00  -0.00   0.00     0.02   0.06  -0.04     0.00   0.00  -0.00
    79   6     0.00  -0.00   0.00     0.00   0.04  -0.02    -0.01   0.00  -0.01
    80   1     0.00  -0.00   0.00    -0.02   0.05  -0.02    -0.01   0.00  -0.01
    81   1     0.00   0.00   0.00     0.01   0.06  -0.04    -0.01   0.00  -0.01
    82   1     0.00  -0.00   0.00     0.00   0.03  -0.01    -0.01   0.00  -0.01
    83   1    -0.01  -0.03   0.03    -0.01  -0.04   0.03     0.03   0.16  -0.12
    84   6    -0.00  -0.01   0.00    -0.01  -0.02   0.02     0.01   0.09  -0.06
    85   6    -0.00   0.01  -0.01    -0.01   0.01  -0.01     0.01   0.10  -0.03
    86   6     0.00  -0.06   0.05    -0.01  -0.03   0.02    -0.01  -0.00   0.00
    87   6    -0.00   0.00  -0.00    -0.01   0.04  -0.04    -0.01   0.01   0.06
    88   1    -0.01   0.01  -0.01    -0.01   0.02  -0.02     0.03   0.19  -0.08
    89   6     0.00  -0.00   0.01    -0.01  -0.01   0.01    -0.03  -0.10   0.09
    90   6    -0.00   0.01  -0.01    -0.01   0.03  -0.02    -0.03  -0.09   0.12
    91   1    -0.00   0.01  -0.01    -0.01   0.05  -0.04    -0.05  -0.16   0.19
    92   1    -0.00  -0.00  -0.00    -0.02  -0.01   0.00     0.12  -0.02   0.02
    93   1     0.92   0.21  -0.32    -0.02  -0.03   0.03    -0.01  -0.04  -0.04
    94   1    -0.01  -0.04   0.03    -0.00  -0.02   0.02    -0.05  -0.17   0.13
    95   6     0.00  -0.00   0.00    -0.01   0.10  -0.08    -0.01   0.02   0.10
    96   8    -0.00   0.00  -0.00    -0.05   0.12  -0.10    -0.02  -0.01   0.25
    97   7    -0.00   0.00   0.00     0.03   0.13  -0.11     0.01   0.06  -0.02
    98   6     0.00   0.00  -0.00     0.01   0.19  -0.16     0.01   0.08   0.02
    99   1    -0.00  -0.00   0.00     0.02   0.19  -0.16     0.02   0.23  -0.09
   100   1     0.00  -0.00  -0.00    -0.04   0.20  -0.19     0.01   0.13   0.22
   101   1    -0.00   0.00   0.00     0.06   0.24  -0.17    -0.00  -0.09  -0.02
   102   6    -0.00  -0.00  -0.00     0.09   0.12  -0.08     0.01   0.03  -0.23
   103   1    -0.00  -0.00   0.00     0.10   0.07  -0.05     0.02  -0.02  -0.22
   104   1     0.00   0.00  -0.00     0.08   0.11  -0.08     0.01   0.17  -0.31
   105   1    -0.00   0.00   0.00     0.14   0.15  -0.10     0.02  -0.08  -0.30
   106   1    -0.00   0.01  -0.01     0.11  -0.06   0.05    -0.11   0.00  -0.05
                      4                      5                      6
                      A                      A                      A
 Frequencies --     25.1538                28.8996                36.7296
 Red. masses --      4.8144                 4.5076                 4.6283
 Frc consts  --      0.0018                 0.0022                 0.0037
 IR Inten    --      0.3205                 0.5167                 1.8556
  Atom AN      X      Y      Z        X      Y      Z        X      Y      Z
     1   6     0.05  -0.03  -0.04     0.03   0.01   0.02     0.07   0.01   0.02
     2   6     0.03  -0.04  -0.02     0.06   0.02   0.02    -0.02   0.03  -0.01
     3   6     0.09  -0.07  -0.02     0.16   0.01   0.06     0.08   0.02   0.02
     4   6     0.13  -0.07  -0.02     0.20  -0.00   0.08     0.17   0.00   0.06
     5   6     0.11  -0.05  -0.03     0.13   0.00   0.06     0.17  -0.00   0.06
     6   6     0.02  -0.01  -0.05    -0.04   0.02  -0.00     0.08   0.00   0.03
     7   6    -0.04   0.02  -0.06    -0.08   0.03  -0.01    -0.00  -0.00   0.00
     8   6    -0.03   0.03  -0.08    -0.16   0.03  -0.04     0.09  -0.01   0.03
     9   6     0.01   0.02  -0.08    -0.19   0.03  -0.05     0.18  -0.00   0.06
    10   6     0.03  -0.00  -0.07    -0.13   0.02  -0.03     0.17   0.00   0.06
    11   1    -0.00  -0.04  -0.02     0.03   0.02   0.01    -0.08   0.04  -0.04
    12   1     0.18  -0.09  -0.01     0.28  -0.01   0.11     0.25  -0.01   0.09
    13   1     0.15  -0.06  -0.03     0.16  -0.01   0.08     0.24  -0.02   0.09
    14   1    -0.07   0.03  -0.06    -0.06   0.03  -0.00    -0.07  -0.00  -0.02
    15   1     0.02   0.02  -0.09    -0.26   0.03  -0.08     0.26  -0.01   0.08
    16   1     0.06  -0.01  -0.07    -0.15   0.01  -0.05     0.24   0.00   0.08
    17   7     0.01  -0.03  -0.03     0.01   0.02   0.01    -0.01   0.02  -0.01
    18   7    -0.01   0.00  -0.05    -0.03   0.02   0.01    -0.01   0.00  -0.00
    19  77    -0.01  -0.01  -0.02    -0.00   0.01   0.00    -0.03   0.02  -0.02
    20   8     0.00  -0.02  -0.03     0.02   0.01   0.01     0.02   0.01   0.01
    21   8    -0.04   0.02  -0.02     0.01  -0.00   0.01     0.01  -0.04   0.02
    22   8     0.01   0.01   0.04    -0.00   0.01   0.01    -0.03  -0.05  -0.02
    23   5    -0.03  -0.00  -0.02    -0.00   0.01   0.00    -0.01   0.01  -0.01
    24   5     0.02  -0.02  -0.01     0.01   0.01   0.01    -0.02   0.01  -0.01
    25   5    -0.01  -0.00   0.01    -0.01   0.00   0.00    -0.03  -0.02  -0.01
    26   8    -0.03   0.00   0.01    -0.01  -0.03  -0.01    -0.05  -0.02  -0.01
    27   8     0.06  -0.03   0.02     0.01   0.01   0.01    -0.04   0.01  -0.02
    28   6     0.08  -0.05   0.02     0.02   0.00   0.02    -0.02   0.02  -0.01
    29   6     0.03  -0.02  -0.00     0.02   0.00   0.02     0.02  -0.01   0.01
    30   6    -0.01   0.02   0.07    -0.01  -0.01   0.00    -0.04  -0.05  -0.01
    31   6    -0.02   0.01   0.05    -0.01  -0.03  -0.02    -0.04  -0.02   0.01
    32   6    -0.07   0.02  -0.03     0.02  -0.00   0.01     0.04  -0.04   0.02
    33   6    -0.06   0.01  -0.03     0.00   0.01   0.01    -0.01  -0.00  -0.01
    34   8    -0.04  -0.01  -0.03    -0.00   0.02  -0.00    -0.02   0.04  -0.03
    35   6     0.03  -0.04  -0.04     0.03   0.00   0.02     0.06   0.01   0.04
    36   1     0.06  -0.05  -0.02     0.04   0.00   0.02     0.06   0.00   0.03
    37   1    -0.00  -0.02  -0.05     0.03   0.00   0.02     0.09  -0.01   0.05
    38   1     0.04  -0.06  -0.07     0.04   0.01   0.01     0.06   0.05   0.04
    39   6     0.01   0.01   0.04     0.02  -0.00   0.02     0.03  -0.06   0.00
    40   1    -0.03   0.02   0.03     0.02  -0.00   0.02     0.06  -0.07   0.01
[...]
 0006033,0.00006937,0.00007192,-0.00031571,-0.00048377,-0.00007309,0.00
 000038,-0.00009793,0.00059633,-0.00000250,-0.00035470,-0.00006214,-0.0
 0000480,0.00020730,0.00020852,0.00006369,0.00009089,-0.00001552,0.0003
 5263,0.00016433,-0.00006823,-0.00003573,0.00007384,0.00000030,-0.00000
 119,-0.00000221,-0.00009249,-0.00003240,0.00002149,0.00004349,-0.00002
 321,-0.00000302,-0.00511861,0.00382976,0.00657358,-0.00016481,-0.00286
 449,-0.00222631,0.01717502,-0.03304497,0.02189407,0.00371221,0.0009769
 9,0.00004631,-0.00042350,0.00001665,-0.00003397,0.00025481,0.00003837,
 -0.00044367,-0.00109613,0.00010898,-0.00077205,0.05920008,-0.08719022,
 0.07014730,-0.00033104,0.00057872,-0.00134906,-0.00914646,0.00785691,-
 0.01044828,-0.06495720,0.10961820,0.00000625,-0.00000689,-0.00000414,0
 .00000141,-0.00000079,0.00000679,-0.00000532,0.00000490,0.00000008,-0.
 00000193,-0.00000272,0.00000179,-0.00000363,0.00000053,-0.00000150,0.0
 0000685,-0.00001096,-0.00000417,0.00000339,0.00000592,-0.00000479,-0.0
 0000084,-0.00000663,-0.00000051,0.00000154,-0.00000058,-0.00000751,-0.
 00000437,0.00000582,0.00000964,0.00000848,0.00000171,0.00000260,0.0000
 0256,0.00000015,0.00000008,0.00000215,0.00000096,0.00000115,0.00000428
 ,0.00000184,-0.00000180,0.00000067,0.00000204,0.00000057,0.00000172,-0
 .00000069,-0.00000123,0.00001114,-0.00000304,0.00000664,-0.00000498,-0
 .00000063,-0.00000273,-0.00013633,-0.00002069,0.00002807,-0.00003474,-
 0.00004560,0.00003836,-0.00004217,-0.00004234,-0.00001332,-0.00005490,
 0.00000532,-0.00000112,0.00006015,0.00004569,0.00001550,0.00007109,0.0
 0005475,-0.00007838,0.00007711,-0.00000223,-0.00000005,-0.00005054,0.0
 0002008,-0.00001780,-0.00003495,-0.00002185,0.00005257,0.00000985,0.00
 002016,-0.00002113,0.00002029,0.00001016,-0.00002186,0.00001591,-0.000
 00271,0.00000888,0.00002061,-0.00000906,-0.00000207,0.00000417,0.00002
 328,0.00000548,0.00002116,0.00001716,0.00002065,-0.00004353,-0.0000268
 4,-0.00002207,-0.00000286,-0.00000273,0.00000097,-0.00000183,-0.000000
 95,0.00000290,-0.00000021,-0.00000071,-0.00000251,0.00000189,0.0000021
 5,0.00000016,-0.00000255,-0.00000240,0.00000260,0.00000134,0.00000106,
 -0.00000159,-0.00000409,-0.00000047,0.00000235,0.00000300,0.00000049,-
 0.00000094,0.00000085,-0.00000231,0.00000335,0.00000135,0.00000003,-0.
 00000240,-0.00000256,-0.00000292,0.00000410,-0.00000050,0.00000384,-0.
 00000235,-0.00000089,-0.00000119,0.00000237,-0.00000260,-0.00000200,0.
 00000229,0.00000057,0.00000155,-0.00000050,0.00000129,0.00000032,-0.00
 000074,0.00000087,-0.00000343,0.00000307,-0.00000307,0.00000111,0.0000
 0208,0.00000032,-0.00000323,-0.00000301,0.00000015,0.00000405,-0.00000
 323,-0.00000150,-0.00000245,0.00000222,0.00000043,-0.00000157,-0.00000
 253,-0.00000284,0.00000024,0.00000200,0.00000112,0.00000062,0.00000016
 ,0.00000157,-0.00000096,-0.00000574,-0.00000644,-0.00000262,-0.0000029
 6,0.00000189,-0.00000165,0.00000874,0.00000466,0.00000598,-0.00000185,
 -0.00000153,0.,-0.00000337,-0.00000041,-0.00000083,0.00000387,-0.00000
 295,-0.00000218,-0.00000338,0.00000102,0.00000066,0.00000122,-0.000002
 37,0.00000111,-0.00000033,0.00000148,-0.00000053,0.00000003,0.00000126
 ,-0.00000052,0.,-0.00000345,0.00000117,-0.00000065,-0.00000123,0.00000
 134,0.00000167,0.00000085,-0.00000167,0.00000134,-0.00000366,0.0000022
 0,-0.00000011,0.00000079,-0.00000058,-0.00000280,-0.00000149,0.0000000
 1,-0.00000055,-0.00000220,0.00000139,-0.00000107,-0.00000046,-0.000001
 53,0.00000151,0.00000116,0.00000001,-0.00000023,-0.00000164,0.00000058
 ,-0.00000207,0.00000059,-0.00000097,0.00000112,-0.00000292,0.00000017,
 -0.00000221,0.00000150,0.00000058,0.00000194,0.00000596,-0.00000115,0.
 00000225,-0.00030807,0.00008814,0.00015832,0.00045129,-0.00021549,-0.0
 0007491,0.00004298,-0.00013589,-0.00013257,-0.00009302,-0.00014982,0.0
 0010594,-0.00000401,-0.00000801,0.00012692,0.00009741,0.00005051,0.000
 04752,-0.00014545,-0.00003440,0.00010857,0.00001062,0.00000763,-0.0000
 1394,0.00000002,0.00000056,0.00000195,0.00006521,0.00001570,-0.0000134
 7,-0.00001585,0.00001321,0.00000884,0.00155408,-0.00274812,-0.00155761
 ,0.00032111,0.00115962,0.00004788,0.00057745,0.00828072,0.00320623,-0.
 00054226,-0.00058383,0.00137291,-0.00000443,0.00001939,-0.00075243,0.0
 0010741,-0.00009503,0.00023456,0.00076320,0.00065246,-0.00037504,-0.10
 340579,0.07147455,-0.17456333,0.00584268,-0.00546333,0.00838507,-0.017
 41881,0.01077173,-0.01903521,0.11218826,-0.08310423,0.18271185,-0.0004
 5502,-0.00057067,-0.00018905,-0.00068367,0.00514413,0.00757016,-0.0517
 9729,0.01952824,0.06412946,0.00350126,-0.00151058,-0.00357469,0.006549
 50,-0.00176684,0.00153323,-0.00126285,0.00021994,-0.00037940,-0.000038
 54,0.00006622,0.00006986,-0.00003219,-0.00008137,0.00000103,-0.0000151
 1,0.00005241,-0.00009171,0.00002333,0.00000263,0.00013322,-0.00281949,
 0.00051492,-0.00114901,-0.00331257,0.00082243,-0.00113458,0.00023084,-
 0.00015390,-0.00014250,0.00000277,0.00000185,-0.00000271,-0.00000815,0
 .00000235,0.00000072,0.00007132,0.00001610,0.00001729,0.00678512,-0.00
 233059,0.00376577,0.00012164,-0.00004124,-0.00006275,-0.00005953,0.000
 19964,-0.00013771,-0.00004261,-0.00004240,0.00002768,-0.00004053,-0.00
 006166,-0.00008290,-0.00008041,0.00003441,-0.00005432,0.00003146,0.000
 13562,0.00015660,0.00004469,0.00001097,-0.00002030,0.00009746,-0.00008
 639,0.00012671,-0.00007380,0.00004487,-0.00010891,-0.00003123,-0.00001
 520,0.00002848,0.00000710,0.00001058,-0.00000749,0.00001897,0.00000253
 ,-0.00000654,0.00001087,-0.00000852,0.00003867,0.00004709,-0.00000946,
 0.00005189,-0.00004314,0.00004409,0.00003500,0.00015916,0.00000295,0.0
 0012661,-0.00002581,-0.00009236,-0.00012799,-0.00000368,0.00000194,0.0
 0000226,-0.00000026,-0.00000198,0.00000119,-0.00000016,-0.00000268,-0.
 00000058,-0.00000117,0.00000129,-0.00000123,-0.00000390,0.00000071,0.0
 0000385,-0.00000016,-0.00000404,-0.00000055,-0.00000279,-0.00000049,-0
 .00000122,0.00000213,0.00000160,0.00000236,-0.00000145,-0.00000355,0.0
 0000084,0.00000028,-0.00000085,-0.00000150,-0.00000032,-0.00000079,0.0
 0000200,-0.00000127,0.00000193,-0.00000003,0.00000048,-0.00000248,0.00
 000225,-0.00000164,-0.00000003,0.00000153,0.,-0.00000012,-0.00000049,-
 0.00000128,0.00000121,-0.00000098,0.00001856,-0.00000727,-0.00001849,0
 .00000248,0.00000896,-0.00000778,0.00000009,-0.00000195,0.00000116,-0.
 00000537,0.00000217,0.00000008,0.00000602,-0.00001280,-0.00000682,-0.0
 0000345,-0.00000499,0.,0.00000311,0.00000681,-0.00000757,-0.00001433,0
 .00000796,0.00000159,-0.00001328,0.00000936,-0.00003849,-0.00000186,-0
 .00000788,-0.00000055,0.00001484,-0.00000770,0.00000787,-0.00000852,0.
 00002002,-0.00000621,-0.00015931,0.00004350,0.00002345,0.00014251,-0.0
 0005416,-0.00007787,0.00001997,0.00002043,-0.00002336,-0.00004200,-0.0
 0001633,0.00004645,-0.00000374,-0.00000871,0.00000939,-0.00000181,0.00
 003213,0.00000232,-0.00001709,-0.00002032,0.00000346,0.00000714,-0.000
 00055,-0.00001490,-0.00001220,0.00000260,-0.00000390,0.00000241,0.0000
 0150,0.00000588,-0.00000296,0.00000162,0.00000145,-0.00000236,-0.00000
 286,-0.00001544,-0.00000458,-0.00000049,-0.00000600,-0.00000573,0.0000
 0209,0.00000117,0.00000221,0.00000211,-0.00000057,0.00000075,-0.000003
 41,-0.00000107,-0.00000698,0.00000338,-0.00000181,0.00000336,0.0000015
 3,-0.00000428,-0.00000769,-0.00000176,-0.00000183,0.00000418,-0.000004
 99,0.00000391,0.00002509,-0.00000550,0.00000241,-0.00001623,0.00003706
 ,-0.00001231,0.00004668,-0.00001934,0.00000672,-0.00005183,0.00007289,
 -0.00008924,-0.00001297,-0.00003035,-0.00003113,-0.00000774,0.00001821
 ,-0.00000165,0.00004799,0.00000182,0.00000268,-0.00003986,0.00000475,0
 .00002351,0.00000280,0.00000162,0.00000017,0.00004276,0.00000045,0.000
 01272,-0.00004189,-0.00001050,-0.00000159,-0.00000704,0.00000843,0.000
 00172,-0.00000310,0.00002115,-0.00001553,-0.00000236,-0.00001615,0.000
 01649,0.00000795,-0.00001365,0.00001269,-0.00000675,-0.00000051,-0.000
 00485,-0.00000084,0.00000272,-0.00000131,-0.00000293,-0.00000092,-0.00
 000353,0.00000132,-0.00000227,0.00000511,0.00000424,0.00001091,-0.0000
 0686,-0.00000108,0.00000255,-0.00000127,-0.00000094,0.00000114,-0.0000
 0110,0.00000342,-0.00000223,0.00000374,0.04323348,-0.00037588,-0.00186
 497,0.00053334,-0.00376431,0.01187890,0.01803875,0.01932478,-0.0937095
 5,-0.09282334,0.00766568,-0.00467266,-0.02843874,-0.00191123,-0.005159
 46,-0.00056793,0.00019308,0.00016312,0.00012203,0.00001773,-0.00000449
 ,-0.00005316,0.00000655,0.00004153,-0.00002293,-0.00000611,0.00005712,
 0.00005308,0.00001726,-0.00010247,-0.00003212,0.00067292,0.00035112,-0
 .00030268,0.00061293,0.00113367,0.00062052,0.00036367,-0.00027477,-0.0
 0140975,-0.00000195,-0.00001049,-0.00000312,0.00000121,-0.00000276,-0.
 00000051,-0.00002797,0.00007098,0.00000606,-0.00285453,-0.00162617,0.0
 0420215,-0.00003073,-0.00003184,0.00001060,0.00016712,0.00040116,-0.00
 020605,-0.00003769,-0.00002850,0.00002521,0.00002599,-0.00003930,-0.00
 006760,0.00001210,-0.00000891,0.00000772,-0.00002060,0.00018360,0.0001
 7201,0.00003362,-0.00004744,0.00001051,0.00001734,0.00002310,-0.000016
 68,-0.00001444,-0.00001220,0.00001551,-0.00001544,0.00000164,0.0000223
 3,-0.00000266,0.00000294,0.00000093,0.00000452,-0.00000338,-0.00000324
 ,0.00000060,0.00001403,-0.00000091,-0.00001334,-0.00001195,-0.00002114
 ,-0.00004990,0.00002347,0.00003124,0.00008924,-0.00002053,0.00004161,0
 .00004639,-0.00005701,-0.00019573,-0.00000245,0.00000355,0.00000322,0.
 00000042,-0.00000229,-0.00000009,-0.00000101,-0.00000180,0.00000002,-0
 .00000001,0.00000023,-0.00000007,-0.00000157,0.00000284,0.00000602,-0.
 00000145,-0.00000281,0.00000024,-0.00000153,-0.00000060,-0.00000246,0.
 00000040,0.00000034,0.00000019,-0.00000067,-0.00000352,-0.00000113,-0.
 00000029,0.00000012,0.00000118,0.00000064,0.00000086,0.00000083,0.0000
 0050,0.00000104,-0.00000147,0.00000004,-0.00000277,0.00000006,-0.00000
 070,0.00000118,0.00000070,-0.00000045,-0.00000012,0.00000099,-0.000000
 55,0.00000011,-0.00000001,0.00001805,-0.00000425,-0.00001648,0.0000045
 1,0.00000740,-0.00000902,-0.00000185,-0.00000231,0.00000149,-0.0000024
 7,0.00000002,0.00000575,0.00000552,-0.00000415,-0.00001313,-0.00000348
 ,-0.00000356,0.00000094,0.00000624,0.00000633,-0.00000733,-0.00001016,
 0.00000352,0.00000271,-0.00002657,-0.00000621,0.00000691,0.00001029,0.
 00000195,-0.00000325,0.00001641,-0.00001157,-0.00001290,-0.00000150,0.
 00000907,-0.00000608,-0.00019774,-0.00003060,0.00013609,0.00018570,0.0
 0012181,-0.00015307,0.00004018,0.00003343,-0.00003389,0.00001591,0.000
 01496,-0.00001255,0.00000369,0.00001860,0.00000141,-0.00000203,-0.0000
 1149,-0.00000280,0.00000006,0.00000436,-0.00000124,-0.00000115,-0.0000
 0238,0.00000105,-0.00000179,-0.00000326,0.00000439,-0.00000020,0.00000
 083,-0.00000857,0.00000487,0.00000147,-0.00000110,-0.00000011,-0.00000
 194,0.00000801,-0.00000280,-0.00000453,-0.00000222,0.00000158,-0.00000
 023,0.00000061,-0.00000066,0.00000086,0.00000123,-0.00000004,-0.000000
 30,-0.00000020,-0.00000615,0.00000008,0.00000360,-0.00000056,-0.000000
 50,0.00000162,0.00000383,-0.00000085,0.00000007,-0.00000128,0.00000385
 ,-0.00000207,-0.00000295,-0.00000248,0.00000803,0.00005249,0.00001269,
 0.00002560,-0.00001737,-0.00001123,0.00000845,0.00000679,0.00001994,-0
 .00009179,0.00000926,0.00000443,0.00000407,0.00001089,-0.00000194,0.00
 000102,-0.00000603,0.00000149,-0.00001088,0.00000359,-0.00001563,-0.00
 000729,0.00000162,-0.00000143,0.00000017,-0.00000414,0.00000872,-0.000
 00714,-0.00007923,-0.00005374,0.00008639,0.00000046,-0.00000090,0.0000
 0050,0.00001377,0.00001256,-0.00000138,-0.00001200,-0.00001075,0.00000
 402,-0.00000833,-0.00000431,-0.00000144,0.00000681,0.00000145,-0.00000
 012,-0.00000032,0.00000144,0.00000025,0.00000028,-0.00000108,-0.000001
 26,-0.00000149,0.00000011,-0.00000053,0.00000120,0.00000498,0.00000255
 ,-0.00000034,-0.00000060,0.00000238,0.00000220,-0.00000182,-0.00000117
 ,-0.00000109,-0.00000085,-0.00000145,-0.02016964,0.09324468,-0.0001233
 0,0.00122748,0.00057107,0.00279248,-0.01173264,-0.01411601,0.06391120,
 -0.09250898,-0.29038665,0.00123969,0.00058229,-0.00111578,0.00144891,-
 0.00101394,0.00212504,-0.00039921,-0.00000964,-0.00010625,-0.00002632,
 0.00001373,0.00005598,-0.00000570,-0.00003894,-0.00001226,0.00000090,0
 .00000546,-0.00003130,0.00001798,-0.00000287,-0.00000789,-0.00104556,0
 .00011370,0.00025511,-0.00120094,0.00006116,0.00012951,0.00012655,0.00
 014975,-0.00007540,-0.00000167,-0.00000128,-0.00000390,-0.00000042,-0.
 00000515,-0.00000596,0.00001269,0.00002337,0.00001700,0.00360824,0.002
 98523,-0.00183470,0.00006932,0.00002074,-0.00012945,-0.00024409,-0.000
 46180,0.00027562,0.00010310,0.00010446,-0.00008819,0.00002119,0.000098
 53,0.00011101,0.00007885,-0.00001075,0.00002342,-0.00006261,-0.0002894
 6,-0.00024825,-0.00012290,-0.00000568,0.00006806,-0.00019980,-0.000002
 36,-0.00003504,0.00011774,-0.00001720,0.00007314,0.00007166,0.00004336
 ,-0.00009570,-0.00000892,-0.00003305,0.00003440,-0.00003559,-0.0000038
 0,0.00002738,-0.00002287,-0.00000017,-0.00002499,-0.00003670,0.0000186
 2,-0.00000901,0.00003484,-0.00003726,-0.00003982,-0.00003060,0.0000123
 7,-0.00011581,-0.00002486,0.00015760,0.00026161,0.00000817,-0.00000137
 ,-0.00000497,0.00000145,0.00000433,-0.00000388,0.00000066,0.00000389,0
 .00000224,-0.00000101,-0.00000185,0.00000019,0.00000653,-0.00000052,-0
 .00000965,-0.00000016,0.00000330,0.00000173,0.00000713,0.00000141,-0.0
 0000005,-0.00000366,-0.00000123,-0.00000029,0.00000188,0.00000564,-0.0
 0000543,0.00000017,-0.00000113,0.00000207,0.00000071,0.00000323,-0.000
 00576,0.00000185,-0.00000220,0.00000351,0.00000086,0.00000587,-0.00000
 655,0.00000450,0.00000180,-0.00000409,-0.00000018,-0.00000188,0.000000
 78,-0.00000097,-0.00000089,0.00000109,-0.00001134,0.00000721,0.0000123
 8,-0.00000639,-0.00000655,0.00000592,0.00000205,0.00000854,0.00000153,
 0.00000422,-0.00000402,-0.00000549,-0.00000557,0.00000812,0.00000819,0
 .00000426,0.00000678,0.00000298,-0.00000414,-0.00000583,0.00000490,0.0
 0000841,-0.00000411,-0.00000328,0.00003118,0.00000777,-0.00000157,-0.0
 0001086,0.00000230,0.00000726,-0.00001533,0.00001063,0.00001786,0.0000
 0328,-0.00000900,0.00000204,0.00001099,0.00000638,-0.00001087,0.000101
 78,0.00018027,-0.00001890,-0.00001263,-0.00002203,0.00001154,0.0000176
 6,0.00000817,-0.00001925,0.00000506,-0.00000262,-0.00000609,-0.0000002
 0,-0.00001147,-0.00000054,0.00000801,0.00000973,0.00000051,0.00000015,
 -0.00000036,0.00000869,0.00000430,-0.00000197,0.00000208,-0.00000796,0
 .00000245,-0.00000644,0.00000516,-0.00000184,-0.00000035,-0.00000169,0
 .00000148,0.00000903,0.00000507,0.00000234,0.00000281,0.00000391,-0.00
 000226,0.00000077,-0.00000021,0.00000054,-0.00000198,-0.00000171,0.000
 00240,0.00000207,0.00000813,-0.00000111,-0.00000064,-0.00000155,0.0000
 0082,-0.00000006,0.00000475,0.00000112,0.00000335,-0.00000210,-0.00000
 025,-0.00000143,0.00002373,0.00000640,-0.00000626,-0.00011965,-0.00003
 145,-0.00002786,0.00004816,0.00001959,0.00000256,0.00005861,-0.0000819
 0,0.00010786,-0.00007457,-0.00001749,-0.00001360,-0.00003375,0.0000267
 5,0.00000115,-0.00002546,0.00003059,0.00003167,0.00000058,0.00001225,0
 .00000041,-0.00000549,0.00000088,-0.00000059,0.00001482,-0.00000332,-0
 .00000220,0.00019379,0.00005660,-0.00011280,0.00000230,-0.00000265,0.0
 0001075,0.00008362,-0.00001867,-0.00001378,-0.00003656,-0.00000843,0.0
 0000967,-0.00002369,0.00001798,0.00002447,0.00000570,0.00000388,-0.000
 00513,-0.00000484,0.00000445,0.00000096,-0.00000046,-0.00000268,-0.000
 00437,-0.00000241,-0.00000127,0.00000277,-0.00000074,-0.00000550,-0.00
 001247,-0.00000021,-0.00000341,-0.00000036,-0.00000258,0.00000537,0.00
 000311,-0.00000040,0.00000228,0.00000206,-0.07033841,0.10033481,0.3044
 5805\\0.00000107,-0.00000620,-0.00000184,0.00000352,0.00000396,-0.0000
 0139,-0.00000112,-0.00000399,0.00000454,0.00000244,0.00000543,-0.00000
 539,0.00000136,-0.00000280,0.00000249,-0.00000100,-0.00000108,0.000007
 94,-0.00000029,-0.00000831,0.00000406,-0.00000198,0.00000088,0.0000132
 0,0.00000155,0.00000954,-0.00000202,0.00000157,0.00000256,-0.00000343,
 -0.00000036,-0.00000002,0.00000037,0.00000079,-0.00000280,0.00000287,0
 .00000166,0.00000295,0.00000090,0.00000077,0.00000308,-0.00000155,0.00
 000231,-0.00000546,-0.00000075,0.00000137,-0.00000287,0.00000294,-0.00
 000089,0.00000228,0.00000186,0.00000314,0.00000107,-0.00000784,-0.0000
 0225,0.00000074,-0.00000222,-0.00000217,-0.00000437,-0.00000020,0.0000
 0065,0.00000282,0.00000105,-0.00000465,0.00000087,-0.00000130,-0.00000
 337,0.00000066,0.00000150,0.00000113,0.00000463,0.00000050,0.00000388,
 0.00000236,-0.00000413,0.00000210,-0.00000258,0.00000433,-0.00000004,-
 0.00000253,-0.00000033,-0.00000271,0.00000065,0.00000176,-0.00000222,0
 .00000437,0.00000065,0.00000357,0.00000617,-0.00000033,-0.00000149,0.0
 0000375,0.00000416,-0.00000093,0.00000409,-0.00000173,0.00000034,-0.00
 000494,-0.00000251,0.00000018,-0.00000116,-0.00000231,0.00000355,-0.00
 000042,-0.00000084,-0.00000319,0.00000022,0.00000120,-0.00000190,-0.00
 000122,-0.00000190,-0.00000232,-0.00000011,-0.00000085,0.00000253,-0.0
 0000366,-0.00000579,-0.00000109,0.00000197,0.00000116,-0.00000273,0.00
 000088,0.00000115,-0.00000098,0.00000287,-0.00000014,-0.00000071,0.000
 00672,0.00000276,-0.00000112,-0.00000529,-0.00000253,-0.00000127,-0.00
 000124,-0.00000009,0.00000175,-0.00000144,-0.00000100,0.00000080,-0.00
 000323,-0.00000182,0.00000018,0.00000161,-0.00000076,-0.00000002,0.000
 00085,0.00000088,-0.00000089,0.00000114,-0.00000056,0.00000327,-0.0000
 0497,-0.00000234,-0.00000301,0.00000042,0.00000052,-0.00000234,0.00000
 280,0.00000045,-0.00000124,0.00000080,-0.00000038,0.00000376,0.0000014
 2,0.00000076,-0.00000171,0.00000002,-0.00000181,-0.00000253,0.00000089
 ,-0.00000005,-0.00000167,0.00000241,-0.00000136,-0.00000401,0.00000666
 ,0.00000227,-0.00000170,-0.00000095,-0.00000191,0.00000085,0.00000052,
 -0.00000232,0.00000016,-0.00000179,0.00000138,-0.00000204,0.00000133,0
 .00000295,0.00000116,0.00000122,-0.00000163,0.00000014,0.00000150,-0.0
 0000024,0.00000072,-0.00000054,-0.00000119,-0.00000267,-0.00000303,-0.
 00000005,0.00000217,0.00000322,-0.00000109,0.00000076,0.00000304,0.000
 00025,0.00000225,0.00000193,0.00000004,-0.00000460,-0.00000439,0.00000
 287,0.00000369,0.00000372,-0.00000204,0.00000407,0.00000033,0.00000026
 ,0.00000082,0.00000129,-0.00000054,0.00000371,-0.00000030,0.00000073,-
 0.00000181,0.00000262,-0.00000185,-0.00000025,0.00000129,0.00000028,0.
 00000096,0.00000093,0.00000007,0.00000071,0.00000043,-0.00000496,-0.00
 000086,-0.00000076,0.00000140,0.00000108,0.00000209,0.00000097,-0.0000
 0120,0.00000195,0.00000143,-0.00000039,-0.00000016,0.00000024,0.000000
 36,0.00000303,0.00000517,-0.00000547,-0.00000360,-0.00000117,0.0000016
 1,-0.00000592,-0.00000667,-0.00000009,0.00000429,0.00000681,0.00000032
 ,-0.00000158,-0.00000114,0.00000371,0.00000090,0.00000074,-0.00000064,
 -0.00000633,-0.00000450,0.00000165,-0.00000010,0.00000215,0.00000234,-
 0.00000177,-0.00000519,0.00000039,-0.00000200,0.00000149,-0.00000033,-
 0.00000083,0.00000114,-0.00000534,-0.00001400,-0.00000251,0.00000509,0
 .00000591,0.00000244,0.00000147,0.00000257,-0.00000011,0.00000036,0.00
 000162,0.00000430,0.00000042,-0.00000360,-0.00000110,-0.00000064,-0.00
 000621,0.00000071,-0.00000174,-0.00000256,-0.00000198,-0.00000111,-0.0
 0000428,0.00000334,0.00000027,-0.00000155,-0.00000064,-0.00000082,-0.0
 0000160,-0.00000033,-0.00000176,-0.00000151,-0.00000128,0.00000120,-0.
 00000026,-0.00000150\\\@
 The archive entry for this job was punched.


 ...THOSE SCIENCES ARE VAIN AND FULL OF ERRORS WHICH 
 ARE NOT BORN FROM EXPERIMENT, THE MOTHER OF CERTAINTY...

                          -- LEONARDO DA VINCI, 1452-1519
 Job cpu time:       1 days 13 hours 26 minutes  6.1 seconds.
 Elapsed time:       0 days  2 hours 23 minutes 20.6 seconds.
 File lengths (MBytes):  RWF=   8256 Int=      0 D2E=      0 Chk=     49 Scr=      1
 Normal termination of Gaussian 16 at Tue Dec 10 03:18:47 2024.
