/mnt/lustre/scratch/nvme/SLURM/9663638/usccqdma.umSAk3BhQW
OMP_STACKSIZE=0m
GAUSS_PDEF=16
GAUSS_MDEF=65536MB
GAUSS_RDEF=SCF=Direct
 Entering Gaussian System, Link 0=g16.exe
 Initial command:
 /opt/cesga/2020/software/Core/g16/c1/l1.exe "/mnt/lustre/scratch/nvme/SLURM/9663638/usccqdma.umSAk3BhQW/Gau-1006719.inp" -scrdir="/mnt/lustre/scratch/nvme/SLURM/9663638/usccqdma.umSAk3BhQW/"
 Default is to use a total of  16 processors:
                               16 via shared-memory
                                1 via Linda
 Entering Link 1 = /opt/cesga/2020/software/Core/g16/c1/l1.exe PID=   1006745.
  
 Copyright (c) 1988-2019, Gaussian, Inc.  All Rights Reserved.
  
 This is part of the Gaussian(R) 16 program.  It is based on
 the Gaussian(R) 09 system (copyright 2009, Gaussian, Inc.),
 the Gaussian(R) 03 system (copyright 2003, Gaussian, Inc.),
 the Gaussian(R) 98 system (copyright 1998, Gaussian, Inc.),
 the Gaussian(R) 94 system (copyright 1995, Gaussian, Inc.),
 the Gaussian 92(TM) system (copyright 1992, Gaussian, Inc.),
 the Gaussian 90(TM) system (copyright 1990, Gaussian, Inc.),
 the Gaussian 88(TM) system (copyright 1988, Gaussian, Inc.),
 the Gaussian 86(TM) system (copyright 1986, Carnegie Mellon
 University), and the Gaussian 82(TM) system (copyright 1983,
 Carnegie Mellon University). Gaussian is a federally registered
 trademark of Gaussian, Inc.
  
 This software contains proprietary and confidential information,
 including trade secrets, belonging to Gaussian, Inc.
  
 This software is provided under written license and may be
 used, copied, transmitted, or stored only in accord with that
 written license.
  
 The following legend is applicable only to US Government
 contracts under FAR:
  
                    RESTRICTED RIGHTS LEGEND
  
 Use, reproduction and disclosure by the US Government is
 subject to restrictions as set forth in subparagraphs (a)
 and (c) of the Commercial Computer Software - Restricted
 Rights clause in FAR 52.227-19.
  
 Gaussian, Inc.
 340 Quinnipiac St., Bldg. 40, Wallingford CT 06492
  
  
 ---------------------------------------------------------------
 Warning -- This program may not be used in any manner that
 competes with the business of Gaussian, Inc. or will provide
 assistance to any competitor of Gaussian, Inc.  The licensee
 of this program is prohibited from giving any competitor of
 Gaussian, Inc. access to this program.  By using this program,
 the user acknowledges that Gaussian, Inc. is engaged in the
 business of creating and licensing software in the field of
 computational chemistry and represents and warrants to the
 licensee that it is not a competitor of Gaussian, Inc. and that
 it will not use this program in any manner prohibited above.
 ---------------------------------------------------------------
  

 Cite this work as:
 Gaussian 16, Revision C.01,
 M. J. Frisch, G. W. Trucks, H. B. Schlegel, G. E. Scuseria, 
 M. A. Robb, J. R. Cheeseman, G. Scalmani, V. Barone, 
 G. A. Petersson, H. Nakatsuji, X. Li, M. Caricato, A. V. Marenich, 
 J. Bloino, B. G. Janesko, R. Gomperts, B. Mennucci, H. P. Hratchian, 
 J. V. Ortiz, A. F. Izmaylov, J. L. Sonnenberg, D. Williams-Young, 
 F. Ding, F. Lipparini, F. Egidi, J. Goings, B. Peng, A. Petrone, 
 T. Henderson, D. Ranasinghe, V. G. Zakrzewski, J. Gao, N. Rega, 
 G. Zheng, W. Liang, M. Hada, M. Ehara, K. Toyota, R. Fukuda, 
 J. Hasegawa, M. Ishida, T. Nakajima, Y. Honda, O. Kitao, H. Nakai, 
 T. Vreven, K. Throssell, J. A. Montgomery, Jr., J. E. Peralta, 
 F. Ogliaro, M. J. Bearpark, J. J. Heyd, E. N. Brothers, K. N. Kudin, 
 V. N. Staroverov, T. A. Keith, R. Kobayashi, J. Normand, 
 K. Raghavachari, A. P. Rendell, J. C. Burant, S. S. Iyengar, 
 J. Tomasi, M. Cossi, J. M. Millam, M. Klene, C. Adamo, R. Cammi, 
 J. W. Ochterski, R. L. Martin, K. Morokuma, O. Farkas, 
 J. B. Foresman, and D. J. Fox, Gaussian, Inc., Wallingford CT, 2019.
 
 ******************************************
 Gaussian 16:  ES64L-G16RevC.01  3-Jul-2019
                 7-Dec-2024 
 ******************************************
 Default route: SCF=Direct
 ----------------------------------------------------
 # m06/genecp scf=tight int=ultrafine 5d freq=noraman
 ----------------------------------------------------
 1/10=4,30=1,38=1/1,3;
 2/12=2,17=6,18=5,40=1/2;
 3/5=7,8=1,11=2,16=1,17=8,25=1,30=1,71=2,74=-54,75=-5,140=1/1,2,3;
 4//1;
 5/5=2,32=2,38=5,98=1/2;
 8/6=4,10=90,11=11/1;
 11/6=1,8=1,9=11,15=111,16=1/1,2,10;
 10/6=1/2;
 6/7=2,8=2,9=2,10=2,28=1/1;
 7/8=1,10=1,25=1/1,2,3,16;
 1/10=4,30=1/3;
 99//99;
 ------
 OPT-TS
 ------
 Symbolic Z-matrix:
 Charge =  0 Multiplicity = 1
 C                     1.66709   2.70466  -0.97161 
 C                     2.89409   1.01282   0.03782 
 C                     4.01584   1.82508   0.12352 
 C                     3.96139   3.11666  -0.38376 
 C                     2.76789   3.55787  -0.93591 
 C                     0.33497   3.12552  -1.45396 
 C                    -1.87304   2.47523  -1.80791 
 C                    -2.24703   3.77072  -2.14047 
 C                    -1.27705   4.76192  -2.13954 
 C                     0.02832   4.43932  -1.79463 
 H                     2.89342  -0.00453   0.42705 
 H                     4.83132   3.76684  -0.33874 
 H                     2.69713   4.56761  -1.33122 
 H                    -2.58669   1.65183  -1.76808 
 H                    -1.53503   5.78965  -2.38551 
 H                     0.787     5.21642  -1.75622 
 N                     1.74826   1.43308  -0.50737 
 N                    -0.61355   2.16358  -1.48406 
 Ir                    0.02531   0.15642  -0.81276 
 O                    -0.88923  -1.36605   1.58219 
 O                     2.31349  -1.50014  -1.68336 
 O                    -3.879     0.18745  -0.4856 
 B                     1.00661  -1.55723  -1.19524 
 B                     0.2085   -0.96083   0.82735 
 B                    -3.75557  -0.02966   0.86115 
 O                    -4.26856  -1.22773   1.26841 
 O                     1.39127  -1.26906   1.51303 
 C                     1.04767  -1.65304   2.85236 
 C                    -0.41658  -2.15849   2.68168 
 C                    -4.67967  -0.88899  -1.01773 
 C                    -4.53399  -1.99752   0.0737 
 C                     2.84492  -2.83276  -1.70152 
 C                     1.55423  -3.70245  -1.77769 
 O                     0.58223  -2.88208  -1.11512 
 C                    -0.48669  -3.61637   2.24764 
 H                     0.10781  -3.78091   1.33827 
 H                    -0.14528  -4.29869   3.03767 
 H                    -1.52809  -3.86438   2.00964 
 C                    -1.33552  -1.92044   3.86297 
 H                    -1.35901  -0.86435   4.15867 
 H                    -2.35743  -2.20863   3.57961 
 H                    -1.03074  -2.51978   4.733 
 C                     2.03559  -2.69654   3.33459 
 H                     2.08259  -3.55624   2.65587 
 H                     3.0399   -2.25583   3.39114 
 H                     1.76499  -3.05793   4.3372 
 C                     1.16442  -0.40064   3.71088 
 H                     2.17194   0.01872   3.58394 
 H                     0.44128   0.36356   3.39615 
 H                     1.0079   -0.61238   4.77728 
 C                     3.78114  -2.97784  -2.8852 
 H                     3.2965   -2.69172  -3.82499 
 H                     4.65465  -2.32815  -2.74523 
 H                     4.14062  -4.01331  -2.97542 
 C                     3.623    -3.01846  -0.40499 
 H                     2.9641   -2.9084    0.46603 
 H                     4.12436  -3.99495  -0.36037 
 H                     4.39066  -2.23511  -0.34277 
 C                     1.05873  -3.91195  -3.20297 
 H                     0.98815  -2.95676  -3.73942 
 H                     1.70952  -4.5894   -3.77211 
 H                     0.05339  -4.34976  -3.1638 
 C                     1.64401  -5.03609  -1.06264 
 H                     2.41943  -5.67216  -1.51366 
 H                     1.87386  -4.91077   0.00233 
 H                     0.68363  -5.56227  -1.14082 
 C                    -5.78517  -2.82287   0.30056 
 H                    -6.06106  -3.36714  -0.61389 
 H                    -5.59808  -3.56218   1.08914 
 H                    -6.63551  -2.20657   0.61221 
 C                    -3.34203  -2.91628  -0.14458 
 H                    -3.49321  -3.5687   -1.01499 
 H                    -2.40035  -2.36391  -0.26693 
 H                    -3.23843  -3.55462   0.7427 
 C                    -4.14237  -1.26608  -2.38252 
 H                    -4.68128  -2.13498  -2.78643 
 H                    -4.285    -0.42889  -3.07954 
 H                    -3.07137  -1.49488  -2.3415 
 C                    -6.09542  -0.34185  -1.13806 
 H                    -6.78029  -1.06996  -1.59181 
 H                    -6.49449  -0.04904  -0.15728 
 H                    -6.07592   0.5526   -1.7745 
 H                    -1.3049   -0.69125  -1.15374 
 C                    -1.90025   3.14929   1.44648 
 O                    -1.87571   4.29589   1.00832 
 C                    -0.67113   2.53133   2.08816 
 H                    -0.94188   2.12717   3.07661 
 H                    -0.35731   1.65816   1.48483 
 C                    -3.11512   0.996     1.86764 
 H                    -2.11704   0.5871    2.06834 
 H                    -3.65805   0.97117   2.83072 
 N                    -3.02045   2.3637    1.37098 
 C                    -4.26455   2.96758   0.9404 
 H                    -5.01402   2.90237   1.74503 
 H                    -4.07749   4.01826   0.70591 
 H                    -4.66551   2.45502   0.05475 
 C                     0.47454   3.51517   2.21776 
 H                     0.73299   3.95097   1.24463 
 H                     0.21225   4.35054   2.8775 
 C                     5.24764   1.25286   0.75245 
 F                     5.71725   0.21872   0.04529 
 F                     6.22573   2.1584    0.84472 
 F                     4.99282   0.79838   1.98409 
 H                    -3.28406   3.99153  -2.37931 
 H                     1.36462   3.01476   2.62359 
 

 GradGradGradGradGradGradGradGradGradGradGradGradGradGradGradGradGradGrad
 Berny optimization.
 Initialization pass.
 Trust Radius=3.00D-01 FncErr=1.00D-07 GrdErr=1.00D-07 EigMax=2.50D+02 EigMin=1.00D-04
 Number of steps in this run=      2 maximum allowed number of steps=      2.
 GradGradGradGradGradGradGradGradGradGradGradGradGradGradGradGradGradGrad

 Stoichiometry    C34H54B3F3IrN3O7
 Framework group  C1[X(C34H54B3F3IrN3O7)]
 Deg. of freedom   309
 Full point group                 C1      NOp   1
 Largest Abelian subgroup         C1      NOp   1
 Largest concise Abelian subgroup C1      NOp   1
                         Standard orientation:                         
 ---------------------------------------------------------------------
 Center     Atomic      Atomic             Coordinates (Angstroms)
 Number     Number       Type             X           Y           Z
 ---------------------------------------------------------------------
      1          6           0        1.667091    2.704659   -0.971609
      2          6           0        2.894090    1.012819    0.037821
      3          6           0        4.015840    1.825078    0.123521
      4          6           0        3.961391    3.116658   -0.383759
      5          6           0        2.767891    3.557869   -0.935909
      6          6           0        0.334971    3.125520   -1.453959
      7          6           0       -1.873039    2.475231   -1.807909
      8          6           0       -2.247029    3.770721   -2.140469
      9          6           0       -1.277048    4.761921   -2.139539
     10          6           0        0.028322    4.439320   -1.794629
     11          1           0        2.893420   -0.004531    0.427051
     12          1           0        4.831321    3.766838   -0.338739
     13          1           0        2.697132    4.567609   -1.331219
     14          1           0       -2.586690    1.651831   -1.768079
     15          1           0       -1.535028    5.789651   -2.385509
     16          1           0        0.787002    5.216420   -1.756219
     17          7           0        1.748260    1.433079   -0.507369
     18          7           0       -0.613549    2.163580   -1.484059
     19         77           0        0.025310    0.156420   -0.812759
     20          8           0       -0.889231   -1.366050    1.582191
     21          8           0        2.313489   -1.500141   -1.683359
     22          8           0       -3.879000    0.187452   -0.485599
     23          5           0        1.006609   -1.557230   -1.195239
     24          5           0        0.208499   -0.960830    0.827351
     25          5           0       -3.755570   -0.029658    0.861151
     26          8           0       -4.268561   -1.227728    1.268411
     27          8           0        1.391269   -1.269061    1.513031
     28          6           0        1.047669   -1.653040    2.852361
     29          6           0       -0.416582   -2.158490    2.681681
     30          6           0       -4.679671   -0.888988   -1.017729
     31          6           0       -4.533991   -1.997518    0.073701
     32          6           0        2.844918   -2.832761   -1.701519
     33          6           0        1.554228   -3.702451   -1.777689
     34          8           0        0.582228   -2.882080   -1.115119
     35          6           0       -0.486692   -3.616370    2.247641
     36          1           0        0.107808   -3.780910    1.338271
     37          1           0       -0.145283   -4.298690    3.037671
     38          1           0       -1.528092   -3.864379    2.009641
     39          6           0       -1.335521   -1.920439    3.862971
     40          1           0       -1.359011   -0.864349    4.158671
     41          1           0       -2.357432   -2.208629    3.579611
     42          1           0       -1.030742   -2.519779    4.733001
     43          6           0        2.035588   -2.696541    3.334591
     44          1           0        2.082588   -3.556241    2.655871
     45          1           0        3.039898   -2.255831    3.391141
     46          1           0        1.764988   -3.057931    4.337201
     47          6           0        1.164419   -0.400640    3.710881
     48          1           0        2.171940    0.018719    3.583941
     49          1           0        0.441280    0.363560    3.396151
     50          1           0        1.007899   -0.612380    4.777281
     51          6           0        3.781138   -2.977842   -2.885199
     52          1           0        3.296498   -2.691721   -3.824989
     53          1           0        4.654648   -2.328152   -2.745229
     54          1           0        4.140618   -4.013312   -2.975419
     55          6           0        3.622998   -3.018462   -0.404989
     56          1           0        2.964098   -2.908401    0.466031
     57          1           0        4.124358   -3.994952   -0.360369
     58          1           0        4.390658   -2.235112   -0.342769
     59          6           0        1.058728   -3.911950   -3.202969
     60          1           0        0.988148   -2.956760   -3.739419
     61          1           0        1.709517   -4.589401   -3.772109
     62          1           0        0.053387   -4.349760   -3.163799
     63          6           0        1.644007   -5.036091   -1.062639
     64          1           0        2.419427   -5.672161   -1.513659
     65          1           0        1.873857   -4.910771    0.002331
     66          1           0        0.683627   -5.562270   -1.140819
     67          6           0       -5.785172   -2.822867    0.300561
     68          1           0       -6.061062   -3.367137   -0.613889
     69          1           0       -5.598082   -3.562177    1.089141
     70          1           0       -6.635512   -2.206567    0.612211
     71          6           0       -3.342032   -2.916278   -0.144579
     72          1           0       -3.493212   -3.568698   -1.014989
     73          1           0       -2.400352   -2.363909   -0.266929
     74          1           0       -3.238432   -3.554618    0.742701
     75          6           0       -4.142371   -1.266078   -2.382519
     76          1           0       -4.681281   -2.134978   -2.786429
     77          1           0       -4.285001   -0.428888   -3.079539
     78          1           0       -3.071371   -1.494878   -2.341499
     79          6           0       -6.095421   -0.341847   -1.138059
     80          1           0       -6.780291   -1.069957   -1.591809
     81          1           0       -6.494491   -0.049037   -0.157279
     82          1           0       -6.075920    0.552603   -1.774499
     83          1           0       -1.304901   -0.691249   -1.153739
     84          6           0       -1.900249    3.149291    1.446481
     85          8           0       -1.875708    4.295891    1.008321
     86          6           0       -0.671129    2.531330    2.088161
     87          1           0       -0.941879    2.127171    3.076611
     88          1           0       -0.357310    1.658160    1.484831
     89          6           0       -3.115120    0.996002    1.867641
     90          1           0       -2.117040    0.587101    2.068341
     91          1           0       -3.658050    0.971172    2.830721
     92          7           0       -3.020449    2.363701    1.370981
     93          6           0       -4.264549    2.967582    0.940401
     94          1           0       -5.014019    2.902372    1.745031
     95          1           0       -4.077489    4.018262    0.705911
     96          1           0       -4.665509    2.455022    0.054751
     97          6           0        0.474541    3.515170    2.217761
     98          1           0        0.732991    3.950970    1.244631
     99          1           0        0.212252    4.350540    2.877501
    100          6           0        5.247640    1.252858    0.752451
    101          9           0        5.717250    0.218717    0.045291
    102          9           0        6.225731    2.158397    0.844721
    103          9           0        4.992820    0.798378    1.984091
    104          1           0       -3.284059    3.991532   -2.379309
    105          1           0        1.364621    3.014759    2.623591
 ---------------------------------------------------------------------
 Rotational constants (GHZ):           0.0705027           0.0524450           0.0419750
 General basis read from cards:  (5D, 7F)
 ======================================================================================================
                                       Pseudopotential Parameters
 ======================================================================================================
  Center     Atomic      Valence      Angular      Power
  Number     Number     Electrons     Momentum     of R      Exponent        Coefficient   SO-Coeffient
 ======================================================================================================
    1          6
                                   No pseudopotential on this center.
    2          6
                                   No pseudopotential on this center.
    3          6
                                   No pseudopotential on this center.
    4          6
                                   No pseudopotential on this center.
    5          6
                                   No pseudopotential on this center.
    6          6
                                   No pseudopotential on this center.
    7          6
                                   No pseudopotential on this center.
    8          6
                                   No pseudopotential on this center.
    9          6
                                   No pseudopotential on this center.
   10          6
                                   No pseudopotential on this center.
   11          1
                                   No pseudopotential on this center.
   12          1
                                   No pseudopotential on this center.
   13          1
                                   No pseudopotential on this center.
   14          1
                                   No pseudopotential on this center.
   15          1
                                   No pseudopotential on this center.
   16          1
                                   No pseudopotential on this center.
   17          7
                                   No pseudopotential on this center.
   18          7
                                   No pseudopotential on this center.
   19         77           17
                                      G and up 
                                                     1      823.5880147       -0.15780140    0.00000000
                                                     2      364.6613336    -1517.52704460    0.00000000
                                                     2       55.7082801     -316.53065290    0.00000000
                                                     2       12.0464544      -91.88809410    0.00000000
                                                     2        3.5120610       -9.22417730    0.00000000
                                      S - G
                                                     0      188.0490770        3.15780140    0.00000000
                                                     1      340.4194712       26.83225770    0.00000000
                                                     2      128.2373673      800.42500070    0.00000000
                                                     2       33.8644961      369.40506830    0.00000000
                                                     2        4.7560005      242.41718990    0.00000000
                                                     2        3.9649974     -118.21732820    0.00000000
                                      P - G
                                                     0      289.7291139        2.15780140    0.00000000
                                                     1       87.4633789       61.96786100    0.00000000
                                                     2       30.4363766      269.05819860    0.00000000
                                                     2        4.0553412      231.16547930    0.00000000
                                                     2        3.5525341     -133.69526670    0.00000000
                                      D - G
                                                     0      136.4017106        3.15780140    0.00000000
                                                     1       95.0776925       45.93498030    0.00000000
                                                     2       49.2258410      359.03446680    0.00000000
                                                     2       15.0874145      176.47401190    0.00000000
                                                     2        4.0405764       54.51552860    0.00000000
                                      F - G
                                                     0      127.3507908        3.95461970    0.00000000
                                                     1       66.2364374       52.97736550    0.00000000
                                                     2       34.4299229      274.86433830    0.00000000
                                                     2       10.1995721      137.20473380    0.00000000
                                                     2        2.5409702       14.86333050    0.00000000
   20          8
                                   No pseudopotential on this center.
   21          8
                                   No pseudopotential on this center.
   22          8
                                   No pseudopotential on this center.
   23          5
                                   No pseudopotential on this center.
   24          5
                                   No pseudopotential on this center.
   25          5
                                   No pseudopotential on this center.
   26          8
                                   No pseudopotential on this center.
   27          8
                                   No pseudopotential on this center.
   28          6
                                   No pseudopotential on this center.
   29          6
                                   No pseudopotential on this center.
   30          6
                                   No pseudopotential on this center.
   31          6
                                   No pseudopotential on this center.
   32          6
                                   No pseudopotential on this center.
   33          6
                                   No pseudopotential on this center.
   34          8
                                   No pseudopotential on this center.
   35          6
                                   No pseudopotential on this center.
   36          1
                                   No pseudopotential on this center.
   37          1
                                   No pseudopotential on this center.
   38          1
                                   No pseudopotential on this center.
   39          6
                                   No pseudopotential on this center.
   40          1
                                   No pseudopotential on this center.
   41          1
                                   No pseudopotential on this center.
   42          1
                                   No pseudopotential on this center.
   43          6
                                   No pseudopotential on this center.
   44          1
                                   No pseudopotential on this center.
   45          1
                                   No pseudopotential on this center.
   46          1
                                   No pseudopotential on this center.
   47          6
                                   No pseudopotential on this center.
   48          1
                                   No pseudopotential on this center.
   49          1
                                   No pseudopotential on this center.
   50          1
                                   No pseudopotential on this center.
   51          6
                                   No pseudopotential on this center.
   52          1
                                   No pseudopotential on this center.
   53          1
                                   No pseudopotential on this center.
   54          1
                                   No pseudopotential on this center.
   55          6
                                   No pseudopotential on this center.
   56          1
                                   No pseudopotential on this center.
   57          1
                                   No pseudopotential on this center.
   58          1
                                   No pseudopotential on this center.
   59          6
                                   No pseudopotential on this center.
   60          1
                                   No pseudopotential on this center.
   61          1
                                   No pseudopotential on this center.
   62          1
                                   No pseudopotential on this center.
   63          6
                                   No pseudopotential on this center.
   64          1
                                   No pseudopotential on this center.
   65          1
                                   No pseudopotential on this center.
   66          1
                                   No pseudopotential on this center.
   67          6
                                   No pseudopotential on this center.
   68          1
                                   No pseudopotential on this center.
   69          1
                                   No pseudopotential on this center.
   70          1
                                   No pseudopotential on this center.
   71          6
                                   No pseudopotential on this center.
   72          1
                                   No pseudopotential on this center.
   73          1
                                   No pseudopotential on this center.
   74          1
                                   No pseudopotential on this center.
   75          6
                                   No pseudopotential on this center.
   76          1
                                   No pseudopotential on this center.
   77          1
                                   No pseudopotential on this center.
   78          1
                                   No pseudopotential on this center.
   79          6
                                   No pseudopotential on this center.
   80          1
                                   No pseudopotential on this center.
   81          1
                                   No pseudopotential on this center.
   82          1
                                   No pseudopotential on this center.
   83          1
                                   No pseudopotential on this center.
   84          6
                                   No pseudopotential on this center.
   85          8
                                   No pseudopotential on this center.
   86          6
                                   No pseudopotential on this center.
   87          1
                                   No pseudopotential on this center.
   88          1
                                   No pseudopotential on this center.
   89          6
                                   No pseudopotential on this center.
   90          1
                                   No pseudopotential on this center.
   91          1
                                   No pseudopotential on this center.
   92          7
                                   No pseudopotential on this center.
   93          6
                                   No pseudopotential on this center.
   94          1
                                   No pseudopotential on this center.
   95          1
                                   No pseudopotential on this center.
   96          1
                                   No pseudopotential on this center.
   97          6
                                   No pseudopotential on this center.
   98          1
                                   No pseudopotential on this center.
   99          1
                                   No pseudopotential on this center.
  100          6
                                   No pseudopotential on this center.
  101          9
                                   No pseudopotential on this center.
  102          9
                                   No pseudopotential on this center.
  103          9
                                   No pseudopotential on this center.
  104          1
                                   No pseudopotential on this center.
  105          1
                                   No pseudopotential on this center.
 ======================================================================================================
 There are   882 symmetry adapted cartesian basis functions of A   symmetry.
 There are   830 symmetry adapted basis functions of A   symmetry.
   830 basis functions,  1659 primitive gaussians,   882 cartesian basis functions
   197 alpha electrons      197 beta electrons
       nuclear repulsion energy      8464.8204310338 Hartrees.
 NAtoms=  105 NActive=  105 NUniq=  105 SFac= 1.00D+00 NAtFMM=   60 NAOKFM=T Big=T
 Integral buffers will be    131072 words long.
 Raffenetti 2 integral format.
 Two-electron integral symmetry is turned on.
 One-electron integrals computed using PRISM.
   1 Symmetry operations used in ECPInt.
 ECPInt:  NShTT=   50086 NPrTT=  307226 LenC2=   38543 LenP2D=  119983.
 LDataN:  DoStor=T MaxTD1= 6 Len=  172
 NBasis=   830 RedAO= T EigKep=  4.96D-04  NBF=   830
 NBsUse=   830 1.00D-06 EigRej= -1.00D+00 NBFU=   830
 Defaulting to unpruned grid for atomic number  77.
 ExpMin= 2.90D-02 ExpMax= 7.00D+03 ExpMxC= 1.05D+03 IAcc=3 IRadAn=         5 AccDes= 0.00D+00
 Harris functional with IExCor= 1009 and IRadAn=       5 diagonalized for initial guess.
 HarFok:  IExCor= 1009 AccDes= 0.00D+00 IRadAn=         5 IDoV= 1 UseB2=F ITyADJ=14
 ICtDFT=  3500011 ScaDFX=  1.000000  1.000000  1.000000  1.000000
 Defaulting to unpruned grid for atomic number  77.
 FoFCou: FMM=F IPFlag=           0 FMFlag=      100000 FMFlg1=        2001
         NFxFlg=           0 DoJE=T BraDBF=F KetDBF=T FulRan=T
         wScrn=  0.000000 ICntrl=       500 IOpCl=  0 I1Cent=   200000004 NGrid=           0
         NMat0=    1 NMatS0=      1 NMatT0=    0 NMatD0=    1 NMtDS0=    0 NMtDT0=    0
 Petite list used in FoFCou.
 Requested convergence on RMS density matrix=1.00D-08 within 128 cycles.
 Requested convergence on MAX density matrix=1.00D-06.
 Requested convergence on             energy=1.00D-06.
 No special actions if energy rises.
 Defaulting to unpruned grid for atomic number  77.
 Defaulting to unpruned grid for atomic number  77.
 Defaulting to unpruned grid for atomic number  77.
 Defaulting to unpruned grid for atomic number  77.
 Defaulting to unpruned grid for atomic number  77.
 Defaulting to unpruned grid for atomic number  77.
 Defaulting to unpruned grid for atomic number  77.
 Defaulting to unpruned grid for atomic number  77.
 Defaulting to unpruned grid for atomic number  77.
 Defaulting to unpruned grid for atomic number  77.
 Defaulting to unpruned grid for atomic number  77.
 Defaulting to unpruned grid for atomic number  77.
 Defaulting to unpruned grid for atomic number  77.
 Defaulting to unpruned grid for atomic number  77.
 Defaulting to unpruned grid for atomic number  77.
 Defaulting to unpruned grid for atomic number  77.
 SCF Done:  E(RM06) =  -2496.64084273     A.U. after   16 cycles
            NFock= 16  Conv=0.68D-08     -V/T= 2.0358
 DoSCS=F DFT=T ScalE2(SS,OS)=  1.000000  1.000000
 Range of M.O.s used for correlation:     1   830
 NBasis=   830 NAE=   197 NBE=   197 NFC=     0 NFV=     0
 NROrb=    830 NOA=   197 NOB=   197 NVA=   633 NVB=   633
   1 Symmetry operations used in ECPInt.
 ECPInt:  NShTT=   50086 NPrTT=  307226 LenC2=   38543 LenP2D=  119983.
 LDataN:  DoStor=T MaxTD1= 7 Len=  274
 Number of processors reduced to   8 by ecpmxn.
 Symmetrizing basis deriv contribution to polar:
 IMax=3 JMax=2 DiffMx= 0.00D+00
 G2DrvN: will do   106 centers at a time, making    1 passes.
 Calling FoFCou, ICntrl=  3107 FMM=T I1Cent=   0 AccDes= 0.00D+00.
 Defaulting to unpruned grid for atomic number  77.
 Defaulting to unpruned grid for atomic number  77.
 Defaulting to unpruned grid for atomic number  77.
 Defaulting to unpruned grid for atomic number  77.
 Defaulting to unpruned grid for atomic number  77.
 Defaulting to unpruned grid for atomic number  77.
 Defaulting to unpruned grid for atomic number  77.
 Defaulting to unpruned grid for atomic number  77.
 Defaulting to unpruned grid for atomic number  77.
 Defaulting to unpruned grid for atomic number  77.
 Defaulting to unpruned grid for atomic number  77.
 Defaulting to unpruned grid for atomic number  77.
 Defaulting to unpruned grid for atomic number  77.
 Defaulting to unpruned grid for atomic number  77.
 Defaulting to unpruned grid for atomic number  77.
 Defaulting to unpruned grid for atomic number  77.
 End of G2Drv F.D. properties file   721 does not exist.
 End of G2Drv F.D. properties file   722 does not exist.
 End of G2Drv F.D. properties file   788 does not exist.
          IDoAtm=11111111111111111111111111111111111111111111111111
          IDoAtm=11111111111111111111111111111111111111111111111111
          IDoAtm=11111
          Differentiating once with respect to electric field.
                with respect to dipole field.
          Differentiating once with respect to nuclear coordinates.
 Defaulting to unpruned grid for atomic number  77.
 CalDSu exits because no D1Ps are significant.
 Defaulting to unpruned grid for atomic number  77.
 Defaulting to unpruned grid for atomic number  77.
 Defaulting to unpruned grid for atomic number  77.
 Defaulting to unpruned grid for atomic number  77.
 Defaulting to unpruned grid for atomic number  77.
 Defaulting to unpruned grid for atomic number  77.
 Defaulting to unpruned grid for atomic number  77.
 Defaulting to unpruned grid for atomic number  77.
 Defaulting to unpruned grid for atomic number  77.
 Defaulting to unpruned grid for atomic number  77.
 Defaulting to unpruned grid for atomic number  77.
 Defaulting to unpruned grid for atomic number  77.
 Defaulting to unpruned grid for atomic number  77.
 Defaulting to unpruned grid for atomic number  77.
 Defaulting to unpruned grid for atomic number  77.
 Defaulting to unpruned grid for atomic number  77.
          There are   318 degrees of freedom in the 1st order CPHF.  IDoFFX=6 NUNeed=     3.
    315 vectors produced by pass  0 Test12= 1.25D-13 1.00D-09 XBig12= 5.23D+02 1.03D+01.
 AX will form    72 AO Fock derivatives at one time.
    315 vectors produced by pass  1 Test12= 1.25D-13 1.00D-09 XBig12= 8.84D+01 1.28D+00.
    315 vectors produced by pass  2 Test12= 1.25D-13 1.00D-09 XBig12= 1.27D+00 1.14D-01.
    315 vectors produced by pass  3 Test12= 1.25D-13 1.00D-09 XBig12= 8.94D-03 8.73D-03.
    315 vectors produced by pass  4 Test12= 1.25D-13 1.00D-09 XBig12= 3.80D-05 4.02D-04.
    283 vectors produced by pass  5 Test12= 1.25D-13 1.00D-09 XBig12= 8.36D-08 1.65D-05.
     74 vectors produced by pass  6 Test12= 1.25D-13 1.00D-09 XBig12= 1.20D-10 6.69D-07.
      3 vectors produced by pass  7 Test12= 1.25D-13 1.00D-09 XBig12= 1.56D-13 2.55D-08.
 InvSVY:  IOpt=1 It=  1 EMax= 2.49D-14
 Solved reduced A of dimension  1935 with   318 vectors.
 Isotropic polarizability for W=    0.000000      474.78 Bohr**3.
 End of Minotr F.D. properties file   721 does not exist.
 End of Minotr F.D. properties file   722 does not exist.
 End of Minotr F.D. properties file   788 does not exist.
 Hyperfine terms turned off by default for NAtoms > 100.

 **********************************************************************

            Population analysis using the SCF Density.

 **********************************************************************

 Orbital symmetries:
       Occupied  (A) (A) (A) (A) (A) (A) (A) (A) (A) (A) (A) (A)
                 (A) (A) (A) (A) (A) (A) (A) (A) (A) (A) (A) (A)
                 (A) (A) (A) (A) (A) (A) (A) (A) (A) (A) (A) (A)
                 (A) (A) (A) (A) (A) (A) (A) (A) (A) (A) (A) (A)
                 (A) (A) (A) (A) (A) (A) (A) (A) (A) (A) (A) (A)
                 (A) (A) (A) (A) (A) (A) (A) (A) (A) (A) (A) (A)
                 (A) (A) (A) (A) (A) (A) (A) (A) (A) (A) (A) (A)
                 (A) (A) (A) (A) (A) (A) (A) (A) (A) (A) (A) (A)
                 (A) (A) (A) (A) (A) (A) (A) (A) (A) (A) (A) (A)
                 (A) (A) (A) (A) (A) (A) (A) (A) (A) (A) (A) (A)
                 (A) (A) (A) (A) (A) (A) (A) (A) (A) (A) (A) (A)
                 (A) (A) (A) (A) (A) (A) (A) (A) (A) (A) (A) (A)
                 (A) (A) (A) (A) (A) (A) (A) (A) (A) (A) (A) (A)
                 (A) (A) (A) (A) (A) (A) (A) (A) (A) (A) (A) (A)
                 (A) (A) (A) (A) (A) (A) (A) (A) (A) (A) (A) (A)
                 (A) (A) (A) (A) (A) (A) (A) (A) (A) (A) (A) (A)
                 (A) (A) (A) (A) (A)
       Virtual   (A) (A) (A) (A) (A) (A) (A) (A) (A) (A) (A) (A)
                 (A) (A) (A) (A) (A) (A) (A) (A) (A) (A) (A) (A)
                 (A) (A) (A) (A) (A) (A) (A) (A) (A) (A) (A) (A)
                 (A) (A) (A) (A) (A) (A) (A) (A) (A) (A) (A) (A)
                 (A) (A) (A) (A) (A) (A) (A) (A) (A) (A) (A) (A)
                 (A) (A) (A) (A) (A) (A) (A) (A) (A) (A) (A) (A)
                 (A) (A) (A) (A) (A) (A) (A) (A) (A) (A) (A) (A)
                 (A) (A) (A) (A) (A) (A) (A) (A) (A) (A) (A) (A)
                 (A) (A) (A) (A) (A) (A) (A) (A) (A) (A) (A) (A)
                 (A) (A) (A) (A) (A) (A) (A) (A) (A) (A) (A) (A)
                 (A) (A) (A) (A) (A) (A) (A) (A) (A) (A) (A) (A)
                 (A) (A) (A) (A) (A) (A) (A) (A) (A) (A) (A) (A)
                 (A) (A) (A) (A) (A) (A) (A) (A) (A) (A) (A) (A)
                 (A) (A) (A) (A) (A) (A) (A) (A) (A) (A) (A) (A)
                 (A) (A) (A) (A) (A) (A) (A) (A) (A) (A) (A) (A)
                 (A) (A) (A) (A) (A) (A) (A) (A) (A) (A) (A) (A)
                 (A) (A) (A) (A) (A) (A) (A) (A) (A) (A) (A) (A)
                 (A) (A) (A) (A) (A) (A) (A) (A) (A) (A) (A) (A)
                 (A) (A) (A) (A) (A) (A) (A) (A) (A) (A) (A) (A)
                 (A) (A) (A) (A) (A) (A) (A) (A) (A) (A) (A) (A)
                 (A) (A) (A) (A) (A) (A) (A) (A) (A) (A) (A) (A)
                 (A) (A) (A) (A) (A) (A) (A) (A) (A) (A) (A) (A)
                 (A) (A) (A) (A) (A) (A) (A) (A) (A) (A) (A) (A)
                 (A) (A) (A) (A) (A) (A) (A) (A) (A) (A) (A) (A)
                 (A) (A) (A) (A) (A) (A) (A) (A) (A) (A) (A) (A)
                 (A) (A) (A) (A) (A) (A) (A) (A) (A) (A) (A) (A)
                 (A) (A) (A) (A) (A) (A) (A) (A) (A) (A) (A) (A)
                 (A) (A) (A) (A) (A) (A) (A) (A) (A) (A) (A) (A)
                 (A) (A) (A) (A) (A) (A) (A) (A) (A) (A) (A) (A)
                 (A) (A) (A) (A) (A) (A) (A) (A) (A) (A) (A) (A)
                 (A) (A) (A) (A) (A) (A) (A) (A) (A) (A) (A) (A)
                 (A) (A) (A) (A) (A) (A) (A) (A) (A) (A) (A) (A)
                 (A) (A) (A) (A) (A) (A) (A) (A) (A) (A) (A) (A)
                 (A) (A) (A) (A) (A) (A) (A) (A) (A) (A) (A) (A)
                 (A) (A) (A) (A) (A) (A) (A) (A) (A) (A) (A) (A)
                 (A) (A) (A) (A) (A) (A) (A) (A) (A) (A) (A) (A)
                 (A) (A) (A) (A) (A) (A) (A) (A) (A) (A) (A) (A)
                 (A) (A) (A) (A) (A) (A) (A) (A) (A) (A) (A) (A)
                 (A) (A) (A) (A) (A) (A) (A) (A) (A) (A) (A) (A)
                 (A) (A) (A) (A) (A) (A) (A) (A) (A) (A) (A) (A)
                 (A) (A) (A) (A) (A) (A) (A) (A) (A) (A) (A) (A)
                 (A) (A) (A) (A) (A) (A) (A) (A) (A) (A) (A) (A)
                 (A) (A) (A) (A) (A) (A) (A) (A) (A) (A) (A) (A)
                 (A) (A) (A) (A) (A) (A) (A) (A) (A) (A) (A) (A)
                 (A) (A) (A) (A) (A) (A) (A) (A) (A) (A) (A) (A)
                 (A) (A) (A) (A) (A) (A) (A) (A) (A) (A) (A) (A)
                 (A) (A) (A) (A) (A) (A) (A) (A) (A) (A) (A) (A)
                 (A) (A) (A) (A) (A) (A) (A) (A) (A) (A) (A) (A)
                 (A) (A) (A) (A) (A) (A) (A) (A) (A) (A) (A) (A)
                 (A) (A) (A) (A) (A) (A) (A) (A) (A) (A) (A) (A)
                 (A) (A) (A) (A) (A) (A) (A) (A) (A) (A) (A) (A)
                 (A) (A) (A) (A) (A) (A) (A) (A) (A) (A) (A) (A)
                 (A) (A) (A) (A) (A) (A) (A) (A) (A)
 The electronic state is 1-A.
 Alpha  occ. eigenvalues --  -24.83205 -24.82549 -24.82483 -19.22289 -19.21845
 Alpha  occ. eigenvalues --  -19.20624 -19.20154 -19.19727 -19.19633 -19.17595
 Alpha  occ. eigenvalues --  -14.45933 -14.45306 -14.41435 -10.51283 -10.33299
 Alpha  occ. eigenvalues --  -10.32851 -10.32715 -10.30980 -10.30774 -10.30579
 Alpha  occ. eigenvalues --  -10.30217 -10.29770 -10.29578 -10.29297 -10.29281
 Alpha  occ. eigenvalues --  -10.29234 -10.29023 -10.28851 -10.28759 -10.28633
 Alpha  occ. eigenvalues --  -10.27950 -10.25617 -10.24603 -10.23975 -10.23619
 Alpha  occ. eigenvalues --  -10.23267 -10.22954 -10.22933 -10.22770 -10.22705
 Alpha  occ. eigenvalues --  -10.22605 -10.22457 -10.22254 -10.21939 -10.21757
 Alpha  occ. eigenvalues --  -10.21551 -10.21496  -6.81478  -6.80020  -6.79473
 Alpha  occ. eigenvalues --   -3.60677  -2.03818  -2.02552  -2.01643  -1.35641
 Alpha  occ. eigenvalues --   -1.27177  -1.26579  -1.07929  -1.06297  -1.05502
 Alpha  occ. eigenvalues --   -1.03443  -1.01230  -1.00725  -0.99412  -0.98688
 Alpha  occ. eigenvalues --   -0.98166  -0.92873  -0.86268  -0.84259  -0.83697
 Alpha  occ. eigenvalues --   -0.81337  -0.80398  -0.79867  -0.79357  -0.77767
 Alpha  occ. eigenvalues --   -0.75587  -0.74870  -0.74338  -0.73809  -0.71317
 Alpha  occ. eigenvalues --   -0.70866  -0.70419  -0.69891  -0.69066  -0.68917
 Alpha  occ. eigenvalues --   -0.68831  -0.67852  -0.67577  -0.67099  -0.65594
 Alpha  occ. eigenvalues --   -0.64557  -0.62728  -0.61899  -0.61770  -0.61604
 Alpha  occ. eigenvalues --   -0.61548  -0.60909  -0.60435  -0.57423  -0.56054
 Alpha  occ. eigenvalues --   -0.54838  -0.54727  -0.54322  -0.54066  -0.53605
 Alpha  occ. eigenvalues --   -0.52748  -0.52496  -0.52402  -0.50633  -0.49952
 Alpha  occ. eigenvalues --   -0.49191  -0.49082  -0.48858  -0.48604  -0.48084
 Alpha  occ. eigenvalues --   -0.47747  -0.47329  -0.46981  -0.46543  -0.46479
 Alpha  occ. eigenvalues --   -0.46378  -0.46124  -0.45772  -0.45725  -0.45280
 Alpha  occ. eigenvalues --   -0.45147  -0.44866  -0.44587  -0.44438  -0.44247
 Alpha  occ. eigenvalues --   -0.44176  -0.43975  -0.43911  -0.43442  -0.42990
 Alpha  occ. eigenvalues --   -0.42914  -0.42823  -0.41526  -0.40870  -0.40707
 Alpha  occ. eigenvalues --   -0.40523  -0.40350  -0.40219  -0.40035  -0.39928
 Alpha  occ. eigenvalues --   -0.39730  -0.39636  -0.39597  -0.39401  -0.39319
 Alpha  occ. eigenvalues --   -0.38976  -0.38912  -0.38636  -0.38222  -0.37909
 Alpha  occ. eigenvalues --   -0.37570  -0.37412  -0.37190  -0.37109  -0.37004
 Alpha  occ. eigenvalues --   -0.36671  -0.36487  -0.36382  -0.36105  -0.36026
 Alpha  occ. eigenvalues --   -0.36003  -0.35638  -0.35492  -0.35043  -0.34820
 Alpha  occ. eigenvalues --   -0.34694  -0.34523  -0.34345  -0.33849  -0.33518
 Alpha  occ. eigenvalues --   -0.33130  -0.32789  -0.32483  -0.32194  -0.31845
 Alpha  occ. eigenvalues --   -0.31373  -0.31194  -0.31034  -0.30337  -0.29653
 Alpha  occ. eigenvalues --   -0.28631  -0.27927  -0.27403  -0.27222  -0.26465
 Alpha  occ. eigenvalues --   -0.25786  -0.25426  -0.24773  -0.23378  -0.21144
 Alpha  occ. eigenvalues --   -0.20275  -0.19178
 Alpha virt. eigenvalues --   -0.08306  -0.04684  -0.03505   0.00185   0.00864
 Alpha virt. eigenvalues --    0.04094   0.04388   0.05410   0.06412   0.06581
 Alpha virt. eigenvalues --    0.07172   0.07821   0.08195   0.09439   0.09566
 Alpha virt. eigenvalues --    0.10097   0.10453   0.10782   0.11249   0.11662
 Alpha virt. eigenvalues --    0.11793   0.12378   0.12670   0.12698   0.13095
 Alpha virt. eigenvalues --    0.13861   0.14079   0.14183   0.14264   0.14590
 Alpha virt. eigenvalues --    0.14639   0.15421   0.15604   0.15753   0.15860
 Alpha virt. eigenvalues --    0.16015   0.16115   0.16263   0.16410   0.16503
 Alpha virt. eigenvalues --    0.16893   0.17150   0.17262   0.17330   0.17576
 Alpha virt. eigenvalues --    0.17910   0.18092   0.18205   0.18513   0.18558
 Alpha virt. eigenvalues --    0.18737   0.19072   0.19221   0.19253   0.19569
 Alpha virt. eigenvalues --    0.19901   0.20057   0.20146   0.20195   0.20459
 Alpha virt. eigenvalues --    0.20659   0.20908   0.20993   0.21065   0.21686
 Alpha virt. eigenvalues --    0.21798   0.21984   0.22244   0.22532   0.22923
 Alpha virt. eigenvalues --    0.23368   0.23534   0.23588   0.23863   0.24153
 Alpha virt. eigenvalues --    0.24283   0.24386   0.24530   0.24805   0.25391
 Alpha virt. eigenvalues --    0.25444   0.25642   0.25982   0.26184   0.26537
 Alpha virt. eigenvalues --    0.26968   0.27141   0.27195   0.27497   0.27600
 Alpha virt. eigenvalues --    0.28011   0.28375   0.28773   0.28904   0.29501
 Alpha virt. eigenvalues --    0.29836   0.30370   0.30816   0.31369   0.31745
 Alpha virt. eigenvalues --    0.31979   0.32290   0.32900   0.33537   0.34838
 Alpha virt. eigenvalues --    0.35074   0.35963   0.36087   0.36551   0.36827
 Alpha virt. eigenvalues --    0.37815   0.38518   0.39303   0.39882   0.40724
 Alpha virt. eigenvalues --    0.41140   0.41383   0.43104   0.43779   0.44510
 Alpha virt. eigenvalues --    0.46033   0.46880   0.47233   0.48203   0.48706
 Alpha virt. eigenvalues --    0.48935   0.49253   0.49998   0.50335   0.50433
 Alpha virt. eigenvalues --    0.50855   0.50959   0.51460   0.51881   0.52099
 Alpha virt. eigenvalues --    0.52361   0.52956   0.53227   0.54032   0.54146
 Alpha virt. eigenvalues --    0.54689   0.54940   0.55635   0.56143   0.56428
 Alpha virt. eigenvalues --    0.56823   0.57157   0.57458   0.57627   0.57936
 Alpha virt. eigenvalues --    0.57952   0.58117   0.58203   0.58516   0.58902
 Alpha virt. eigenvalues --    0.58944   0.59300   0.59652   0.59966   0.60155
 Alpha virt. eigenvalues --    0.60540   0.61074   0.61142   0.61602   0.61880
 Alpha virt. eigenvalues --    0.62518   0.62647   0.62902   0.63177   0.63624
 Alpha virt. eigenvalues --    0.63817   0.64342   0.64915   0.65305   0.65797
 Alpha virt. eigenvalues --    0.65996   0.66242   0.66758   0.67027   0.67160
 Alpha virt. eigenvalues --    0.67659   0.67952   0.68080   0.68387   0.68838
 Alpha virt. eigenvalues --    0.69284   0.69912   0.69944   0.70617   0.70837
 Alpha virt. eigenvalues --    0.71056   0.71233   0.71839   0.72146   0.72513
 Alpha virt. eigenvalues --    0.72643   0.73196   0.73414   0.74191   0.74474
 Alpha virt. eigenvalues --    0.74536   0.74954   0.75249   0.75595   0.75933
 Alpha virt. eigenvalues --    0.76053   0.76777   0.77152   0.77568   0.77607
 Alpha virt. eigenvalues --    0.78256   0.78501   0.78768   0.79260   0.79482
 Alpha virt. eigenvalues --    0.79890   0.80937   0.81151   0.81471   0.81752
 Alpha virt. eigenvalues --    0.82314   0.82750   0.82998   0.83616   0.83793
 Alpha virt. eigenvalues --    0.84109   0.84282   0.84494   0.84783   0.85005
 Alpha virt. eigenvalues --    0.85709   0.85867   0.86122   0.86180   0.86481
 Alpha virt. eigenvalues --    0.86663   0.86824   0.87212   0.87312   0.87647
 Alpha virt. eigenvalues --    0.87836   0.88084   0.88292   0.88619   0.89056
 Alpha virt. eigenvalues --    0.89358   0.89397   0.89865   0.90052   0.90330
 Alpha virt. eigenvalues --    0.90471   0.90771   0.91093   0.91200   0.91577
 Alpha virt. eigenvalues --    0.91654   0.91815   0.92325   0.92838   0.92952
 Alpha virt. eigenvalues --    0.93155   0.93586   0.93808   0.94160   0.94328
 Alpha virt. eigenvalues --    0.94675   0.94997   0.95424   0.95843   0.96239
 Alpha virt. eigenvalues --    0.96284   0.96461   0.97072   0.97212   0.97759
 Alpha virt. eigenvalues --    0.97948   0.98096   0.98747   0.99027   1.00174
 Alpha virt. eigenvalues --    1.00396   1.00725   1.01155   1.01575   1.02472
 Alpha virt. eigenvalues --    1.02931   1.03166   1.04115   1.04330   1.05234
 Alpha virt. eigenvalues --    1.06013   1.06706   1.07059   1.07537   1.07849
 Alpha virt. eigenvalues --    1.08578   1.08669   1.09210   1.09976   1.10160
 Alpha virt. eigenvalues --    1.11727   1.11812   1.12475   1.12923   1.13762
 Alpha virt. eigenvalues --    1.14401   1.15079   1.15243   1.15705   1.16536
 Alpha virt. eigenvalues --    1.16948   1.17984   1.18118   1.18432   1.18560
 Alpha virt. eigenvalues --    1.19589   1.19980   1.20256   1.21000   1.21398
 Alpha virt. eigenvalues --    1.21984   1.22533   1.22858   1.23535   1.24048
 Alpha virt. eigenvalues --    1.24484   1.24923   1.25287   1.25910   1.26314
 Alpha virt. eigenvalues --    1.27095   1.27571   1.27894   1.29349   1.29705
 Alpha virt. eigenvalues --    1.30227   1.30595   1.30838   1.31868   1.32769
 Alpha virt. eigenvalues --    1.33373   1.34205   1.34582   1.34632   1.34931
 Alpha virt. eigenvalues --    1.35591   1.35688   1.36739   1.37210   1.38178
 Alpha virt. eigenvalues --    1.38511   1.39053   1.39822   1.40140   1.41144
 Alpha virt. eigenvalues --    1.41606   1.42220   1.42504   1.42839   1.43301
 Alpha virt. eigenvalues --    1.43652   1.44228   1.44733   1.45279   1.45665
 Alpha virt. eigenvalues --    1.46256   1.46491   1.46751   1.47546   1.47591
 Alpha virt. eigenvalues --    1.48903   1.49168   1.49426   1.50232   1.51509
 Alpha virt. eigenvalues --    1.52900   1.52905   1.54609   1.55719   1.55976
 Alpha virt. eigenvalues --    1.56878   1.57474   1.58039   1.59241   1.60216
 Alpha virt. eigenvalues --    1.61542   1.62401   1.63469   1.63669   1.64240
 Alpha virt. eigenvalues --    1.64735   1.64888   1.65539   1.66422   1.66891
 Alpha virt. eigenvalues --    1.67300   1.67398   1.68358   1.68552   1.68632
 Alpha virt. eigenvalues --    1.68789   1.70138   1.70415   1.71304   1.71565
 Alpha virt. eigenvalues --    1.72441   1.73290   1.75040   1.75220   1.75509
 Alpha virt. eigenvalues --    1.76377   1.76955   1.77188   1.77634   1.78550
 Alpha virt. eigenvalues --    1.78870   1.79421   1.80157   1.80400   1.80641
 Alpha virt. eigenvalues --    1.81640   1.81757   1.82342   1.82730   1.83167
 Alpha virt. eigenvalues --    1.83479   1.84170   1.84338   1.85015   1.85033
 Alpha virt. eigenvalues --    1.85405   1.85611   1.86042   1.86554   1.86936
 Alpha virt. eigenvalues --    1.87503   1.88066   1.88275   1.88492   1.88792
 Alpha virt. eigenvalues --    1.89926   1.90538   1.90812   1.91154   1.91454
 Alpha virt. eigenvalues --    1.91852   1.92064   1.92499   1.92928   1.93353
 Alpha virt. eigenvalues --    1.93578   1.93899   1.93976   1.94733   1.94953
 Alpha virt. eigenvalues --    1.95068   1.95895   1.96313   1.96721   1.96979
 Alpha virt. eigenvalues --    1.97652   1.98091   1.98338   1.99574   2.00121
 Alpha virt. eigenvalues --    2.00670   2.01351   2.01631   2.02676   2.02893
 Alpha virt. eigenvalues --    2.03177   2.03360   2.03800   2.04645   2.05000
 Alpha virt. eigenvalues --    2.05675   2.06264   2.06779   2.06856   2.06954
 Alpha virt. eigenvalues --    2.07247   2.07539   2.08097   2.08291   2.08598
 Alpha virt. eigenvalues --    2.08750   2.09864   2.09906   2.10358   2.10835
 Alpha virt. eigenvalues --    2.11194   2.11339   2.11981   2.12583   2.13127
 Alpha virt. eigenvalues --    2.13356   2.13488   2.14257   2.14443   2.14731
 Alpha virt. eigenvalues --    2.15265   2.15715   2.15959   2.16216   2.16859
 Alpha virt. eigenvalues --    2.17136   2.17373   2.18252   2.18698   2.18883
 Alpha virt. eigenvalues --    2.19533   2.19602   2.19987   2.20431   2.21000
 Alpha virt. eigenvalues --    2.21619   2.22169   2.22354   2.22881   2.23352
 Alpha virt. eigenvalues --    2.23711   2.23900   2.24164   2.24692   2.24882
 Alpha virt. eigenvalues --    2.25092   2.25707   2.26011   2.26415   2.26903
 Alpha virt. eigenvalues --    2.27142   2.27474   2.28018   2.28313   2.28684
 Alpha virt. eigenvalues --    2.30264   2.30571   2.30871   2.31259   2.32360
 Alpha virt. eigenvalues --    2.32562   2.32993   2.33263   2.34192   2.35055
 Alpha virt. eigenvalues --    2.35382   2.35739   2.37403   2.38899   2.39070
 Alpha virt. eigenvalues --    2.39290   2.39368   2.40074   2.43283   2.44463
 Alpha virt. eigenvalues --    2.44507   2.44936   2.45649   2.46015   2.47256
 Alpha virt. eigenvalues --    2.47423   2.48063   2.48522   2.48785   2.48885
 Alpha virt. eigenvalues --    2.49645   2.49883   2.51934   2.52677   2.54128
 Alpha virt. eigenvalues --    2.56445   2.57546   2.60279   2.60527   2.60976
 Alpha virt. eigenvalues --    2.61358   2.62821   2.63108   2.63740   2.64473
 Alpha virt. eigenvalues --    2.65089   2.65603   2.66929   2.67069   2.67847
 Alpha virt. eigenvalues --    2.68969   2.69749   2.70306   2.72823   2.76050
 Alpha virt. eigenvalues --    2.76781   2.77254   2.77828   2.78130   2.78170
 Alpha virt. eigenvalues --    2.78599   2.79828   2.80127   2.80268   2.81013
 Alpha virt. eigenvalues --    2.81491   2.81798   2.82434   2.83313   2.84440
 Alpha virt. eigenvalues --    2.86500   2.88517   2.89343   2.90096   2.92916
 Alpha virt. eigenvalues --    2.93314   2.94393   2.94786   2.95584   2.96876
 Alpha virt. eigenvalues --    2.97895   3.02285   3.02715   3.04755   3.05686
 Alpha virt. eigenvalues --    3.05860   3.06844   3.07905   3.10303   3.10847
 Alpha virt. eigenvalues --    3.12939   3.13580   3.16678   3.21177   3.25827
 Alpha virt. eigenvalues --    3.30660   3.44296  10.05860
          Condensed to atoms (all electrons):
 Mulliken charges:
               1
     1  C    0.299810
     2  C    0.071237
     3  C   -0.080542
     4  C   -0.156252
     5  C   -0.190442
     6  C    0.319461
     7  C    0.052744
     8  C   -0.146706
     9  C   -0.113237
    10  C   -0.166980
    11  H    0.231818
    12  H    0.199134
    13  H    0.178447
    14  H    0.221387
    15  H    0.188348
    16  H    0.174716
    17  N   -0.564972
    18  N   -0.571778
    19  Ir   0.009119
    20  O   -0.514005
    21  O   -0.508476
    22  O   -0.498979
    23  B    0.462367
    24  B    0.421417
    25  B    0.671876
    26  O   -0.500704
    27  O   -0.543199
    28  C    0.300429
    29  C    0.286433
    30  C    0.293308
    31  C    0.281927
    32  C    0.298172
    33  C    0.292720
    34  O   -0.523228
    35  C   -0.499862
    36  H    0.178733
    37  H    0.145317
    38  H    0.161910
    39  C   -0.507425
    40  H    0.154238
    41  H    0.181070
    42  H    0.150476
    43  C   -0.507078
    44  H    0.165661
    45  H    0.169460
    46  H    0.153172
    47  C   -0.501661
    48  H    0.165570
    49  H    0.155333
    50  H    0.154888
    51  C   -0.509800
    52  H    0.171041
    53  H    0.170126
    54  H    0.147180
    55  C   -0.509045
    56  H    0.172082
    57  H    0.145466
    58  H    0.162621
    59  C   -0.511876
    60  H    0.179917
    61  H    0.147352
    62  H    0.172259
    63  C   -0.503093
    64  H    0.150053
    65  H    0.160032
    66  H    0.169393
    67  C   -0.511923
    68  H    0.153770
    69  H    0.174831
    70  H    0.166888
    71  C   -0.503121
    72  H    0.149222
    73  H    0.228565
    74  H    0.152073
    75  C   -0.524378
    76  H    0.152922
    77  H    0.160043
    78  H    0.219938
    79  C   -0.504547
    80  H    0.160155
    81  H    0.165141
    82  H    0.163200
    83  H    0.010486
    84  C    0.590745
    85  O   -0.532501
    86  C   -0.418745
    87  H    0.168155
    88  H    0.200993
    89  C   -0.374686
    90  H    0.195591
    91  H    0.161361
    92  N   -0.393000
    93  C   -0.380441
    94  H    0.162375
    95  H    0.203151
    96  H    0.165618
    97  C   -0.464310
    98  H    0.146985
    99  H    0.175520
   100  C    0.969015
   101  F   -0.304357
   102  F   -0.318540
   103  F   -0.310007
   104  H    0.183456
   105  H    0.151478
 Sum of Mulliken charges =  -0.00000
 Mulliken charges with hydrogens summed into heavy atoms:
               1
     1  C    0.299810
     2  C    0.303055
     3  C   -0.080542
     4  C    0.042881
     5  C   -0.011995
     6  C    0.319461
     7  C    0.274131
     8  C    0.036751
     9  C    0.075112
    10  C    0.007736
    17  N   -0.564972
    18  N   -0.571778
    19  Ir   0.019604
    20  O   -0.514005
    21  O   -0.508476
    22  O   -0.498979
    23  B    0.462367
    24  B    0.421417
    25  B    0.671876
    26  O   -0.500704
    27  O   -0.543199
    28  C    0.300429
    29  C    0.286433
    30  C    0.293308
    31  C    0.281927
    32  C    0.298172
    33  C    0.292720
    34  O   -0.523228
    35  C   -0.013901
    39  C   -0.021641
    43  C   -0.018786
    47  C   -0.025871
    51  C   -0.021454
    55  C   -0.028876
    59  C   -0.012348
    63  C   -0.023615
    67  C   -0.016435
    71  C    0.026739
    75  C    0.008526
    79  C   -0.016051
    84  C    0.590745
    85  O   -0.532501
    86  C   -0.049597
    89  C   -0.017735
    92  N   -0.393000
    93  C    0.150704
    97  C    0.009674
   100  C    0.969015
   101  F   -0.304357
   102  F   -0.318540
   103  F   -0.310007
 APT charges:
               1
     1  C    0.160838
     2  C    0.037656
     3  C   -0.145817
     4  C    0.031780
     5  C   -0.158935
     6  C    0.201406
     7  C    0.079108
     8  C   -0.062834
     9  C    0.176722
    10  C   -0.196065
    11  H    0.127442
    12  H    0.067242
    13  H    0.045079
    14  H    0.112048
    15  H    0.035407
    16  H    0.047068
    17  N    0.011269
    18  N   -0.322678
    19  Ir  -0.478788
    20  O   -1.004302
    21  O   -0.975335
    22  O   -0.900428
    23  B    1.295507
    24  B    1.234534
    25  B    1.066906
    26  O   -0.861431
    27  O   -0.964439
    28  C    0.487166
    29  C    0.475514
    30  C    0.497308
    31  C    0.457212
    32  C    0.504399
    33  C    0.508285
    34  O   -1.016744
    35  C   -0.026933
    36  H    0.019172
    37  H   -0.027804
    38  H   -0.000102
    39  C   -0.003951
    40  H   -0.005146
    41  H    0.009683
    42  H   -0.017968
    43  C   -0.003281
    44  H   -0.001213
    45  H    0.003155
    46  H   -0.016701
    47  C   -0.024201
    48  H    0.004237
    49  H   -0.001723
    50  H   -0.018411
    51  C   -0.008723
    52  H    0.000528
    53  H    0.000174
    54  H   -0.019267
    55  C   -0.043863
    56  H    0.025702
    57  H   -0.025349
    58  H   -0.003140
    59  C   -0.031444
    60  H    0.006528
    61  H   -0.027105
    62  H    0.002021
    63  C   -0.003326
    64  H   -0.021520
    65  H   -0.001519
    66  H    0.000448
    67  C   -0.004824
    68  H   -0.005085
    69  H    0.002934
    70  H   -0.008482
    71  C   -0.044175
    72  H   -0.015348
    73  H    0.059475
    74  H   -0.006667
    75  C   -0.020245
    76  H   -0.015445
    77  H   -0.002891
    78  H    0.037838
    79  C   -0.030282
    80  H   -0.011525
    81  H   -0.000107
    82  H    0.001183
    83  H   -0.130977
    84  C    0.882951
    85  O   -0.721239
    86  C   -0.039050
    87  H   -0.015821
    88  H    0.014037
    89  C    0.033265
    90  H    0.063882
    91  H   -0.043416
    92  N   -0.693815
    93  C    0.243346
    94  H   -0.035447
    95  H    0.061177
    96  H   -0.004387
    97  C    0.046052
    98  H   -0.004788
    99  H   -0.010410
   100  C    1.779888
   101  F   -0.565557
   102  F   -0.588011
   103  F   -0.543969
   104  H    0.040253
   105  H   -0.015377
 Sum of APT charges =   0.00000
 APT charges with hydrogens summed into heavy atoms:
               1
     1  C    0.160838
     2  C    0.165097
     3  C   -0.145817
     4  C    0.099022
     5  C   -0.113856
     6  C    0.201406
     7  C    0.191156
     8  C   -0.022581
     9  C    0.212130
    10  C   -0.148998
    17  N    0.011269
    18  N   -0.322678
    19  Ir  -0.609765
    20  O   -1.004302
    21  O   -0.975335
    22  O   -0.900428
    23  B    1.295507
    24  B    1.234534
    25  B    1.066906
    26  O   -0.861431
    27  O   -0.964439
    28  C    0.487166
    29  C    0.475514
    30  C    0.497308
    31  C    0.457212
    32  C    0.504399
    33  C    0.508285
    34  O   -1.016744
    35  C   -0.035667
    39  C   -0.017382
    43  C   -0.018040
    47  C   -0.040098
    51  C   -0.027287
    55  C   -0.046649
    59  C   -0.049999
    63  C   -0.025917
    67  C   -0.015457
    71  C   -0.006715
    75  C   -0.000742
    79  C   -0.040731
    84  C    0.882951
    85  O   -0.721239
    86  C   -0.040834
    89  C    0.053731
    92  N   -0.693815
    93  C    0.264688
    97  C    0.015478
   100  C    1.779888
   101  F   -0.565557
   102  F   -0.588011
   103  F   -0.543969
 Electronic spatial extent (au):  <R**2>=          28630.6758
 Charge=             -0.0000 electrons
 Dipole moment (field-independent basis, Debye):
    X=             -0.9610    Y=              2.8165    Z=             -1.7650  Tot=              3.4599
 Quadrupole moment (field-independent basis, Debye-Ang):
   XX=           -305.7780   YY=           -294.1951   ZZ=           -309.6258
   XY=              7.2109   XZ=              5.5197   YZ=            -15.8988
 Traceless Quadrupole moment (field-independent basis, Debye-Ang):
   XX=             -2.5784   YY=              9.0045   ZZ=             -6.4262
   XY=              7.2109   XZ=              5.5197   YZ=            -15.8988
 Octapole moment (field-independent basis, Debye-Ang**2):
  XXX=            -38.0833  YYY=             71.7600  ZZZ=            -38.7638  XYY=             82.8901
  XXY=             32.9865  XXZ=            -81.0178  XZZ=             13.3210  YZZ=             14.1437
  YYZ=           -121.9317  XYZ=              3.8929
 Hexadecapole moment (field-independent basis, Debye-Ang**3):
 XXXX=         -17531.9321 YYYY=         -12519.5120 ZZZZ=          -6496.5158 XXXY=            139.5480
 XXXZ=            121.3249 YYYX=            268.6930 YYYZ=           -416.5906 ZZZX=            111.6886
 ZZZY=            -22.8977 XXYY=          -4783.7232 XXZZ=          -4030.0387 YYZZ=          -3087.9748
 XXYZ=             -9.1331 YYXZ=             70.8306 ZZXY=            -58.1951
 N-N= 8.464820431034D+03 E-N=-2.273555014456D+04  KE= 2.410387433259D+03
  Exact polarizability:     523.530       9.076     518.926      25.079     -25.846     381.877
 Approx polarizability:     759.112      27.602     750.904      48.906     -49.395     578.120
   1 Symmetry operations used in ECPInt.
 ECPInt:  NShTT=   50086 NPrTT=  307226 LenC2=   38543 LenP2D=  119983.
 LDataN:  DoStor=T MaxTD1= 8 Len=  415
 Calling FoFJK, ICntrl=    100127 FMM=F ISym2X=0 I1Cent= 0 IOpClX= 0 NMat=1 NMatS=1 NMatT=0.
 Defaulting to unpruned grid for atomic number  77.
 Defaulting to unpruned grid for atomic number  77.
 Defaulting to unpruned grid for atomic number  77.
 Defaulting to unpruned grid for atomic number  77.
 Defaulting to unpruned grid for atomic number  77.
 Defaulting to unpruned grid for atomic number  77.
 Defaulting to unpruned grid for atomic number  77.
 Defaulting to unpruned grid for atomic number  77.
 Defaulting to unpruned grid for atomic number  77.
 Defaulting to unpruned grid for atomic number  77.
 Defaulting to unpruned grid for atomic number  77.
 Defaulting to unpruned grid for atomic number  77.
 Defaulting to unpruned grid for atomic number  77.
 Defaulting to unpruned grid for atomic number  77.
 Defaulting to unpruned grid for atomic number  77.
 Defaulting to unpruned grid for atomic number  77.
 Full mass-weighted force constant matrix:
 Low frequencies ---   -8.4836   -4.7703   -0.0002    0.0004    0.0005    3.9586
 Low frequencies ---   20.9417   25.4614   29.4446
 Diagonal vibrational polarizability:
       79.1136326      62.2144871      89.6000233
 Harmonic frequencies (cm**-1), IR intensities (KM/Mole), Raman scattering
 activities (A**4/AMU), depolarization ratios for plane and unpolarized
 incident light, reduced masses (AMU), force constants (mDyne/A),
 and normal coordinates:
                      1                      2                      3
                      A                      A                      A
 Frequencies --     20.8936                25.4481                29.4346
 Red. masses --      5.4137                 5.0564                 5.7391
 Frc consts  --      0.0014                 0.0019                 0.0029
 IR Inten    --      0.1678                 0.3204                 0.3484
  Atom AN      X      Y      Z        X      Y      Z        X      Y      Z
     1   6     0.00  -0.02  -0.05     0.03   0.00   0.01     0.02  -0.01  -0.08
     2   6    -0.02   0.01   0.03     0.01  -0.01   0.02    -0.01   0.02   0.01
     3   6    -0.02   0.01   0.03     0.02  -0.02   0.00     0.01  -0.00  -0.06
     4   6    -0.01  -0.01  -0.03     0.04  -0.03  -0.01     0.04  -0.03  -0.13
     5   6     0.01  -0.03  -0.07     0.04  -0.01  -0.00     0.04  -0.04  -0.14
     6   6     0.01  -0.03  -0.07     0.03   0.01  -0.01     0.02  -0.01  -0.08
     7   6    -0.00  -0.02  -0.04     0.03   0.02  -0.01    -0.00   0.02   0.00
     8   6     0.01  -0.03  -0.08     0.05   0.02  -0.05     0.02   0.01  -0.06
     9   6     0.02  -0.04  -0.12     0.06   0.00  -0.07     0.05  -0.01  -0.14
    10   6     0.02  -0.04  -0.11     0.05   0.00  -0.05     0.04  -0.02  -0.15
    11   1    -0.03   0.02   0.07    -0.00  -0.00   0.03    -0.03   0.04   0.07
    12   1    -0.00  -0.01  -0.04     0.05  -0.04  -0.02     0.05  -0.05  -0.18
    13   1     0.02  -0.04  -0.11     0.05  -0.02  -0.01     0.06  -0.06  -0.20
    14   1    -0.01  -0.01  -0.01     0.02   0.03   0.00    -0.02   0.04   0.06
    15   1     0.03  -0.04  -0.15     0.08  -0.00  -0.11     0.07  -0.02  -0.20
    16   1     0.02  -0.04  -0.14     0.06  -0.01  -0.07     0.06  -0.04  -0.21
    17   7    -0.01  -0.01  -0.00     0.01   0.01   0.03    -0.00   0.01  -0.01
    18   7    -0.00  -0.02  -0.04     0.02   0.02   0.01    -0.00   0.01  -0.01
    19  77    -0.01  -0.01   0.01    -0.00   0.03   0.05    -0.02   0.02   0.05
    20   8    -0.00  -0.06  -0.01     0.01   0.02   0.04    -0.02   0.00   0.04
    21   8     0.01   0.03   0.02    -0.03   0.01   0.01    -0.01   0.06   0.03
    22   8     0.00   0.00   0.03     0.01  -0.04  -0.01    -0.01   0.01   0.02
    23   5     0.00   0.01  -0.01    -0.03   0.02   0.01    -0.01   0.04   0.03
    24   5    -0.01  -0.03  -0.00     0.01   0.01   0.03    -0.02   0.00   0.04
    25   5     0.01   0.02   0.03    -0.01  -0.03  -0.01    -0.03  -0.02   0.02
    26   8    -0.01   0.04   0.06     0.01  -0.04  -0.01    -0.03  -0.03  -0.02
    27   8    -0.00  -0.01   0.00     0.01   0.00   0.02    -0.02  -0.02   0.03
    28   6    -0.00  -0.03  -0.00     0.02   0.03   0.04    -0.02  -0.06   0.02
    29   6     0.01  -0.07  -0.03     0.02   0.03   0.05    -0.03  -0.03   0.02
    30   6    -0.02   0.01   0.06     0.05  -0.06  -0.02     0.01   0.02  -0.02
    31   6    -0.03   0.03   0.08     0.05  -0.05  -0.01    -0.00  -0.00  -0.04
    32   6     0.02   0.04  -0.02    -0.06   0.00  -0.04     0.01   0.07   0.03
    33   6     0.02   0.04  -0.08    -0.08   0.04  -0.08     0.03   0.04   0.04
    34   8     0.01   0.01  -0.06    -0.05   0.03  -0.03     0.01   0.03   0.03
    35   6     0.07  -0.07  -0.06     0.03   0.02   0.06    -0.06  -0.02  -0.01
    36   1     0.09  -0.03  -0.06     0.03   0.02   0.06    -0.08  -0.01  -0.03
    37   1     0.07  -0.07  -0.07     0.03   0.03   0.06    -0.06  -0.04  -0.03
    38   1     0.08  -0.10  -0.09     0.03   0.01   0.06    -0.07   0.01  -0.00
    39   6    -0.00  -0.13  -0.03     0.02   0.03   0.05    -0.02  -0.04   0.03
    40   1    -0.04  -0.14  -0.01     0.02   0.03   0.04     0.00  -0.04   0.06
    41   1     0.01  -0.17  -0.03     0.02   0.03   0.04    -0.03  -0.00   0.02
    42   1     0.02  -0.14  -0.04     0.02   0.03   0.05    -0.04  -0.07   0.01
    43   6     0.02  -0.01  -0.00     0.02   0.05   0.06    -0.03  -0.10  -0.03
    44   1     0.06  -0.00  -0.01     0.02   0.03   0.09    -0.05  -0.07  -0.07
    45   1     0.01   0.02   0.01     0.02   0.06   0.05    -0.03  -0.12  -0.02
    46   1     0.02  -0.02  -0.01     0.03   0.08   0.08    -0.04  -0.14  -0.04
    47   6    -0.06  -0.04   0.01     0.01   0.06   0.00     0.01  -0.10   0.07
    48   1    -0.07  -0.00   0.03     0.01   0.06  -0.02     0.02  -0.11   0.08
    49   1    -0.08  -0.06   0.01     0.01   0.04  -0.01     0.03  -0.07   0.11
    50   1    -0.06  -0.06   0.01     0.02   0.08   0.01     0.02  -0.14   0.06
    51   6     0.05   0.08  -0.00    -0.06   0.03  -0.04     0.01   0.08   0.02
    52   1     0.07   0.12  -0.00    -0.04   0.08  -0.03    -0.00   0.07   0.02
    53   1     0.04   0.08   0.04    -0.04  -0.01  -0.01    -0.01   0.10   0.01
    54   1     0.05   0.09  -0.04    -0.09   0.02  -0.09     0.03   0.09   0.03
    55   6    -0.01  -0.01  -0.01    -0.07  -0.07  -0.04     0.03   0.09   0.02
    56   1    -0.04  -0.05  -0.02    -0.08  -0.10  -0.04     0.04   0.09   0.03
    57   1    -0.01  -0.01  -0.03    -0.09  -0.09  -0.08     0.04   0.10   0.02
    58   1    -0.02  -0.01   0.04    -0.06  -0.09   0.00     0.02   0.10   0.01
    59   6     0.04   0.11  -0.10    -0.09   0.14  -0.09     0.03   0.02   0.04
    60   1     0.06   0.13  -0.06    -0.07   0.17  -0.04     0.01   0.01   0.03
    61   1     0.05   0.13  -0.12    -0.12   0.15  -0.13     0.04   0.03   0.05
    62   1     0.04   0.11  -0.14    -0.11   0.16  -0.11     0.04   0.00   0.05
    63   6     0.01   0.00  -0.15    -0.11  -0.01  -0.16     0.06   0.05   0.06
    64   1     0.02   0.03  -0.17    -0.13  -0.00  -0.20     0.07   0.06   0.06
    65   1    -0.01  -0.05  -0.14    -0.10  -0.08  -0.16     0.05   0.07   0.05
    66   1     0.01   0.01  -0.19    -0.13   0.03  -0.18     0.07   0.03   0.06
    67   6    -0.05   0.05   0.11     0.07  -0.08  -0.03    -0.00  -0.02  -0.08
    68   1    -0.07   0.04   0.12     0.10  -0.09  -0.03     0.02   0.00  -0.10
    69   1    -0.05   0.07   0.12     0.07  -0.07  -0.02    -0.01  -0.03  -0.10
    70   1    -0.03   0.08   0.11     0.05  -0.10  -0.05    -0.01  -0.03  -0.08
    71   6    -0.05  -0.00   0.09     0.08  -0.03   0.02     0.00   0.01  -0.04
    72   1    -0.08  -0.03   0.11     0.11  -0.03   0.02     0.02   0.03  -0.07
    73   1    -0.05  -0.02   0.05     0.07  -0.01   0.03     0.01   0.01  -0.01
    74   1    -0.05   0.02   0.10     0.08  -0.02   0.02    -0.01  -0.02  -0.06
    75   6    -0.04  -0.03   0.06     0.08  -0.06  -0.01     0.03   0.06  -0.02
    76   1    -0.06  -0.03   0.08     0.11  -0.07  -0.01     0.05   0.06  -0.05
    77   1    -0.03  -0.04   0.04     0.08  -0.06  -0.01     0.04   0.07  -0.00
    78   1    -0.05  -0.05   0.05     0.08  -0.03   0.01     0.03   0.06  -0.01
    79   6    -0.01   0.03   0.06     0.03  -0.10  -0.05     0.00   0.01  -0.03
    80   1    -0.03   0.03   0.08     0.06  -0.12  -0.06     0.02   0.02  -0.06
    81   1     0.00   0.06   0.06     0.01  -0.10  -0.06    -0.02  -0.02  -0.03
    82   1    -0.00   0.02   0.04     0.02  -0.10  -0.05     0.01   0.03  -0.01
    83   1    -0.01  -0.02   0.02    -0.01   0.04   0.06    -0.02   0.03   0.07
    84   6     0.07   0.01  -0.04    -0.06  -0.01  -0.03     0.02  -0.08   0.00
    85   8     0.08  -0.00  -0.07    -0.06  -0.02  -0.06     0.07  -0.10  -0.05
    86   6     0.06   0.01  -0.02    -0.06   0.01  -0.01    -0.01  -0.09   0.04
    87   1     0.04   0.03  -0.01    -0.06   0.03   0.00    -0.03  -0.05   0.05
    88   1     0.06  -0.00   0.00    -0.05   0.00   0.01    -0.03  -0.13   0.07
    89   6     0.04   0.03   0.00    -0.05  -0.01  -0.00    -0.06  -0.02   0.05
    90   1     0.04   0.02  -0.00    -0.04   0.00   0.03    -0.08  -0.04   0.10
    91   1     0.06   0.05   0.01    -0.07  -0.01  -0.02    -0.11  -0.00   0.02
    92   7     0.06   0.02  -0.02    -0.05  -0.02  -0.02    -0.01  -0.03   0.04
    93   6     0.06   0.03  -0.02    -0.05  -0.04  -0.04     0.01   0.01   0.02
    94   1     0.08   0.08  -0.01    -0.06  -0.01  -0.04     0.03   0.10   0.04
    95   1     0.08   0.02  -0.06    -0.06  -0.04  -0.07     0.06  -0.02  -0.06
    96   1     0.04   0.01   0.00    -0.05  -0.06  -0.03    -0.04  -0.03   0.07
    97   6     0.07   0.00  -0.02    -0.07   0.03  -0.02     0.03  -0.13   0.01
    98   1     0.09  -0.03  -0.03    -0.08   0.01  -0.03     0.05  -0.18  -0.01
    99   1     0.06   0.02  -0.05    -0.07   0.03  -0.03     0.05  -0.09  -0.04
   100   6    -0.04   0.03   0.09     0.02  -0.04  -0.01     0.02   0.00  -0.06
   101   9    -0.03  -0.01   0.16    -0.04  -0.09   0.02     0.07   0.06  -0.11
   102   9    -0.04   0.03   0.06     0.05  -0.07  -0.07    -0.02   0.03   0.02
   103   9    -0.08   0.11   0.11     0.04   0.01   0.01     0.00  -0.09  -0.10
   104   1     0.01  -0.03  -0.08     0.05   0.02  -0.07     0.02   0.02  -0.05
   105   1     0.05   0.00   0.02    -0.06   0.04  -0.02     0.00  -0.14   0.04
                      4                      5                      6
                      A                      A                      A
 Frequencies --     30.9153                33.3935                42.9580
 Red. masses --      7.2540                 4.6627                 3.8828
 Frc consts  --      0.0041                 0.0031                 0.0042
 IR Inten    --      0.2030                 0.0533                 0.2538
  Atom AN      X      Y      Z        X      Y      Z        X      Y      Z
     1   6     0.01   0.02  -0.05     0.01  -0.00   0.02    -0.01  -0.02   0.02
     2   6     0.03   0.03  -0.04    -0.00  -0.01   0.03    -0.01  -0.00   0.05
     3   6     0.01   0.05  -0.03    -0.01  -0.00   0.06    -0.01  -0.00   0.03
     4   6     0.00   0.05  -0.04    -0.00   0.00   0.08    -0.01  -0.01   0.00
     5   6    -0.00   0.03  -0.05     0.01   0.00   0.05    -0.01  -0.02  -0.00
     6   6     0.00   0.01  -0.03     0.02  -0.00  -0.01    -0.01  -0.03   0.00
     7   6    -0.01   0.01   0.03     0.02   0.01  -0.02    -0.00  -0.04  -0.01
     8   6    -0.01   0.00   0.02     0.04   0.01  -0.06    -0.01  -0.04  -0.02
     9   6    -0.01  -0.00  -0.02     0.05  -0.00  -0.08    -0.01  -0.04  -0.01
    10   6    -0.00   0.00  -0.05     0.04  -0.01  -0.05    -0.01  -0.03  -0.00
    11   1     0.04   0.03  -0.03    -0.01  -0.01   0.02    -0.01   0.00   0.08
    12   1    -0.01   0.06  -0.04    -0.01   0.01   0.11    -0.01  -0.02  -0.02
    13   1    -0.01   0.02  -0.06     0.01   0.01   0.06    -0.01  -0.03  -0.02
    14   1    -0.01   0.01   0.05     0.01   0.02  -0.01    -0.00  -0.04  -0.01
    15   1    -0.01  -0.00  -0.04     0.06  -0.01  -0.11    -0.01  -0.04  -0.01
    16   1    -0.00   0.00  -0.08     0.05  -0.01  -0.07    -0.01  -0.03   0.01
    17   7     0.02   0.02  -0.04     0.01  -0.00   0.01    -0.01  -0.01   0.04
    18   7     0.00   0.01   0.00     0.01   0.01   0.00    -0.00  -0.03   0.00
    19  77     0.02   0.01  -0.00     0.00   0.01   0.00     0.00  -0.02   0.01
    20   8     0.02   0.03   0.00     0.01  -0.00   0.00    -0.01   0.05   0.04
    21   8    -0.03  -0.04  -0.03    -0.06   0.00  -0.13     0.02   0.02  -0.00
    22   8    -0.00   0.01   0.01     0.00  -0.01   0.00    -0.03   0.02  -0.00
    23   5    -0.02  -0.01   0.00    -0.02   0.00  -0.03     0.02  -0.01  -0.01
    24   5     0.02   0.02   0.00     0.01  -0.00  -0.00     0.00  -0.04  -0.00
    25   5    -0.00  -0.03   0.01     0.01  -0.00   0.01     0.01   0.01  -0.01
    26   8     0.00  -0.04  -0.03     0.01  -0.00   0.01     0.03  -0.00  -0.01
    27   8     0.02   0.00  -0.00     0.01  -0.01  -0.01    -0.00  -0.12  -0.03
    28   6     0.02  -0.04  -0.01     0.02   0.00  -0.01     0.01  -0.04  -0.01
    29   6     0.00   0.01  -0.01     0.02   0.00   0.00    -0.03   0.06   0.05
    30   6     0.01   0.03  -0.02     0.00  -0.02   0.01    -0.04   0.03   0.00
    31   6     0.01  -0.01  -0.06     0.01  -0.01   0.02    -0.00   0.01  -0.02
    32   6    -0.05  -0.06  -0.01    -0.04   0.01  -0.12     0.04   0.03  -0.04
    33   6    -0.07  -0.04   0.05    -0.03  -0.02   0.02     0.05   0.01  -0.05
    34   8    -0.04   0.00   0.04     0.00  -0.00   0.05     0.03  -0.01  -0.04
    35   6    -0.04   0.01  -0.02     0.01   0.00   0.02    -0.16   0.05   0.11
    36   1    -0.07   0.00  -0.03     0.00  -0.01   0.01    -0.21  -0.03   0.09
    37   1    -0.05  -0.01  -0.03     0.02   0.01   0.02    -0.18   0.05   0.12
    38   1    -0.06   0.04  -0.00     0.01   0.00   0.03    -0.19   0.13   0.16
    39   6     0.02   0.02  -0.00     0.03   0.01   0.01     0.02   0.18   0.07
    40   1     0.05   0.02   0.01     0.03   0.02   0.00     0.11   0.19   0.03
    41   1     0.01   0.05  -0.00     0.02   0.01   0.02    -0.01   0.25   0.11
    42   1     0.00  -0.00  -0.01     0.03   0.02   0.01    -0.01   0.19   0.09
    43   6    -0.00  -0.08  -0.06     0.02   0.01  -0.01    -0.06  -0.10   0.01
    44   1    -0.03  -0.05  -0.10     0.02   0.00  -0.00    -0.14  -0.13   0.04
    45   1     0.01  -0.11  -0.05     0.02   0.01  -0.02    -0.02  -0.17  -0.04
    46   1    -0.00  -0.11  -0.07     0.03   0.01  -0.00    -0.06  -0.04   0.03
    47   6     0.06  -0.07   0.03     0.02   0.01  -0.02     0.13  -0.01  -0.07
    48   1     0.07  -0.10   0.05     0.02   0.01  -0.02     0.15  -0.09  -0.13
[...]
 .00001477,-0.00004699,0.00023319,0.00023017,-0.00003014,-0.00002504,-0
 .00018707,0.00008058,-0.00002638,-0.00002247,0.00001132,-0.00000022,0.
 00000560,0.00000941,-0.00000476,0.00000697,-0.00002365,-0.00003541,-0.
 00001666,-0.00000249,0.00000510,-0.00001063,-0.00001297,0.00000378,-0.
 00000468,-0.00000204,-0.00020074,-0.00009077,-0.00008847,0.00024079,0.
 00006991,0.00018321,-0.00003969,-0.00001512,-0.00008879,-0.00000403,0.
 00007449,0.00003663,-0.00014339,-0.00018184,0.00006860,-0.00001329,0.0
 0000634,0.00001006,0.00000054,-0.00000533,0.00000423,0.00000204,0.0000
 0234,-0.00000181,0.00000651,-0.00000553,0.00000823,-0.00000585,0.00000
 827,0.00000011,0.00000375,0.00000241,0.00000053,-0.00000014,0.00000342
 ,-0.00000262,-0.05870224,0.06673946,0.00038969,-0.00036844,-0.00131583
 ,0.00006748,0.00001857,0.00004290,-0.00002740,-0.00007052,0.00000409,-
 0.00004732,0.00005275,-0.00006528,0.00007014,-0.00001520,0.00008602,0.
 00037465,0.00032134,-0.00028796,-0.00645683,-0.00043464,-0.00023728,-0
 .06338850,0.01732851,-0.05108030,0.00087219,0.00001775,0.00320552,-0.0
 0118891,0.00144602,0.00703976,-0.00000201,0.00000200,0.00000065,0.0000
 0186,-0.00000304,-0.00000959,-0.00001382,0.00002786,0.00006792,0.00059
 227,-0.00076209,-0.00283925,0.00074975,-0.00079901,-0.00363440,0.00008
 734,-0.00000292,0.00009601,-0.00003002,0.00004438,-0.00007028,-0.00197
 457,0.00285499,0.00712456,-0.00015507,-0.00011825,0.00006760,0.0000627
 7,-0.00000391,-0.00006310,-0.00001699,0.00000903,0.00000246,0.00007691
 ,-0.00011718,-0.00008422,0.00010190,-0.00000956,-0.00005179,-0.0000830
 0,-0.00004290,0.00009914,-0.00000657,0.00018634,0.00008350,-0.00003453
 ,-0.00010815,-0.00005558,0.00000610,0.00002312,-0.00007729,-0.00001474
 ,-0.00000298,0.00003454,-0.00000404,0.00001112,0.00001280,0.00003253,0
 .00007219,0.00003768,0.,0.00003090,0.00004211,0.00000602,-0.00000501,0
 .00000907,0.00000690,0.00000059,-0.00000848,-0.00002661,0.00005413,0.0
 0001774,-0.00000313,0.00000049,-0.00000481,0.00000157,-0.00000360,-0.0
 0000006,0.00000048,0.00000114,0.00000054,0.00000079,0.00000135,0.00000
 017,0.00000113,0.00000584,0.00000438,-0.00000455,-0.00000524,-0.000005
 75,0.00000212,0.00000578,-0.00000109,0.00000296,-0.00000309,-0.0000008
 3,0.00000272,-0.00000069,-0.00000738,0.00000026,-0.00000387,0.00000013
 ,0.00000075,0.00000080,0.00000148,-0.00000133,0.00000210,-0.00000249,-
 0.00000589,0.00000358,-0.00000750,0.00000182,0.00000007,0.00000169,0.0
 0000120,0.00000049,0.00000230,0.00000029,-0.00000284,-0.00000308,-0.00
 000029,0.00000145,0.,-0.00000050,-0.00000044,-0.00000163,0.00000001,-0
 .00000058,0.00000069,-0.00000053,0.00000089,0.00000035,-0.00000072,-0.
 00000035,-0.00000057,0.00000095,-0.00000005,0.00000018,-0.00000055,0.0
 0000077,-0.00000024,-0.00000048,-0.00000034,0.00000031,-0.00000292,-0.
 00000121,0.00000022,0.00000065,0.00000215,-0.00000022,0.00000033,0.000
 00040,0.00000090,0.00000013,-0.00000009,0.00000081,-0.00000374,0.00000
 139,0.00000377,0.00000017,0.00000207,-0.00000130,-0.00000165,0.0000001
 4,-0.00000202,0.00000081,0.00000072,0.00000096,0.00000006,-0.00000443,
 -0.00000291,-0.00000341,-0.00000403,-0.00000344,-0.00000006,-0.0000008
 2,0.00000264,0.00000529,0.00000149,-0.00000073,-0.00000171,-0.00000398
 ,-0.00000382,0.00000133,-0.00000715,-0.00000442,-0.00000377,0.00000036
 ,0.00000404,0.00000170,0.00000007,0.00000022,0.00000372,-0.00002473,0.
 00000942,-0.00000051,-0.00000350,-0.00000705,-0.00000489,0.00000935,0.
 00000234,0.00000407,-0.00000058,-0.00000294,-0.00001083,-0.00000099,-0
 .00001178,-0.00000244,-0.00001978,-0.00000002,0.00001252,0.00001326,-0
 .00001843,0.00000800,0.00001189,0.00003419,0.00004863,-0.00004320,0.00
 000467,-0.00026492,0.00003764,-0.00008012,0.00030514,-0.00009555,0.000
 23086,0.00006602,-0.00004561,0.00000791,0.00001060,-0.00000154,0.00000
 437,0.00002461,-0.00001072,0.00002984,0.00009598,0.00007417,-0.0000432
 5,-0.00000138,-0.00001447,0.00003241,-0.00001391,-0.00001741,0.0000044
 1,0.00013692,-0.00011426,0.00000581,-0.00022452,0.00032427,-0.00028143
 ,0.00004784,-0.00008719,0.00015172,-0.00004690,-0.00023471,-0.00032233
 ,0.00012780,0.00033556,-0.00008330,0.00000410,-0.00002989,0.00001023,-
 0.00000034,0.00001683,0.00000018,-0.00000706,0.00000119,-0.00001377,-0
 .00002026,0.00001276,0.00005046,-0.00000508,0.00000081,-0.00000786,0.0
 0000209,-0.00000015,-0.00000639,0.00001074,-0.00000533,-0.00000300,0.0
 6965649,-0.01971709,0.04213254,0.00002334,-0.00005202,-0.00046114,-0.0
 0012785,0.00018130,0.00053024,-0.00012107,0.00019145,0.00021457,-0.000
 12289,0.00003204,-0.00009432,0.00011554,-0.00016054,-0.00006000,-0.000
 02885,0.00002041,0.00001491,0.00004144,-0.00007245,0.00007478,0.000053
 13,0.00008392,0.00000359,-0.00007552,-0.00003090,0.00000107,0.00004645
 ,-0.00003013,0.00004525,0.00002107,0.00004715,-0.00004910,0.00000208,-
 0.00000158,-0.00000344,-0.00000015,-0.00000381,-0.00000543,-0.00000480
 ,0.00001133,0.00002078,-0.00000097,-0.00000469,0.00000668,0.00000005,0
 .00001163,-0.00001077,-0.00005399,0.00005410,-0.00014808,-0.00002908,-
 0.00005488,-0.00007609,-0.00001478,-0.00011236,0.00009097,0.00017930,-
 0.00005970,0.00009261,0.00006267,-0.00004517,0.00000728,-0.00003251,-0
 .00015791,-0.00014013,-0.00007220,0.00009389,-0.00010049,-0.00031538,-
 0.00000014,-0.00030990,0.00009784,0.00030942,0.00020239,-0.00007392,-0
 .00022895,-0.00008237,0.00015868,0.00001667,0.00029016,-0.00007922,-0.
 00012997,-0.00030532,-0.00011438,0.00004697,-0.00006021,0.00005081,0.0
 0007852,0.00004279,-0.00000975,0.00006578,0.00006984,-0.00001541,0.000
 02407,-0.00000945,-0.00001086,0.00000610,0.00000050,0.00002477,-0.0000
 3509,0.00002220,0.00004089,-0.00000932,0.00001527,-0.00000678,0.000000
 73,-0.00000638,-0.00000251,-0.00000820,0.00000377,0.00001421,0.0000204
 3,0.00000107,0.00002072,-0.00001318,0.00001645,-0.00004791,0.00000947,
 -0.00001080,0.00001907,0.00003171,0.00000037,0.00000205,-0.00001437,0.
 00000720,0.00001995,0.00005718,0.00007705,-0.00002148,0.00004316,0.000
 00180,0.00001863,-0.00001615,-0.00000403,0.00000139,-0.00000778,-0.000
 00058,0.00035831,0.00000671,0.00031622,-0.00002774,-0.00007463,0.00005
 960,-0.00043052,-0.00038280,0.00009897,-0.00004438,0.00004132,-0.00004
 520,0.00000351,-0.00000437,0.00000456,-0.00000052,-0.00000005,0.000004
 59,0.00000168,0.00000139,-0.00000163,0.00000088,-0.00000081,-0.0000017
 4,0.00001003,-0.00000485,-0.00000250,-0.00000308,-0.00000666,-0.000003
 36,0.00000115,-0.00000044,0.00000426,0.00000373,0.00000264,-0.00000233
 ,0.00000153,-0.00000057,0.00000058,-0.00000172,-0.00000200,0.00000294,
 0.00000061,-0.00000080,0.00000006,0.00000109,0.00000384,0.00000062,-0.
 00000184,-0.00000213,-0.00000795,0.00000027,-0.00000174,0.00000139,0.0
 0000156,-0.00000204,0.00000440,0.00000128,0.00000139,0.00000076,0.0000
 0418,-0.00001170,-0.00001069,-0.00000639,-0.00000511,-0.00000382,-0.00
 000156,-0.00000468,0.00000640,0.00000674,0.00000296,-0.00000124,-0.000
 00242,-0.00000672,-0.00001275,0.00000729,-0.00000759,-0.00000385,-0.00
 000824,0.00000383,-0.00000579,-0.00000533,-0.00000777,0.00000767,-0.00
 000861,-0.00000543,-0.00000157,-0.00000093,-0.00000643,-0.00000840,0.0
 0000063,0.00000130,0.00000181,0.00000017,-0.00000275,-0.00000157,-0.00
 001233,-0.00001289,-0.00000366,-0.00000692,-0.00000946,-0.00000628,0.0
 0001160,0.00000802,-0.00000718,0.00000458,0.00000135,0.00001293,0.0000
 2852,0.00001478,-0.00000044,-0.00108165,-0.00414237,0.00073781,0.00002
 851,-0.00028942,-0.00008611,-0.01901321,0.01210730,-0.00941088,0.00045
 454,0.00047808,0.00051889,0.00085268,0.00045569,0.00001776,-0.00003845
 ,0.00041017,-0.00022509,0.00003121,0.00008802,0.00000714,-0.00004371,-
 0.00007149,0.00007246,-0.00178131,0.00061672,-0.00085128,-0.00001816,-
 0.00046446,0.00008944,-0.00014931,0.00003092,-0.00002081,0.00007226,-0
 .00000360,0.00002190,-0.00017530,0.00003678,-0.00005672,-0.21774415,0.
 09850577,-0.07747327,0.00734964,-0.00425381,0.00296410,-0.00566812,0.0
 0205121,-0.00281423,0.00004122,0.00002203,-0.00010749,-0.00001119,0.00
 002183,0.00003117,-0.00001671,-0.00001677,0.00001401,0.00000344,-0.000
 04369,0.00006012,0.00000903,-0.00000428,0.00001787,0.23738010,0.000050
 02,0.00002637,0.00016715,0.00024222,-0.00015552,-0.00051868,0.00003264
 ,-0.00007252,-0.00018738,0.00003850,-0.00007517,0.00005560,-0.00005878
 ,-0.00000648,0.00004593,0.00005145,-0.00005442,0.00002381,-0.00000367,
 -0.00000476,0.00000429,-0.00001658,0.00001346,-0.00001458,-0.00004371,
 -0.00000491,-0.00000221,-0.00000185,0.00004210,0.00002927,0.00000650,-
 0.00006538,0.00001242,-0.00003096,-0.00000659,0.00003561,0.00001861,0.
 00000151,0.00000204,-0.00000526,-0.00000133,0.00000569,-0.00000275,0.0
 0000378,-0.00001237,0.00002623,0.00000389,-0.00003519,-0.00000366,-0.0
 0003559,-0.00001788,-0.00003547,-0.00000548,-0.00001590,0.00000619,0.0
 0002760,0.00013065,0.00003849,-0.00000098,0.00004019,-0.00004341,0.000
 01935,0.00001517,0.00000936,-0.00000383,0.00000086,0.00005073,-0.00004
 218,-0.00000986,-0.00007396,0.00005674,-0.00010132,-0.00000253,0.00000
 509,-0.00000704,0.00000485,-0.00000672,-0.00000002,0.00005337,0.000101
 02,0.00011771,0.00001258,-0.00007890,-0.00008600,-0.00004769,0.0000039
 7,-0.00000414,-0.00000393,0.00000208,0.00000124,-0.00000758,-0.0000003
 6,-0.00000115,0.00000489,-0.00001532,-0.00000475,0.00001479,-0.0000125
 9,-0.00001103,-0.00001681,0.00002567,0.00001931,0.00002062,-0.00000345
 ,0.00000575,-0.00000140,-0.00000025,-0.00000152,-0.00000169,0.00000121
 ,-0.00000223,0.00000466,0.00000880,0.00000218,0.00001127,-0.00000669,0
 .00000487,-0.00001602,0.00000527,0.00000623,0.00000667,0.00000748,0.00
 000172,-0.00000254,0.00000030,-0.00000033,0.00001786,0.00002234,0.0000
 3416,-0.00001032,0.00001895,0.00000004,0.00000282,-0.00000743,0.000000
 53,0.00000258,-0.00000169,-0.00000222,-0.00020179,-0.00032621,0.000058
 41,0.00021432,-0.00014963,0.00013299,-0.00040884,-0.00047682,0.0001021
 6,0.00002506,0.00005797,-0.00000383,0.00000172,0.00000148,0.00000133,0
 .00000051,-0.00000013,0.00000074,-0.00000212,-0.00000139,-0.00000012,-
 0.00000091,0.00000138,0.00000061,0.00000483,0.00000684,-0.00000442,0.0
 0000171,-0.00000518,-0.00000058,-0.00000213,0.00000253,0.00000050,-0.0
 0000145,-0.00000274,0.00000139,-0.00000201,-0.00000008,0.00000171,0.00
 000090,0.00000074,-0.00000114,-0.00000121,0.00000216,0.00000175,0.0000
 0022,-0.00000145,-0.00000089,-0.00000319,0.00000087,-0.00000260,-0.000
 00153,0.00000200,0.00000203,0.00000250,-0.00000135,0.00000059,0.000000
 58,-0.00000105,-0.00000061,0.00000109,-0.00000073,-0.00000106,-0.00000
 015,0.00000008,0.00000077,-0.00000084,-0.00000043,-0.00000008,0.000001
 38,-0.00000039,-0.00000041,0.00000094,0.00000101,0.00000060,0.00000155
 ,-0.00000031,0.00000141,-0.00000236,0.00000083,-0.00000378,-0.00000239
 ,-0.00000263,0.00000023,-0.00000118,-0.00000102,0.00000060,0.00000140,
 0.00000112,-0.00000092,-0.00000129,-0.00000016,-0.00000059,0.00000205,
 -0.00000145,-0.00000110,-0.00000072,-0.00000200,0.,0.00000061,-0.00000
 024,-0.00000009,0.00000096,0.00000119,-0.00000160,-0.00000009,-0.00000
 022,0.00000165,-0.00000073,0.00000192,0.00000371,-0.00310943,-0.005791
 30,0.00102832,0.00170263,0.00155525,0.00035510,-0.01985389,0.01020193,
 -0.00969895,0.00094658,0.00061054,0.00040236,0.00092304,0.00085858,-0.
 00018285,0.00009830,0.00024473,-0.00004985,0.00003753,-0.00000218,0.00
 000330,-0.00001254,-0.00000408,0.00000416,-0.00110539,0.00115023,-0.00
 065582,-0.00018170,-0.00028415,-0.00002513,-0.00007028,0.00002388,-0.0
 0002319,-0.00001640,0.00000953,-0.00000606,-0.00009100,0.00004041,-0.0
 0002427,0.09917793,-0.10366882,0.04463941,0.00917451,-0.00603032,0.001
 98706,0.01771633,-0.00967958,0.01090131,0.00006942,0.00015884,0.000131
 68,-0.00000044,-0.00005113,-0.00004127,-0.00004929,-0.00006276,-0.0000
 3456,-0.00003548,-0.00002021,-0.00003487,0.00000268,-0.00000190,0.0000
 0048,-0.10524789,0.11190756,-0.00034339,0.00023287,-0.00007434,0.00081
 980,-0.00070777,-0.00142652,0.00008890,-0.00037636,-0.00007378,-0.0000
 0470,0.00017901,-0.00009385,0.00012695,0.00010784,0.00008580,-0.000282
 50,0.00014753,-0.00007821,-0.00005644,0.00001579,0.00001315,0.00002514
 ,-0.00004865,0.00002513,0.00010102,-0.00002423,0.00002332,0.00002547,-
 0.00013090,-0.00008828,-0.00000744,-0.00007246,0.00003031,0.00001568,0
 .00000107,-0.00000203,-0.00003957,-0.00002522,0.00002266,-0.00000051,0
 .00001396,0.00000161,0.00000428,-0.00000368,0.00001113,-0.00002921,-0.
 00000040,0.00005334,0.00003427,-0.00028760,-0.00032625,0.00018053,-0.0
 0000016,-0.00001692,-0.00009798,0.00012155,-0.00002020,0.00010515,0.00
 003570,-0.00010958,0.00000104,0.00005352,0.00002904,0.00000416,-0.0000
 6620,-0.00006764,0.00001830,-0.00009646,0.00000507,-0.00016927,-0.0001
 3563,0.00007409,0.00002378,0.00012223,0.00010602,-0.00002433,-0.000085
 21,-0.00004503,0.00010943,0.00013257,-0.00007768,-0.00003391,-0.000016
 45,0.00012268,-0.00000261,-0.00002040,0.00002733,0.00001310,0.00002793
 ,0.00001960,-0.00000869,0.00002955,0.00003291,0.00001491,-0.00003464,-
 0.00000722,0.00000547,-0.00002066,-0.00001249,0.00000132,0.00006439,-0
 .00000138,-0.00000127,0.00000311,-0.00000885,0.00000190,-0.00000699,-0
 .00000240,-0.00000058,0.00000399,-0.00000106,0.00000349,0.00000133,0.0
 0000072,0.00000673,0.00002310,0.00000773,-0.00000198,-0.00000463,-0.00
 000516,0.00000578,0.00000098,-0.00000252,0.00000260,-0.00000234,-0.000
 00361,-0.00000307,-0.00000421,-0.00001772,0.00000037,-0.00000593,0.000
 00272,0.00000363,0.00000049,0.00000972,0.00000161,0.00000831,-0.000008
 25,0.00014422,0.00010210,-0.00033396,0.00003920,0.00018216,-0.00008919
 ,0.00000038,0.00017786,0.00001706,0.00001988,0.00013087,-0.00003378,-0
 .00000295,0.00000172,0.00000007,0.00000089,-0.00000118,0.00000150,0.00
 000293,-0.00000127,-0.00000140,-0.00000180,0.00000417,0.00000105,-0.00
 000934,-0.00000041,0.00000071,-0.00000133,-0.00000866,0.00000249,-0.00
 000108,0.00000803,0.00000265,0.00001060,-0.00000082,-0.00000399,0.0000
 0136,0.00000248,0.00000122,0.00000015,0.00000058,-0.00000239,-0.000001
 63,0.00000149,0.00000158,0.00000419,-0.00000122,-0.00000039,0.00000117
 ,0.00000207,0.00000286,-0.00000153,0.00000174,-0.00000040,-0.00000227,
 -0.00000205,0.00000065,0.00000362,0.00000223,0.00000055,0.00000314,-0.
 00000676,-0.00000515,-0.00000295,-0.00000217,-0.00000167,-0.00000106,-
 0.00000046,0.00000219,0.00000446,0.00000061,-0.00000042,-0.00000385,-0
 .00000414,-0.00000390,0.00000185,-0.00000346,-0.00000226,-0.00000644,-
 0.00000214,0.00000361,0.00000150,0.00000047,0.00000086,-0.00001050,0.0
 0000405,-0.00000287,0.00000332,-0.00000228,-0.00000314,0.00000019,0.00
 000004,0.00000077,-0.00000156,-0.00000596,-0.00000138,-0.00000357,-0.0
 0000436,-0.00000367,-0.00000225,-0.00000293,-0.00000154,0.00000533,0.0
 0000161,-0.00000324,0.00000157,0.00000041,0.00000476,0.00006202,0.0000
 1560,0.,-0.00002417,0.00058774,0.00037519,-0.00097946,-0.00048225,0.00
 038130,-0.00079876,0.00106466,-0.00168589,0.00004546,-0.00033009,0.000
 13457,-0.00017882,0.00028220,-0.00009044,-0.00004752,0.00005657,-0.000
 10218,-0.00001125,0.00003636,0.00002918,0.00000095,-0.00003180,0.00002
 253,-0.00032710,-0.00003535,-0.00000522,0.00002591,-0.00010175,0.00002
 822,-0.00004759,-0.00000454,0.00000673,0.00003428,-0.00001736,0.000009
 95,-0.00003978,0.00000541,-0.00001180,-0.07818295,0.04440584,-0.085379
 46,-0.02379040,0.01186314,-0.00851301,0.01719278,-0.00831301,0.0083596
 9,0.00026148,-0.00010735,-0.00014069,-0.00006323,0.00006420,0.00004622
 ,-0.00007525,0.00000022,0.00000646,-0.00007193,0.00001525,0.00004223,0
 .00000032,-0.00000536,0.00000537,0.08618181,-0.04869237,0.08879813\\0.
 00000529,0.00001047,-0.00000635,0.00000999,-0.00000155,0.00000146,-0.0
 0000603,-0.00000540,-0.00000806,0.00000262,0.00000283,0.00000236,-0.00
 000781,0.00000139,-0.00000258,-0.00001007,-0.00000430,0.00000062,0.000
 00444,-0.00000645,-0.00000346,0.00000126,0.00000155,-0.00000102,-0.000
 01198,-0.00000915,-0.00000150,0.00001111,0.00000390,0.00000244,-0.0000
 0200,0.00000097,0.00000002,-0.00000375,0.00000006,-0.00000215,-0.00000
 328,-0.00000049,-0.00000365,-0.00001100,0.00000037,0.00000239,-0.00000
 279,0.00000368,-0.00000181,-0.00000359,-0.00000081,-0.00000160,-0.0000
 1146,0.00000912,0.00000942,0.00000742,0.00001382,-0.00001509,0.0000132
 5,-0.00002848,0.00000649,0.00000440,0.00000136,-0.00000474,-0.00000675
 ,-0.00000395,0.00000946,0.00000712,0.00000447,-0.00000085,0.00001927,0
 .00000555,-0.00001982,-0.00002971,-0.00000569,-0.00000637,-0.00000087,
 -0.00000636,0.00000430,0.00000255,0.00000225,0.00000974,0.00001284,-0.
 00000029,0.00000337,-0.00000256,0.00000388,-0.00001212,0.00001126,-0.0
 0000811,0.00000272,-0.00000357,-0.00000226,0.00001354,0.00000923,-0.00
 000976,-0.00000901,0.00000514,-0.00000855,0.00001367,-0.00000945,0.000
 00620,-0.00001042,-0.00000240,-0.00000501,-0.00000364,-0.00000139,-0.0
 0000057,0.00001699,0.00000136,0.00000092,-0.00000442,0.00000158,0.0000
 0352,-0.00000132,0.00001950,0.00000925,-0.00000514,-0.00000071,0.00000
 842,0.00000330,-0.00000063,-0.00000398,0.00000095,-0.00000459,0.000001
 31,-0.00000783,0.00000130,-0.00000112,0.00000190,0.00000233,-0.0000013
 3,0.00000376,0.00000116,0.00000395,-0.00000225,0.00000102,-0.00000020,
 0.00000238,0.00000117,0.00000232,-0.00000142,0.00000488,0.00000370,0.0
 0000425,0.00000136,0.00000165,-0.00000162,-0.00000122,0.00000024,-0.00
 000066,0.00000112,0.00000079,-0.00000234,0.00000320,0.00001041,-0.0000
 0319,0.00000675,-0.00000152,0.00000191,-0.00000181,0.00000147,-0.00000
 020,0.00000274,0.00000108,0.00000120,0.00000665,0.00001321,-0.00000791
 ,0.00000084,0.00000526,0.00000195,0.00000031,0.00000356,0.00000081,0.0
 0000060,0.00000336,0.00000240,-0.00000850,-0.00000193,0.00000904,-0.00
 000178,-0.00000237,0.00000198,-0.00000187,0.00000187,0.00000212,0.0000
 0157,-0.00000095,-0.00000029,0.00000040,-0.00000320,-0.00000156,0.0000
 0092,0.00000166,0.00000165,-0.00000025,0.00000153,0.00000165,0.0000012
 0,-0.00000237,0.00000153,0.00000697,-0.00000791,0.00000629,-0.00000030
 ,-0.00000259,-0.00000023,0.00000076,0.00000027,-0.00000204,-0.00000115
 ,-0.00000061,0.00000188,0.00001879,0.00000908,0.00001351,0.00000128,-0
 .00000167,0.00000102,-0.00000329,0.00000389,-0.00000325,-0.00003443,-0
 .00001030,-0.00000599,0.00000083,0.00000790,0.00000221,-0.00000129,-0.
 00000594,0.00000012,0.00000058,-0.00000270,0.00000224,0.00001279,-0.00
 001616,-0.00001309,-0.00000437,-0.00000143,0.00000168,0.00000092,-0.00
 000224,0.00000129,0.00000177,-0.00000334,-0.00000184,0.,-0.00000014,-0
 .00000102,-0.00000897,0.00000084,0.00001145,-0.00001142,0.00000324,0.0
 0002025,0.00000318,0.00000006,-0.00000504,0.00000669,-0.00000291,-0.00
 001410,-0.00000873,0.00000144,0.00000439,-0.00000187,0.00000277,0.0000
 0272,-0.00000699,0.00000265,0.00000396,0.00000386,-0.00000309,-0.00000
 038,0.00000218,0.00000265,-0.00000089,0.00000038,-0.00000066,-0.000009
 57,0.00000550,0.00000241,0.00000504,-0.00000112,-0.00000251,-0.0000001
 6,-0.00000309,-0.00000613,-0.00000019,-0.00000425,-0.00000693,-0.00000
 634,0.00000165,-0.00000117,-0.00000266,-0.00000288,0.00000096,0.000002
 90,-0.00000382,0.00000333,-0.00000026,0.00000426,-0.00000507,0.0000004
 9,-0.00000120,0.00000632,-0.00000035,-0.00000185,0.00000427,-0.0000019
 2,-0.00000347,0.00000465,0.00000153,-0.00000376,-0.00000108,0.00000086
 ,-0.00000149,0.00000270,-0.00000191\\\@
 The archive entry for this job was punched.


 ... I FELL INTO A REVERIE ... THE ATOMS WERE GAMBOLING BEFORE MY EYES
 ... I SAW HOW TWO SMALL ONES UNITED TO FORM A PAIR;
 HOW THE LARGER ONES SEIZED TWO OF THE SMALLER ONES;
 HOW STILL LARGER ONES KEPT HOLD OF THREE OR FOUR
 SMALLER ONES ... I SAW HOW THE LARGER ONES FORMED A CHAIN ...
 THIS WAS THE ORIGIN OF THE STRUCTURE THEORY.

                                   -- C.F.KEKULE VON STRADONITZ
 Job cpu time:       1 days 17 hours 48 minutes 22.2 seconds.
 Elapsed time:       0 days  2 hours 39 minutes 44.8 seconds.
 File lengths (MBytes):  RWF=   8253 Int=      0 D2E=      0 Chk=     49 Scr=      1
 Normal termination of Gaussian 16 at Sat Dec  7 22:04:59 2024.
