/mnt/lustre/scratch/nvme/SLURM/9663785/usccqdma.yZ2aVlOFq8
OMP_STACKSIZE=0m
GAUSS_PDEF=16
GAUSS_MDEF=65536MB
GAUSS_RDEF=SCF=Direct
 Entering Gaussian System, Link 0=g16.exe
 Initial command:
 /opt/cesga/2020/software/Core/g16/c1/l1.exe "/mnt/lustre/scratch/nvme/SLURM/9663785/usccqdma.yZ2aVlOFq8/Gau-2484245.inp" -scrdir="/mnt/lustre/scratch/nvme/SLURM/9663785/usccqdma.yZ2aVlOFq8/"
 Default is to use a total of  16 processors:
                               16 via shared-memory
                                1 via Linda
 Entering Link 1 = /opt/cesga/2020/software/Core/g16/c1/l1.exe PID=   2484271.
  
 Copyright (c) 1988-2019, Gaussian, Inc.  All Rights Reserved.
  
 This is part of the Gaussian(R) 16 program.  It is based on
 the Gaussian(R) 09 system (copyright 2009, Gaussian, Inc.),
 the Gaussian(R) 03 system (copyright 2003, Gaussian, Inc.),
 the Gaussian(R) 98 system (copyright 1998, Gaussian, Inc.),
 the Gaussian(R) 94 system (copyright 1995, Gaussian, Inc.),
 the Gaussian 92(TM) system (copyright 1992, Gaussian, Inc.),
 the Gaussian 90(TM) system (copyright 1990, Gaussian, Inc.),
 the Gaussian 88(TM) system (copyright 1988, Gaussian, Inc.),
 the Gaussian 86(TM) system (copyright 1986, Carnegie Mellon
 University), and the Gaussian 82(TM) system (copyright 1983,
 Carnegie Mellon University). Gaussian is a federally registered
 trademark of Gaussian, Inc.
  
 This software contains proprietary and confidential information,
 including trade secrets, belonging to Gaussian, Inc.
  
 This software is provided under written license and may be
 used, copied, transmitted, or stored only in accord with that
 written license.
  
 The following legend is applicable only to US Government
 contracts under FAR:
  
                    RESTRICTED RIGHTS LEGEND
  
 Use, reproduction and disclosure by the US Government is
 subject to restrictions as set forth in subparagraphs (a)
 and (c) of the Commercial Computer Software - Restricted
 Rights clause in FAR 52.227-19.
  
 Gaussian, Inc.
 340 Quinnipiac St., Bldg. 40, Wallingford CT 06492
  
  
 ---------------------------------------------------------------
 Warning -- This program may not be used in any manner that
 competes with the business of Gaussian, Inc. or will provide
 assistance to any competitor of Gaussian, Inc.  The licensee
 of this program is prohibited from giving any competitor of
 Gaussian, Inc. access to this program.  By using this program,
 the user acknowledges that Gaussian, Inc. is engaged in the
 business of creating and licensing software in the field of
 computational chemistry and represents and warrants to the
 licensee that it is not a competitor of Gaussian, Inc. and that
 it will not use this program in any manner prohibited above.
 ---------------------------------------------------------------
  

 Cite this work as:
 Gaussian 16, Revision C.01,
 M. J. Frisch, G. W. Trucks, H. B. Schlegel, G. E. Scuseria, 
 M. A. Robb, J. R. Cheeseman, G. Scalmani, V. Barone, 
 G. A. Petersson, H. Nakatsuji, X. Li, M. Caricato, A. V. Marenich, 
 J. Bloino, B. G. Janesko, R. Gomperts, B. Mennucci, H. P. Hratchian, 
 J. V. Ortiz, A. F. Izmaylov, J. L. Sonnenberg, D. Williams-Young, 
 F. Ding, F. Lipparini, F. Egidi, J. Goings, B. Peng, A. Petrone, 
 T. Henderson, D. Ranasinghe, V. G. Zakrzewski, J. Gao, N. Rega, 
 G. Zheng, W. Liang, M. Hada, M. Ehara, K. Toyota, R. Fukuda, 
 J. Hasegawa, M. Ishida, T. Nakajima, Y. Honda, O. Kitao, H. Nakai, 
 T. Vreven, K. Throssell, J. A. Montgomery, Jr., J. E. Peralta, 
 F. Ogliaro, M. J. Bearpark, J. J. Heyd, E. N. Brothers, K. N. Kudin, 
 V. N. Staroverov, T. A. Keith, R. Kobayashi, J. Normand, 
 K. Raghavachari, A. P. Rendell, J. C. Burant, S. S. Iyengar, 
 J. Tomasi, M. Cossi, J. M. Millam, M. Klene, C. Adamo, R. Cammi, 
 J. W. Ochterski, R. L. Martin, K. Morokuma, O. Farkas, 
 J. B. Foresman, and D. J. Fox, Gaussian, Inc., Wallingford CT, 2019.
 
 ******************************************
 Gaussian 16:  ES64L-G16RevC.01  3-Jul-2019
                 7-Dec-2024 
 ******************************************
 Default route: SCF=Direct
 ----------------------------------------------------
 # m06/genecp scf=tight int=ultrafine 5d freq=noraman
 ----------------------------------------------------
 1/10=4,30=1,38=1/1,3;
 2/12=2,17=6,18=5,40=1/2;
 3/5=7,8=1,11=2,16=1,17=8,25=1,30=1,71=2,74=-54,75=-5,140=1/1,2,3;
 4//1;
 5/5=2,32=2,38=5,98=1/2;
 8/6=4,10=90,11=11/1;
 11/6=1,8=1,9=11,15=111,16=1/1,2,10;
 10/6=1/2;
 6/7=2,8=2,9=2,10=2,28=1/1;
 7/8=1,10=1,25=1/1,2,3,16;
 1/10=4,30=1/3;
 99//99;
 ------
 OPT-TS
 ------
 Symbolic Z-matrix:
 Charge =  0 Multiplicity = 1
 C                     3.25422   2.235     0.13139 
 H                     2.44364   2.96209   0.19328 
 C                     4.596     2.59154   0.09562 
 C                     5.55352   1.58745   0.00286 
 H                     6.61224   1.83839  -0.03101 
 C                     5.14848   0.25731  -0.04504 
 C                     2.91154  -2.03055  -1.21606 
 C                     2.29423  -3.27697  -1.17115 
 H                     2.02981  -3.79053  -2.09351 
 C                     1.99837  -3.83086   0.06642 
 C                     2.32329  -3.11101   1.2141 
 H                     2.07559  -3.50063   2.20136 
 C                     3.21118  -1.3987   -0.00914 
 C                     3.7902   -0.02096   0.00791 
 C                    -1.03358   3.84635   0.01685 
 C                    -1.79427   3.20827  -1.18139 
 C                    -1.82543   3.79526   1.31696 
 H                    -2.19995   2.78074   1.50683 
 H                    -2.66746   4.50096   1.30976 
 H                    -1.15613   4.06594   2.14409 
 C                    -0.5223    5.25144  -0.22787 
 H                    -0.00042   5.61699   0.66613 
 H                    -1.35537   5.93844  -0.43549 
 H                     0.17833   5.28998  -1.06975 
 C                    -3.29819   3.39223  -1.15601 
 H                    -3.74243   2.90735  -2.03575 
 H                    -3.56661   4.45833  -1.18396 
 H                    -3.74005   2.93736  -0.26311 
 C                    -1.23907   3.63278  -2.53517 
 H                    -0.14742   3.51994  -2.56801 
 H                    -1.49384   4.67343  -2.77794 
 H                    -1.66637   2.98321  -3.31004 
 C                    -1.47849  -1.63003  -3.04626 
 C                    -2.33721  -2.16446  -1.86755 
 C                    -2.07173  -0.38336  -3.69193 
 H                    -2.32519   0.36707  -2.93126 
 H                    -2.96609  -0.61554  -4.2866 
 H                    -1.3184    0.0559   -4.35907 
 C                    -1.14392  -2.65595  -4.11034 
 H                    -0.52976  -2.19137  -4.89262 
 H                    -2.05848  -3.04224  -4.5835 
 H                    -0.58288  -3.50241  -3.69777 
 C                    -3.83439  -2.0057   -2.04032 
 H                    -4.35436  -2.41375  -1.16322 
 H                    -4.18877  -2.55028  -2.9277 
 H                    -4.11462  -0.95117  -2.13625 
 C                    -2.00332  -3.60401  -1.49458 
 H                    -0.91896  -3.73367  -1.37176 
 H                    -2.36464  -4.32067  -2.24489 
 H                    -2.47908  -3.83948  -0.53408 
 B                    -0.31567   1.70564  -0.30985 
 B                    -0.61486  -0.89211  -1.06224 
 N                     2.86944   0.95448   0.09017 
 N                     2.92222  -1.92039   1.19136 
 O                     0.08722   2.95567   0.16802 
 O                    -1.49919   1.81531  -1.02155 
 O                    -0.27244  -1.23284  -2.37739 
 O                    -1.90288  -1.33639  -0.78367 
 Ir                    0.78404   0.08714  -0.00053 
 H                     4.88107   3.6398    0.13541 
 H                     1.50256  -4.79556   0.1484 
 B                    -0.59495  -0.41769   1.34112 
 O                    -1.63265   0.37467   1.81941 
 O                    -0.49831  -1.5984    2.07438 
 C                    -2.03771  -0.16712   3.08221 
 C                    -1.63968  -1.66555   2.94242 
 C                    -1.24191   0.56182   4.15856 
 C                    -3.51942   0.0881    3.27221 
 C                    -1.23183  -2.33807   4.23866 
 C                    -2.7038   -2.49763   2.23847 
 H                    -0.16484   0.38357   4.04139 
 H                    -1.54252   0.25984   5.17115 
 H                    -1.41613   1.64072   4.0545 
 H                    -3.69918   1.16854   3.35501 
 H                    -3.88686  -0.38769   4.19314 
 H                    -4.1019   -0.28643   2.42363 
 H                    -0.96995  -3.38657   4.04393 
 H                    -2.05825  -2.32618   4.96427 
 H                    -0.36039  -1.8518    4.69091 
 H                    -3.01196  -2.02281   1.29836 
 H                    -3.58411  -2.65844   2.87616 
 H                    -2.27174  -3.47793   1.99524 
 H                     5.8666   -0.55692  -0.11239 
 H                     3.12726  -1.53763  -2.16263 
 

 GradGradGradGradGradGradGradGradGradGradGradGradGradGradGradGradGradGrad
 Berny optimization.
 Initialization pass.
 Trust Radius=3.00D-01 FncErr=1.00D-07 GrdErr=1.00D-07 EigMax=2.50D+02 EigMin=1.00D-04
 Number of steps in this run=      2 maximum allowed number of steps=      2.
 GradGradGradGradGradGradGradGradGradGradGradGradGradGradGradGradGradGrad

 Stoichiometry    C28H44B3IrN2O6
 Framework group  C1[X(C28H44B3IrN2O6)]
 Deg. of freedom   246
 Full point group                 C1      NOp   1
 Largest Abelian subgroup         C1      NOp   1
 Largest concise Abelian subgroup C1      NOp   1
                         Standard orientation:                         
 ---------------------------------------------------------------------
 Center     Atomic      Atomic             Coordinates (Angstroms)
 Number     Number       Type             X           Y           Z
 ---------------------------------------------------------------------
      1          6           0        3.254223    2.234995    0.131389
      2          1           0        2.443644    2.962086    0.193279
      3          6           0        4.596003    2.591534    0.095619
      4          6           0        5.553522    1.587442    0.002859
      5          1           0        6.612242    1.838381   -0.031011
      6          6           0        5.148480    0.257303   -0.045041
      7          6           0        2.911538   -2.030554   -1.216061
      8          6           0        2.294226   -3.276974   -1.171151
      9          1           0        2.029806   -3.790533   -2.093511
     10          6           0        1.998366   -3.830863    0.066419
     11          6           0        2.323286   -3.111014    1.214099
     12          1           0        2.075586   -3.500633    2.201359
     13          6           0        3.211178   -1.398705   -0.009141
     14          6           0        3.790200   -0.020965    0.007909
     15          6           0       -1.033575    3.846350    0.016849
     16          6           0       -1.794266    3.208271   -1.181391
     17          6           0       -1.825425    3.795261    1.316959
     18          1           0       -2.199947    2.780742    1.506829
     19          1           0       -2.667455    4.500962    1.309759
     20          1           0       -1.156125    4.065940    2.144089
     21          6           0       -0.522294    5.251440   -0.227871
     22          1           0       -0.000413    5.616989    0.666129
     23          1           0       -1.355363    5.938441   -0.435491
     24          1           0        0.178336    5.289979   -1.069751
     25          6           0       -3.298186    3.392233   -1.156011
     26          1           0       -3.742427    2.907353   -2.035751
     27          1           0       -3.566605    4.458333   -1.183961
     28          1           0       -3.740046    2.937363   -0.263111
     29          6           0       -1.239066    3.632780   -2.535171
     30          1           0       -0.147416    3.519939   -2.568011
     31          1           0       -1.493834    4.673431   -2.777941
     32          1           0       -1.666366    2.983211   -3.310041
     33          6           0       -1.478492   -1.630029   -3.046261
     34          6           0       -2.337212   -2.164458   -1.867551
     35          6           0       -2.071730   -0.383359   -3.691931
     36          1           0       -2.325189    0.367072   -2.931261
     37          1           0       -2.966091   -0.615538   -4.286601
     38          1           0       -1.318400    0.055900   -4.359071
     39          6           0       -1.143923   -2.655950   -4.110341
     40          1           0       -0.529762   -2.191370   -4.892621
     41          1           0       -2.058483   -3.042239   -4.583501
     42          1           0       -0.582884   -3.502410   -3.697771
     43          6           0       -3.834392   -2.005697   -2.040321
     44          1           0       -4.354363   -2.413746   -1.163221
     45          1           0       -4.188773   -2.550276   -2.927701
     46          1           0       -4.114621   -0.951166   -2.136251
     47          6           0       -2.003324   -3.604009   -1.494581
     48          1           0       -0.918964   -3.733670   -1.371761
     49          1           0       -2.364645   -4.320668   -2.244891
     50          1           0       -2.479084   -3.839478   -0.534081
     51          5           0       -0.315668    1.705639   -0.309851
     52          5           0       -0.614861   -0.892110   -1.062241
     53          7           0        2.869441    0.954476    0.090169
     54          7           0        2.922218   -1.920394    1.191359
     55          8           0        0.087224    2.955669    0.168019
     56          8           0       -1.499188    1.815311   -1.021551
     57          8           0       -0.272441   -1.232841   -2.377391
     58          8           0       -1.902881   -1.336389   -0.783671
     59         77           0        0.784040    0.087138   -0.000531
     60          1           0        4.881074    3.639793    0.135409
     61          1           0        1.502554   -4.795563    0.148399
     62          5           0       -0.594950   -0.417690    1.341119
     63          8           0       -1.632649    0.374671    1.819409
     64          8           0       -0.498312   -1.598400    2.074379
     65          6           0       -2.037710   -0.167119    3.082209
     66          6           0       -1.639682   -1.665549    2.942419
     67          6           0       -1.241909    0.561820    4.158559
     68          6           0       -3.519420    0.088103    3.272209
     69          6           0       -1.231833   -2.338070    4.238659
     70          6           0       -2.703803   -2.497628    2.238469
     71          1           0       -0.164839    0.383569    4.041389
     72          1           0       -1.542520    0.259841    5.171149
     73          1           0       -1.416128    1.640721    4.054499
     74          1           0       -3.699179    1.168543    3.355009
     75          1           0       -3.886860   -0.387687    4.193139
     76          1           0       -4.101900   -0.286426    2.423629
     77          1           0       -0.969954   -3.386570    4.043929
     78          1           0       -2.058253   -2.326179    4.964269
     79          1           0       -0.360392   -1.851801    4.690909
     80          1           0       -3.011962   -2.022808    1.298359
     81          1           0       -3.584113   -2.658437    2.876159
     82          1           0       -2.271744   -3.477928    1.995239
     83          1           0        5.866599   -0.556928   -0.112391
     84          1           0        3.127258   -1.537635   -2.162631
 ---------------------------------------------------------------------
 Rotational constants (GHZ):           0.0933540           0.0880414           0.0761217
 General basis read from cards:  (5D, 7F)
 ======================================================================================================
                                       Pseudopotential Parameters
 ======================================================================================================
  Center     Atomic      Valence      Angular      Power
  Number     Number     Electrons     Momentum     of R      Exponent        Coefficient   SO-Coeffient
 ======================================================================================================
    1          6
                                   No pseudopotential on this center.
    2          1
                                   No pseudopotential on this center.
    3          6
                                   No pseudopotential on this center.
    4          6
                                   No pseudopotential on this center.
    5          1
                                   No pseudopotential on this center.
    6          6
                                   No pseudopotential on this center.
    7          6
                                   No pseudopotential on this center.
    8          6
                                   No pseudopotential on this center.
    9          1
                                   No pseudopotential on this center.
   10          6
                                   No pseudopotential on this center.
   11          6
                                   No pseudopotential on this center.
   12          1
                                   No pseudopotential on this center.
   13          6
                                   No pseudopotential on this center.
   14          6
                                   No pseudopotential on this center.
   15          6
                                   No pseudopotential on this center.
   16          6
                                   No pseudopotential on this center.
   17          6
                                   No pseudopotential on this center.
   18          1
                                   No pseudopotential on this center.
   19          1
                                   No pseudopotential on this center.
   20          1
                                   No pseudopotential on this center.
   21          6
                                   No pseudopotential on this center.
   22          1
                                   No pseudopotential on this center.
   23          1
                                   No pseudopotential on this center.
   24          1
                                   No pseudopotential on this center.
   25          6
                                   No pseudopotential on this center.
   26          1
                                   No pseudopotential on this center.
   27          1
                                   No pseudopotential on this center.
   28          1
                                   No pseudopotential on this center.
   29          6
                                   No pseudopotential on this center.
   30          1
                                   No pseudopotential on this center.
   31          1
                                   No pseudopotential on this center.
   32          1
                                   No pseudopotential on this center.
   33          6
                                   No pseudopotential on this center.
   34          6
                                   No pseudopotential on this center.
   35          6
                                   No pseudopotential on this center.
   36          1
                                   No pseudopotential on this center.
   37          1
                                   No pseudopotential on this center.
   38          1
                                   No pseudopotential on this center.
   39          6
                                   No pseudopotential on this center.
   40          1
                                   No pseudopotential on this center.
   41          1
                                   No pseudopotential on this center.
   42          1
                                   No pseudopotential on this center.
   43          6
                                   No pseudopotential on this center.
   44          1
                                   No pseudopotential on this center.
   45          1
                                   No pseudopotential on this center.
   46          1
                                   No pseudopotential on this center.
   47          6
                                   No pseudopotential on this center.
   48          1
                                   No pseudopotential on this center.
   49          1
                                   No pseudopotential on this center.
   50          1
                                   No pseudopotential on this center.
   51          5
                                   No pseudopotential on this center.
   52          5
                                   No pseudopotential on this center.
   53          7
                                   No pseudopotential on this center.
   54          7
                                   No pseudopotential on this center.
   55          8
                                   No pseudopotential on this center.
   56          8
                                   No pseudopotential on this center.
   57          8
                                   No pseudopotential on this center.
   58          8
                                   No pseudopotential on this center.
   59         77           17
                                      G and up 
                                                     1      823.5880147       -0.15780140    0.00000000
                                                     2      364.6613336    -1517.52704460    0.00000000
                                                     2       55.7082801     -316.53065290    0.00000000
                                                     2       12.0464544      -91.88809410    0.00000000
                                                     2        3.5120610       -9.22417730    0.00000000
                                      S - G
                                                     0      188.0490770        3.15780140    0.00000000
                                                     1      340.4194712       26.83225770    0.00000000
                                                     2      128.2373673      800.42500070    0.00000000
                                                     2       33.8644961      369.40506830    0.00000000
                                                     2        4.7560005      242.41718990    0.00000000
                                                     2        3.9649974     -118.21732820    0.00000000
                                      P - G
                                                     0      289.7291139        2.15780140    0.00000000
                                                     1       87.4633789       61.96786100    0.00000000
                                                     2       30.4363766      269.05819860    0.00000000
                                                     2        4.0553412      231.16547930    0.00000000
                                                     2        3.5525341     -133.69526670    0.00000000
                                      D - G
                                                     0      136.4017106        3.15780140    0.00000000
                                                     1       95.0776925       45.93498030    0.00000000
                                                     2       49.2258410      359.03446680    0.00000000
                                                     2       15.0874145      176.47401190    0.00000000
                                                     2        4.0405764       54.51552860    0.00000000
                                      F - G
                                                     0      127.3507908        3.95461970    0.00000000
                                                     1       66.2364374       52.97736550    0.00000000
                                                     2       34.4299229      274.86433830    0.00000000
                                                     2       10.1995721      137.20473380    0.00000000
                                                     2        2.5409702       14.86333050    0.00000000
   60          1
                                   No pseudopotential on this center.
   61          1
                                   No pseudopotential on this center.
   62          5
                                   No pseudopotential on this center.
   63          8
                                   No pseudopotential on this center.
   64          8
                                   No pseudopotential on this center.
   65          6
                                   No pseudopotential on this center.
   66          6
                                   No pseudopotential on this center.
   67          6
                                   No pseudopotential on this center.
   68          6
                                   No pseudopotential on this center.
   69          6
                                   No pseudopotential on this center.
   70          6
                                   No pseudopotential on this center.
   71          1
                                   No pseudopotential on this center.
   72          1
                                   No pseudopotential on this center.
   73          1
                                   No pseudopotential on this center.
   74          1
                                   No pseudopotential on this center.
   75          1
                                   No pseudopotential on this center.
   76          1
                                   No pseudopotential on this center.
   77          1
                                   No pseudopotential on this center.
   78          1
                                   No pseudopotential on this center.
   79          1
                                   No pseudopotential on this center.
   80          1
                                   No pseudopotential on this center.
   81          1
                                   No pseudopotential on this center.
   82          1
                                   No pseudopotential on this center.
   83          1
                                   No pseudopotential on this center.
   84          1
                                   No pseudopotential on this center.
 ======================================================================================================
 There are   697 symmetry adapted cartesian basis functions of A   symmetry.
 There are   656 symmetry adapted basis functions of A   symmetry.
   656 basis functions,  1311 primitive gaussians,   697 cartesian basis functions
   153 alpha electrons      153 beta electrons
       nuclear repulsion energy      5568.7540999953 Hartrees.
 NAtoms=   84 NActive=   84 NUniq=   84 SFac= 1.00D+00 NAtFMM=   60 NAOKFM=T Big=T
 Integral buffers will be    131072 words long.
 Raffenetti 2 integral format.
 Two-electron integral symmetry is turned on.
 One-electron integrals computed using PRISM.
   1 Symmetry operations used in ECPInt.
 ECPInt:  NShTT=   31878 NPrTT=  193976 LenC2=   25887 LenP2D=   83545.
 LDataN:  DoStor=T MaxTD1= 6 Len=  172
 NBasis=   656 RedAO= T EigKep=  7.36D-04  NBF=   656
 NBsUse=   656 1.00D-06 EigRej= -1.00D+00 NBFU=   656
 Defaulting to unpruned grid for atomic number  77.
 ExpMin= 2.90D-02 ExpMax= 5.48D+03 ExpMxC= 8.25D+02 IAcc=3 IRadAn=         5 AccDes= 0.00D+00
 Harris functional with IExCor= 1009 and IRadAn=       5 diagonalized for initial guess.
 HarFok:  IExCor= 1009 AccDes= 0.00D+00 IRadAn=         5 IDoV= 1 UseB2=F ITyADJ=14
 ICtDFT=  3500011 ScaDFX=  1.000000  1.000000  1.000000  1.000000
 Defaulting to unpruned grid for atomic number  77.
 FoFCou: FMM=F IPFlag=           0 FMFlag=      100000 FMFlg1=        2001
         NFxFlg=           0 DoJE=T BraDBF=F KetDBF=T FulRan=T
         wScrn=  0.000000 ICntrl=       500 IOpCl=  0 I1Cent=   200000004 NGrid=           0
         NMat0=    1 NMatS0=      1 NMatT0=    0 NMatD0=    1 NMtDS0=    0 NMtDT0=    0
 Petite list used in FoFCou.
 Requested convergence on RMS density matrix=1.00D-08 within 128 cycles.
 Requested convergence on MAX density matrix=1.00D-06.
 Requested convergence on             energy=1.00D-06.
 No special actions if energy rises.
 Defaulting to unpruned grid for atomic number  77.
 Defaulting to unpruned grid for atomic number  77.
 Defaulting to unpruned grid for atomic number  77.
 Defaulting to unpruned grid for atomic number  77.
 Defaulting to unpruned grid for atomic number  77.
 Defaulting to unpruned grid for atomic number  77.
 Defaulting to unpruned grid for atomic number  77.
 Defaulting to unpruned grid for atomic number  77.
 Defaulting to unpruned grid for atomic number  77.
 Defaulting to unpruned grid for atomic number  77.
 Defaulting to unpruned grid for atomic number  77.
 Defaulting to unpruned grid for atomic number  77.
 Defaulting to unpruned grid for atomic number  77.
 Defaulting to unpruned grid for atomic number  77.
 Defaulting to unpruned grid for atomic number  77.
 Defaulting to unpruned grid for atomic number  77.
 SCF Done:  E(RM06) =  -1832.74227078     A.U. after   15 cycles
            NFock= 15  Conv=0.57D-08     -V/T= 2.0471
 DoSCS=F DFT=T ScalE2(SS,OS)=  1.000000  1.000000
 Range of M.O.s used for correlation:     1   656
 NBasis=   656 NAE=   153 NBE=   153 NFC=     0 NFV=     0
 NROrb=    656 NOA=   153 NOB=   153 NVA=   503 NVB=   503
   1 Symmetry operations used in ECPInt.
 ECPInt:  NShTT=   31878 NPrTT=  193976 LenC2=   25887 LenP2D=   83545.
 LDataN:  DoStor=T MaxTD1= 7 Len=  274
 Number of processors reduced to  11 by ecpmxn.
 Symmetrizing basis deriv contribution to polar:
 IMax=3 JMax=2 DiffMx= 0.00D+00
 G2DrvN: will do    85 centers at a time, making    1 passes.
 Calling FoFCou, ICntrl=  3107 FMM=T I1Cent=   0 AccDes= 0.00D+00.
 Defaulting to unpruned grid for atomic number  77.
 Defaulting to unpruned grid for atomic number  77.
 Defaulting to unpruned grid for atomic number  77.
 Defaulting to unpruned grid for atomic number  77.
 Defaulting to unpruned grid for atomic number  77.
 Defaulting to unpruned grid for atomic number  77.
 Defaulting to unpruned grid for atomic number  77.
 Defaulting to unpruned grid for atomic number  77.
 Defaulting to unpruned grid for atomic number  77.
 Defaulting to unpruned grid for atomic number  77.
 Defaulting to unpruned grid for atomic number  77.
 Defaulting to unpruned grid for atomic number  77.
 Defaulting to unpruned grid for atomic number  77.
 Defaulting to unpruned grid for atomic number  77.
 Defaulting to unpruned grid for atomic number  77.
 Defaulting to unpruned grid for atomic number  77.
 End of G2Drv F.D. properties file   721 does not exist.
 End of G2Drv F.D. properties file   722 does not exist.
 End of G2Drv F.D. properties file   788 does not exist.
          IDoAtm=11111111111111111111111111111111111111111111111111
          IDoAtm=1111111111111111111111111111111111
          Differentiating once with respect to electric field.
                with respect to dipole field.
          Differentiating once with respect to nuclear coordinates.
 Defaulting to unpruned grid for atomic number  77.
 CalDSu exits because no D1Ps are significant.
 Defaulting to unpruned grid for atomic number  77.
 Defaulting to unpruned grid for atomic number  77.
 Defaulting to unpruned grid for atomic number  77.
 Defaulting to unpruned grid for atomic number  77.
 Defaulting to unpruned grid for atomic number  77.
 Defaulting to unpruned grid for atomic number  77.
 Defaulting to unpruned grid for atomic number  77.
 Defaulting to unpruned grid for atomic number  77.
 Defaulting to unpruned grid for atomic number  77.
 Defaulting to unpruned grid for atomic number  77.
 Defaulting to unpruned grid for atomic number  77.
 Defaulting to unpruned grid for atomic number  77.
 Defaulting to unpruned grid for atomic number  77.
 Defaulting to unpruned grid for atomic number  77.
 Defaulting to unpruned grid for atomic number  77.
 Defaulting to unpruned grid for atomic number  77.
          There are   255 degrees of freedom in the 1st order CPHF.  IDoFFX=6 NUNeed=     3.
    252 vectors produced by pass  0 Test12= 7.70D-14 1.00D-09 XBig12= 3.66D+02 4.59D+00.
 AX will form    72 AO Fock derivatives at one time.
    252 vectors produced by pass  1 Test12= 7.70D-14 1.00D-09 XBig12= 8.68D+01 1.18D+00.
    252 vectors produced by pass  2 Test12= 7.70D-14 1.00D-09 XBig12= 2.10D+00 2.59D-01.
    252 vectors produced by pass  3 Test12= 7.70D-14 1.00D-09 XBig12= 1.52D-02 2.49D-02.
    252 vectors produced by pass  4 Test12= 7.70D-14 1.00D-09 XBig12= 5.47D-05 8.82D-04.
    231 vectors produced by pass  5 Test12= 7.70D-14 1.00D-09 XBig12= 1.13D-07 2.29D-05.
     62 vectors produced by pass  6 Test12= 7.70D-14 1.00D-09 XBig12= 1.63D-10 8.68D-07.
      3 vectors produced by pass  7 Test12= 7.70D-14 1.00D-09 XBig12= 2.19D-13 3.02D-08.
      1 vectors produced by pass  8 Test12= 7.70D-14 1.00D-09 XBig12= 2.98D-16 1.04D-09.
 InvSVY:  IOpt=1 It=  1 EMax= 2.13D-14
 Solved reduced A of dimension  1557 with   255 vectors.
 Isotropic polarizability for W=    0.000000      385.49 Bohr**3.
 End of Minotr F.D. properties file   721 does not exist.
 End of Minotr F.D. properties file   722 does not exist.
 End of Minotr F.D. properties file   788 does not exist.

 **********************************************************************

            Population analysis using the SCF Density.

 **********************************************************************

 Orbital symmetries:
       Occupied  (A) (A) (A) (A) (A) (A) (A) (A) (A) (A) (A) (A)
                 (A) (A) (A) (A) (A) (A) (A) (A) (A) (A) (A) (A)
                 (A) (A) (A) (A) (A) (A) (A) (A) (A) (A) (A) (A)
                 (A) (A) (A) (A) (A) (A) (A) (A) (A) (A) (A) (A)
                 (A) (A) (A) (A) (A) (A) (A) (A) (A) (A) (A) (A)
                 (A) (A) (A) (A) (A) (A) (A) (A) (A) (A) (A) (A)
                 (A) (A) (A) (A) (A) (A) (A) (A) (A) (A) (A) (A)
                 (A) (A) (A) (A) (A) (A) (A) (A) (A) (A) (A) (A)
                 (A) (A) (A) (A) (A) (A) (A) (A) (A) (A) (A) (A)
                 (A) (A) (A) (A) (A) (A) (A) (A) (A) (A) (A) (A)
                 (A) (A) (A) (A) (A) (A) (A) (A) (A) (A) (A) (A)
                 (A) (A) (A) (A) (A) (A) (A) (A) (A) (A) (A) (A)
                 (A) (A) (A) (A) (A) (A) (A) (A) (A)
       Virtual   (A) (A) (A) (A) (A) (A) (A) (A) (A) (A) (A) (A)
                 (A) (A) (A) (A) (A) (A) (A) (A) (A) (A) (A) (A)
                 (A) (A) (A) (A) (A) (A) (A) (A) (A) (A) (A) (A)
                 (A) (A) (A) (A) (A) (A) (A) (A) (A) (A) (A) (A)
                 (A) (A) (A) (A) (A) (A) (A) (A) (A) (A) (A) (A)
                 (A) (A) (A) (A) (A) (A) (A) (A) (A) (A) (A) (A)
                 (A) (A) (A) (A) (A) (A) (A) (A) (A) (A) (A) (A)
                 (A) (A) (A) (A) (A) (A) (A) (A) (A) (A) (A) (A)
                 (A) (A) (A) (A) (A) (A) (A) (A) (A) (A) (A) (A)
                 (A) (A) (A) (A) (A) (A) (A) (A) (A) (A) (A) (A)
                 (A) (A) (A) (A) (A) (A) (A) (A) (A) (A) (A) (A)
                 (A) (A) (A) (A) (A) (A) (A) (A) (A) (A) (A) (A)
                 (A) (A) (A) (A) (A) (A) (A) (A) (A) (A) (A) (A)
                 (A) (A) (A) (A) (A) (A) (A) (A) (A) (A) (A) (A)
                 (A) (A) (A) (A) (A) (A) (A) (A) (A) (A) (A) (A)
                 (A) (A) (A) (A) (A) (A) (A) (A) (A) (A) (A) (A)
                 (A) (A) (A) (A) (A) (A) (A) (A) (A) (A) (A) (A)
                 (A) (A) (A) (A) (A) (A) (A) (A) (A) (A) (A) (A)
                 (A) (A) (A) (A) (A) (A) (A) (A) (A) (A) (A) (A)
                 (A) (A) (A) (A) (A) (A) (A) (A) (A) (A) (A) (A)
                 (A) (A) (A) (A) (A) (A) (A) (A) (A) (A) (A) (A)
                 (A) (A) (A) (A) (A) (A) (A) (A) (A) (A) (A) (A)
                 (A) (A) (A) (A) (A) (A) (A) (A) (A) (A) (A) (A)
                 (A) (A) (A) (A) (A) (A) (A) (A) (A) (A) (A) (A)
                 (A) (A) (A) (A) (A) (A) (A) (A) (A) (A) (A) (A)
                 (A) (A) (A) (A) (A) (A) (A) (A) (A) (A) (A) (A)
                 (A) (A) (A) (A) (A) (A) (A) (A) (A) (A) (A) (A)
                 (A) (A) (A) (A) (A) (A) (A) (A) (A) (A) (A) (A)
                 (A) (A) (A) (A) (A) (A) (A) (A) (A) (A) (A) (A)
                 (A) (A) (A) (A) (A) (A) (A) (A) (A) (A) (A) (A)
                 (A) (A) (A) (A) (A) (A) (A) (A) (A) (A) (A) (A)
                 (A) (A) (A) (A) (A) (A) (A) (A) (A) (A) (A) (A)
                 (A) (A) (A) (A) (A) (A) (A) (A) (A) (A) (A) (A)
                 (A) (A) (A) (A) (A) (A) (A) (A) (A) (A) (A) (A)
                 (A) (A) (A) (A) (A) (A) (A) (A) (A) (A) (A) (A)
                 (A) (A) (A) (A) (A) (A) (A) (A) (A) (A) (A) (A)
                 (A) (A) (A) (A) (A) (A) (A) (A) (A) (A) (A) (A)
                 (A) (A) (A) (A) (A) (A) (A) (A) (A) (A) (A) (A)
                 (A) (A) (A) (A) (A) (A) (A) (A) (A) (A) (A) (A)
                 (A) (A) (A) (A) (A) (A) (A) (A) (A) (A) (A) (A)
                 (A) (A) (A) (A) (A) (A) (A) (A) (A) (A) (A) (A)
                 (A) (A) (A) (A) (A) (A) (A) (A) (A) (A) (A)
 The electronic state is 1-A.
 Alpha  occ. eigenvalues --  -19.20025 -19.19612 -19.19254 -19.19247 -19.18917
 Alpha  occ. eigenvalues --  -19.18913 -14.45056 -14.41338 -10.32088 -10.30804
 Alpha  occ. eigenvalues --  -10.30628 -10.29517 -10.29052 -10.28951 -10.28865
 Alpha  occ. eigenvalues --  -10.28586 -10.28498 -10.28304 -10.28286 -10.28264
 Alpha  occ. eigenvalues --  -10.28075 -10.27687 -10.27206 -10.26532 -10.22687
 Alpha  occ. eigenvalues --  -10.22472 -10.22173 -10.22106 -10.22072 -10.21997
 Alpha  occ. eigenvalues --  -10.21972 -10.21826 -10.21447 -10.21286 -10.21191
 Alpha  occ. eigenvalues --  -10.20969  -6.79577  -6.78992  -6.78900  -3.59427
 Alpha  occ. eigenvalues --   -2.02577  -2.01610  -2.00721  -1.05726  -1.05270
 Alpha  occ. eigenvalues --   -1.04875  -0.99608  -0.98845  -0.98261  -0.98049
 Alpha  occ. eigenvalues --   -0.96340  -0.84167  -0.82370  -0.82064  -0.79947
 Alpha  occ. eigenvalues --   -0.79662  -0.79310  -0.76853  -0.74417  -0.74165
 Alpha  occ. eigenvalues --   -0.73827  -0.69907  -0.69736  -0.69372  -0.68126
 Alpha  occ. eigenvalues --   -0.67175  -0.67027  -0.66711  -0.66632  -0.64812
 Alpha  occ. eigenvalues --   -0.62675  -0.61252  -0.60794  -0.60333  -0.56532
 Alpha  occ. eigenvalues --   -0.54317  -0.53872  -0.53541  -0.53211  -0.52930
 Alpha  occ. eigenvalues --   -0.52542  -0.52180  -0.52072  -0.50547  -0.49351
 Alpha  occ. eigenvalues --   -0.47277  -0.46777  -0.46492  -0.46108  -0.45731
 Alpha  occ. eigenvalues --   -0.45582  -0.45289  -0.45097  -0.44800  -0.44022
 Alpha  occ. eigenvalues --   -0.43918  -0.43747  -0.43361  -0.43109  -0.42882
 Alpha  occ. eigenvalues --   -0.42537  -0.42031  -0.41922  -0.40639  -0.40172
 Alpha  occ. eigenvalues --   -0.39754  -0.39565  -0.39412  -0.39216  -0.39123
 Alpha  occ. eigenvalues --   -0.38935  -0.38808  -0.38653  -0.38415  -0.38227
 Alpha  occ. eigenvalues --   -0.37858  -0.37733  -0.37136  -0.36940  -0.36590
 Alpha  occ. eigenvalues --   -0.36177  -0.35934  -0.35586  -0.35471  -0.35385
 Alpha  occ. eigenvalues --   -0.35281  -0.34971  -0.34417  -0.34273  -0.33832
 Alpha  occ. eigenvalues --   -0.33070  -0.32295  -0.32187  -0.31611  -0.31215
 Alpha  occ. eigenvalues --   -0.30708  -0.30442  -0.30404  -0.29832  -0.29641
 Alpha  occ. eigenvalues --   -0.29352  -0.29265  -0.28995  -0.27984  -0.27646
 Alpha  occ. eigenvalues --   -0.27398  -0.26570  -0.25675  -0.25073  -0.24843
 Alpha  occ. eigenvalues --   -0.21369  -0.19965  -0.19062
 Alpha virt. eigenvalues --   -0.05285  -0.03133  -0.02242  -0.01542   0.00935
 Alpha virt. eigenvalues --    0.01814   0.04688   0.06415   0.06913   0.08041
 Alpha virt. eigenvalues --    0.08889   0.10278   0.10398   0.10484   0.12033
 Alpha virt. eigenvalues --    0.12595   0.12977   0.13384   0.13459   0.13883
 Alpha virt. eigenvalues --    0.13982   0.14341   0.14384   0.14634   0.14896
 Alpha virt. eigenvalues --    0.15141   0.15180   0.15620   0.15941   0.16074
 Alpha virt. eigenvalues --    0.16267   0.16508   0.16682   0.16885   0.17030
 Alpha virt. eigenvalues --    0.17254   0.17290   0.17590   0.17776   0.17989
 Alpha virt. eigenvalues --    0.18515   0.18921   0.19184   0.19338   0.19607
 Alpha virt. eigenvalues --    0.19778   0.19895   0.20063   0.20294   0.20670
 Alpha virt. eigenvalues --    0.20899   0.21282   0.21304   0.21526   0.21575
 Alpha virt. eigenvalues --    0.21862   0.22091   0.23028   0.23401   0.24028
 Alpha virt. eigenvalues --    0.24145   0.24508   0.24897   0.25127   0.25413
 Alpha virt. eigenvalues --    0.25574   0.26116   0.26216   0.26805   0.27084
 Alpha virt. eigenvalues --    0.27155   0.27400   0.27900   0.28215   0.28549
 Alpha virt. eigenvalues --    0.29089   0.29432   0.29487   0.29638   0.29837
 Alpha virt. eigenvalues --    0.30721   0.31223   0.31470   0.32109   0.32380
 Alpha virt. eigenvalues --    0.32729   0.33387   0.34351   0.34792   0.36249
 Alpha virt. eigenvalues --    0.36554   0.37052   0.38341   0.39636   0.41573
 Alpha virt. eigenvalues --    0.41912   0.42530   0.43381   0.45846   0.47263
 Alpha virt. eigenvalues --    0.47829   0.48270   0.49806   0.50333   0.50660
 Alpha virt. eigenvalues --    0.50955   0.51472   0.51790   0.51974   0.52214
 Alpha virt. eigenvalues --    0.52525   0.52861   0.53402   0.53772   0.55061
 Alpha virt. eigenvalues --    0.55132   0.55861   0.56469   0.56666   0.57122
 Alpha virt. eigenvalues --    0.57601   0.57827   0.58162   0.58392   0.58615
 Alpha virt. eigenvalues --    0.58653   0.58892   0.59208   0.59399   0.59618
 Alpha virt. eigenvalues --    0.59813   0.60203   0.60397   0.60804   0.61139
 Alpha virt. eigenvalues --    0.61804   0.62190   0.62344   0.62667   0.63060
 Alpha virt. eigenvalues --    0.63448   0.63892   0.64445   0.65296   0.65534
 Alpha virt. eigenvalues --    0.66124   0.66647   0.67006   0.67130   0.67748
 Alpha virt. eigenvalues --    0.68247   0.68775   0.69036   0.69546   0.69886
 Alpha virt. eigenvalues --    0.70379   0.70857   0.71380   0.72110   0.72350
 Alpha virt. eigenvalues --    0.72842   0.73174   0.73431   0.73793   0.73926
 Alpha virt. eigenvalues --    0.74473   0.74711   0.74962   0.75596   0.75979
 Alpha virt. eigenvalues --    0.76855   0.77467   0.77643   0.77810   0.77930
 Alpha virt. eigenvalues --    0.78555   0.78768   0.79365   0.79990   0.80396
 Alpha virt. eigenvalues --    0.80991   0.81190   0.81984   0.82172   0.82557
 Alpha virt. eigenvalues --    0.82807   0.83090   0.83816   0.84229   0.84544
 Alpha virt. eigenvalues --    0.84720   0.85203   0.85406   0.85753   0.86242
 Alpha virt. eigenvalues --    0.86404   0.86586   0.87218   0.87444   0.87932
 Alpha virt. eigenvalues --    0.88107   0.88262   0.89010   0.89305   0.89397
 Alpha virt. eigenvalues --    0.89453   0.89842   0.90075   0.90356   0.90650
 Alpha virt. eigenvalues --    0.90922   0.91152   0.91376   0.91759   0.91811
 Alpha virt. eigenvalues --    0.92273   0.92637   0.92922   0.93300   0.93713
 Alpha virt. eigenvalues --    0.94238   0.94460   0.94960   0.95480   0.95925
 Alpha virt. eigenvalues --    0.96076   0.96685   0.96780   0.97356   0.97456
 Alpha virt. eigenvalues --    0.97574   0.98368   0.98841   0.99518   0.99578
 Alpha virt. eigenvalues --    1.00145   1.00512   1.00846   1.01511   1.02444
 Alpha virt. eigenvalues --    1.02809   1.03030   1.03524   1.04401   1.04704
 Alpha virt. eigenvalues --    1.05369   1.06447   1.07352   1.08111   1.08536
 Alpha virt. eigenvalues --    1.09038   1.10010   1.10825   1.11450   1.12769
 Alpha virt. eigenvalues --    1.13770   1.14447   1.16674   1.17011   1.18934
 Alpha virt. eigenvalues --    1.20061   1.20724   1.21518   1.21700   1.22171
 Alpha virt. eigenvalues --    1.22245   1.23509   1.23795   1.24644   1.25107
 Alpha virt. eigenvalues --    1.26151   1.26366   1.26995   1.27995   1.29530
 Alpha virt. eigenvalues --    1.30071   1.31181   1.32067   1.32838   1.33525
 Alpha virt. eigenvalues --    1.34966   1.35744   1.36653   1.37548   1.38697
 Alpha virt. eigenvalues --    1.39209   1.40019   1.41415   1.41809   1.42477
 Alpha virt. eigenvalues --    1.42696   1.43877   1.44698   1.45280   1.45628
 Alpha virt. eigenvalues --    1.46416   1.46606   1.47188   1.47466   1.48286
 Alpha virt. eigenvalues --    1.49256   1.49972   1.50286   1.50450   1.50662
 Alpha virt. eigenvalues --    1.51857   1.53762   1.55358   1.56275   1.57517
 Alpha virt. eigenvalues --    1.58739   1.59813   1.60318   1.61375   1.62549
 Alpha virt. eigenvalues --    1.62835   1.64051   1.64732   1.65777   1.66019
 Alpha virt. eigenvalues --    1.66694   1.67949   1.68240   1.68781   1.69588
 Alpha virt. eigenvalues --    1.70357   1.70684   1.71556   1.72604   1.74057
 Alpha virt. eigenvalues --    1.74606   1.76711   1.77219   1.77668   1.78673
 Alpha virt. eigenvalues --    1.79312   1.79828   1.80900   1.81271   1.81740
 Alpha virt. eigenvalues --    1.81892   1.82429   1.82810   1.84083   1.84702
 Alpha virt. eigenvalues --    1.85412   1.86396   1.86469   1.86819   1.87024
 Alpha virt. eigenvalues --    1.88084   1.88212   1.89327   1.90091   1.90832
 Alpha virt. eigenvalues --    1.91313   1.91763   1.92132   1.92281   1.92479
 Alpha virt. eigenvalues --    1.92910   1.93248   1.93497   1.93974   1.94098
 Alpha virt. eigenvalues --    1.94729   1.95681   1.96160   1.96372   1.98007
 Alpha virt. eigenvalues --    1.99088   1.99645   2.01346   2.01502   2.02537
 Alpha virt. eigenvalues --    2.02918   2.03340   2.03635   2.04006   2.04801
 Alpha virt. eigenvalues --    2.05449   2.06549   2.07157   2.07380   2.07508
 Alpha virt. eigenvalues --    2.07922   2.08318   2.08502   2.09240   2.10923
 Alpha virt. eigenvalues --    2.11306   2.11969   2.12045   2.12384   2.14322
 Alpha virt. eigenvalues --    2.14709   2.14938   2.15405   2.15500   2.15928
 Alpha virt. eigenvalues --    2.17052   2.17498   2.18274   2.18654   2.19083
 Alpha virt. eigenvalues --    2.19392   2.19750   2.19899   2.20113   2.20614
 Alpha virt. eigenvalues --    2.21077   2.21916   2.22370   2.22794   2.23198
 Alpha virt. eigenvalues --    2.23272   2.23579   2.24542   2.24875   2.25534
 Alpha virt. eigenvalues --    2.26036   2.26613   2.27232   2.27808   2.28420
 Alpha virt. eigenvalues --    2.29437   2.30826   2.31268   2.32153   2.32434
 Alpha virt. eigenvalues --    2.32722   2.33499   2.33850   2.34054   2.34647
 Alpha virt. eigenvalues --    2.35153   2.35225   2.36407   2.37235   2.38976
 Alpha virt. eigenvalues --    2.39493   2.39775   2.40737   2.44615   2.46775
 Alpha virt. eigenvalues --    2.47157   2.48902   2.49045   2.49234   2.49754
 Alpha virt. eigenvalues --    2.50155   2.52062   2.52232   2.53833   2.54207
 Alpha virt. eigenvalues --    2.55473   2.59724   2.60154   2.60910   2.62184
 Alpha virt. eigenvalues --    2.63463   2.64933   2.65184   2.65990   2.66102
 Alpha virt. eigenvalues --    2.66577   2.68287   2.69399   2.70273   2.76765
 Alpha virt. eigenvalues --    2.78406   2.78685   2.78790   2.79268   2.79966
 Alpha virt. eigenvalues --    2.80076   2.80575   2.80988   2.81682   2.82031
 Alpha virt. eigenvalues --    2.82640   2.83577   2.85092   2.85718   2.87269
 Alpha virt. eigenvalues --    2.89885   2.90875   2.91058   2.93295   2.96453
 Alpha virt. eigenvalues --    2.96920   2.97520   3.05611   3.05977   3.06515
 Alpha virt. eigenvalues --    3.07465   3.10092   3.11470   3.12495   3.13612
 Alpha virt. eigenvalues --    3.35173   3.39233   9.48676
          Condensed to atoms (all electrons):
 Mulliken charges:
               1
     1  C    0.043843
     2  H    0.229638
     3  C   -0.179503
     4  C   -0.126745
     5  H    0.186327
     6  C   -0.179237
     7  C   -0.126767
     8  C   -0.125222
     9  H    0.180969
    10  C   -0.145470
    11  C    0.027322
    12  H    0.175919
    13  C    0.063285
    14  C    0.304851
    15  C    0.294278
    16  C    0.301016
    17  C   -0.514447
    18  H    0.197234
    19  H    0.143116
    20  H    0.164729
    21  C   -0.513686
    22  H    0.166614
    23  H    0.152309
    24  H    0.163800
    25  C   -0.507059
    26  H    0.163005
    27  H    0.146017
    28  H    0.182263
    29  C   -0.508018
    30  H    0.171392
    31  H    0.147991
    32  H    0.169037
    33  C    0.293253
    34  C    0.304405
    35  C   -0.513522
    36  H    0.191352
    37  H    0.141779
    38  H    0.163135
    39  C   -0.509361
    40  H    0.166946
    41  H    0.149915
    42  H    0.155729
    43  C   -0.510107
    44  H    0.163704
    45  H    0.145873
    46  H    0.178856
    47  C   -0.494416
    48  H    0.153748
    49  H    0.146259
    50  H    0.165818
    51  B    0.489116
    52  B    0.483350
    53  N   -0.496358
    54  N   -0.340906
    55  O   -0.537147
    56  O   -0.509344
    57  O   -0.532733
    58  O   -0.521346
    59  Ir  -0.099298
    60  H    0.184773
    61  H    0.174732
    62  B    0.524691
    63  O   -0.518878
    64  O   -0.529807
    65  C    0.297796
    66  C    0.298259
    67  C   -0.507637
    68  C   -0.509450
    69  C   -0.509208
    70  C   -0.506819
    71  H    0.181715
    72  H    0.145544
    73  H    0.164408
    74  H    0.161915
    75  H    0.146011
    76  H    0.177363
    77  H    0.160234
    78  H    0.147145
    79  H    0.170889
    80  H    0.190342
    81  H    0.141014
    82  H    0.154425
    83  H    0.188172
    84  H    0.194862
 Sum of Mulliken charges =  -0.00000
 Mulliken charges with hydrogens summed into heavy atoms:
               1
     1  C    0.273480
     3  C    0.005270
     4  C    0.059583
     6  C    0.008935
     7  C    0.068096
     8  C    0.055747
    10  C    0.029263
    11  C    0.203242
    13  C    0.063285
    14  C    0.304851
    15  C    0.294278
    16  C    0.301016
    17  C   -0.009367
    21  C   -0.030964
    25  C   -0.015774
    29  C   -0.019597
    33  C    0.293253
    34  C    0.304405
    35  C   -0.017255
    39  C   -0.036770
    43  C   -0.021674
    47  C   -0.028591
    51  B    0.489116
    52  B    0.483350
    53  N   -0.496358
    54  N   -0.340906
    55  O   -0.537147
    56  O   -0.509344
    57  O   -0.532733
    58  O   -0.521346
    59  Ir  -0.099298
    62  B    0.524691
    63  O   -0.518878
    64  O   -0.529807
    65  C    0.297796
    66  C    0.298259
    67  C   -0.015970
    68  C   -0.024160
    69  C   -0.030940
    70  C   -0.021038
 APT charges:
               1
     1  C    0.141888
     2  H    0.113008
     3  C   -0.128692
     4  C    0.140958
     5  H    0.027441
     6  C   -0.179379
     7  C   -0.151891
     8  C    0.091138
     9  H    0.042170
    10  C   -0.074079
    11  C    0.196533
    12  H    0.015193
    13  C    0.224419
    14  C    0.269599
    15  C    0.513792
    16  C    0.508411
    17  C   -0.045614
    18  H    0.041767
    19  H   -0.026841
    20  H   -0.000206
    21  C   -0.011765
    22  H   -0.004805
    23  H   -0.016037
    24  H   -0.002546
    25  C   -0.009393
    26  H   -0.004782
    27  H   -0.020393
    28  H    0.009928
    29  C   -0.035062
    30  H    0.001122
    31  H   -0.024023
    32  H    0.003260
    33  C    0.496537
    34  C    0.470608
    35  C   -0.045860
    36  H    0.037920
    37  H   -0.026857
    38  H   -0.002465
    39  C   -0.009749
    40  H   -0.004298
    41  H   -0.018541
    42  H   -0.009582
    43  C   -0.000644
    44  H   -0.006061
    45  H   -0.019496
    46  H    0.007623
    47  C   -0.018518
    48  H   -0.010320
    49  H   -0.026567
    50  H    0.001911
    51  B    1.252700
    52  B    1.171935
    53  N   -0.365230
    54  N   -0.400086
    55  O   -1.029778
    56  O   -0.981341
    57  O   -0.971335
    58  O   -0.938868
    59  Ir  -0.440695
    60  H    0.032235
    61  H    0.039373
    62  B    1.193231
    63  O   -0.962387
    64  O   -0.977165
    65  C    0.498339
    66  C    0.513031
    67  C   -0.025251
    68  C   -0.007535
    69  C   -0.011240
    70  C   -0.053678
    71  H    0.005611
    72  H   -0.025276
    73  H   -0.004489
    74  H   -0.007588
    75  H   -0.020480
    76  H    0.007371
    77  H   -0.007702
    78  H   -0.017787
    79  H    0.002016
    80  H    0.040283
    81  H   -0.029380
    82  H   -0.004314
    83  H    0.045529
    84  H    0.059190
 Sum of APT charges =  -0.00000
 APT charges with hydrogens summed into heavy atoms:
               1
     1  C    0.254896
     3  C   -0.096456
     4  C    0.168399
     6  C   -0.133850
     7  C   -0.092700
     8  C    0.133308
    10  C   -0.034706
    11  C    0.211726
    13  C    0.224419
    14  C    0.269599
    15  C    0.513792
    16  C    0.508411
    17  C   -0.030894
    21  C   -0.035152
    25  C   -0.024640
    29  C   -0.054703
    33  C    0.496537
    34  C    0.470608
    35  C   -0.037262
    39  C   -0.042170
    43  C   -0.018578
    47  C   -0.053495
    51  B    1.252700
    52  B    1.171935
    53  N   -0.365230
    54  N   -0.400086
    55  O   -1.029778
    56  O   -0.981341
    57  O   -0.971335
    58  O   -0.938868
    59  Ir  -0.440695
    62  B    1.193231
    63  O   -0.962387
    64  O   -0.977165
    65  C    0.498339
    66  C    0.513031
    67  C   -0.049404
    68  C   -0.028232
    69  C   -0.034713
    70  C   -0.047089
 Electronic spatial extent (au):  <R**2>=          18258.6799
 Charge=             -0.0000 electrons
 Dipole moment (field-independent basis, Debye):
    X=              4.3679    Y=             -0.0389    Z=             -1.5687  Tot=              4.6413
 Quadrupole moment (field-independent basis, Debye-Ang):
   XX=           -221.7837   YY=           -230.6024   ZZ=           -251.3796
   XY=              5.6268   XZ=             -5.3544   YZ=              1.9780
 Traceless Quadrupole moment (field-independent basis, Debye-Ang):
   XX=             12.8049   YY=              3.9862   ZZ=            -16.7910
   XY=              5.6268   XZ=             -5.3544   YZ=              1.9780
 Octapole moment (field-independent basis, Debye-Ang**2):
  XXX=            244.0871  YYY=             13.7796  ZZZ=              6.5254  XYY=             50.2498
  XXY=             54.5719  XXZ=            -21.3187  XZZ=             -7.2747  YZZ=            -13.8296
  YYZ=            -11.8150  XYZ=              7.5539
 Hexadecapole moment (field-independent basis, Debye-Ang**3):
 XXXX=          -8326.5345 YYYY=          -8489.0657 ZZZZ=          -6483.6838 XXXY=            330.0587
 XXXZ=            -58.8972 YYYX=            -10.4002 YYYZ=             -7.8633 ZZZX=            -43.7035
 ZZZY=              7.7249 XXYY=          -2854.5083 XXZZ=          -2657.9376 YYZZ=          -2542.6267
 XXYZ=             34.1149 YYXZ=             25.1054 ZZXY=             16.3799
 N-N= 5.568754099995D+03 E-N=-1.538199753190D+04  KE= 1.750317042479D+03
  Exact polarizability:     392.751      21.189     416.705      -1.307       2.440     347.020
 Approx polarizability:     556.801      24.783     605.534      -4.701       4.831     526.733
   1 Symmetry operations used in ECPInt.
 ECPInt:  NShTT=   31878 NPrTT=  193976 LenC2=   25887 LenP2D=   83545.
 LDataN:  DoStor=T MaxTD1= 8 Len=  415
 Calling FoFJK, ICntrl=    100127 FMM=F ISym2X=0 I1Cent= 0 IOpClX= 0 NMat=1 NMatS=1 NMatT=0.
 Defaulting to unpruned grid for atomic number  77.
 Defaulting to unpruned grid for atomic number  77.
 Defaulting to unpruned grid for atomic number  77.
 Defaulting to unpruned grid for atomic number  77.
 Defaulting to unpruned grid for atomic number  77.
 Defaulting to unpruned grid for atomic number  77.
 Defaulting to unpruned grid for atomic number  77.
 Defaulting to unpruned grid for atomic number  77.
 Defaulting to unpruned grid for atomic number  77.
 Defaulting to unpruned grid for atomic number  77.
 Defaulting to unpruned grid for atomic number  77.
 Defaulting to unpruned grid for atomic number  77.
 Defaulting to unpruned grid for atomic number  77.
 Defaulting to unpruned grid for atomic number  77.
 Defaulting to unpruned grid for atomic number  77.
 Defaulting to unpruned grid for atomic number  77.
 Full mass-weighted force constant matrix:
 Low frequencies ---  -78.1991   -5.5814   -2.8563   -0.0004   -0.0003    0.0003
 Low frequencies ---    7.4340   16.4560   25.5789
 ******    1 imaginary frequencies (negative Signs) ****** 
 Diagonal vibrational polarizability:
       54.5681666      64.4666600     102.9451191
 Harmonic frequencies (cm**-1), IR intensities (KM/Mole), Raman scattering
 activities (A**4/AMU), depolarization ratios for plane and unpolarized
 incident light, reduced masses (AMU), force constants (mDyne/A),
 and normal coordinates:
                      1                      2                      3
                      A                      A                      A
 Frequencies --    -78.1222                16.3523                25.3161
 Red. masses --      4.9977                 5.2127                 3.6130
 Frc consts  --      0.0180                 0.0008                 0.0014
 IR Inten    --      0.9986                 0.3304                 0.3359
  Atom AN      X      Y      Z        X      Y      Z        X      Y      Z
     1   6    -0.01   0.01  -0.05    -0.01  -0.00   0.14    -0.02   0.01   0.02
     2   1    -0.01   0.01  -0.11    -0.01  -0.00   0.13    -0.03  -0.00   0.04
     3   6    -0.00   0.00   0.01    -0.00   0.00   0.24    -0.03   0.02   0.00
     4   6     0.00  -0.00   0.11     0.00   0.01   0.25    -0.02   0.03  -0.03
     5   1     0.00  -0.00   0.15     0.00   0.01   0.32    -0.02   0.04  -0.04
     6   6     0.00  -0.00   0.15     0.01   0.01   0.16    -0.01   0.03  -0.04
     7   6    -0.22   0.11   0.08     0.05   0.07  -0.07    -0.01   0.03  -0.05
     8   6    -0.19   0.09   0.07     0.05   0.06  -0.16    -0.00   0.02  -0.06
     9   1    -0.33   0.16   0.07     0.09   0.11  -0.19    -0.02   0.04  -0.06
    10   6     0.02  -0.01   0.08     0.01  -0.00  -0.20     0.02   0.00  -0.07
    11   6     0.22  -0.11   0.08    -0.04  -0.06  -0.15     0.04  -0.02  -0.06
    12   1     0.41  -0.21   0.09    -0.08  -0.11  -0.18     0.07  -0.04  -0.06
    13   6    -0.00  -0.00   0.08     0.00   0.01  -0.03     0.01   0.01  -0.04
    14   6    -0.00  -0.00   0.07     0.00   0.01   0.07    -0.00   0.01  -0.03
    15   6    -0.00   0.01   0.00     0.01  -0.00  -0.05    -0.02  -0.01   0.02
    16   6     0.00   0.01   0.00    -0.02  -0.02  -0.02     0.08   0.02  -0.06
    17   6    -0.01   0.01   0.00     0.03   0.02  -0.03    -0.14  -0.05  -0.05
    18   1    -0.01   0.01   0.00     0.04   0.02  -0.01    -0.17  -0.05  -0.11
    19   1    -0.01   0.01  -0.00     0.03   0.02  -0.03    -0.13  -0.04  -0.10
    20   1    -0.01   0.01   0.00     0.05   0.04  -0.05    -0.21  -0.08   0.02
    21   6     0.00   0.01   0.00     0.01  -0.01  -0.08     0.00  -0.01   0.11
    22   1    -0.00   0.01   0.00     0.02   0.01  -0.10    -0.08  -0.03   0.17
    23   1     0.00   0.01  -0.00     0.00  -0.01  -0.08     0.02  -0.00   0.05
    24   1     0.00   0.00   0.00    -0.01  -0.02  -0.10     0.08   0.01   0.18
    25   6     0.00   0.01  -0.00    -0.02  -0.02   0.00     0.08   0.05  -0.20
    26   1     0.00   0.01  -0.00    -0.03  -0.03   0.02     0.16   0.08  -0.26
    27   1     0.00   0.01  -0.01    -0.02  -0.02  -0.00     0.11   0.06  -0.20
    28   1    -0.00   0.01  -0.00     0.00  -0.01   0.02    -0.02   0.04  -0.26
    29   6     0.01  -0.00   0.00    -0.04  -0.04  -0.04     0.22   0.03   0.00
    30   1     0.01  -0.00   0.01    -0.04  -0.04  -0.06     0.22   0.03   0.11
    31   1     0.01  -0.00  -0.00    -0.05  -0.04  -0.05     0.25   0.04  -0.02
    32   1     0.01  -0.00   0.00    -0.06  -0.05  -0.02     0.29   0.04  -0.05
    33   6    -0.03   0.00  -0.01    -0.05  -0.02   0.02    -0.02  -0.01   0.02
    34   6    -0.02   0.00  -0.01    -0.02  -0.03   0.04    -0.03   0.01   0.03
    35   6    -0.04   0.00  -0.01    -0.07  -0.03   0.03    -0.01  -0.01   0.01
    36   1    -0.04   0.00  -0.01    -0.07  -0.03   0.03     0.00   0.00  -0.00
    37   1    -0.05   0.00  -0.00    -0.08  -0.04   0.04    -0.02  -0.01   0.02
    38   1    -0.05   0.00  -0.02    -0.09  -0.02   0.01    -0.01  -0.03  -0.00
    39   6    -0.04   0.01  -0.02    -0.06  -0.02   0.01    -0.03  -0.02   0.03
    40   1    -0.04   0.01  -0.02    -0.08  -0.02   0.00    -0.03  -0.03   0.03
    41   1    -0.04   0.00  -0.01    -0.07  -0.03   0.03    -0.04  -0.02   0.03
    42   1    -0.03   0.00  -0.02    -0.05  -0.02   0.00    -0.04  -0.02   0.04
    43   6    -0.02  -0.00   0.00    -0.02  -0.04   0.07    -0.02   0.02   0.03
    44   1    -0.02  -0.00   0.01    -0.00  -0.05   0.08    -0.03   0.04   0.03
    45   1    -0.03  -0.01   0.01    -0.04  -0.04   0.07    -0.03   0.01   0.03
    46   1    -0.03  -0.00   0.00    -0.04  -0.04   0.07    -0.01   0.02   0.02
    47   6    -0.02   0.00  -0.01     0.00  -0.02   0.03    -0.04   0.01   0.04
    48   1    -0.02   0.01  -0.00     0.01  -0.01   0.00    -0.04  -0.00   0.04
    49   1    -0.01   0.00  -0.01    -0.01  -0.03   0.04    -0.04   0.00   0.04
    50   1    -0.02  -0.00  -0.01     0.03  -0.02   0.05    -0.04   0.01   0.04
    51   5    -0.01   0.01   0.01     0.00  -0.01  -0.03    -0.00  -0.01   0.02
    52   5    -0.02   0.01  -0.02    -0.01  -0.01  -0.00    -0.01  -0.00   0.02
    53   7    -0.00   0.00  -0.02    -0.00   0.00   0.06    -0.01   0.00   0.00
    54   7     0.22  -0.11   0.09    -0.04  -0.06  -0.07     0.04  -0.02  -0.05
    55   8    -0.00   0.01   0.01     0.01  -0.00  -0.05    -0.04  -0.02   0.09
    56   8    -0.00   0.01   0.01    -0.01  -0.02  -0.01     0.04   0.01  -0.05
    57   8    -0.03   0.01  -0.02    -0.04  -0.01  -0.01    -0.02  -0.01   0.02
    58   8    -0.02   0.00  -0.01    -0.00  -0.02   0.03    -0.02   0.01   0.02
    59  77    -0.00   0.00  -0.04     0.00  -0.01  -0.02    -0.00  -0.01   0.01
    60   1    -0.00   0.00  -0.02    -0.01  -0.00   0.30    -0.04   0.02   0.02
    61   1     0.04  -0.02   0.08     0.01  -0.01  -0.27     0.03  -0.00  -0.07
    62   5     0.02  -0.00  -0.01     0.02   0.02   0.00     0.00  -0.00   0.02
    63   8     0.02  -0.00  -0.01     0.02   0.03   0.00    -0.02  -0.02  -0.01
    64   8     0.03  -0.00  -0.01     0.02   0.03   0.01     0.03   0.01   0.04
    65   6     0.02  -0.01  -0.01     0.03   0.04   0.01    -0.02  -0.00   0.00
    66   6     0.03  -0.01  -0.01     0.03   0.04   0.02     0.02   0.00   0.03
    67   6     0.02  -0.00  -0.01     0.05   0.05  -0.00    -0.05   0.04  -0.01
    68   6     0.02  -0.02  -0.01     0.04   0.05   0.02    -0.02  -0.04  -0.02
    69   6     0.04  -0.00  -0.01     0.03   0.05   0.03     0.03   0.04   0.05
    70   6     0.03  -0.01  -0.01     0.02   0.04   0.04     0.05  -0.04   0.04
    71   1     0.02   0.00  -0.01     0.04   0.04  -0.01    -0.04   0.06   0.01
    72   1     0.02  -0.01  -0.01     0.05   0.06   0.00    -0.05   0.05  -0.00
    73   1     0.01  -0.00  -0.01     0.05   0.05  -0.01    -0.07   0.03  -0.03
    74   1     0.02  -0.02  -0.01     0.04   0.05   0.01    -0.05  -0.04  -0.04
    75   1     0.02  -0.02  -0.01     0.04   0.06   0.03    -0.02  -0.03  -0.01
    76   1     0.02  -0.02  -0.01     0.03   0.04   0.03    -0.01  -0.07  -0.02
    77   1     0.05   0.00  -0.02     0.03   0.05   0.03     0.06   0.04   0.07
    78   1     0.03  -0.02  -0.01     0.04   0.06   0.03     0.02   0.03   0.04
    79   1     0.03   0.00  -0.01     0.04   0.05   0.01     0.01   0.07   0.05
    80   1     0.03  -0.01  -0.01     0.01   0.03   0.04     0.04  -0.06   0.03
    81   1     0.04  -0.01  -0.01     0.02   0.05   0.05     0.05  -0.05   0.04
    82   1     0.04  -0.01  -0.01     0.01   0.03   0.05     0.07  -0.03   0.06
    83   1     0.01  -0.01   0.23     0.01   0.01   0.17     0.00   0.04  -0.07
    84   1    -0.39   0.19   0.08     0.09   0.11  -0.04    -0.03   0.05  -0.04
                      4                      5                      6
                      A                      A                      A
 Frequencies --     32.4139                42.7065                45.6730
 Red. masses --      3.7049                 3.5623                 4.3433
 Frc consts  --      0.0023                 0.0038                 0.0053
 IR Inten    --      0.3323                 0.0960                 1.2190
  Atom AN      X      Y      Z        X      Y      Z        X      Y      Z
     1   6    -0.02   0.01   0.01     0.04  -0.02  -0.02     0.05  -0.04   0.00
     2   1    -0.03   0.01  -0.01     0.04  -0.01  -0.02     0.07  -0.02  -0.01
     3   6    -0.02   0.02   0.03     0.04  -0.03   0.00     0.06  -0.07   0.01
     4   6    -0.02   0.03   0.04     0.03  -0.04   0.02     0.04  -0.09   0.03
     5   1    -0.02   0.03   0.06     0.04  -0.05   0.04     0.05  -0.11   0.04
     6   6    -0.01   0.02   0.04     0.02  -0.03   0.01     0.01  -0.08   0.03
     7   6     0.03  -0.01   0.03    -0.00  -0.01  -0.02     0.01  -0.07   0.04
     8   6     0.03  -0.01   0.03    -0.01  -0.00  -0.03    -0.01  -0.06   0.05
     9   1     0.05  -0.02   0.03    -0.03   0.01  -0.03     0.02  -0.08   0.05
    10   6    -0.00   0.01   0.03    -0.01  -0.01  -0.03    -0.06  -0.02   0.05
    11   6    -0.03   0.03   0.03     0.01  -0.02  -0.03    -0.10   0.01   0.05
    12   1    -0.06   0.04   0.02     0.02  -0.03  -0.03    -0.15   0.05   0.05
    13   6     0.00   0.01   0.02     0.01  -0.02  -0.02    -0.02  -0.04   0.03
    14   6    -0.00   0.01   0.02     0.02  -0.02  -0.01     0.01  -0.05   0.02
    15   6    -0.05  -0.02   0.04    -0.04  -0.02   0.02    -0.08  -0.03   0.07
    16   6    -0.01  -0.00   0.01    -0.05  -0.03   0.03    -0.03   0.00   0.02
    17   6    -0.07  -0.06   0.02    -0.02  -0.05   0.03    -0.11  -0.11   0.04
    18   1    -0.07  -0.07  -0.01     0.01  -0.06   0.03    -0.09  -0.12  -0.01
    19   1    -0.08  -0.07   0.02    -0.03  -0.07   0.05    -0.13  -0.12   0.05
    20   1    -0.09  -0.07   0.04    -0.01  -0.04   0.02    -0.14  -0.13   0.07
    21   6    -0.05  -0.01   0.09    -0.08  -0.01   0.02    -0.12   0.00   0.15
    22   1    -0.08  -0.03   0.11    -0.07  -0.00   0.01    -0.15  -0.02   0.18
    23   1    -0.06  -0.02   0.08    -0.11  -0.03   0.04    -0.13  -0.02   0.15
    24   1    -0.03   0.02   0.10    -0.10   0.02   0.01    -0.09   0.06   0.17
    25   6    -0.01  -0.02  -0.02    -0.06  -0.10   0.07    -0.03  -0.05  -0.01
    26   1     0.01  -0.01  -0.04    -0.06  -0.10   0.08     0.00  -0.01  -0.05
    27   1    -0.03  -0.02  -0.01    -0.11  -0.11   0.10    -0.07  -0.05   0.05
    28   1    -0.03  -0.05  -0.04    -0.01  -0.13   0.08    -0.04  -0.11  -0.04
    29   6     0.01   0.04   0.03    -0.11   0.02   0.02    -0.01   0.08   0.05
    30   1     0.02   0.05   0.05    -0.10   0.06  -0.02    -0.00   0.13   0.08
    31   1     0.00   0.04   0.05    -0.15   0.02   0.05    -0.05   0.08   0.09
    32   1     0.04   0.05   0.00    -0.11   0.02   0.01     0.04   0.09   0.02
    33   6     0.03  -0.05  -0.01     0.03  -0.01   0.01    -0.02   0.02  -0.02
    34   6    -0.03   0.03  -0.02    -0.03   0.06   0.00     0.04  -0.04   0.00
    35   6     0.10  -0.05  -0.07     0.11  -0.00  -0.04    -0.10   0.01   0.03
    36   1     0.12  -0.01  -0.11     0.12   0.03  -0.07    -0.10  -0.02   0.05
    37   1     0.11  -0.02  -0.09     0.11   0.03  -0.06    -0.11  -0.02   0.06
    38   1     0.14  -0.11  -0.07     0.15  -0.06  -0.03    -0.14   0.05   0.01
    39   6     0.01  -0.10   0.03     0.01  -0.06   0.05    -0.02   0.05  -0.05
    40   1     0.05  -0.16   0.03     0.05  -0.11   0.05    -0.06   0.09  -0.06
    41   1     0.01  -0.08   0.02     0.00  -0.03   0.04    -0.02   0.03  -0.03
    42   1    -0.03  -0.11   0.08    -0.04  -0.07   0.09     0.03   0.07  -0.08
    43   6    -0.02   0.10  -0.06    -0.02   0.16  -0.03     0.03  -0.12   0.05
    44   1    -0.06   0.16  -0.06    -0.06   0.22  -0.03     0.07  -0.17   0.06
    45   1    -0.03   0.08  -0.05    -0.04   0.17  -0.03     0.03  -0.12   0.05
    46   1     0.04   0.11  -0.11     0.06   0.18  -0.06    -0.03  -0.13   0.08
    47   6    -0.11   0.03   0.04    -0.14   0.05   0.03     0.12  -0.03  -0.03
    48   1    -0.12  -0.02   0.08    -0.15  -0.02   0.07     0.14   0.02  -0.08
    49   1    -0.12   0.02   0.05    -0.15   0.06   0.02     0.12  -0.04  -0.02
    50   1    -0.16   0.08   0.03    -0.19   0.08   0.01     0.18  -0.06  -0.01
    51   5    -0.01  -0.01  -0.00     0.01  -0.00  -0.01    -0.00   0.01  -0.01
    52   5     0.00  -0.02  -0.02     0.01  -0.00   0.01     0.01   0.02  -0.03
    53   7    -0.01   0.01   0.00     0.03  -0.02  -0.02     0.03  -0.03   0.00
    54   7    -0.03   0.03   0.02     0.02  -0.03  -0.02    -0.08  -0.00   0.03
    55   8    -0.04  -0.02   0.04    -0.02   0.01  -0.01    -0.05   0.00   0.06
    56   8     0.00  -0.00  -0.02     0.01  -0.02  -0.01     0.01   0.01  -0.04
    57   8     0.02  -0.08   0.01     0.03  -0.05   0.03    -0.02   0.06  -0.05
    58   8    -0.02   0.05  -0.03    -0.01   0.05   0.00     0.03  -0.03  -0.00
    59  77    -0.00  -0.00  -0.03     0.02   0.01  -0.00     0.01   0.02  -0.03
    60   1    -0.03   0.02   0.03     0.05  -0.03   0.01     0.08  -0.07   0.01
    61   1    -0.01   0.01   0.03    -0.02  -0.01  -0.04    -0.08  -0.01   0.06
    62   5     0.01  -0.01  -0.02     0.02   0.02   0.01     0.02   0.03  -0.02
    63   8     0.05   0.02   0.02    -0.01   0.00  -0.03     0.01   0.03  -0.04
    64   8    -0.02  -0.03  -0.05     0.05   0.05   0.05     0.03   0.04   0.00
    65   6     0.08   0.02   0.03    -0.04   0.01  -0.03     0.02   0.05  -0.03
    66   6    -0.00   0.01  -0.01     0.03   0.02   0.02     0.03   0.05   0.00
    67   6     0.18  -0.03   0.00    -0.13   0.07  -0.01     0.01   0.08  -0.04
    68   6     0.11   0.10   0.11    -0.06  -0.05  -0.11     0.02   0.04  -0.03
    69   6     0.01  -0.04  -0.04     0.02   0.08   0.05     0.04   0.08   0.02
    70   6    -0.07   0.08   0.00     0.09  -0.04   0.01     0.04   0.03   0.02
    71   1     0.16  -0.10  -0.05    -0.11   0.12   0.04     0.01   0.09  -0.04
    72   1     0.21  -0.03   0.01    -0.15   0.07  -0.02     0.02   0.09  -0.04
    73   1     0.24  -0.02   0.02    -0.18   0.06  -0.03     0.00   0.07  -0.06
    74   1     0.17   0.11   0.15    -0.12  -0.06  -0.14     0.00   0.04  -0.04
    75   1     0.13   0.10   0.12    -0.09  -0.05  -0.12     0.02   0.05  -0.03
    76   1     0.04   0.14   0.14    -0.01  -0.09  -0.13     0.02   0.02  -0.03
    77   1    -0.06  -0.05  -0.07     0.08   0.08   0.08     0.03   0.08   0.04
    78   1     0.03  -0.01  -0.01    -0.00   0.05   0.02     0.04   0.10   0.02
    79   1     0.05  -0.10  -0.06    -0.02   0.13   0.06     0.04   0.09   0.00
    80   1    -0.07   0.12   0.02     0.09  -0.08  -0.01     0.04   0.01   0.01
    81   1    -0.06   0.11   0.03     0.08  -0.07  -0.01     0.04   0.03   0.02
    82   1    -0.13   0.06  -0.03     0.14  -0.03   0.04     0.05   0.03   0.03
    83   1     0.00   0.03   0.06     0.02  -0.04   0.02    -0.01  -0.10   0.05
    84   1     0.06  -0.02   0.03    -0.01  -0.00  -0.02     0.05  -0.10   0.03
                      7                      8                      9
                      A                      A                      A
 Frequencies --     48.3965                50.7977                55.2750
 Red. masses --      4.7662                 4.6560                 5.1565
 Frc consts  --      0.0066                 0.0071                 0.0093
 IR Inten    --      0.1063                 0.7687                 0.5569
  Atom AN      X      Y      Z        X      Y      Z        X      Y      Z
     1   6     0.05  -0.03   0.01     0.01  -0.02  -0.01     0.03  -0.03  -0.11
     2   1     0.06  -0.02   0.00     0.00  -0.02   0.02     0.05  -0.01  -0.15
     3   6     0.05  -0.06   0.01     0.00  -0.00  -0.04     0.04  -0.07  -0.03
     4   6     0.03  -0.08   0.01     0.01   0.00  -0.07     0.02  -0.09   0.05
     5   1     0.04  -0.10   0.01     0.01   0.01  -0.10     0.03  -0.12   0.12
     6   6     0.01  -0.07   0.00     0.02  -0.00  -0.07    -0.01  -0.08   0.05
     7   6    -0.04  -0.03   0.00    -0.05   0.04  -0.06    -0.05  -0.02  -0.06
     8   6    -0.05  -0.02   0.00    -0.04   0.04  -0.08    -0.03  -0.03  -0.07
     9   1    -0.07  -0.01   0.00    -0.10   0.08  -0.09    -0.04  -0.01  -0.08
    10   6    -0.05  -0.02   0.00     0.04  -0.02  -0.09     0.00  -0.06  -0.08
    11   6    -0.03  -0.03   0.00     0.12  -0.07  -0.08     0.01  -0.08  -0.07
    12   1    -0.03  -0.03   0.00     0.21  -0.13  -0.08     0.04  -0.11  -0.08
    13   6    -0.02  -0.04   0.00     0.03  -0.01  -0.06    -0.03  -0.04  -0.05
    14   6     0.00  -0.05   0.00     0.02  -0.01  -0.04    -0.02  -0.05  -0.04
    15   6    -0.08  -0.00  -0.10    -0.05  -0.03   0.02     0.00   0.06   0.02
    16   6    -0.03  -0.06  -0.09    -0.03  -0.05   0.01    -0.01   0.07   0.02
    17   6    -0.10   0.00  -0.11    -0.06  -0.04   0.01     0.00   0.05   0.02
    18   1    -0.07  -0.00  -0.09    -0.04  -0.04   0.02    -0.01   0.06   0.01
    19   1    -0.13  -0.03  -0.15    -0.07  -0.05  -0.00     0.01   0.06   0.03
    20   1    -0.13   0.05  -0.11    -0.07  -0.02   0.02     0.01   0.04   0.02
    21   6    -0.12   0.01  -0.13    -0.07  -0.03   0.01     0.01   0.06   0.03
    22   1    -0.15   0.05  -0.12    -0.09  -0.01   0.02     0.02   0.05   0.03
    23   1    -0.14  -0.03  -0.17    -0.09  -0.04   0.00     0.01   0.06   0.04
    24   1    -0.10   0.01  -0.11    -0.07  -0.02   0.02     0.01   0.06   0.03
    25   6    -0.04  -0.08  -0.14    -0.03  -0.10   0.01    -0.00   0.09   0.01
    26   1    -0.00  -0.12  -0.14    -0.02  -0.11   0.01    -0.01   0.09   0.01
    27   1    -0.06  -0.09  -0.18    -0.07  -0.11   0.02     0.01   0.10   0.01
    28   1    -0.05  -0.07  -0.14    -0.02  -0.12   0.01    -0.01   0.11   0.01
    29   6    -0.00  -0.09  -0.09    -0.03  -0.04   0.02     0.00   0.06   0.02
    30   1     0.00  -0.07  -0.06    -0.03  -0.01   0.02     0.00   0.06   0.02
    31   1    -0.01  -0.10  -0.13    -0.06  -0.04   0.02     0.01   0.07   0.01
    32   1     0.03  -0.12  -0.09    -0.02  -0.04   0.01     0.00   0.06   0.02
    33   6     0.01   0.09  -0.00     0.03   0.02  -0.00     0.09  -0.08   0.01
    34   6     0.01   0.06  -0.01     0.04  -0.01  -0.01     0.06  -0.06   0.00
    35   6     0.01   0.09   0.01     0.01   0.01   0.01     0.08  -0.12  -0.06
    36   1    -0.00   0.07   0.02    -0.00  -0.00   0.02     0.04  -0.09  -0.09
    37   1     0.02   0.09  -0.00     0.02   0.00   0.00     0.10  -0.16  -0.07
    38   1     0.01   0.11   0.02     0.01   0.04   0.02     0.09  -0.13  -0.05
    39   6     0.02   0.10  -0.02     0.06   0.04  -0.01     0.15  -0.12   0.07
    40   1     0.03   0.12  -0.01     0.06   0.06  -0.00     0.18  -0.14   0.08
    41   1     0.03   0.11  -0.03     0.07   0.03  -0.03     0.18  -0.15   0.04
    42   1     0.02   0.10  -0.03     0.06   0.04  -0.02     0.15  -0.09   0.12
    43   6     0.01   0.09  -0.01     0.04  -0.03  -0.01     0.06  -0.12  -0.07
    44   1     0.01   0.07  -0.02     0.04  -0.06  -0.02     0.04  -0.09  -0.07
    45   1    -0.00   0.12  -0.02     0.05  -0.02  -0.03     0.12  -0.19  -0.05
    46   1     0.02   0.10   0.02     0.02  -0.04   0.00     0.02  -0.14  -0.14
    47   6    -0.01   0.05  -0.05     0.06  -0.01  -0.02     0.09  -0.03   0.09
    48   1    -0.02   0.03  -0.05     0.06   0.00  -0.03     0.09   0.02   0.14
    49   1    -0.02   0.07  -0.07     0.06  -0.01  -0.03     0.15  -0.08   0.11
    50   1    -0.02   0.03  -0.06     0.07  -0.02  -0.02     0.06   0.00   0.08
    51   5    -0.01   0.01  -0.01     0.00  -0.02   0.03    -0.02   0.05   0.01
    52   5     0.01   0.04   0.02     0.02   0.00   0.01    -0.01   0.02   0.01
    53   7     0.02  -0.03   0.00     0.02  -0.02  -0.01    -0.00  -0.03  -0.11
    54   7    -0.01  -0.04   0.00     0.12  -0.07  -0.06     0.00  -0.07  -0.06
    55   8    -0.05   0.04  -0.05    -0.03  -0.01   0.04    -0.01   0.05   0.01
    56   8    -0.01  -0.04  -0.03     0.01  -0.05   0.01    -0.03   0.07   0.01
    57   8     0.01   0.08   0.01     0.03   0.03   0.00     0.05  -0.03   0.04
    58   8     0.01   0.03   0.01     0.03  -0.02   0.00    -0.01   0.01  -0.02
    59  77     0.00   0.03   0.04     0.01  -0.01   0.03    -0.03   0.05   0.01
    60   1     0.07  -0.07   0.01    -0.00  -0.00  -0.04     0.06  -0.08  -0.03
    61   1    -0.06  -0.01   0.00     0.06  -0.03  -0.10     0.02  -0.07  -0.09
    62   5     0.00  -0.00   0.02    -0.01   0.01   0.02    -0.04   0.02  -0.00
    63   8    -0.00  -0.02   0.05     0.02   0.06   0.01    -0.05  -0.00   0.02
    64   8     0.02  -0.02  -0.01    -0.08   0.01   0.02    -0.01   0.01  -0.02
    65   6     0.05  -0.05   0.06    -0.02   0.09   0.00    -0.01  -0.02   0.03
    66   6     0.04  -0.04   0.01    -0.10   0.07   0.00     0.01  -0.01   0.00
    67   6     0.09  -0.06   0.04     0.02   0.04   0.01     0.01  -0.01   0.01
    68   6     0.05  -0.06   0.12    -0.00   0.18  -0.01    -0.01  -0.04   0.07
    69   6     0.08  -0.07  -0.01    -0.17   0.03   0.00     0.05  -0.02  -0.01
    70   6     0.03  -0.03   0.02    -0.14   0.14  -0.02     0.00  -0.02   0.02
    71   1     0.08  -0.07   0.00     0.01  -0.03   0.03     0.01   0.00  -0.02
    72   1     0.12  -0.08   0.05    -0.01   0.06   0.01     0.05  -0.02   0.02
    73   1     0.09  -0.06   0.06     0.09   0.05   0.01    -0.00  -0.02   0.02
    74   1     0.05  -0.06   0.14     0.06   0.19   0.00    -0.02  -0.04   0.08
    75   1     0.09  -0.07   0.13    -0.04   0.19  -0.02     0.03  -0.05   0.08
    76   1     0.02  -0.05   0.14    -0.02   0.22  -0.02    -0.03  -0.04   0.09
    77   1     0.07  -0.07  -0.04    -0.21   0.03  -0.00     0.06  -0.01  -0.03
    78   1     0.09  -0.09   0.01    -0.19   0.06  -0.02     0.06  -0.04   0.01
    79   1     0.09  -0.09  -0.02    -0.16  -0.01   0.04     0.05  -0.01  -0.03
    80   1     0.00  -0.00   0.04    -0.09   0.16  -0.03    -0.02  -0.02   0.03
    81   1     0.05  -0.05   0.03    -0.16   0.19  -0.04     0.01  -0.03   0.04
    82   1     0.03  -0.02  -0.03    -0.20   0.11  -0.02     0.01  -0.01   0.01
    83   1    -0.01  -0.08   0.00     0.02   0.01  -0.10    -0.03  -0.10   0.11
    84   1    -0.04  -0.03   0.00    -0.13   0.09  -0.06    -0.08   0.01  -0.05
                     10                     11                     12
                      A                      A                      A
 Frequencies --     63.9000                69.1881                84.2135
 Red. masses --      4.5495                 4.3938                 5.7285
 Frc consts  --      0.0109                 0.0124                 0.0239
 IR Inten    --      0.1273                 0.5796                 0.8425
  Atom AN      X      Y      Z        X      Y      Z        X      Y      Z
     1   6    -0.03  -0.02   0.22     0.05  -0.00   0.21    -0.03  -0.06   0.02
     2   1    -0.03  -0.02   0.33     0.06   0.01   0.33    -0.05  -0.07   0.02
     3   6    -0.04  -0.01   0.08     0.05  -0.02   0.09    -0.04  -0.02   0.02
     4   6    -0.05  -0.01  -0.12     0.02  -0.03  -0.10    -0.02   0.00   0.01
     5   1    -0.05  -0.00  -0.24     0.02  -0.05  -0.21    -0.02   0.03   0.02
     6   6    -0.05  -0.00  -0.15    -0.01  -0.02  -0.15     0.01  -0.01  -0.00
[...]
 0245,-0.00000114,-0.00000235,-0.00000107,-0.00000103,0.00002478,0.0000
 1201,0.00001283,-0.00000016,0.00007850,0.00004723,-0.00000854,-0.00000
 824,-0.00000478,0.00000490,-0.00000303,0.00000204,-0.00000378,0.000001
 82,-0.00000361,0.00000091,0.00000213,0.00000036,-0.00001101,0.00001021
 ,-0.00000688,0.00000041,0.00000180,-0.00000609,0.00000329,-0.00000594,
 -0.00000435,0.00000092,-0.00001074,0.00000352,-0.00000120,-0.00001954,
 -0.00001435,-0.00000111,0.00000146,0.00000213,-0.00000991,-0.00000182,
 -0.00000437,0.00000522,-0.00000203,0.00000192,-0.00001928,-0.00000859,
 -0.00000539,0.00000649,0.00000295,-0.00000228,0.00000144,-0.00000984,-
 0.00000162,0.00000078,0.00000151,0.00000188,0.00006831,-0.00002848,0.0
 0000891,0.00013101,-0.00001893,0.00035392,-0.00651741,-0.00146831,0.00
 059253,0.00003851,-0.00045574,0.00042438,-0.00005280,0.00000225,-0.000
 00354,-0.00003811,0.00001919,-0.00002513,-0.00003227,-0.00010149,-0.00
 017169,-0.00016590,-0.00012682,-0.00014581,0.00039998,0.00099768,0.000
 11297,0.00045294,-0.00054142,-0.00004628,-0.00000129,0.00001703,-0.000
 00714,0.00008933,-0.00007700,-0.00034564,-0.00006312,-0.00000934,0.000
 08562,-0.00003963,-0.00013031,0.00017296,0.00001745,0.00002390,-0.0000
 3571,0.00003809,0.00000435,-0.00000734,-0.00000395,-0.00000557,0.00000
 907,-0.00000009,-0.00000243,0.00000498,-0.00001346,0.00000385,0.000003
 69,-0.00000702,0.00000585,0.00000594,-0.00000007,0.00000434,-0.0000047
 1,-0.00000110,0.00000057,0.00000697,0.00000253,-0.00000266,-0.00000198
 ,0.00000069,-0.00000069,-0.00000134,-0.00000372,-0.00000050,0.00000349
 ,0.00000067,0.00000087,-0.00000116,-0.00000263,-0.00001016,0.00000062,
 0.00000382,-0.00000488,0.00000581,-0.00000080,0.00000628,0.00000316,0.
 00000631,0.00000217,-0.00000145,-0.00000332,-0.00000345,0.00000039,0.0
 0000003,-0.00000612,-0.00000123,0.18892669,-0.00094950,-0.00054607,0.0
 0003056,0.00006860,0.00010682,0.00008004,-0.00336296,-0.00388757,-0.00
 039158,0.02142600,-0.01574320,-0.00168569,-0.00003902,0.00118329,0.000
 21764,0.14045175,-0.21520939,-0.01423718,0.00026395,0.00017448,-0.0001
 1475,0.00001838,-0.00008537,0.00006250,0.00000098,0.00001765,-0.000000
 56,0.00000714,0.00000383,-0.00002905,0.00005523,-0.00005089,0.00004797
 ,0.00000829,0.00000584,-0.00000351,-0.00005046,0.00030017,0.00035983,-
 0.00576338,0.00790286,0.00061246,-0.00001863,0.00001608,-0.00000003,-0
 .00000377,0.00001404,-0.00000648,0.00000308,-0.00000026,-0.00000089,0.
 00000003,0.00000109,0.00000061,0.00000297,-0.00000213,-0.00000064,-0.0
 0000131,-0.00000009,0.00000187,-0.00000089,-0.00000334,0.00000076,-0.0
 0000344,0.00000304,0.00000449,0.00000567,-0.00000089,0.00000043,-0.000
 00251,0.00000170,-0.00000653,0.00000044,-0.00000065,0.00000189,0.00000
 135,0.00000131,0.00000138,0.00000069,-0.00000181,-0.00000029,-0.000000
 37,0.00000016,-0.00000067,-0.00000223,-0.00000143,0.00000171,0.0000010
 3,-0.00000099,-0.00000342,0.,-0.00000227,0.00000036,0.00000234,0.00000
 192,0.00000064,-0.00002017,0.00000027,-0.00001396,-0.00000514,0.000000
 15,-0.00001029,0.00000168,-0.00000036,-0.00000075,-0.00000156,-0.00000
 107,-0.00000026,0.00000237,0.00000069,0.00000164,-0.00000097,-0.000000
 86,-0.00000020,0.00000228,0.00000428,-0.00000083,-0.00000113,-0.000001
 50,0.00000076,0.00000195,0.00000063,0.00000181,-0.00000013,-0.00000205
 ,-0.00000083,0.00000124,-0.00000185,-0.00000010,0.00000002,0.00000013,
 -0.00000086,0.00000039,0.00000116,0.00000137,0.00000030,-0.00000076,-0
 .00000004,-0.00000516,0.00000090,0.00000217,0.00000271,-0.00000163,-0.
 00000102,0.00000191,0.00000157,0.00000176,-0.00000013,-0.00000060,-0.0
 0000045,-0.00001890,0.00002909,0.00000125,-0.00002979,-0.00009478,-0.0
 0000138,-0.00265179,0.00151679,-0.00010866,0.00010959,0.00014245,-0.00
 012839,0.00003965,0.00000031,-0.00000167,0.00003375,-0.00002510,0.0000
 2105,0.00002375,0.00001037,0.00002221,0.00002159,0.00001880,0.00000703
 ,0.00006928,0.00012966,-0.00007053,0.00111548,-0.00070001,-0.00010381,
 -0.00001123,0.00001248,0.00000174,-0.00002228,-0.00002953,0.00004128,0
 .00002751,0.00000093,-0.00003998,0.00002607,0.00000178,-0.00001738,-0.
 00000370,-0.00000318,0.00001653,-0.00001601,-0.00000532,0.00001641,0.0
 0000065,-0.00000117,-0.00000293,0.00000046,-0.00000094,-0.00000223,0.0
 0000098,0.00000283,-0.00000061,0.00000153,0.00000201,-0.00000160,0.000
 00100,0.00000013,0.00000191,0.00000108,0.00000109,-0.00000295,-0.00000
 063,0.00000004,0.00000094,0.00000010,-0.00000110,0.00000067,0.00000142
 ,0.00000105,-0.00000162,-0.00000061,0.00000021,0.00000042,-0.00000156,
 -0.00000062,0.00000097,0.00000215,-0.00000068,-0.00000178,-0.00000081,
 -0.00000014,0.00000130,-0.00000155,-0.00000046,0.00000024,0.00000291,0
 .00000032,-0.00000136,-0.00000126,-0.00000112,0.00000079,-0.15086033,0
 .22475949,-0.00015519,0.00006152,-0.00039751,-0.00005903,0.00006770,-0
 .00169211,0.00007904,-0.00049115,0.00760679,0.00073349,-0.00066850,0.0
 0237519,-0.00020338,0.00021510,-0.00385953,0.01250891,-0.01359758,-0.0
 3652275,-0.00005454,-0.00039744,0.00023115,0.00008258,-0.00016735,-0.0
 0012130,-0.00003944,-0.00002449,-0.00000012,0.00004497,-0.00001966,-0.
 00006589,-0.00001107,0.00021620,-0.00007535,-0.00000506,0.00003706,-0.
 00000100,-0.00035341,-0.00028929,-0.00292762,0.00032892,-0.00097813,0.
 00119324,-0.00000105,0.00000080,-0.00000033,0.00000018,-0.00000153,0.0
 0000658,0.00000106,-0.00000019,-0.00000047,0.00000069,0.00000011,0.000
 00075,0.00000029,0.00000006,-0.00000019,-0.00000117,-0.00000116,-0.000
 00043,0.,0.00000015,-0.00000056,-0.00000075,-0.00000005,-0.00000041,-0
 .00000002,0.00000020,0.00000061,0.00000141,-0.00000036,-0.00000027,0.0
 0000047,0.00000093,-0.00000084,-0.00000070,-0.00000027,-0.00000046,-0.
 00000011,-0.00000020,0.00000019,0.00000096,0.00000053,-0.00000047,-0.0
 0000044,-0.00000011,-0.00000220,0.00000188,0.00000101,0.00000236,0.000
 00004,0.00000008,-0.00000004,-0.00000202,-0.00000042,-0.00000065,0.000
 00042,0.00000551,0.00000523,-0.00000193,-0.00000248,0.00000180,-0.0000
 0324,-0.00000302,0.,0.00000073,-0.00000025,0.00000005,-0.00000024,0.00
 000114,-0.00000041,0.00000047,0.00000148,-0.00000181,-0.00000202,-0.00
 000206,0.00000231,-0.00000045,0.00000271,-0.00000395,0.00000169,-0.000
 00031,-0.00000095,-0.00000156,-0.00000153,0.00000162,0.00000002,0.0000
 0092,0.00000051,0.00000099,0.00000077,-0.00000114,-0.00000010,-0.00000
 047,-0.00000017,-0.00000068,-0.00000008,0.00000038,0.00000098,0.000000
 65,0.00000006,-0.00000038,-0.00000010,0.00000180,-0.00000133,-0.000000
 17,-0.00000030,0.00000162,0.00000041,-0.00000135,0.00002250,0.00001096
 ,-0.00000956,0.00003358,-0.00001839,-0.00000714,0.00070446,-0.00010006
 ,0.00812932,0.00021949,0.00067013,-0.00025089,-0.00001067,0.00000012,0
 .00000261,-0.00000636,-0.00000133,-0.00000642,-0.00000567,-0.00000676,
 -0.00002901,0.00001691,0.00001063,-0.00000143,-0.00000460,-0.00000677,
 0.00009419,0.00006201,-0.00003813,0.00030233,0.00000195,0.00000182,-0.
 00000238,-0.00004843,-0.00000672,0.00002216,0.00001540,0.00000373,-0.0
 0002318,0.00001349,0.00002097,-0.00004069,0.00000090,-0.00000153,0.000
 01844,-0.00000510,-0.00000137,0.00001258,0.00000219,-0.00000283,-0.000
 00320,-0.00000067,-0.00000068,-0.00000323,0.00000384,0.00000284,-0.000
 00021,0.00000136,0.00000006,-0.00000439,-0.00000075,0.00000046,0.00000
 299,0.00000126,0.00000026,-0.00000236,-0.00000054,0.00000058,0.0000003
 9,0.00000035,0.00000012,0.00000077,0.00000145,0.00000043,-0.00000099,-
 0.00000181,-0.00000058,-0.00000046,0.00000099,0.00000187,0.00000084,-0
 .00000085,0.00000063,-0.00000166,-0.00000098,-0.00000333,-0.00000183,-
 0.00000247,0.00000028,0.00000016,0.00000139,0.00000047,-0.00000020,0.0
 0000015,-0.00000062,0.00000131,-0.01376903,0.01543942,0.02615226,0.000
 04212,0.00027737,-0.00012708,0.00003958,0.00002279,-0.00001964,-0.0001
 9618,0.00005199,0.00004067,-0.00010588,-0.00024249,0.00013864,-0.00000
 848,-0.00002450,-0.00002018,0.00014540,-0.00013941,0.00014423,-0.04923
 441,-0.03328473,0.04741267,0.00036612,-0.00473272,0.01252833,-0.002796
 43,0.00196347,-0.00005008,0.00515970,-0.00541804,-0.00043468,-0.000532
 30,-0.00033012,-0.00038204,-0.00144797,0.00085515,-0.00006538,0.002273
 74,0.00440101,-0.00607070,-0.00213003,0.00073108,-0.00023973,-0.000029
 92,0.00002796,0.00002569,-0.00002325,0.00003006,0.00000921,-0.00000251
 ,-0.00000090,-0.00000448,-0.00000549,0.00000145,0.00000045,0.00000317,
 -0.00000330,0.00000073,-0.00000275,0.00000300,-0.00000290,0.00000657,-
 0.00000407,-0.00000175,-0.00000125,-0.00000202,-0.00000635,-0.00000038
 ,-0.00000452,0.00000144,0.00000224,0.00000178,0.00000523,0.00000428,0.
 00000495,0.00000160,-0.00000293,0.00000201,-0.00000264,-0.00000025,-0.
 00000605,-0.00000024,0.00000073,0.00000113,0.00000020,-0.00000313,-0.0
 0000713,0.00000237,0.00000565,0.00001818,0.00000481,0.00000448,-0.0000
 0928,-0.00000128,-0.00001049,0.00000424,-0.00000593,-0.00024513,-0.000
 13206,-0.00023034,-0.00000537,-0.00005339,0.00005532,0.00002588,0.0000
 0499,0.00003008,0.00000380,0.00000259,0.00000217,0.00002683,-0.0000051
 3,0.00001400,-0.00001097,0.00001617,-0.00002446,0.00001190,0.00000787,
 0.00003592,-0.00001909,0.00000988,-0.00005734,0.00004140,0.00000833,0.
 00000297,-0.00002641,-0.00002875,0.00000433,0.00000860,0.00002422,-0.0
 0003266,0.00001950,0.00000175,-0.00000973,-0.00000345,-0.00000041,0.00
 000546,-0.00000748,0.00000003,0.00000313,0.00002560,0.00000811,-0.0000
 1932,0.00000053,-0.00001867,0.00002153,-0.00000392,0.00000203,0.000004
 06,0.00001127,0.00000647,-0.00001300,-0.00000768,0.00012072,-0.0002296
 6,-0.00002169,0.00015459,0.00064029,-0.00007391,0.00030899,-0.00003395
 ,0.00641668,-0.00345015,-0.00131011,-0.00001564,-0.00013265,0.00000926
 ,0.00000586,-0.00003006,-0.00001248,0.00068770,-0.00009647,-0.00028579
 ,0.00016890,0.00004400,-0.00016101,0.00029495,0.00042884,0.00077415,-0
 .00000928,0.00000577,-0.00000054,0.00008635,-0.00026544,0.00064492,-0.
 00031209,-0.00039071,0.00004531,0.00015162,0.00004698,-0.00013680,0.00
 005298,0.00013173,-0.00010735,-0.00000343,-0.00001559,0.00008732,-0.00
 001001,-0.00000116,0.00004217,-0.00000623,0.00000200,-0.00000753,0.000
 00308,0.00001020,-0.00001316,-0.00000055,-0.00000422,-0.00000108,0.000
 01398,-0.00000973,-0.00001220,-0.00000090,-0.00000413,0.00000951,0.000
 00389,0.00000101,-0.00000891,-0.00000225,0.00000037,0.00000444,-0.0000
 0136,-0.00000188,0.00000224,0.00000747,0.00000081,-0.00000694,-0.00000
 305,-0.00000028,0.00000148,0.00000106,0.00000895,-0.00000165,0.0000011
 4,0.00000263,-0.00000291,-0.00000174,-0.00000331,-0.00000086,-0.000008
 52,0.00000266,0.00000274,0.00000644,0.00000539,-0.00000329,0.00000136,
 0.00000434,0.00000302,-0.00010792,0.00004157,-0.00013823,0.04130951,0.
 00010023,-0.00008276,0.00004096,0.00001745,-0.00001053,0.00001364,-0.0
 0006811,0.00002803,-0.00003545,0.00003839,-0.00012489,-0.00003841,0.00
 001139,0.00001979,0.00000880,0.00002132,0.00036028,0.00014995,-0.03400
 888,-0.10989794,0.11053135,-0.00425641,-0.00695809,0.02543881,0.001975
 96,0.00028156,-0.00024200,-0.00514388,-0.00273813,-0.00132179,-0.00050
 784,-0.00139421,-0.00052211,0.00080256,-0.00018289,0.00009220,0.004275
 89,0.00902955,-0.01225503,0.00121064,-0.00002377,-0.00041945,0.0000339
 2,-0.00002803,-0.00000832,0.00001093,-0.00000025,-0.00000418,-0.000002
 23,0.00000046,0.00000182,0.00000231,-0.00000269,0.00000141,-0.00000344
 ,0.00000303,0.00000054,0.00000050,-0.00000103,-0.00000167,-0.00000260,
 0.00000407,-0.00000414,0.00000157,-0.00000265,-0.00000097,-0.00000388,
 0.00000315,-0.00000017,0.00000099,-0.00000255,0.00000330,-0.00000150,-
 0.00000477,0.00000314,-0.00000238,-0.00000094,-0.00000294,0.00000064,0
 .00000123,-0.00000039,-0.00000076,-0.00000018,0.00000059,0.00001484,0.
 00000515,0.00000385,-0.00000824,-0.00000744,-0.00000274,-0.00000307,0.
 00000266,-0.00000020,-0.00000120,-0.00000136,-0.00000154,-0.00002562,0
 .00004522,0.00002233,-0.00000120,-0.00000889,0.00004131,0.00000336,-0.
 00001146,-0.00002022,0.00000994,-0.00000475,0.00000068,-0.00000451,-0.
 00000097,0.00000097,0.00000079,0.00000993,0.00000557,-0.00000212,0.000
 01963,0.00000226,-0.00001336,0.00002859,-0.00003527,0.00002458,-0.0000
 1055,-0.00000496,-0.00002360,-0.00004395,0.00002363,-0.00000104,0.0000
 0761,-0.00001012,0.00000603,0.00000116,-0.00000218,-0.00000564,-0.0000
 0288,-0.00000287,-0.00000068,-0.00000002,0.00000154,0.00000901,0.00000
 893,-0.00001459,0.00000368,-0.00000752,0.00002890,-0.00001146,-0.00000
 690,-0.00000460,0.00001510,0.00000017,-0.00000539,0.00006856,-0.000042
 66,0.00013950,0.00003205,0.00012392,0.00026698,-0.00009155,-0.00007822
 ,0.00013264,-0.00301355,0.00114934,-0.00416464,-0.00004855,0.00002738,
 -0.00001074,-0.00003904,-0.00000627,-0.00003101,0.00001469,-0.00015224
 ,-0.00016597,-0.00001969,-0.00002419,-0.00010173,-0.00021317,0.0000361
 8,-0.00029498,0.00000262,0.00000343,-0.00000392,-0.00029212,-0.0002413
 2,0.00128948,0.00013432,0.00009832,-0.00006913,-0.00007057,-0.00000905
 ,0.00006300,-0.00003869,-0.00002433,0.00006448,0.00000418,0.00000192,-
 0.00003551,0.00002451,0.00000514,-0.00001723,-0.00000308,0.00000236,0.
 00000484,0.00000043,-0.00000010,0.00000726,-0.00000534,-0.00000840,-0.
 00000037,-0.00000150,-0.00000866,0.00000293,-0.00000408,-0.00000083,-0
 .00000089,-0.00000135,-0.00000106,0.00000411,0.00000140,-0.00000082,-0
 .00000127,-0.00000022,0.00000167,-0.00000097,-0.00000321,-0.00000089,0
 .00000240,0.00000060,-0.00000059,-0.00000096,0.00000107,0.00000081,-0.
 00000130,-0.00000190,0.00000123,0.00000398,-0.00000024,0.00000192,0.00
 000031,-0.00000024,0.00000369,0.00000234,-0.00000514,0.00000027,0.0000
 0133,0.00000347,0.00000172,-0.00000025,0.00003510,0.00003728,0.0000566
 1,0.03904188,0.11080590,0.00016733,0.00002929,-0.00007224,0.00002465,-
 0.00000950,0.00000470,-0.00014586,0.00009343,-0.00002318,-0.00013251,-
 0.00021214,-0.00001323,0.00000848,-0.00001368,-0.00000090,-0.00010701,
 -0.00016196,0.00005449,0.04904551,0.11009031,-0.27104344,-0.00117541,-
 0.00172899,0.00405384,0.00021078,0.00014869,0.00051717,-0.00050155,-0.
 00048454,0.00181656,-0.00076327,-0.00161667,0.00048092,0.00011110,0.00
 019975,-0.00005539,0.00696532,0.01499750,-0.01597542,0.00016375,0.0011
 5931,0.00032725,0.00003919,-0.00002806,-0.00000358,0.00000988,-0.00000
 247,-0.00000403,-0.00000457,-0.00000033,0.00000124,0.00000216,-0.00000
 095,-0.00000102,-0.00000367,0.00000309,0.00000070,0.00000167,0.0000003
 6,-0.00000178,-0.00000180,0.00000362,-0.00000381,0.00000208,-0.0000027
 7,-0.00000253,-0.00000460,0.00000258,-0.00000016,0.00000146,-0.0000027
 8,0.00000561,-0.00000023,-0.00000403,-0.00000004,-0.00000213,-0.000000
 38,-0.00000295,0.00000043,0.00000073,0.00000020,-0.00000081,0.00000119
 ,0.00000189,0.00000959,0.00000307,0.00000076,0.00000005,-0.00000468,0.
 00000395,-0.00000192,0.00000200,0.00000026,-0.00000322,-0.00000139,-0.
 00000122,0.00008729,0.00008478,0.00016916,-0.00001234,0.00005481,0.000
 02021,-0.00002152,-0.00002066,-0.00001538,0.00000988,-0.00000424,0.000
 00004,-0.00000904,0.00000587,-0.00000772,0.00000303,0.00000486,0.00000
 564,-0.00000913,0.00000757,0.00000859,-0.00000371,0.00001107,-0.000017
 49,0.00001104,-0.00000863,-0.00001188,0.00000474,-0.00001757,0.0000127
 1,-0.00000199,-0.00001763,0.00000708,-0.00000648,0.00000111,0.00000161
 ,-0.00000564,-0.00000120,-0.00000374,0.00000537,-0.00000294,0.00000059
 ,-0.00001804,-0.00000756,0.00000011,0.00000498,0.00000582,-0.00000280,
 -0.00000038,-0.00000906,-0.00000112,-0.00000040,-0.00000197,0.00000138
 ,0.00002920,-0.00000854,0.00015310,0.00019265,0.00005827,-0.00003865,0
 .00026432,-0.00065620,0.00011788,-0.00148882,-0.00293780,-0.00437558,-
 0.00004960,0.00000247,-0.00001684,-0.00002289,-0.00001681,-0.00002212,
 -0.00010360,-0.00007659,-0.00021292,-0.00012040,-0.00009440,-0.0000294
 1,-0.00018894,-0.00014751,-0.00054369,-0.00000529,0.00000918,-0.000001
 85,-0.00012564,-0.00023310,0.00015374,0.00031900,0.00040116,-0.0001550
 8,-0.00013714,-0.00006794,0.00012523,0.00000680,-0.00017344,0.00012993
 ,0.00000247,0.00003000,-0.00007805,-0.00000422,-0.00000130,-0.00000726
 ,-0.00000556,-0.00000452,0.00000740,-0.00000187,-0.00001074,0.00001611
 ,-0.00000744,-0.00000079,-0.00000586,-0.00000759,0.00000444,0.00000944
 ,0.00000175,0.00000905,-0.00000493,-0.00000112,0.00000048,0.00000789,0
 .00000583,-0.00000495,-0.00000337,0.00000265,-0.00000237,-0.00000233,-
 0.00000773,0.00000045,0.00000563,0.00000136,0.00000151,-0.00000070,-0.
 00000462,-0.00001410,0.00000249,0.00000786,-0.00000345,0.00000293,-0.0
 0000189,0.00000974,0.00000870,0.00000643,0.00000327,-0.00000004,-0.000
 00229,-0.00000315,-0.00000130,-0.00000106,-0.00000818,-0.00000116,-0.0
 0003940,-0.00001104,-0.00010113,-0.05246574,-0.11859709,0.28463019\\-0
 .00000106,0.00000428,-0.00000406,0.00000290,-0.00000141,-0.00000077,-0
 .00000857,0.00000012,-0.00000216,0.00000217,0.00000397,-0.00000672,-0.
 00000350,0.00000153,-0.00000146,0.00000399,-0.00000137,-0.00000378,0.0
 0000264,0.00000542,-0.00000662,0.00000146,0.00000217,0.00000611,-0.000
 00180,-0.00000211,-0.00000746,0.00000684,0.00000655,-0.00000108,0.0000
 0372,-0.00000262,-0.00000713,0.00000270,0.00000105,-0.00000470,-0.0000
 0006,0.00000261,0.00000003,0.00000140,0.00000525,-0.00000404,-0.000001
 75,-0.00000489,-0.00000284,-0.00000147,0.00000158,0.00000496,-0.000000
 50,-0.00000003,0.00000398,-0.00000194,-0.00000342,0.00000148,-0.000001
 71,-0.00000092,0.00000164,-0.00000048,-0.00000037,0.00000201,-0.000009
 84,0.00000681,0.00001055,-0.00000342,-0.00000066,-0.00000204,0.0000019
 6,-0.00000331,0.00000273,0.00000081,-0.00000057,-0.00000338,-0.0000055
 2,0.00000162,0.00000479,-0.00000238,-0.00000070,0.00000069,-0.00000131
 ,-0.00000369,0.00000151,-0.00000100,-0.00000133,0.00000221,-0.00001140
 ,0.00000221,0.00000024,0.00000209,-0.00000007,0.00000086,-0.00000187,-
 0.00000051,0.00000186,-0.00000117,-0.00000024,0.00000148,-0.00000637,-
 0.00000323,0.00000484,0.00000541,-0.00000642,-0.00000007,0.00000124,0.
 00000269,0.00000554,-0.00000075,-0.00000219,-0.00000088,-0.00000426,-0
 .00000065,-0.00000110,-0.00000266,0.00000041,-0.00000008,0.00000045,0.
 00000826,-0.00000624,-0.00000434,-0.00000169,0.00000304,-0.00000019,0.
 00000033,0.00000074,-0.00000064,-0.00000126,-0.00000063,-0.00000497,0.
 00000376,0.00000343,0.00000194,-0.00000050,-0.00000090,0.00000044,-0.0
 0000202,0.00000097,0.00000104,-0.00000489,0.00000229,-0.00000066,0.000
 00522,0.00000365,0.00000010,-0.00000049,-0.00000086,0.00000057,-0.0000
 0269,-0.00000260,0.00000297,-0.00000004,-0.00000247,-0.00000479,0.0000
 0129,-0.00000140,-0.00000660,-0.00000296,-0.00000003,-0.00000195,0.000
 00514,-0.00000179,0.00000370,0.00000506,-0.00000951,-0.00000093,-0.000
 00029,0.00000342,-0.00000061,-0.00000139,0.00000413,0.00000067,0.00000
 346,-0.00000375,0.00000203,0.00000148,0.00000092,0.00000292,0.00000400
 ,-0.00000043,0.00000085,0.00000473,-0.00000122,-0.00000050,-0.00000226
 ,-0.00000280,-0.00000187,0.00000349,-0.00000116,0.00000316,-0.00000425
 ,0.00000189,0.00000459,-0.00000427,0.00000135,0.00000936,0.00000463,0.
 00000148,0.00000349,-0.00000601,0.00000651,0.00000091,-0.00000637,-0.0
 0000107,-0.00000081,-0.00000459,0.00000483,0.00000174,0.00000569,-0.00
 000114,0.00000277,-0.00000059,-0.00000459,0.00000069,-0.00000046,-0.00
 000025,0.00000214,-0.00000085,-0.00000032,0.00000139,-0.00000185,0.000
 00102,0.00000204,-0.00000220,0.00000133,0.00000210,-0.00000136,0.00000
 145,0.00000115,-0.00000193,0.00000016,0.00000380,-0.00000684,-0.000001
 20,0.00000376,-0.00000180,-0.00000135,0.00000325,-0.00000091,-0.000000
 04,0.00000128,-0.00000130,0.00000304,0.00000049,-0.00000191,0.00000189
 ,0.00000257,-0.00000257,0.00000079,-0.00000334,0.00000639,-0.00000193,
 -0.00000072,0.00000009,0.00000216\\\@
 The archive entry for this job was punched.


 LIFE IS SO UNCERTAIN - EAT DESSERT FIRST.
 Job cpu time:       0 days 21 hours 24 minutes 35.8 seconds.
 Elapsed time:       0 days  1 hours 21 minutes 46.4 seconds.
 File lengths (MBytes):  RWF=   4032 Int=      0 D2E=      0 Chk=     31 Scr=      1
 Normal termination of Gaussian 16 at Sat Dec  7 23:23:42 2024.
