/mnt/lustre/scratch/nvme/SLURM/9663627/usccqdma.YFw7jJjP8T
OMP_STACKSIZE=0m
GAUSS_PDEF=16
GAUSS_MDEF=65536MB
GAUSS_RDEF=SCF=Direct
 Entering Gaussian System, Link 0=g16.exe
 Initial command:
 /opt/cesga/2020/software/Core/g16/c1/l1.exe "/mnt/lustre/scratch/nvme/SLURM/9663627/usccqdma.YFw7jJjP8T/Gau-1355017.inp" -scrdir="/mnt/lustre/scratch/nvme/SLURM/9663627/usccqdma.YFw7jJjP8T/"
 Default is to use a total of  16 processors:
                               16 via shared-memory
                                1 via Linda
 Entering Link 1 = /opt/cesga/2020/software/Core/g16/c1/l1.exe PID=   1355043.
  
 Copyright (c) 1988-2019, Gaussian, Inc.  All Rights Reserved.
  
 This is part of the Gaussian(R) 16 program.  It is based on
 the Gaussian(R) 09 system (copyright 2009, Gaussian, Inc.),
 the Gaussian(R) 03 system (copyright 2003, Gaussian, Inc.),
 the Gaussian(R) 98 system (copyright 1998, Gaussian, Inc.),
 the Gaussian(R) 94 system (copyright 1995, Gaussian, Inc.),
 the Gaussian 92(TM) system (copyright 1992, Gaussian, Inc.),
 the Gaussian 90(TM) system (copyright 1990, Gaussian, Inc.),
 the Gaussian 88(TM) system (copyright 1988, Gaussian, Inc.),
 the Gaussian 86(TM) system (copyright 1986, Carnegie Mellon
 University), and the Gaussian 82(TM) system (copyright 1983,
 Carnegie Mellon University). Gaussian is a federally registered
 trademark of Gaussian, Inc.
  
 This software contains proprietary and confidential information,
 including trade secrets, belonging to Gaussian, Inc.
  
 This software is provided under written license and may be
 used, copied, transmitted, or stored only in accord with that
 written license.
  
 The following legend is applicable only to US Government
 contracts under FAR:
  
                    RESTRICTED RIGHTS LEGEND
  
 Use, reproduction and disclosure by the US Government is
 subject to restrictions as set forth in subparagraphs (a)
 and (c) of the Commercial Computer Software - Restricted
 Rights clause in FAR 52.227-19.
  
 Gaussian, Inc.
 340 Quinnipiac St., Bldg. 40, Wallingford CT 06492
  
  
 ---------------------------------------------------------------
 Warning -- This program may not be used in any manner that
 competes with the business of Gaussian, Inc. or will provide
 assistance to any competitor of Gaussian, Inc.  The licensee
 of this program is prohibited from giving any competitor of
 Gaussian, Inc. access to this program.  By using this program,
 the user acknowledges that Gaussian, Inc. is engaged in the
 business of creating and licensing software in the field of
 computational chemistry and represents and warrants to the
 licensee that it is not a competitor of Gaussian, Inc. and that
 it will not use this program in any manner prohibited above.
 ---------------------------------------------------------------
  

 Cite this work as:
 Gaussian 16, Revision C.01,
 M. J. Frisch, G. W. Trucks, H. B. Schlegel, G. E. Scuseria, 
 M. A. Robb, J. R. Cheeseman, G. Scalmani, V. Barone, 
 G. A. Petersson, H. Nakatsuji, X. Li, M. Caricato, A. V. Marenich, 
 J. Bloino, B. G. Janesko, R. Gomperts, B. Mennucci, H. P. Hratchian, 
 J. V. Ortiz, A. F. Izmaylov, J. L. Sonnenberg, D. Williams-Young, 
 F. Ding, F. Lipparini, F. Egidi, J. Goings, B. Peng, A. Petrone, 
 T. Henderson, D. Ranasinghe, V. G. Zakrzewski, J. Gao, N. Rega, 
 G. Zheng, W. Liang, M. Hada, M. Ehara, K. Toyota, R. Fukuda, 
 J. Hasegawa, M. Ishida, T. Nakajima, Y. Honda, O. Kitao, H. Nakai, 
 T. Vreven, K. Throssell, J. A. Montgomery, Jr., J. E. Peralta, 
 F. Ogliaro, M. J. Bearpark, J. J. Heyd, E. N. Brothers, K. N. Kudin, 
 V. N. Staroverov, T. A. Keith, R. Kobayashi, J. Normand, 
 K. Raghavachari, A. P. Rendell, J. C. Burant, S. S. Iyengar, 
 J. Tomasi, M. Cossi, J. M. Millam, M. Klene, C. Adamo, R. Cammi, 
 J. W. Ochterski, R. L. Martin, K. Morokuma, O. Farkas, 
 J. B. Foresman, and D. J. Fox, Gaussian, Inc., Wallingford CT, 2019.
 
 ******************************************
 Gaussian 16:  ES64L-G16RevC.01  3-Jul-2019
                 7-Dec-2024 
 ******************************************
 Default route: SCF=Direct
 ----------------------------------------------------
 # m06/genecp scf=tight int=ultrafine 5d freq=noraman
 ----------------------------------------------------
 1/10=4,30=1,38=1/1,3;
 2/12=2,17=6,18=5,40=1/2;
 3/5=7,8=1,11=2,16=1,17=8,25=1,30=1,71=2,74=-54,75=-5,140=1/1,2,3;
 4//1;
 5/5=2,32=2,38=5,98=1/2;
 8/6=4,10=90,11=11/1;
 11/6=1,8=1,9=11,15=111,16=1/1,2,10;
 10/6=1/2;
 6/7=2,8=2,9=2,10=2,28=1/1;
 7/8=1,10=1,25=1/1,2,3,16;
 1/10=4,30=1/3;
 99//99;
 ------
 OPT-TS
 ------
 Symbolic Z-matrix:
 Charge =  0 Multiplicity = 1
 C                    -1.61271  -2.21652  -0.81933 
 C                    -3.07703  -0.46977  -0.44933 
 C                    -4.15696  -1.2276   -0.88575 
 C                    -3.93878  -2.53302  -1.30476 
 C                    -2.64812  -3.03223  -1.27264 
 C                    -0.21524  -2.67035  -0.74289 
 C                     1.96066  -2.16992  -0.08466 
 C                     2.43642  -3.35906  -0.60938 
 C                     1.54583  -4.24086  -1.2149 
 C                     0.20992  -3.8913   -1.27243 
 H                    -3.19185   0.56868  -0.13865 
 H                    -4.76848  -3.15179  -1.63778 
 H                    -2.46342  -4.06027  -1.56979 
 H                     2.61104  -1.45486   0.41835 
 H                     1.89652  -5.18156  -1.6339 
 H                    -0.50187  -4.5604   -1.74642 
 N                    -1.83827  -0.9528   -0.41656 
 N                     0.66543  -1.82883  -0.15219 
 Ir                   -0.04869   0.08222   0.57667 
 O                     2.3465    0.80575  -1.19411 
 O                     2.59883  -0.12458   1.96623 
 O                     0.30106   3.07419  -0.41059 
 B                     1.57698   0.74413   1.58114 
 B                     0.97517   0.64792  -1.21203 
 B                    -0.48687   1.94683  -0.24906 
 O                    -1.80396   2.21549  -0.623 
 O                     0.50672   0.53101  -2.50972 
 C                     1.64686   0.41457  -3.38537 
 C                     2.79062   1.05096  -2.53959 
 C                    -0.58529   4.19092  -0.5888 
 C                    -1.83143   3.51809  -1.22913 
 C                     3.69732   0.67526   2.43494 
 C                     2.96393   1.95576   2.92568 
 O                     1.83034   2.01974   2.0494 
 C                     4.15355   0.41282  -2.72008 
 H                     4.4848    0.47729  -3.76657 
 H                     4.8911    0.93936  -2.10033 
 H                     4.15405  -0.64074  -2.41528 
 C                     2.89068   2.56061  -2.70028 
 H                     1.91406   3.0378   -2.54991 
 H                     3.56524   2.95154  -1.92767 
 H                     3.28724   2.84355  -3.68466 
 C                     1.85149  -1.07122  -3.65057 
 H                     2.11358  -1.61472  -2.73278 
 H                     0.91512  -1.49186  -4.04002 
 H                     2.64506  -1.24903  -4.38852 
 C                     1.34265   1.1262   -4.68803 
 H                     1.05515   2.17096  -4.52538 
 H                     2.21537   1.10566  -5.35655 
 H                     0.51153   0.62331  -5.19886 
 C                     4.44179  -0.09535   3.50573 
 H                     3.77242  -0.42859   4.30628 
 H                     4.90519  -0.98622   3.06117 
 H                     5.24068   0.5185    3.9462 
 C                     4.6128    0.92474   1.24257 
 H                     5.52731   1.45842   1.53516 
 H                     4.90279  -0.0466    0.81549 
 H                     4.09481   1.48968   0.45722 
 C                     2.42193   1.82168   4.34317 
 H                     1.74463   2.66231   4.54021 
 H                     1.8487    0.89158   4.4601 
 H                     3.22174   1.83809   5.09591 
 C                     3.76257   3.23663   2.79359 
 H                     4.6866    3.18696   3.38778 
 H                     4.02397   3.43934   1.7494 
 H                     3.16751   4.08258   3.16131 
 C                    -3.15404   4.18171  -0.90334 
 H                    -3.17755   5.21316  -1.2832 
 H                    -3.97397   3.62759  -1.37914 
 H                    -3.34261   4.2024    0.17582 
 C                    -1.70237   3.31876  -2.73291 
 H                    -0.75757   2.81914  -2.98517 
 H                    -2.51851   2.66803  -3.07169 
 H                    -1.76905   4.26911  -3.27952 
 C                     0.09362   5.23454  -1.45048 
 H                     0.40977   4.82526  -2.4168 
 H                    -0.5804    6.08283  -1.6375 
 H                     0.98535   5.6141   -0.93555 
 C                    -0.85405   4.75572   0.80058 
 H                    -1.37118   4.0228    1.43515 
 H                     0.10878   4.9813    1.27552 
 H                    -1.45488   5.67446   0.76383 
 H                    -0.65206   1.36129   1.38122 
 C                    -2.92184  -1.74313   2.47924 
 O                    -2.64241  -2.79081   1.89703 
 C                    -4.36265  -1.42577   2.85926 
 H                    -4.43754  -1.3398    3.95498 
 H                    -4.63714  -0.43376   2.46779 
 C                    -0.59129  -1.00413   2.40372 
 H                     0.04402  -0.71161   3.25225 
 H                    -0.44778  -2.07672   2.23563 
 N                    -1.97892  -0.81714   2.81537 
 C                    -2.31211   0.4747    3.37132 
 H                    -3.1246    0.40497   4.10174 
 H                    -1.42905   0.87305   3.88644 
 H                    -2.59576   1.20627   2.59314 
 C                    -5.3339   -2.47367   2.35211 
 H                    -5.32127  -2.52672   1.25571 
 H                    -5.06833  -3.4691    2.72361 
 C                    -5.51069  -0.59082  -0.92545 
 F                    -5.79566   0.02776   0.22724 
 F                    -5.57869   0.33571  -1.88802 
 F                    -6.47379  -1.48752  -1.1543 
 C                     3.90883  -3.62323  -0.63179 
 F                     4.17524  -4.92689  -0.51035 
 F                     4.43569  -3.22344  -1.80071 
 F                     4.55374  -2.97488   0.3377 
 H                    -6.3576   -2.2382    2.66769 
 

 GradGradGradGradGradGradGradGradGradGradGradGradGradGradGradGradGradGrad
 Berny optimization.
 Initialization pass.
 Trust Radius=3.00D-01 FncErr=1.00D-07 GrdErr=1.00D-07 EigMax=2.50D+02 EigMin=1.00D-04
 Number of steps in this run=      2 maximum allowed number of steps=      2.
 GradGradGradGradGradGradGradGradGradGradGradGradGradGradGradGradGradGrad

 Stoichiometry    C35H53B3F6IrN3O7
 Framework group  C1[X(C35H53B3F6IrN3O7)]
 Deg. of freedom   318
 Full point group                 C1      NOp   1
 Largest Abelian subgroup         C1      NOp   1
 Largest concise Abelian subgroup C1      NOp   1
                         Standard orientation:                         
 ---------------------------------------------------------------------
 Center     Atomic      Atomic             Coordinates (Angstroms)
 Number     Number       Type             X           Y           Z
 ---------------------------------------------------------------------
      1          6           0       -1.612711   -2.216519   -0.819329
      2          6           0       -3.077030   -0.469769   -0.449329
      3          6           0       -4.156960   -1.227598   -0.885749
      4          6           0       -3.938781   -2.533019   -1.304759
      5          6           0       -2.648121   -3.032229   -1.272639
      6          6           0       -0.215241   -2.670350   -0.742889
      7          6           0        1.960659   -2.169921   -0.084659
      8          6           0        2.436419   -3.359061   -0.609379
      9          6           0        1.545829   -4.240861   -1.214899
     10          6           0        0.209919   -3.891300   -1.272429
     11          1           0       -3.191849    0.568681   -0.138649
     12          1           0       -4.768481   -3.151788   -1.637779
     13          1           0       -2.463421   -4.060269   -1.569789
     14          1           0        2.611040   -1.454861    0.418351
     15          1           0        1.896518   -5.181561   -1.633899
     16          1           0       -0.501872   -4.560400   -1.746419
     17          7           0       -1.838270   -0.952799   -0.416559
     18          7           0        0.665430   -1.828830   -0.152189
     19         77           0       -0.048690    0.082220    0.576671
     20          8           0        2.346501    0.805749   -1.194109
     21          8           0        2.598830   -0.124581    1.966231
     22          8           0        0.301062    3.074190   -0.410589
     23          5           0        1.576981    0.744129    1.581141
     24          5           0        0.975171    0.647919   -1.212029
     25          5           0       -0.486869    1.946830   -0.249059
     26          8           0       -1.803959    2.215491   -0.622999
     27          8           0        0.506721    0.531010   -2.509719
     28          6           0        1.646861    0.414569   -3.385369
     29          6           0        2.790621    1.050959   -2.539589
     30          6           0       -0.585288    4.190920   -0.588799
     31          6           0       -1.831428    3.518091   -1.229129
     32          6           0        3.697321    0.675258    2.434941
     33          6           0        2.963931    1.955759    2.925681
     34          8           0        1.830341    2.019739    2.049401
     35          6           0        4.153550    0.412818   -2.720079
     36          1           0        4.484801    0.477288   -3.766569
     37          1           0        4.891101    0.939358   -2.100329
     38          1           0        4.154050   -0.640742   -2.415279
     39          6           0        2.890681    2.560609   -2.700279
     40          1           0        1.914062    3.037799   -2.549909
     41          1           0        3.565242    2.951538   -1.927669
     42          1           0        3.287242    2.843548   -3.684659
     43          6           0        1.851490   -1.071221   -3.650569
     44          1           0        2.113580   -1.614721   -2.732779
     45          1           0        0.915120   -1.491861   -4.040019
     46          1           0        2.645060   -1.249031   -4.388519
     47          6           0        1.342651    1.126199   -4.688029
     48          1           0        1.055151    2.170959   -4.525379
     49          1           0        2.215371    1.105659   -5.356549
     50          1           0        0.511531    0.623310   -5.198859
     51          6           0        4.441790   -0.095352    3.505731
     52          1           0        3.772420   -0.428592    4.306281
     53          1           0        4.905190   -0.986222    3.061171
     54          1           0        5.240681    0.518498    3.946201
     55          6           0        4.612801    0.924738    1.242571
     56          1           0        5.527311    1.458418    1.535161
     57          1           0        4.902790   -0.046602    0.815491
     58          1           0        4.094811    1.489678    0.457221
     59          6           0        2.421931    1.821679    4.343171
     60          1           0        1.744631    2.662309    4.540211
     61          1           0        1.848701    0.891579    4.460101
     62          1           0        3.221741    1.838089    5.095911
     63          6           0        3.762572    3.236628    2.793591
     64          1           0        4.686602    3.186958    3.387781
     65          1           0        4.023972    3.439338    1.749401
     66          1           0        3.167512    4.082579    3.161311
     67          6           0       -3.154038    4.181711   -0.903339
     68          1           0       -3.177548    5.213161   -1.283199
     69          1           0       -3.973968    3.627591   -1.379139
     70          1           0       -3.342608    4.202401    0.175821
     71          6           0       -1.702368    3.318761   -2.732909
     72          1           0       -0.757569    2.819140   -2.985169
     73          1           0       -2.518509    2.668031   -3.071689
     74          1           0       -1.769048    4.269111   -3.279519
     75          6           0        0.093622    5.234540   -1.450479
     76          1           0        0.409772    4.825260   -2.416799
     77          1           0       -0.580397    6.082830   -1.637499
     78          1           0        0.985353    5.614099   -0.935549
     79          6           0       -0.854048    4.755720    0.800581
     80          1           0       -1.371178    4.022800    1.435151
     81          1           0        0.108782    4.981300    1.275521
     82          1           0       -1.454877    5.674460    0.763831
     83          1           0       -0.652059    1.361290    1.381221
     84          6           0       -2.921840   -1.743129    2.479241
     85          8           0       -2.642411   -2.790809    1.897031
     86          6           0       -4.362650   -1.425768    2.859261
     87          1           0       -4.437540   -1.339798    3.954981
     88          1           0       -4.637140   -0.433758    2.467791
     89          6           0       -0.591290   -1.004130    2.403721
     90          1           0        0.044020   -0.711610    3.252251
     91          1           0       -0.447781   -2.076720    2.235631
     92          7           0       -1.978920   -0.817139    2.815371
     93          6           0       -2.312109    0.474701    3.371321
     94          1           0       -3.124600    0.404971    4.101741
     95          1           0       -1.429049    0.873050    3.886441
     96          1           0       -2.595759    1.206271    2.593141
     97          6           0       -5.333901   -2.473668    2.352111
     98          1           0       -5.321271   -2.526718    1.255711
     99          1           0       -5.068331   -3.469098    2.723611
    100          6           0       -5.510690   -0.590818   -0.925449
    101          9           0       -5.795660    0.027762    0.227241
    102          9           0       -5.578690    0.335712   -1.888019
    103          9           0       -6.473790   -1.487517   -1.154299
    104          6           0        3.908829   -3.623232   -0.631789
    105          9           0        4.175238   -4.926892   -0.510349
    106          9           0        4.435689   -3.223442   -1.800709
    107          9           0        4.553739   -2.974882    0.337701
    108          1           0       -6.357601   -2.238198    2.667691
 ---------------------------------------------------------------------
 Rotational constants (GHZ):           0.0619816           0.0443690           0.0394054
 General basis read from cards:  (5D, 7F)
 ======================================================================================================
                                       Pseudopotential Parameters
 ======================================================================================================
  Center     Atomic      Valence      Angular      Power
  Number     Number     Electrons     Momentum     of R      Exponent        Coefficient   SO-Coeffient
 ======================================================================================================
    1          6
                                   No pseudopotential on this center.
    2          6
                                   No pseudopotential on this center.
    3          6
                                   No pseudopotential on this center.
    4          6
                                   No pseudopotential on this center.
    5          6
                                   No pseudopotential on this center.
    6          6
                                   No pseudopotential on this center.
    7          6
                                   No pseudopotential on this center.
    8          6
                                   No pseudopotential on this center.
    9          6
                                   No pseudopotential on this center.
   10          6
                                   No pseudopotential on this center.
   11          1
                                   No pseudopotential on this center.
   12          1
                                   No pseudopotential on this center.
   13          1
                                   No pseudopotential on this center.
   14          1
                                   No pseudopotential on this center.
   15          1
                                   No pseudopotential on this center.
   16          1
                                   No pseudopotential on this center.
   17          7
                                   No pseudopotential on this center.
   18          7
                                   No pseudopotential on this center.
   19         77           17
                                      G and up 
                                                     1      823.5880147       -0.15780140    0.00000000
                                                     2      364.6613336    -1517.52704460    0.00000000
                                                     2       55.7082801     -316.53065290    0.00000000
                                                     2       12.0464544      -91.88809410    0.00000000
                                                     2        3.5120610       -9.22417730    0.00000000
                                      S - G
                                                     0      188.0490770        3.15780140    0.00000000
                                                     1      340.4194712       26.83225770    0.00000000
                                                     2      128.2373673      800.42500070    0.00000000
                                                     2       33.8644961      369.40506830    0.00000000
                                                     2        4.7560005      242.41718990    0.00000000
                                                     2        3.9649974     -118.21732820    0.00000000
                                      P - G
                                                     0      289.7291139        2.15780140    0.00000000
                                                     1       87.4633789       61.96786100    0.00000000
                                                     2       30.4363766      269.05819860    0.00000000
                                                     2        4.0553412      231.16547930    0.00000000
                                                     2        3.5525341     -133.69526670    0.00000000
                                      D - G
                                                     0      136.4017106        3.15780140    0.00000000
                                                     1       95.0776925       45.93498030    0.00000000
                                                     2       49.2258410      359.03446680    0.00000000
                                                     2       15.0874145      176.47401190    0.00000000
                                                     2        4.0405764       54.51552860    0.00000000
                                      F - G
                                                     0      127.3507908        3.95461970    0.00000000
                                                     1       66.2364374       52.97736550    0.00000000
                                                     2       34.4299229      274.86433830    0.00000000
                                                     2       10.1995721      137.20473380    0.00000000
                                                     2        2.5409702       14.86333050    0.00000000
   20          8
                                   No pseudopotential on this center.
   21          8
                                   No pseudopotential on this center.
   22          8
                                   No pseudopotential on this center.
   23          5
                                   No pseudopotential on this center.
   24          5
                                   No pseudopotential on this center.
   25          5
                                   No pseudopotential on this center.
   26          8
                                   No pseudopotential on this center.
   27          8
                                   No pseudopotential on this center.
   28          6
                                   No pseudopotential on this center.
   29          6
                                   No pseudopotential on this center.
   30          6
                                   No pseudopotential on this center.
   31          6
                                   No pseudopotential on this center.
   32          6
                                   No pseudopotential on this center.
   33          6
                                   No pseudopotential on this center.
   34          8
                                   No pseudopotential on this center.
   35          6
                                   No pseudopotential on this center.
   36          1
                                   No pseudopotential on this center.
   37          1
                                   No pseudopotential on this center.
   38          1
                                   No pseudopotential on this center.
   39          6
                                   No pseudopotential on this center.
   40          1
                                   No pseudopotential on this center.
   41          1
                                   No pseudopotential on this center.
   42          1
                                   No pseudopotential on this center.
   43          6
                                   No pseudopotential on this center.
   44          1
                                   No pseudopotential on this center.
   45          1
                                   No pseudopotential on this center.
   46          1
                                   No pseudopotential on this center.
   47          6
                                   No pseudopotential on this center.
   48          1
                                   No pseudopotential on this center.
   49          1
                                   No pseudopotential on this center.
   50          1
                                   No pseudopotential on this center.
   51          6
                                   No pseudopotential on this center.
   52          1
                                   No pseudopotential on this center.
   53          1
                                   No pseudopotential on this center.
   54          1
                                   No pseudopotential on this center.
   55          6
                                   No pseudopotential on this center.
   56          1
                                   No pseudopotential on this center.
   57          1
                                   No pseudopotential on this center.
   58          1
                                   No pseudopotential on this center.
   59          6
                                   No pseudopotential on this center.
   60          1
                                   No pseudopotential on this center.
   61          1
                                   No pseudopotential on this center.
   62          1
                                   No pseudopotential on this center.
   63          6
                                   No pseudopotential on this center.
   64          1
                                   No pseudopotential on this center.
   65          1
                                   No pseudopotential on this center.
   66          1
                                   No pseudopotential on this center.
   67          6
                                   No pseudopotential on this center.
   68          1
                                   No pseudopotential on this center.
   69          1
                                   No pseudopotential on this center.
   70          1
                                   No pseudopotential on this center.
   71          6
                                   No pseudopotential on this center.
   72          1
                                   No pseudopotential on this center.
   73          1
                                   No pseudopotential on this center.
   74          1
                                   No pseudopotential on this center.
   75          6
                                   No pseudopotential on this center.
   76          1
                                   No pseudopotential on this center.
   77          1
                                   No pseudopotential on this center.
   78          1
                                   No pseudopotential on this center.
   79          6
                                   No pseudopotential on this center.
   80          1
                                   No pseudopotential on this center.
   81          1
                                   No pseudopotential on this center.
   82          1
                                   No pseudopotential on this center.
   83          1
                                   No pseudopotential on this center.
   84          6
                                   No pseudopotential on this center.
   85          8
                                   No pseudopotential on this center.
   86          6
                                   No pseudopotential on this center.
   87          1
                                   No pseudopotential on this center.
   88          1
                                   No pseudopotential on this center.
   89          6
                                   No pseudopotential on this center.
   90          1
                                   No pseudopotential on this center.
   91          1
                                   No pseudopotential on this center.
   92          7
                                   No pseudopotential on this center.
   93          6
                                   No pseudopotential on this center.
   94          1
                                   No pseudopotential on this center.
   95          1
                                   No pseudopotential on this center.
   96          1
                                   No pseudopotential on this center.
   97          6
                                   No pseudopotential on this center.
   98          1
                                   No pseudopotential on this center.
   99          1
                                   No pseudopotential on this center.
  100          6
                                   No pseudopotential on this center.
  101          9
                                   No pseudopotential on this center.
  102          9
                                   No pseudopotential on this center.
  103          9
                                   No pseudopotential on this center.
  104          6
                                   No pseudopotential on this center.
  105          9
                                   No pseudopotential on this center.
  106          9
                                   No pseudopotential on this center.
  107          9
                                   No pseudopotential on this center.
  108          1
                                   No pseudopotential on this center.
 ======================================================================================================
 There are   940 symmetry adapted cartesian basis functions of A   symmetry.
 There are   884 symmetry adapted basis functions of A   symmetry.
   884 basis functions,  1767 primitive gaussians,   940 cartesian basis functions
   213 alpha electrons      213 beta electrons
       nuclear repulsion energy      9769.2061860919 Hartrees.
 NAtoms=  108 NActive=  108 NUniq=  108 SFac= 1.00D+00 NAtFMM=   60 NAOKFM=T Big=T
 Integral buffers will be    131072 words long.
 Raffenetti 2 integral format.
 Two-electron integral symmetry is turned on.
 One-electron integrals computed using PRISM.
   1 Symmetry operations used in ECPInt.
 ECPInt:  NShTT=   54615 NPrTT=  339395 LenC2=   41189 LenP2D=  127749.
 LDataN:  DoStor=T MaxTD1= 6 Len=  172
 NBasis=   884 RedAO= T EigKep=  4.43D-04  NBF=   884
 NBsUse=   884 1.00D-06 EigRej= -1.00D+00 NBFU=   884
 Defaulting to unpruned grid for atomic number  77.
 ExpMin= 2.90D-02 ExpMax= 7.00D+03 ExpMxC= 1.05D+03 IAcc=3 IRadAn=         5 AccDes= 0.00D+00
 Harris functional with IExCor= 1009 and IRadAn=       5 diagonalized for initial guess.
 HarFok:  IExCor= 1009 AccDes= 0.00D+00 IRadAn=         5 IDoV= 1 UseB2=F ITyADJ=14
 ICtDFT=  3500011 ScaDFX=  1.000000  1.000000  1.000000  1.000000
 Defaulting to unpruned grid for atomic number  77.
 FoFCou: FMM=F IPFlag=           0 FMFlag=      100000 FMFlg1=        2001
         NFxFlg=           0 DoJE=T BraDBF=F KetDBF=T FulRan=T
         wScrn=  0.000000 ICntrl=       500 IOpCl=  0 I1Cent=   200000004 NGrid=           0
         NMat0=    1 NMatS0=      1 NMatT0=    0 NMatD0=    1 NMtDS0=    0 NMtDT0=    0
 Petite list used in FoFCou.
 Requested convergence on RMS density matrix=1.00D-08 within 128 cycles.
 Requested convergence on MAX density matrix=1.00D-06.
 Requested convergence on             energy=1.00D-06.
 No special actions if energy rises.
 Defaulting to unpruned grid for atomic number  77.
 Defaulting to unpruned grid for atomic number  77.
 Defaulting to unpruned grid for atomic number  77.
 Defaulting to unpruned grid for atomic number  77.
 Defaulting to unpruned grid for atomic number  77.
 Defaulting to unpruned grid for atomic number  77.
 Defaulting to unpruned grid for atomic number  77.
 Defaulting to unpruned grid for atomic number  77.
 Defaulting to unpruned grid for atomic number  77.
 Defaulting to unpruned grid for atomic number  77.
 Defaulting to unpruned grid for atomic number  77.
 Defaulting to unpruned grid for atomic number  77.
 Defaulting to unpruned grid for atomic number  77.
 Defaulting to unpruned grid for atomic number  77.
 Defaulting to unpruned grid for atomic number  77.
 Defaulting to unpruned grid for atomic number  77.
 SCF Done:  E(RM06) =  -2833.56080561     A.U. after   14 cycles
            NFock= 14  Conv=0.77D-08     -V/T= 2.0320
 DoSCS=F DFT=T ScalE2(SS,OS)=  1.000000  1.000000
 Range of M.O.s used for correlation:     1   884
 NBasis=   884 NAE=   213 NBE=   213 NFC=     0 NFV=     0
 NROrb=    884 NOA=   213 NOB=   213 NVA=   671 NVB=   671

 **** Warning!!: The largest alpha MO coefficient is  0.11023061D+02


 **** Warning!!: The smallest alpha delta epsilon is  0.99451604D-01

   1 Symmetry operations used in ECPInt.
 ECPInt:  NShTT=   54615 NPrTT=  339395 LenC2=   41189 LenP2D=  127749.
 LDataN:  DoStor=T MaxTD1= 7 Len=  274
 Number of processors reduced to   7 by ecpmxn.
 Symmetrizing basis deriv contribution to polar:
 IMax=3 JMax=2 DiffMx= 0.00D+00
 G2DrvN: will do   109 centers at a time, making    1 passes.
 Calling FoFCou, ICntrl=  3107 FMM=T I1Cent=   0 AccDes= 0.00D+00.
 Defaulting to unpruned grid for atomic number  77.
 Defaulting to unpruned grid for atomic number  77.
 Defaulting to unpruned grid for atomic number  77.
 Defaulting to unpruned grid for atomic number  77.
 Defaulting to unpruned grid for atomic number  77.
 Defaulting to unpruned grid for atomic number  77.
 Defaulting to unpruned grid for atomic number  77.
 Defaulting to unpruned grid for atomic number  77.
 Defaulting to unpruned grid for atomic number  77.
 Defaulting to unpruned grid for atomic number  77.
 Defaulting to unpruned grid for atomic number  77.
 Defaulting to unpruned grid for atomic number  77.
 Defaulting to unpruned grid for atomic number  77.
 Defaulting to unpruned grid for atomic number  77.
 Defaulting to unpruned grid for atomic number  77.
 Defaulting to unpruned grid for atomic number  77.
 End of G2Drv F.D. properties file   721 does not exist.
 End of G2Drv F.D. properties file   722 does not exist.
 End of G2Drv F.D. properties file   788 does not exist.
          IDoAtm=11111111111111111111111111111111111111111111111111
          IDoAtm=11111111111111111111111111111111111111111111111111
          IDoAtm=11111111
          Differentiating once with respect to electric field.
                with respect to dipole field.
          Differentiating once with respect to nuclear coordinates.
 Defaulting to unpruned grid for atomic number  77.
 CalDSu exits because no D1Ps are significant.
 Defaulting to unpruned grid for atomic number  77.
 Defaulting to unpruned grid for atomic number  77.
 Defaulting to unpruned grid for atomic number  77.
 Defaulting to unpruned grid for atomic number  77.
 Defaulting to unpruned grid for atomic number  77.
 Defaulting to unpruned grid for atomic number  77.
 Defaulting to unpruned grid for atomic number  77.
 Defaulting to unpruned grid for atomic number  77.
 Defaulting to unpruned grid for atomic number  77.
 Defaulting to unpruned grid for atomic number  77.
 Defaulting to unpruned grid for atomic number  77.
 Defaulting to unpruned grid for atomic number  77.
 Defaulting to unpruned grid for atomic number  77.
 Defaulting to unpruned grid for atomic number  77.
 Defaulting to unpruned grid for atomic number  77.
 Defaulting to unpruned grid for atomic number  77.
          There are   327 degrees of freedom in the 1st order CPHF.  IDoFFX=6 NUNeed=     3.
    324 vectors produced by pass  0 Test12= 1.43D-13 1.00D-09 XBig12= 5.07D+02 1.01D+01.
 AX will form    72 AO Fock derivatives at one time.
    324 vectors produced by pass  1 Test12= 1.43D-13 1.00D-09 XBig12= 8.41D+01 1.04D+00.
    324 vectors produced by pass  2 Test12= 1.43D-13 1.00D-09 XBig12= 9.70D-01 7.69D-02.
    324 vectors produced by pass  3 Test12= 1.43D-13 1.00D-09 XBig12= 7.43D-03 6.43D-03.
    324 vectors produced by pass  4 Test12= 1.43D-13 1.00D-09 XBig12= 3.12D-05 3.19D-04.
    293 vectors produced by pass  5 Test12= 1.43D-13 1.00D-09 XBig12= 6.45D-08 1.62D-05.
     86 vectors produced by pass  6 Test12= 1.43D-13 1.00D-09 XBig12= 9.45D-11 5.03D-07.
      3 vectors produced by pass  7 Test12= 1.43D-13 1.00D-09 XBig12= 1.25D-13 2.34D-08.
      1 vectors produced by pass  8 Test12= 1.43D-13 1.00D-09 XBig12= 1.67D-16 1.18D-09.
 InvSVY:  IOpt=1 It=  1 EMax= 2.49D-14
 Solved reduced A of dimension  2003 with   327 vectors.
 Isotropic polarizability for W=    0.000000      488.15 Bohr**3.
 End of Minotr F.D. properties file   721 does not exist.
 End of Minotr F.D. properties file   722 does not exist.
 End of Minotr F.D. properties file   788 does not exist.
 Hyperfine terms turned off by default for NAtoms > 100.

 **********************************************************************

            Population analysis using the SCF Density.

 **********************************************************************

 Orbital symmetries:
       Occupied  (A) (A) (A) (A) (A) (A) (A) (A) (A) (A) (A) (A)
                 (A) (A) (A) (A) (A) (A) (A) (A) (A) (A) (A) (A)
                 (A) (A) (A) (A) (A) (A) (A) (A) (A) (A) (A) (A)
                 (A) (A) (A) (A) (A) (A) (A) (A) (A) (A) (A) (A)
                 (A) (A) (A) (A) (A) (A) (A) (A) (A) (A) (A) (A)
                 (A) (A) (A) (A) (A) (A) (A) (A) (A) (A) (A) (A)
                 (A) (A) (A) (A) (A) (A) (A) (A) (A) (A) (A) (A)
                 (A) (A) (A) (A) (A) (A) (A) (A) (A) (A) (A) (A)
                 (A) (A) (A) (A) (A) (A) (A) (A) (A) (A) (A) (A)
                 (A) (A) (A) (A) (A) (A) (A) (A) (A) (A) (A) (A)
                 (A) (A) (A) (A) (A) (A) (A) (A) (A) (A) (A) (A)
                 (A) (A) (A) (A) (A) (A) (A) (A) (A) (A) (A) (A)
                 (A) (A) (A) (A) (A) (A) (A) (A) (A) (A) (A) (A)
                 (A) (A) (A) (A) (A) (A) (A) (A) (A) (A) (A) (A)
                 (A) (A) (A) (A) (A) (A) (A) (A) (A) (A) (A) (A)
                 (A) (A) (A) (A) (A) (A) (A) (A) (A) (A) (A) (A)
                 (A) (A) (A) (A) (A) (A) (A) (A) (A) (A) (A) (A)
                 (A) (A) (A) (A) (A) (A) (A) (A) (A)
       Virtual   (A) (A) (A) (A) (A) (A) (A) (A) (A) (A) (A) (A)
                 (A) (A) (A) (A) (A) (A) (A) (A) (A) (A) (A) (A)
                 (A) (A) (A) (A) (A) (A) (A) (A) (A) (A) (A) (A)
                 (A) (A) (A) (A) (A) (A) (A) (A) (A) (A) (A) (A)
                 (A) (A) (A) (A) (A) (A) (A) (A) (A) (A) (A) (A)
                 (A) (A) (A) (A) (A) (A) (A) (A) (A) (A) (A) (A)
                 (A) (A) (A) (A) (A) (A) (A) (A) (A) (A) (A) (A)
                 (A) (A) (A) (A) (A) (A) (A) (A) (A) (A) (A) (A)
                 (A) (A) (A) (A) (A) (A) (A) (A) (A) (A) (A) (A)
                 (A) (A) (A) (A) (A) (A) (A) (A) (A) (A) (A) (A)
                 (A) (A) (A) (A) (A) (A) (A) (A) (A) (A) (A) (A)
                 (A) (A) (A) (A) (A) (A) (A) (A) (A) (A) (A) (A)
                 (A) (A) (A) (A) (A) (A) (A) (A) (A) (A) (A) (A)
                 (A) (A) (A) (A) (A) (A) (A) (A) (A) (A) (A) (A)
                 (A) (A) (A) (A) (A) (A) (A) (A) (A) (A) (A) (A)
                 (A) (A) (A) (A) (A) (A) (A) (A) (A) (A) (A) (A)
                 (A) (A) (A) (A) (A) (A) (A) (A) (A) (A) (A) (A)
                 (A) (A) (A) (A) (A) (A) (A) (A) (A) (A) (A) (A)
                 (A) (A) (A) (A) (A) (A) (A) (A) (A) (A) (A) (A)
                 (A) (A) (A) (A) (A) (A) (A) (A) (A) (A) (A) (A)
                 (A) (A) (A) (A) (A) (A) (A) (A) (A) (A) (A) (A)
                 (A) (A) (A) (A) (A) (A) (A) (A) (A) (A) (A) (A)
                 (A) (A) (A) (A) (A) (A) (A) (A) (A) (A) (A) (A)
                 (A) (A) (A) (A) (A) (A) (A) (A) (A) (A) (A) (A)
                 (A) (A) (A) (A) (A) (A) (A) (A) (A) (A) (A) (A)
                 (A) (A) (A) (A) (A) (A) (A) (A) (A) (A) (A) (A)
                 (A) (A) (A) (A) (A) (A) (A) (A) (A) (A) (A) (A)
                 (A) (A) (A) (A) (A) (A) (A) (A) (A) (A) (A) (A)
                 (A) (A) (A) (A) (A) (A) (A) (A) (A) (A) (A) (A)
                 (A) (A) (A) (A) (A) (A) (A) (A) (A) (A) (A) (A)
                 (A) (A) (A) (A) (A) (A) (A) (A) (A) (A) (A) (A)
                 (A) (A) (A) (A) (A) (A) (A) (A) (A) (A) (A) (A)
                 (A) (A) (A) (A) (A) (A) (A) (A) (A) (A) (A) (A)
                 (A) (A) (A) (A) (A) (A) (A) (A) (A) (A) (A) (A)
                 (A) (A) (A) (A) (A) (A) (A) (A) (A) (A) (A) (A)
                 (A) (A) (A) (A) (A) (A) (A) (A) (A) (A) (A) (A)
                 (A) (A) (A) (A) (A) (A) (A) (A) (A) (A) (A) (A)
                 (A) (A) (A) (A) (A) (A) (A) (A) (A) (A) (A) (A)
                 (A) (A) (A) (A) (A) (A) (A) (A) (A) (A) (A) (A)
                 (A) (A) (A) (A) (A) (A) (A) (A) (A) (A) (A) (A)
                 (A) (A) (A) (A) (A) (A) (A) (A) (A) (A) (A) (A)
                 (A) (A) (A) (A) (A) (A) (A) (A) (A) (A) (A) (A)
                 (A) (A) (A) (A) (A) (A) (A) (A) (A) (A) (A) (A)
                 (A) (A) (A) (A) (A) (A) (A) (A) (A) (A) (A) (A)
                 (A) (A) (A) (A) (A) (A) (A) (A) (A) (A) (A) (A)
                 (A) (A) (A) (A) (A) (A) (A) (A) (A) (A) (A) (A)
                 (A) (A) (A) (A) (A) (A) (A) (A) (A) (A) (A) (A)
                 (A) (A) (A) (A) (A) (A) (A) (A) (A) (A) (A) (A)
                 (A) (A) (A) (A) (A) (A) (A) (A) (A) (A) (A) (A)
                 (A) (A) (A) (A) (A) (A) (A) (A) (A) (A) (A) (A)
                 (A) (A) (A) (A) (A) (A) (A) (A) (A) (A) (A) (A)
                 (A) (A) (A) (A) (A) (A) (A) (A) (A) (A) (A) (A)
                 (A) (A) (A) (A) (A) (A) (A) (A) (A) (A) (A) (A)
                 (A) (A) (A) (A) (A) (A) (A) (A) (A) (A) (A) (A)
                 (A) (A) (A) (A) (A) (A) (A) (A) (A) (A) (A) (A)
                 (A) (A) (A) (A) (A) (A) (A) (A) (A) (A) (A)
 The electronic state is 1-A.
 Alpha  occ. eigenvalues --  -24.83609 -24.83552 -24.83378 -24.83134 -24.82955
 Alpha  occ. eigenvalues --  -24.82668 -19.21817 -19.21451 -19.21002 -19.20872
 Alpha  occ. eigenvalues --  -19.20452 -19.19865 -19.16692 -14.47351 -14.44936
 Alpha  occ. eigenvalues --  -14.40586 -10.51965 -10.51490 -10.33701 -10.32799
 Alpha  occ. eigenvalues --  -10.32270 -10.31625 -10.31086 -10.30578 -10.30515
 Alpha  occ. eigenvalues --  -10.30229 -10.30041 -10.29881 -10.29812 -10.29733
 Alpha  occ. eigenvalues --  -10.29675 -10.29405 -10.29279 -10.29145 -10.28905
 Alpha  occ. eigenvalues --  -10.26212 -10.23904 -10.23697 -10.23666 -10.23401
 Alpha  occ. eigenvalues --  -10.23228 -10.23214 -10.22732 -10.22701 -10.22665
 Alpha  occ. eigenvalues --  -10.22585 -10.22523 -10.22517 -10.22349 -10.22276
 Alpha  occ. eigenvalues --  -10.21984  -6.82458  -6.81715  -6.79576  -3.65021
 Alpha  occ. eigenvalues --   -2.07946  -2.06731  -2.05863  -1.36292  -1.35868
 Alpha  occ. eigenvalues --   -1.27814  -1.27384  -1.27268  -1.26839  -1.07497
 Alpha  occ. eigenvalues --   -1.06982  -1.06179  -1.02451  -1.01405  -1.00579
 Alpha  occ. eigenvalues --   -1.00061  -0.99237  -0.98723  -0.92040  -0.87226
 Alpha  occ. eigenvalues --   -0.86029  -0.84581  -0.81458  -0.80908  -0.80758
 Alpha  occ. eigenvalues --   -0.80259  -0.77227  -0.76033  -0.75802  -0.75337
 Alpha  occ. eigenvalues --   -0.74736  -0.72794  -0.71303  -0.70715  -0.70207
 Alpha  occ. eigenvalues --   -0.69972  -0.69676  -0.69097  -0.68433  -0.68016
 Alpha  occ. eigenvalues --   -0.67564  -0.67481  -0.66646  -0.65639  -0.62859
 Alpha  occ. eigenvalues --   -0.62388  -0.62316  -0.62018  -0.61877  -0.61665
 Alpha  occ. eigenvalues --   -0.61613  -0.61156  -0.60918  -0.60401  -0.57155
 Alpha  occ. eigenvalues --   -0.55827  -0.55620  -0.55032  -0.54822  -0.54461
 Alpha  occ. eigenvalues --   -0.53986  -0.53302  -0.51801  -0.51618  -0.50223
 Alpha  occ. eigenvalues --   -0.49874  -0.49531  -0.49364  -0.49250  -0.49078
 Alpha  occ. eigenvalues --   -0.48956  -0.48466  -0.48147  -0.48098  -0.47712
 Alpha  occ. eigenvalues --   -0.47541  -0.46981  -0.46971  -0.46841  -0.46575
 Alpha  occ. eigenvalues --   -0.46175  -0.45962  -0.45701  -0.45548  -0.45385
 Alpha  occ. eigenvalues --   -0.45162  -0.45126  -0.44810  -0.44612  -0.44483
 Alpha  occ. eigenvalues --   -0.44125  -0.44042  -0.43620  -0.43590  -0.43451
 Alpha  occ. eigenvalues --   -0.43264  -0.43112  -0.43042  -0.42288  -0.40932
 Alpha  occ. eigenvalues --   -0.40875  -0.40619  -0.40515  -0.40405  -0.40299
 Alpha  occ. eigenvalues --   -0.40195  -0.39979  -0.39868  -0.39813  -0.39657
 Alpha  occ. eigenvalues --   -0.39645  -0.39245  -0.39093  -0.38916  -0.38640
 Alpha  occ. eigenvalues --   -0.38357  -0.37975  -0.37525  -0.37408  -0.37315
 Alpha  occ. eigenvalues --   -0.37219  -0.36992  -0.36871  -0.36515  -0.36451
 Alpha  occ. eigenvalues --   -0.36131  -0.35940  -0.35929  -0.35600  -0.35544
 Alpha  occ. eigenvalues --   -0.35158  -0.34992  -0.34767  -0.34523  -0.34085
 Alpha  occ. eigenvalues --   -0.33747  -0.33560  -0.33125  -0.32862  -0.32485
 Alpha  occ. eigenvalues --   -0.32318  -0.32059  -0.31699  -0.31153  -0.30702
 Alpha  occ. eigenvalues --   -0.30191  -0.29970  -0.28653  -0.28080  -0.27480
 Alpha  occ. eigenvalues --   -0.26931  -0.26500  -0.25955  -0.25643  -0.24070
 Alpha  occ. eigenvalues --   -0.23912  -0.23323  -0.18686
 Alpha virt. eigenvalues --   -0.08740  -0.05100  -0.03872  -0.00598   0.02236
 Alpha virt. eigenvalues --    0.03601   0.05074   0.05469   0.06477   0.06584
 Alpha virt. eigenvalues --    0.07005   0.08019   0.08679   0.09132   0.09611
 Alpha virt. eigenvalues --    0.09955   0.10285   0.11004   0.11269   0.11598
 Alpha virt. eigenvalues --    0.12068   0.12418   0.12657   0.12818   0.13108
 Alpha virt. eigenvalues --    0.13379   0.13682   0.14176   0.14197   0.14388
 Alpha virt. eigenvalues --    0.14452   0.14850   0.15136   0.15436   0.15523
 Alpha virt. eigenvalues --    0.15729   0.15810   0.15985   0.16149   0.16495
 Alpha virt. eigenvalues --    0.16641   0.16913   0.16992   0.17188   0.17436
 Alpha virt. eigenvalues --    0.17630   0.17833   0.18037   0.18242   0.18417
 Alpha virt. eigenvalues --    0.18520   0.18802   0.19171   0.19297   0.19455
 Alpha virt. eigenvalues --    0.19633   0.19798   0.19935   0.20087   0.20513
 Alpha virt. eigenvalues --    0.20538   0.20734   0.21287   0.21441   0.21523
 Alpha virt. eigenvalues --    0.21704   0.21805   0.22095   0.22260   0.22458
 Alpha virt. eigenvalues --    0.22674   0.22892   0.23045   0.23279   0.23420
 Alpha virt. eigenvalues --    0.23538   0.23913   0.24069   0.24274   0.24330
 Alpha virt. eigenvalues --    0.24618   0.24816   0.24944   0.25113   0.25466
 Alpha virt. eigenvalues --    0.25945   0.26190   0.26301   0.26572   0.26754
 Alpha virt. eigenvalues --    0.27106   0.27158   0.27388   0.27608   0.27993
 Alpha virt. eigenvalues --    0.28342   0.28938   0.29118   0.30215   0.30439
 Alpha virt. eigenvalues --    0.30860   0.31237   0.31766   0.32503   0.33334
 Alpha virt. eigenvalues --    0.33759   0.34091   0.35090   0.35327   0.35763
 Alpha virt. eigenvalues --    0.36298   0.36446   0.37149   0.38031   0.38571
 Alpha virt. eigenvalues --    0.39104   0.39635   0.40584   0.41256   0.41600
 Alpha virt. eigenvalues --    0.42450   0.44906   0.45942   0.46187   0.47163
 Alpha virt. eigenvalues --    0.47305   0.47816   0.48348   0.48593   0.49136
 Alpha virt. eigenvalues --    0.49398   0.49757   0.50509   0.50733   0.51103
 Alpha virt. eigenvalues --    0.51452   0.51783   0.52026   0.52224   0.52621
 Alpha virt. eigenvalues --    0.53059   0.53637   0.54175   0.54295   0.54357
 Alpha virt. eigenvalues --    0.55043   0.55517   0.55785   0.55961   0.56295
 Alpha virt. eigenvalues --    0.56655   0.56887   0.57308   0.57431   0.57748
 Alpha virt. eigenvalues --    0.57794   0.58186   0.58387   0.58618   0.58859
 Alpha virt. eigenvalues --    0.59094   0.59358   0.59992   0.60193   0.60481
 Alpha virt. eigenvalues --    0.60770   0.61303   0.61650   0.61715   0.62145
 Alpha virt. eigenvalues --    0.62890   0.63098   0.63344   0.63902   0.64183
 Alpha virt. eigenvalues --    0.64647   0.64836   0.65172   0.65574   0.65844
 Alpha virt. eigenvalues --    0.65993   0.66591   0.66889   0.67184   0.67213
 Alpha virt. eigenvalues --    0.67698   0.68161   0.68712   0.68905   0.68991
 Alpha virt. eigenvalues --    0.69540   0.70080   0.70142   0.70631   0.71025
 Alpha virt. eigenvalues --    0.71417   0.71665   0.71922   0.72073   0.72287
 Alpha virt. eigenvalues --    0.72814   0.73184   0.73465   0.74042   0.74083
 Alpha virt. eigenvalues --    0.74372   0.74766   0.75007   0.75233   0.75567
 Alpha virt. eigenvalues --    0.76163   0.77098   0.77380   0.77436   0.77959
 Alpha virt. eigenvalues --    0.78572   0.78809   0.79537   0.79624   0.80220
 Alpha virt. eigenvalues --    0.81079   0.81612   0.81842   0.82340   0.82377
 Alpha virt. eigenvalues --    0.82966   0.83220   0.83278   0.83646   0.83957
 Alpha virt. eigenvalues --    0.84087   0.84367   0.84490   0.84723   0.85012
 Alpha virt. eigenvalues --    0.85250   0.85566   0.86040   0.86092   0.86288
 Alpha virt. eigenvalues --    0.86556   0.87236   0.87351   0.87548   0.87790
 Alpha virt. eigenvalues --    0.88068   0.88419   0.88543   0.88817   0.89146
 Alpha virt. eigenvalues --    0.89605   0.89787   0.89887   0.90382   0.90544
 Alpha virt. eigenvalues --    0.90573   0.90634   0.91280   0.91412   0.91663
 Alpha virt. eigenvalues --    0.91878   0.92114   0.92213   0.92455   0.93244
 Alpha virt. eigenvalues --    0.93390   0.93733   0.94128   0.94273   0.94761
 Alpha virt. eigenvalues --    0.94847   0.95057   0.95682   0.95816   0.96185
 Alpha virt. eigenvalues --    0.96567   0.96820   0.97081   0.97225   0.97318
 Alpha virt. eigenvalues --    0.97840   0.98293   0.98993   0.99228   0.99666
 Alpha virt. eigenvalues --    0.99887   1.00356   1.00683   1.00916   1.01693
 Alpha virt. eigenvalues --    1.01997   1.02323   1.02869   1.03316   1.04386
 Alpha virt. eigenvalues --    1.04991   1.05555   1.06424   1.06802   1.07466
 Alpha virt. eigenvalues --    1.08041   1.08532   1.08956   1.09588   1.09960
 Alpha virt. eigenvalues --    1.10397   1.11194   1.11690   1.11852   1.12977
 Alpha virt. eigenvalues --    1.14023   1.14429   1.15541   1.15766   1.16264
 Alpha virt. eigenvalues --    1.16894   1.17292   1.17726   1.17861   1.18295
 Alpha virt. eigenvalues --    1.18404   1.18763   1.19665   1.19858   1.20042
 Alpha virt. eigenvalues --    1.20254   1.20705   1.21217   1.21361   1.21977
 Alpha virt. eigenvalues --    1.22182   1.22599   1.23118   1.23857   1.24230
 Alpha virt. eigenvalues --    1.24819   1.25655   1.25770   1.26358   1.27310
 Alpha virt. eigenvalues --    1.27343   1.28139   1.28871   1.30321   1.30858
 Alpha virt. eigenvalues --    1.31968   1.32100   1.32713   1.33156   1.33977
 Alpha virt. eigenvalues --    1.34395   1.34521   1.34791   1.35444   1.35614
 Alpha virt. eigenvalues --    1.35951   1.36261   1.36757   1.37553   1.37979
 Alpha virt. eigenvalues --    1.38352   1.38898   1.39287   1.39695   1.39736
 Alpha virt. eigenvalues --    1.39912   1.40271   1.41081   1.41384   1.41768
 Alpha virt. eigenvalues --    1.42682   1.43359   1.43662   1.43734   1.44172
 Alpha virt. eigenvalues --    1.44329   1.44665   1.45181   1.45767   1.46177
 Alpha virt. eigenvalues --    1.46702   1.47010   1.47528   1.48225   1.49718
 Alpha virt. eigenvalues --    1.50252   1.50711   1.51162   1.51390   1.52131
 Alpha virt. eigenvalues --    1.52634   1.53585   1.54166   1.54328   1.55820
 Alpha virt. eigenvalues --    1.56696   1.58224   1.58942   1.59545   1.60090
 Alpha virt. eigenvalues --    1.61124   1.62288   1.62864   1.63648   1.64184
 Alpha virt. eigenvalues --    1.64747   1.65286   1.65500   1.65649   1.66165
 Alpha virt. eigenvalues --    1.67122   1.67512   1.68183   1.68706   1.69176
 Alpha virt. eigenvalues --    1.69584   1.70319   1.71137   1.71674   1.71923
 Alpha virt. eigenvalues --    1.72464   1.72865   1.73299   1.74266   1.75174
 Alpha virt. eigenvalues --    1.75435   1.75820   1.76550   1.77033   1.77137
 Alpha virt. eigenvalues --    1.77593   1.77964   1.78412   1.78515   1.79079
 Alpha virt. eigenvalues --    1.80079   1.80504   1.81426   1.81703   1.81847
 Alpha virt. eigenvalues --    1.82193   1.82603   1.82890   1.83328   1.84267
 Alpha virt. eigenvalues --    1.84724   1.85240   1.85574   1.85804   1.86617
 Alpha virt. eigenvalues --    1.86836   1.87073   1.87286   1.87508   1.87704
 Alpha virt. eigenvalues --    1.88173   1.88393   1.88973   1.89683   1.89973
 Alpha virt. eigenvalues --    1.90734   1.90957   1.91021   1.91328   1.91457
 Alpha virt. eigenvalues --    1.91591   1.91940   1.92506   1.92630   1.92933
 Alpha virt. eigenvalues --    1.93122   1.93443   1.94051   1.94683   1.95067
 Alpha virt. eigenvalues --    1.95175   1.95971   1.96217   1.96352   1.96926
 Alpha virt. eigenvalues --    1.97509   1.98082   1.98728   1.99008   1.99858
 Alpha virt. eigenvalues --    2.00082   2.00756   2.01015   2.01225   2.01380
 Alpha virt. eigenvalues --    2.02136   2.02199   2.02724   2.02977   2.03213
 Alpha virt. eigenvalues --    2.03351   2.03516   2.04046   2.04625   2.04710
 Alpha virt. eigenvalues --    2.05175   2.05908   2.06309   2.06770   2.06940
 Alpha virt. eigenvalues --    2.07095   2.07414   2.07535   2.07945   2.08920
 Alpha virt. eigenvalues --    2.09101   2.09463   2.09757   2.09887   2.10146
 Alpha virt. eigenvalues --    2.10667   2.11130   2.11487   2.11627   2.12263
 Alpha virt. eigenvalues --    2.12587   2.12933   2.13279   2.13917   2.13983
 Alpha virt. eigenvalues --    2.14271   2.14706   2.15099   2.15585   2.15754
 Alpha virt. eigenvalues --    2.16115   2.16903   2.17370   2.17644   2.17887
 Alpha virt. eigenvalues --    2.18229   2.18678   2.18956   2.19298   2.19308
 Alpha virt. eigenvalues --    2.19695   2.20471   2.20951   2.21317   2.21633
 Alpha virt. eigenvalues --    2.21835   2.22379   2.22809   2.23033   2.23436
 Alpha virt. eigenvalues --    2.23979   2.24413   2.24810   2.25141   2.25423
 Alpha virt. eigenvalues --    2.25664   2.25944   2.26129   2.26770   2.27489
 Alpha virt. eigenvalues --    2.27603   2.28001   2.28342   2.28654   2.29472
 Alpha virt. eigenvalues --    2.29979   2.31213   2.31889   2.32418   2.32553
 Alpha virt. eigenvalues --    2.32759   2.33361   2.34126   2.34316   2.34988
 Alpha virt. eigenvalues --    2.35996   2.36539   2.37237   2.38634   2.38732
 Alpha virt. eigenvalues --    2.39515   2.39666   2.40024   2.42218   2.43059
 Alpha virt. eigenvalues --    2.43969   2.44778   2.45090   2.45801   2.46562
 Alpha virt. eigenvalues --    2.47312   2.48024   2.48435   2.48573   2.49099
 Alpha virt. eigenvalues --    2.49506   2.49929   2.51267   2.51753   2.53437
 Alpha virt. eigenvalues --    2.54301   2.55217   2.55683   2.58895   2.59804
 Alpha virt. eigenvalues --    2.60146   2.60338   2.61093   2.62299   2.62830
 Alpha virt. eigenvalues --    2.63642   2.64421   2.64716   2.65270   2.66718
 Alpha virt. eigenvalues --    2.67457   2.69201   2.69935   2.70671   2.71373
 Alpha virt. eigenvalues --    2.75337   2.76627   2.76993   2.77452   2.77875
 Alpha virt. eigenvalues --    2.78208   2.78232   2.78826   2.79109   2.79684
 Alpha virt. eigenvalues --    2.80132   2.80620   2.81069   2.81328   2.81747
 Alpha virt. eigenvalues --    2.82392   2.83106   2.84689   2.86733   2.87699
 Alpha virt. eigenvalues --    2.88568   2.89908   2.91426   2.93042   2.93191
 Alpha virt. eigenvalues --    2.93924   2.95048   2.96078   2.96520   2.96830
 Alpha virt. eigenvalues --    2.99699   3.02406   3.04290   3.05731   3.06900
 Alpha virt. eigenvalues --    3.07087   3.08003   3.08554   3.09265   3.10223
 Alpha virt. eigenvalues --    3.11185   3.11797   3.12262   3.12683   3.13260
 Alpha virt. eigenvalues --    3.15155   3.21741   3.27406   3.32085   3.45239
 Alpha virt. eigenvalues --   13.51345
          Condensed to atoms (all electrons):
 Mulliken charges:
               1
     1  C    0.338547
     2  C    0.021800
     3  C   -0.066013
     4  C   -0.149078
     5  C   -0.164448
     6  C    0.325778
     7  C    0.045544
     8  C   -0.074868
     9  C   -0.157801
    10  C   -0.179228
    11  H    0.229305
    12  H    0.199812
    13  H    0.179918
    14  H    0.250627
    15  H    0.203974
    16  H    0.181952
    17  N   -0.469575
    18  N   -0.563085
    19  Ir  -0.104905
    20  O   -0.498788
    21  O   -0.537027
    22  O   -0.512313
    23  B    0.497155
    24  B    0.486706
    25  B    0.464924
    26  O   -0.523046
    27  O   -0.511306
    28  C    0.288300
    29  C    0.284824
    30  C    0.286867
    31  C    0.299390
    32  C    0.291694
    33  C    0.297755
    34  O   -0.501332
    35  C   -0.506311
    36  H    0.152657
    37  H    0.171200
    38  H    0.161236
    39  C   -0.494758
    40  H    0.171453
    41  H    0.171976
    42  H    0.148176
    43  C   -0.490074
    44  H    0.138230
    45  H    0.169113
    46  H    0.158696
    47  C   -0.507762
    48  H    0.168771
    49  H    0.154008
    50  H    0.172763
    51  C   -0.509415
    52  H    0.173051
    53  H    0.167274
    54  H    0.150439
    55  C   -0.504178
    56  H    0.147099
    57  H    0.154666
    58  H    0.186259
    59  C   -0.509851
    60  H    0.171867
    61  H    0.170482
    62  H    0.150746
    63  C   -0.508854
    64  H    0.147488
    65  H    0.175847
    66  H    0.167556
    67  C   -0.515203
    68  H    0.153547
    69  H    0.171088
    70  H    0.171159
    71  C   -0.503643
    72  H    0.172013
    73  H    0.172090
    74  H    0.147979
    75  C   -0.511690
    76  H    0.163128
    77  H    0.153394
    78  H    0.176803
    79  C   -0.509857
    80  H    0.174417
    81  H    0.185754
    82  H    0.149423
    83  H    0.143918
    84  C    0.583368
    85  O   -0.538198
    86  C   -0.411700
    87  H    0.175894
    88  H    0.165079
    89  C   -0.346875
    90  H    0.145681
    91  H    0.183826
    92  N   -0.359741
    93  C   -0.352117
    94  H    0.169318
    95  H    0.186958
    96  H    0.176342
    97  C   -0.463130
    98  H    0.134526
    99  H    0.180210
   100  C    0.973951
   101  F   -0.308040
   102  F   -0.307489
   103  F   -0.317212
   104  C    0.969355
   105  F   -0.314028
   106  F   -0.303854
   107  F   -0.303392
   108  H    0.155041
 Sum of Mulliken charges =  -0.00000
 Mulliken charges with hydrogens summed into heavy atoms:
               1
     1  C    0.338547
     2  C    0.251105
     3  C   -0.066013
     4  C    0.050734
     5  C    0.015470
     6  C    0.325778
     7  C    0.296172
     8  C   -0.074868
     9  C    0.046173
    10  C    0.002724
    17  N   -0.469575
    18  N   -0.563085
    19  Ir   0.039014
    20  O   -0.498788
    21  O   -0.537027
    22  O   -0.512313
    23  B    0.497155
    24  B    0.486706
    25  B    0.464924
    26  O   -0.523046
    27  O   -0.511306
    28  C    0.288300
    29  C    0.284824
    30  C    0.286867
    31  C    0.299390
    32  C    0.291694
    33  C    0.297755
    34  O   -0.501332
    35  C   -0.021218
    39  C   -0.003152
    43  C   -0.024036
    47  C   -0.012221
    51  C   -0.018651
    55  C   -0.016154
    59  C   -0.016755
    63  C   -0.017963
    67  C   -0.019409
    71  C   -0.011562
    75  C   -0.018365
    79  C   -0.000263
    84  C    0.583368
    85  O   -0.538198
    86  C   -0.070727
    89  C   -0.017368
    92  N   -0.359741
    93  C    0.180501
    97  C    0.006647
   100  C    0.973951
   101  F   -0.308040
   102  F   -0.307489
   103  F   -0.317212
   104  C    0.969355
   105  F   -0.314028
   106  F   -0.303854
   107  F   -0.303392
 APT charges:
               1
     1  C    0.155186
     2  C    0.057086
     3  C   -0.193613
     4  C    0.095998
     5  C   -0.150202
     6  C    0.255676
     7  C   -0.003596
     8  C   -0.200599
     9  C    0.100351
    10  C   -0.208119
    11  H    0.116392
    12  H    0.068994
    13  H    0.044242
    14  H    0.182958
    15  H    0.066455
    16  H    0.049261
    17  N   -0.206891
    18  N   -0.020057
    19  Ir  -0.872073
    20  O   -0.909368
    21  O   -1.008451
    22  O   -1.010090
    23  B    1.292392
    24  B    1.149207
    25  B    1.346639
    26  O   -0.982743
    27  O   -0.889590
    28  C    0.439562
    29  C    0.459728
    30  C    0.502857
    31  C    0.522313
    32  C    0.506200
    33  C    0.497405
    34  O   -0.968475
    35  C   -0.002788
    36  H   -0.014041
    37  H    0.004844
    38  H    0.007677
    39  C   -0.026955
    40  H    0.020180
    41  H    0.002354
    42  H   -0.023525
    43  C   -0.031047
    44  H   -0.013052
    45  H    0.003176
    46  H   -0.008346
    47  C    0.002376
    48  H    0.003676
    49  H   -0.014666
    50  H    0.001160
    51  C   -0.013131
    52  H    0.003227
    53  H    0.001142
    54  H   -0.017283
    55  C   -0.036046
    56  H   -0.027528
    57  H   -0.009993
    58  H    0.032196
    59  C   -0.030575
    60  H    0.002734
    61  H    0.001372
    62  H   -0.025327
    63  C   -0.008046
    64  H   -0.019181
    65  H    0.005933
    66  H   -0.001106
    67  C   -0.016945
    68  H   -0.012887
    69  H    0.003490
    70  H    0.002826
    71  C   -0.037660
    72  H    0.017403
    73  H    0.001076
    74  H   -0.021543
    75  C   -0.008827
    76  H    0.000320
    77  H   -0.015667
    78  H    0.005262
    79  C   -0.035976
    80  H    0.001117
    81  H    0.010502
    82  H   -0.024363
    83  H   -0.008365
    84  C    0.853610
    85  O   -0.684096
    86  C    0.008349
    87  H   -0.027880
    88  H   -0.016336
    89  C    0.412493
    90  H   -0.080936
    91  H   -0.030295
    92  N   -0.791739
    93  C    0.292689
    94  H   -0.020691
    95  H    0.011212
    96  H   -0.044989
    97  C    0.082681
    98  H   -0.023409
    99  H    0.008259
   100  C    1.768756
   101  F   -0.545957
   102  F   -0.570673
   103  F   -0.576704
   104  C    1.820765
   105  F   -0.609374
   106  F   -0.597467
   107  F   -0.521263
   108  H   -0.031219
 Sum of APT charges =  -0.00000
 APT charges with hydrogens summed into heavy atoms:
               1
     1  C    0.155186
     2  C    0.173479
     3  C   -0.193613
     4  C    0.164992
     5  C   -0.105960
     6  C    0.255676
     7  C    0.179362
     8  C   -0.200599
     9  C    0.166806
    10  C   -0.158858
    17  N   -0.206891
    18  N   -0.020057
    19  Ir  -0.880437
    20  O   -0.909368
    21  O   -1.008451
    22  O   -1.010090
    23  B    1.292392
    24  B    1.149207
    25  B    1.346639
    26  O   -0.982743
    27  O   -0.889590
    28  C    0.439562
    29  C    0.459728
    30  C    0.502857
    31  C    0.522313
    32  C    0.506200
    33  C    0.497405
    34  O   -0.968475
    35  C   -0.004308
    39  C   -0.027945
    43  C   -0.049270
    47  C   -0.007454
    51  C   -0.026045
    55  C   -0.041370
    59  C   -0.051795
    63  C   -0.022400
    67  C   -0.023516
    71  C   -0.040724
    75  C   -0.018912
    79  C   -0.048720
    84  C    0.853610
    85  O   -0.684096
    86  C   -0.035867
    89  C    0.301262
    92  N   -0.791739
    93  C    0.238222
    97  C    0.036313
   100  C    1.768756
   101  F   -0.545957
   102  F   -0.570673
   103  F   -0.576704
   104  C    1.820765
   105  F   -0.609374
   106  F   -0.597467
   107  F   -0.521263
 Electronic spatial extent (au):  <R**2>=          31759.6385
 Charge=              0.0000 electrons
 Dipole moment (field-independent basis, Debye):
    X=              0.2173    Y=             -0.6330    Z=             -3.4367  Tot=              3.5013
 Quadrupole moment (field-independent basis, Debye-Ang):
   XX=           -339.0022   YY=           -317.7945   ZZ=           -324.9503
   XY=              2.8290   XZ=              0.0503   YZ=             15.6598
 Traceless Quadrupole moment (field-independent basis, Debye-Ang):
   XX=            -11.7532   YY=              9.4545   ZZ=              2.2987
   XY=              2.8290   XZ=              0.0503   YZ=             15.6598
 Octapole moment (field-independent basis, Debye-Ang**2):
  XXX=             14.9684  YYY=            -63.4856  ZZZ=             50.6485  XYY=            -39.2995
  XXY=             16.6776  XXZ=             36.8289  XZZ=              6.3041  YZZ=             -1.1731
  YYZ=            -67.3963  XYZ=            -23.9495
 Hexadecapole moment (field-independent basis, Debye-Ang**3):
 XXXX=         -18930.7499 YYYY=         -11669.4648 ZZZZ=          -9030.9861 XXXY=             12.1589
 XXXZ=             56.5861 YYYX=           -288.0486 YYYZ=            276.1461 ZZZX=            -70.5666
 ZZZY=             77.9003 XXYY=          -5152.2091 XXZZ=          -4431.6562 YYZZ=          -3533.8140
 XXYZ=             98.5461 YYXZ=            154.4828 ZZXY=            -15.2611
 N-N= 9.769206186092D+03 E-N=-2.614461010947D+04  KE= 2.745581004553D+03
  Exact polarizability:     549.008       3.908     494.535      -0.035      30.357     420.919
 Approx polarizability:     780.337     -12.413     746.705      15.457      65.936     608.902
   1 Symmetry operations used in ECPInt.
 ECPInt:  NShTT=   54615 NPrTT=  339395 LenC2=   41189 LenP2D=  127749.
 LDataN:  DoStor=T MaxTD1= 8 Len=  415
 Calling FoFJK, ICntrl=    100127 FMM=F ISym2X=0 I1Cent= 0 IOpClX= 0 NMat=1 NMatS=1 NMatT=0.
 Defaulting to unpruned grid for atomic number  77.
 Defaulting to unpruned grid for atomic number  77.
 Defaulting to unpruned grid for atomic number  77.
 Defaulting to unpruned grid for atomic number  77.
 Defaulting to unpruned grid for atomic number  77.
 Defaulting to unpruned grid for atomic number  77.
 Defaulting to unpruned grid for atomic number  77.
 Defaulting to unpruned grid for atomic number  77.
 Defaulting to unpruned grid for atomic number  77.
 Defaulting to unpruned grid for atomic number  77.
 Defaulting to unpruned grid for atomic number  77.
 Defaulting to unpruned grid for atomic number  77.
 Defaulting to unpruned grid for atomic number  77.
 Defaulting to unpruned grid for atomic number  77.
 Defaulting to unpruned grid for atomic number  77.
 Defaulting to unpruned grid for atomic number  77.
 Full mass-weighted force constant matrix:
 Low frequencies ---   -7.0118   -1.5671   -0.0007   -0.0001    0.0003    6.9141
 Low frequencies ---   18.0940   22.2236   25.4382
 Diagonal vibrational polarizability:
       86.5636405      71.6379602      81.9153493
 Harmonic frequencies (cm**-1), IR intensities (KM/Mole), Raman scattering
 activities (A**4/AMU), depolarization ratios for plane and unpolarized
 incident light, reduced masses (AMU), force constants (mDyne/A),
 and normal coordinates:
                      1                      2                      3
                      A                      A                      A
 Frequencies --     17.9383                22.1247                25.4128
 Red. masses --      6.2396                 7.4441                 5.8603
 Frc consts  --      0.0012                 0.0021                 0.0022
 IR Inten    --      0.0952                 0.0502                 0.1505
  Atom AN      X      Y      Z        X      Y      Z        X      Y      Z
     1   6    -0.00  -0.01   0.01    -0.01   0.04  -0.05     0.01  -0.03   0.00
     2   6    -0.00  -0.01   0.02    -0.02   0.02   0.02     0.01  -0.03  -0.02
     3   6    -0.01  -0.02   0.05    -0.02   0.02   0.03     0.02  -0.03  -0.02
     4   6    -0.01  -0.03   0.07    -0.02   0.04  -0.01     0.02  -0.03  -0.01
     5   6    -0.01  -0.02   0.04    -0.02   0.04  -0.06     0.02  -0.03   0.00
     6   6     0.00  -0.00  -0.02    -0.01   0.03  -0.05     0.02  -0.02   0.00
     7   6     0.01   0.00  -0.04    -0.02  -0.01  -0.00     0.01  -0.01   0.00
     8   6     0.01   0.01  -0.06    -0.03  -0.02   0.01     0.02  -0.02   0.01
     9   6     0.01   0.02  -0.07    -0.03   0.00  -0.02     0.02  -0.02   0.01
    10   6     0.00   0.01  -0.04    -0.02   0.03  -0.05     0.02  -0.02   0.00
    11   1     0.00  -0.01   0.01    -0.02   0.01   0.05     0.01  -0.03  -0.02
    12   1    -0.02  -0.04   0.10    -0.02   0.04  -0.01     0.02  -0.03  -0.01
    13   1    -0.01  -0.03   0.06    -0.02   0.05  -0.09     0.02  -0.03   0.01
    14   1     0.01   0.00  -0.04    -0.02  -0.02   0.02     0.01  -0.01   0.00
    15   1     0.01   0.03  -0.09    -0.03   0.00  -0.02     0.02  -0.02   0.01
    16   1     0.00   0.01  -0.05    -0.02   0.04  -0.07     0.02  -0.02   0.00
    17   7     0.00  -0.01  -0.01    -0.01   0.03  -0.02     0.01  -0.03  -0.00
    18   7     0.00  -0.00  -0.02    -0.01   0.02  -0.03     0.01  -0.02  -0.00
    19  77     0.00  -0.01  -0.02    -0.00   0.02  -0.02     0.01  -0.02  -0.00
    20   8     0.03  -0.00   0.03     0.02   0.04   0.02    -0.01   0.03  -0.02
    21   8    -0.02  -0.01   0.01    -0.03  -0.02   0.01     0.01  -0.03  -0.01
    22   8    -0.01  -0.00  -0.00    -0.02   0.02  -0.02    -0.03  -0.00   0.03
    23   5    -0.01  -0.01   0.01     0.01   0.00  -0.03     0.02  -0.02  -0.01
    24   5     0.03   0.01   0.00     0.02   0.03  -0.00    -0.00   0.00  -0.00
    25   5     0.00  -0.01  -0.03    -0.01   0.01  -0.03    -0.01  -0.02   0.02
    26   8     0.01  -0.03  -0.07    -0.01  -0.01  -0.05    -0.02  -0.03   0.03
    27   8     0.06   0.03  -0.01     0.04   0.02  -0.01    -0.01  -0.01  -0.00
    28   6     0.07   0.04   0.01     0.06   0.04   0.01    -0.02   0.01  -0.01
    29   6     0.06   0.01   0.05     0.04   0.05   0.03    -0.03   0.05  -0.02
    30   6    -0.02  -0.01  -0.04    -0.04   0.01  -0.04    -0.05  -0.01   0.06
    31   6     0.01  -0.03  -0.07    -0.02  -0.01  -0.05    -0.05  -0.02   0.06
    32   6    -0.04  -0.01   0.05    -0.01  -0.05   0.01     0.02  -0.03  -0.03
    33   6    -0.05  -0.02   0.06     0.04  -0.00  -0.05     0.04  -0.03  -0.03
    34   8    -0.03  -0.01   0.03     0.05   0.01  -0.07     0.03  -0.02  -0.02
    35   6     0.06  -0.00   0.06     0.05   0.07   0.05    -0.01   0.09  -0.04
    36   1     0.08   0.01   0.07     0.06   0.07   0.05    -0.02   0.10  -0.04
    37   1     0.05  -0.02   0.09     0.04   0.08   0.05    -0.02   0.11  -0.04
    38   1     0.04  -0.01   0.05     0.06   0.07   0.05     0.02   0.09  -0.03
    39   6     0.08   0.01   0.07     0.02   0.05   0.04    -0.07   0.05  -0.02
    40   1     0.09   0.02   0.07     0.01   0.04   0.02    -0.09   0.02  -0.02
    41   1     0.08  -0.01   0.09    -0.01   0.06   0.06    -0.08   0.07  -0.02
    42   1     0.10   0.02   0.08     0.04   0.07   0.05    -0.08   0.06  -0.02
    43   6     0.06   0.04  -0.02     0.09   0.04   0.01     0.02   0.02   0.00
    44   1     0.03   0.02  -0.02     0.08   0.04   0.02     0.03   0.03   0.00
    45   1     0.07   0.06  -0.06     0.10   0.03  -0.01     0.03  -0.01   0.01
    46   1     0.08   0.05   0.00     0.10   0.05   0.03     0.02   0.03  -0.00
    47   6     0.10   0.07   0.02     0.08   0.04   0.00    -0.04  -0.00  -0.01
    48   1     0.12   0.07   0.03     0.06   0.03  -0.00    -0.07  -0.01  -0.01
    49   1     0.11   0.07   0.03     0.09   0.05   0.02    -0.04   0.02  -0.01
    50   1     0.10   0.09  -0.00     0.10   0.03  -0.01    -0.03  -0.03  -0.01
    51   6    -0.06  -0.03   0.06    -0.06  -0.04   0.05     0.03  -0.04  -0.03
    52   1    -0.08  -0.05   0.04    -0.09   0.01   0.05     0.03  -0.03  -0.02
    53   1    -0.04  -0.02   0.06    -0.08  -0.08   0.09     0.02  -0.04  -0.03
    54   1    -0.08  -0.03   0.09    -0.04  -0.06   0.04     0.04  -0.04  -0.04
    55   6    -0.00   0.01   0.08     0.03  -0.13   0.02     0.01  -0.05  -0.04
    56   1    -0.02   0.02   0.12     0.04  -0.16   0.02     0.02  -0.06  -0.05
    57   1     0.01   0.02   0.08    -0.00  -0.15   0.05     0.00  -0.05  -0.04
    58   1     0.01   0.02   0.08     0.07  -0.13  -0.01     0.01  -0.04  -0.03
    59   6    -0.09  -0.05   0.04     0.01   0.07  -0.06     0.05  -0.02  -0.02
    60   1    -0.10  -0.06   0.04     0.04   0.10  -0.10     0.06  -0.01  -0.02
    61   1    -0.09  -0.06   0.01    -0.03   0.10  -0.03     0.04  -0.02  -0.02
    62   1    -0.11  -0.06   0.06    -0.01   0.06  -0.04     0.05  -0.03  -0.03
    63   6    -0.06  -0.02   0.10     0.09  -0.04  -0.08     0.05  -0.03  -0.04
    64   1    -0.07  -0.03   0.12     0.08  -0.06  -0.07     0.05  -0.04  -0.04
    65   1    -0.03   0.00   0.11     0.12  -0.09  -0.09     0.04  -0.04  -0.04
    66   1    -0.07  -0.03   0.11     0.12  -0.00  -0.12     0.06  -0.03  -0.03
    67   6    -0.01  -0.05  -0.11    -0.03  -0.03  -0.07    -0.06  -0.05   0.08
    68   1    -0.02  -0.05  -0.12    -0.04  -0.03  -0.08    -0.08  -0.04   0.10
    69   1     0.01  -0.07  -0.13    -0.02  -0.04  -0.08    -0.05  -0.06   0.08
    70   1    -0.04  -0.05  -0.12    -0.05  -0.02  -0.07    -0.05  -0.07   0.08
    71   6     0.06  -0.03  -0.07     0.01  -0.01  -0.05    -0.06   0.01   0.05
    72   1     0.07  -0.02  -0.04     0.02  -0.00  -0.03    -0.05   0.03   0.04
    73   1     0.08  -0.05  -0.09     0.02  -0.03  -0.06    -0.05   0.01   0.04
    74   1     0.06  -0.04  -0.07    -0.00  -0.02  -0.05    -0.07   0.02   0.07
    75   6    -0.01  -0.01  -0.02    -0.04   0.02  -0.03    -0.08   0.02   0.08
    76   1     0.03  -0.01  -0.00    -0.02   0.02  -0.02    -0.07   0.04   0.07
    77   1    -0.02  -0.02  -0.04    -0.05   0.01  -0.04    -0.10   0.01   0.10
    78   1    -0.03   0.01   0.01    -0.05   0.03  -0.02    -0.08   0.03   0.08
    79   6    -0.07  -0.01  -0.05    -0.06   0.01  -0.04    -0.05  -0.05   0.07
    80   1    -0.08  -0.02  -0.06    -0.07   0.00  -0.05    -0.03  -0.07   0.06
    81   1    -0.09  -0.00  -0.01    -0.07   0.01  -0.03    -0.05  -0.04   0.07
    82   1    -0.08  -0.02  -0.07    -0.07   0.00  -0.05    -0.06  -0.06   0.10
    83   1    -0.01  -0.00  -0.03     0.00   0.01  -0.01     0.03  -0.01  -0.00
    84   6    -0.03   0.05   0.04     0.04  -0.06  -0.02    -0.05   0.10   0.02
    85   8    -0.07   0.03   0.06     0.06  -0.04  -0.05    -0.10   0.08   0.04
    86   6    -0.02   0.10   0.06     0.04  -0.11   0.01    -0.03   0.19  -0.00
    87   1     0.01   0.11   0.06     0.06  -0.15   0.02    -0.04   0.24  -0.01
    88   1     0.01   0.10   0.05     0.00  -0.10   0.05     0.02   0.19  -0.04
    89   6    -0.01  -0.01  -0.02     0.02  -0.01  -0.03    -0.01  -0.01  -0.00
    90   1     0.01  -0.04  -0.03     0.02   0.00  -0.03     0.01  -0.04  -0.01
    91   1    -0.06  -0.01  -0.04     0.04  -0.00  -0.03    -0.07  -0.01  -0.01
    92   7    -0.00   0.03   0.00     0.02  -0.04  -0.02    -0.00   0.06   0.01
    93   6     0.04   0.05   0.00    -0.00  -0.06   0.01     0.06   0.09  -0.01
    94   1     0.07   0.07   0.03    -0.01  -0.09   0.01     0.07   0.13   0.01
    95   1     0.07   0.04  -0.04    -0.01  -0.06   0.03     0.08   0.07  -0.05
    96   1     0.02   0.04   0.00    -0.01  -0.05   0.03     0.06   0.08  -0.02
    97   6    -0.05   0.12   0.09     0.05  -0.11  -0.01    -0.08   0.22   0.03
    98   1    -0.08   0.11   0.09    -0.01  -0.04  -0.01    -0.05   0.15   0.04
    99   1    -0.07   0.12   0.09     0.11  -0.13  -0.09    -0.16   0.23   0.10
   100   6    -0.01  -0.02   0.07    -0.03   0.01   0.10     0.02  -0.02  -0.06
   101   9     0.05   0.08   0.03     0.04   0.04   0.09     0.04   0.08  -0.11
   102   9    -0.06  -0.11  -0.01    -0.10  -0.03   0.07     0.02  -0.10  -0.13
   103   9    -0.02  -0.05   0.21    -0.03  -0.01   0.19     0.01  -0.03   0.02
   104   6     0.01   0.01  -0.09    -0.03  -0.04   0.08     0.02   0.00   0.03
   105   9     0.01   0.02  -0.04    -0.06  -0.05  -0.07     0.03  -0.01  -0.08
   106   9    -0.03  -0.05  -0.13     0.06   0.11   0.17     0.06   0.11   0.09
   107   9     0.04   0.06  -0.14    -0.09  -0.16   0.21    -0.02  -0.08   0.11
   108   1    -0.04   0.15   0.11     0.06  -0.18   0.06    -0.08   0.30  -0.02
                      4                      5                      6
                      A                      A                      A
 Frequencies --     35.5451                37.2803                43.0514
 Red. masses --      5.6032                 5.1459                 4.3743
 Frc consts  --      0.0042                 0.0042                 0.0048
 IR Inten    --      0.0993                 0.4688                 0.0440
  Atom AN      X      Y      Z        X      Y      Z        X      Y      Z
     1   6     0.01   0.02  -0.03     0.01   0.03  -0.05     0.01   0.00  -0.02
     2   6     0.02   0.02  -0.01     0.01   0.01   0.02     0.01   0.00  -0.00
     3   6     0.01   0.03  -0.01     0.01   0.04  -0.03     0.00  -0.00   0.01
     4   6     0.01   0.04  -0.05     0.02   0.06  -0.10     0.00   0.00   0.00
     5   6     0.01   0.04  -0.06     0.02   0.06  -0.11     0.00   0.00  -0.02
     6   6     0.01   0.01  -0.01     0.01   0.02  -0.04     0.01   0.00  -0.03
     7   6     0.00   0.01   0.02     0.00  -0.01   0.02     0.00   0.02  -0.01
     8   6     0.00   0.00   0.04     0.01   0.01  -0.02     0.01   0.01   0.00
     9   6     0.01  -0.00   0.04     0.01   0.04  -0.07     0.02   0.01  -0.00
    10   6     0.01   0.00   0.01     0.01   0.04  -0.08     0.02   0.00  -0.02
    11   1     0.02   0.01   0.01     0.01  -0.01   0.08     0.01  -0.00   0.00
    12   1     0.01   0.05  -0.06     0.02   0.08  -0.15    -0.00   0.00   0.01
    13   1     0.01   0.04  -0.09     0.02   0.07  -0.16     0.00   0.01  -0.03
    14   1    -0.00   0.01   0.02    -0.01  -0.03   0.06    -0.00   0.02  -0.01
    15   1     0.01  -0.01   0.05     0.02   0.05  -0.11     0.03   0.00   0.01
    16   1     0.01   0.00   0.01     0.02   0.06  -0.12     0.03  -0.00  -0.02
[...]
 0.00003910,-0.00004020,0.00000064,0.00000442,-0.00000252,0.00000526,0.
 00000522,0.00001605,-0.00000640,0.00001413,0.00000083,0.00000107,-0.00
 000879,-0.00000949,0.00000375,0.00000109,0.00001146,-0.00000015,0.0000
 0283,-0.00000074,0.00011167,-0.00010142,-0.00001551,-0.00003411,0.0000
 4529,0.00003520,-0.00003305,0.00004942,-0.00001872,-0.00001462,0.00001
 489,0.00000203,-0.05812751,-0.12321929,-0.07307076,-0.02494662,-0.0631
 8195,-0.04243726,0.00324986,0.01490055,-0.00707064,0.08339227,0.170708
 28,0.00018486,0.00013654,0.00005993,-0.00004591,-0.00003158,-0.0000090
 9,-0.00010687,0.00008553,0.00003181,0.00009772,0.00001938,0.00002452,-
 0.00012104,0.00001177,-0.00001952,0.00065597,0.00035860,0.00018995,0.0
 0117596,-0.00338978,-0.00140247,-0.01221220,-0.01084737,-0.00634636,-0
 .00297084,0.00198884,0.00130427,-0.00003064,-0.00074691,-0.00050307,-0
 .00001900,-0.00001591,-0.00000449,-0.00000254,-0.00000397,-0.00000926,
 0.00005374,0.00004848,-0.00000077,-0.00063448,0.00128949,-0.00015803,0
 .00038301,0.00025618,0.00009254,-0.00029387,0.00012425,-0.00007578,-0.
 00008320,0.00013994,0.00002850,-0.00066303,0.00048836,0.00055514,0.000
 26059,0.00008755,0.00047612,0.00014897,0.00013476,0.00043554,0.0016237
 6,-0.00048002,0.00080544,0.00005124,0.00013900,0.00007574,-0.00173814,
 0.00025280,-0.00099755,-0.00030706,-0.00022891,-0.00056140,-0.00005548
 ,-0.00017288,-0.00017200,0.00004088,0.00007401,0.00003798,-0.00006543,
 0.00025014,0.00047475,0.00013246,-0.00034021,-0.00024575,0.00018584,0.
 00001498,-0.00033519,0.00001355,-0.00003227,-0.00002164,-0.00000748,-0
 .00004687,-0.00002230,-0.00049412,0.00016219,-0.00004539,-0.00025921,0
 .00028607,-0.00007352,0.00072117,-0.00021564,0.00034300,-0.00017034,-0
 .00027794,0.00015798,0.00001201,-0.00004007,0.00006548,0.00006797,0.00
 021329,-0.00003249,0.00005663,-0.00029447,-0.00011768,-0.00010574,0.00
 000473,0.00004476,-0.00000749,0.00003468,-0.00001498,0.00004721,0.0000
 4086,0.00001132,0.00000098,-0.00001594,0.00001853,0.00001945,0.0001154
 2,0.00019756,0.00015528,-0.00003884,-0.00024901,-0.00003059,0.00004852
 ,-0.00002569,-0.00000071,-0.00007679,0.00016000,-0.00001150,0.00011867
 ,0.00005831,-0.00002005,0.00006268,-0.00003320,-0.00000624,-0.00002210
 ,0.00001500,0.00002155,-0.00001969,0.00001782,-0.00040959,0.00048519,0
 .00015836,0.00003702,-0.00004262,-0.00001776,0.00025390,-0.00026004,0.
 00017152,0.00005162,-0.00019444,-0.00004992,-0.00024552,0.00072963,0.0
 0047935,0.00004707,-0.00011765,-0.00007720,0.00017948,-0.00033130,-0.0
 0024397,0.00002521,-0.00026114,-0.00008691,0.00008169,-0.00010316,0.00
 001381,0.00003920,-0.00006161,-0.00003057,-0.00005977,0.00002319,-0.00
 000030,0.00001644,0.00004065,0.00005170,0.00007693,-0.00004587,-0.0000
 0976,0.00002542,0.00004259,0.00003243,-0.00002795,0.00004514,-0.000008
 46,0.00002405,-0.00005530,-0.00003638,0.00000008,0.00000356,0.00000705
 ,-0.00000064,0.00000454,-0.00000429,0.00000854,-0.00000037,0.00000407,
 -0.00000856,-0.00000159,0.00000781,0.00001893,0.00000445,0.00000512,-0
 .00000914,-0.00001437,-0.00000310,0.00001189,0.00000083,0.00000623,-0.
 00000309,0.00000717,-0.00000119,-0.00000619,-0.00000326,-0.00001163,-0
 .00000203,-0.00000362,0.00001395,-0.00000176,0.00000194,0.00000156,0.0
 0001046,0.00000793,0.00000053,-0.00001863,0.00000119,0.00000126,-0.000
 01232,-0.00000426,-0.00000626,0.00001476,0.00001865,-0.00000137,0.0000
 0141,0.00000270,0.00000905,-0.00008361,0.00005518,0.00000593,-0.000017
 88,-0.00010452,-0.00009120,0.00001141,0.00005410,0.00015622,-0.0000029
 4,0.00002029,-0.00001795,0.00000060,0.00000166,0.00001646,-0.00000355,
 -0.00000746,-0.00000932,0.00004367,-0.00004332,-0.00033944,-0.00002430
 ,0.00002071,0.00016384,-0.00003841,-0.00005541,-0.00000509,-0.00003702
 ,0.00001876,0.00017782,-0.00001749,-0.00004558,-0.00007364,-0.00000886
 ,0.00000035,0.00000494,0.00001276,0.00001097,0.00001320,0.00000482,0.0
 0000655,0.00000997,-0.00000131,-0.00000400,-0.00002307,0.00000860,0.00
 000319,0.00002333,0.00000095,-0.00000278,0.00000163,0.00027211,-0.0001
 3058,-0.00007541,-0.00007707,0.00007394,0.00007826,-0.00007240,0.00006
 637,-0.00001517,-0.00006988,0.00000175,0.00000523,-0.09433009,-0.07074
 711,-0.18668076,-0.00327450,-0.03085237,0.00200959,-0.01438755,-0.0166
 9884,-0.08363332,0.12632837,0.12878636,0.27371313,-0.00000114,0.000012
 56,-0.00005764,-0.00000011,0.00002158,-0.00002737,0.00000391,-0.000023
 90,-0.00000327,-0.00002007,-0.00001278,-0.00001418,0.00003391,-0.00001
 708,0.00000687,0.00006123,0.00000788,-0.00000678,-0.00001935,0.0000289
 0,0.00000751,-0.00002772,-0.00003444,-0.00002476,0.00003625,0.00002631
 ,0.00002365,-0.00003480,0.00000574,0.00000729,-0.00001203,0.00002022,-
 0.00002020,-0.00001475,0.00001504,-0.00000312,0.00000034,-0.00000096,-
 0.00000771,0.00000690,0.00000426,-0.00000075,0.00000052,0.00000130,-0.
 00000130,0.00000376,0.00000027,-0.00000336,0.00000284,-0.00002667,-0.0
 0000884,0.00003779,-0.00006383,-0.00005195,-0.00009922,0.00000956,0.00
 014232,-0.00007761,-0.00002089,0.00007615,-0.00011022,-0.00003390,-0.0
 0003532,0.00001442,-0.00015233,0.00003494,0.00015627,0.00010333,0.0000
 2426,0.00009127,-0.00000105,-0.00011571,-0.00005775,0.00020173,-0.0000
 6349,0.00008339,-0.00013039,0.00007367,-0.00004395,-0.00000431,0.00010
 980,0.00002766,0.00000366,-0.00002473,0.00001654,0.00001433,-0.0000391
 5,-0.00003712,0.00004205,-0.00001491,-0.00001598,0.00007703,-0.0000418
 7,0.00005364,0.00003235,0.00002122,0.00003861,0.00000467,0.00002649,-0
 .00007729,-0.00006514,-0.00004664,-0.00000209,0.00000051,0.00000336,-0
 .00000273,0.00000016,0.00000569,-0.00000069,-0.00000052,-0.00000323,0.
 00000236,-0.00000127,-0.00000204,-0.00000177,-0.00000263,0.00000552,0.
 00000106,0.00000270,-0.00000342,0.00000064,0.00000066,-0.00000272,-0.0
 0000276,-0.00000327,0.00000630,-0.00000777,-0.00000035,0.00000143,0.00
 000488,-0.00000146,0.00000049,0.00000186,0.00000036,-0.00000420,-0.000
 00525,0.00000169,0.00000484,-0.00000334,0.00000015,0.00000209,0.000000
 89,-0.00000279,-0.00000136,-0.00000346,-0.00000100,0.00000471,0.000002
 86,0.00000194,-0.00000004,-0.00000458,-0.00000089,-0.00000351,0.000003
 74,0.00000038,0.00000403,0.00000183,0.00000267,0.00000182,-0.00000604,
 -0.00000370,-0.00000320,-0.00000820,-0.00000361,-0.00000199,-0.0000082
 3,-0.00000463,-0.00000027,0.00000328,0.00000113,0.00000073,0.00000379,
 0.00000259,-0.00000049,-0.00000082,0.00001240,-0.00000725,0.00000379,0
 .00000066,0.00000331,0.00000336,-0.00000722,0.00000835,-0.00000957,-0.
 00000284,-0.00000474,-0.00000249,-0.00000084,-0.00000009,-0.00000568,-
 0.00000090,-0.00000264,0.00000020,0.00000033,0.00000239,0.00000331,-0.
 00000252,-0.00000035,0.00000313,-0.00000990,0.00000158,0.00000249,-0.0
 0000740,0.00000228,0.00000174,0.00000617,0.00000487,-0.00000611,0.0000
 0345,-0.00000391,0.00000084,-0.00001057,0.00000489,0.00000260,0.000003
 41,-0.00000571,-0.00000036,0.00000515,-0.00000127,-0.00000064,-0.00000
 736,0.00000713,0.00000133,-0.00000334,0.00000007,-0.00000154,0.0000019
 3,0.00000034,0.00000283,-0.00000669,0.00000240,-0.00000256,0.00000125,
 -0.00000046,0.00001125,-0.00000179,-0.00000355,-0.00000718,0.00000480,
 0.00000282,-0.00000099,0.00000360,0.00000060,0.00000396,-0.00001127,0.
 00000049,0.00003255,-0.00000790,-0.00005394,0.00004486,-0.00241088,-0.
 00146068,-0.00036638,-0.00087183,-0.00020516,-0.01774376,0.00592279,0.
 00625278,0.00050050,0.00046215,-0.00029709,0.00055213,-0.00003866,0.00
 028742,0.00022399,-0.00030945,-0.00034090,-0.00016952,-0.00004228,0.00
 004800,0.00003862,-0.00001126,0.00003089,-0.00193562,-0.00004778,0.000
 34461,-0.00016103,0.00041736,0.00020130,0.00004645,0.00002324,-0.00001
 249,-0.00002269,-0.00006284,-0.00003860,0.00002548,-0.00010146,0.00002
 745,-0.27845589,0.05515774,0.07241559,0.00093569,-0.00030028,-0.000593
 38,-0.00558499,0.00015746,0.00202297,-0.00057046,0.00016652,0.00030232
 ,0.00020134,-0.00018170,-0.00009522,0.00010182,-0.00002220,-0.00006217
 ,0.00016824,0.00000061,-0.00002097,0.00011529,-0.00003733,-0.00002031,
 -0.00003109,0.00003028,0.00000171,-0.00003881,0.00000128,0.00002481,-0
 .00003005,0.00000186,-0.00000291,0.30213004,-0.00004064,-0.00002757,0.
 00000175,0.00001498,0.00000226,-0.00001203,-0.00000296,-0.00004934,-0.
 00006187,0.00001075,0.00002941,0.00001808,0.00002074,0.00001053,0.0000
 0021,-0.00001222,0.00001598,0.00000594,-0.00000701,0.00000218,0.000000
 25,0.00001047,-0.00000518,0.00000162,-0.00000575,0.00001363,0.00000443
 ,0.00000909,-0.00000664,-0.00000494,-0.00001383,-0.00000396,-0.0000027
 3,0.00001470,0.00000519,0.00002217,-0.00000327,0.00000280,0.00001441,-
 0.00000004,-0.00000373,-0.00000438,-0.00000020,-0.00000062,0.00000043,
 -0.00000226,0.00000385,0.00000796,-0.00002453,0.00001141,-0.00000461,0
 .00002333,-0.00003143,-0.00001369,-0.00003089,0.00001771,0.00004508,0.
 00000268,0.00000262,0.00000303,-0.00000338,-0.00000101,0.00001064,0.00
 001392,-0.00001280,0.00000396,0.00000956,0.00001369,-0.00002481,-0.000
 00970,-0.00001505,-0.00000629,-0.00003291,0.00002175,-0.00000853,0.000
 03556,-0.00000907,0.00000710,0.00000522,0.00000304,0.00000659,-0.00000
 371,-0.00000042,0.00000304,-0.00000165,-0.00000029,0.00000036,-0.00000
 755,0.00000085,-0.00000323,-0.00000576,0.00000417,0.00000005,0.0000011
 3,0.00000088,0.00000275,-0.00000062,0.00000017,-0.00000317,0.00000369,
 -0.00000078,0.00000673,0.00000020,-0.00000107,0.00000074,-0.00000023,0
 .00000018,-0.00000033,0.00000041,0.00000046,0.00000031,-0.00000029,0.0
 0000004,-0.00000005,-0.00000044,0.00000026,0.00000048,0.00000003,-0.00
 000007,0.00000005,0.00000023,0.00000023,0.00000044,0.00000004,-0.00000
 009,-0.00000041,-0.00000073,-0.00000079,0.00000072,-0.00000082,-0.0000
 0020,-0.00000036,0.00000030,0.00000028,0.00000133,0.00000067,0.0000006
 3,-0.00000055,-0.00000044,0.00000117,-0.00000036,-0.00000065,-0.000000
 19,0.00000009,0.00000090,-0.00000033,-0.00000008,-0.00000009,0.0000002
 1,0.00000094,0.00000065,-0.00000039,-0.00000050,0.00000027,-0.00000036
 ,0.00000045,-0.00000057,0.,0.00000010,0.00000005,0.00000037,0.00000023
 ,-0.00000088,-0.00000133,-0.00000103,-0.00000017,0.00000026,0.00000072
 ,-0.00000064,0.00000046,-0.00000006,-0.00000032,-0.00000045,-0.0000002
 4,0.00000040,0.00000303,-0.00000035,-0.00000026,-0.00000043,-0.0000001
 1,0.00000038,-0.00000065,0.00000124,-0.00000031,-0.00000092,0.00000044
 ,-0.00000003,0.00000057,0.00000079,0.00000046,-0.00000020,0.00000021,-
 0.00000064,-0.00000030,0.00000022,-0.00000023,-0.00000003,-0.00000044,
 -0.00000105,-0.00000163,0.00000061,0.00000252,0.00000159,-0.00000126,0
 .00000167,0.00000002,0.00000595,-0.00000339,-0.00000278,-0.00000352,0.
 00000038,-0.00000338,-0.00000092,0.00000103,-0.00000012,-0.00000130,0.
 00000074,0.00000058,0.00000206,-0.00000003,0.00000107,0.00000053,0.000
 00176,-0.00000027,0.00000035,-0.00000042,-0.00000021,-0.00000055,-0.00
 000055,-0.00000102,0.00000034,0.00000100,0.00000068,0.00000049,0.00000
 164,-0.00000125,0.00000080,-0.00000176,0.00000177,-0.00000130,0.000001
 67,0.00000068,0.00000020,-0.00000043,-0.00000194,-0.00000005,0.0000038
 3,0.00000172,-0.00001577,-0.00130295,-0.00559719,-0.00331555,0.0015302
 5,0.00159877,0.00038022,-0.02398919,0.00501106,0.00753350,0.00090651,0
 .00086924,0.00013972,0.00070208,0.00071400,0.00067333,-0.00000700,-0.0
 0029896,-0.00023559,-0.00013027,0.00000221,0.00004084,-0.00000348,0.00
 002089,0.00000724,-0.00172775,0.00071921,0.00066901,-0.00001038,0.0002
 9076,0.00016585,0.00004771,0.00003392,-0.00004575,0.00001386,-0.000025
 23,-0.00002020,-0.00000442,-0.00003020,0.00002144,0.05566279,-0.060792
 85,-0.01640059,0.00001865,-0.00142621,0.00045578,0.02612174,-0.0039130
 5,-0.01061197,-0.00010223,0.00024149,0.00051488,0.00022686,0.00006060,
 -0.00058106,0.00001594,0.00001352,-0.00012647,-0.00003849,-0.00007837,
 -0.00009399,-0.00002650,-0.00000003,0.00000118,0.00000594,-0.00000205,
 -0.00000064,0.00000934,0.00000096,-0.00000503,0.00000801,0.00000266,0.
 00000350,-0.05789985,0.06259477,-0.00005953,0.00006234,0.00003876,-0.0
 0014619,-0.00007443,-0.00007645,0.00010695,0.00002250,-0.00009972,0.00
 006263,0.00008294,-0.00004210,-0.00008769,0.00006784,-0.00001842,-0.00
 004442,0.00003767,0.00000330,-0.00001042,0.00000069,-0.00000179,0.0000
 2511,-0.00000545,0.00000630,-0.00001170,0.00001233,0.00000323,0.000025
 89,-0.00001443,-0.00000358,0.00001690,-0.00001096,0.00000036,0.0000445
 7,-0.00000330,0.00007280,-0.00000555,0.00000017,0.00000871,-0.00000064
 ,-0.00000436,-0.00000395,0.00000148,-0.00000140,-0.00000041,-0.0000050
 5,0.00000757,0.00000545,0.00004994,-0.00004732,-0.00001172,0.00003875,
 -0.00003177,-0.00000511,-0.00000464,0.00002740,0.00003884,0.00002020,0
 .00000952,-0.00001717,0.00002357,0.00000801,0.00001990,-0.00000617,0.0
 0004247,-0.00001007,-0.00002633,-0.00001741,-0.00003452,-0.00004230,-0
 .00002240,0.00002439,0.00001169,-0.00007000,0.00001374,-0.00001659,0.0
 0005482,-0.00001959,0.00001702,0.00000945,-0.00002672,-0.00001062,-0.0
 0000232,0.00001033,-0.00000470,-0.00000553,0.00001032,0.00001402,-0.00
 001209,0.00000283,0.00001340,-0.00003508,0.00001424,-0.00001000,-0.000
 00710,-0.00000171,-0.00000721,-0.00000086,-0.00000691,0.00002032,0.000
 01881,0.00001795,0.00000080,-0.00000054,-0.00000042,0.00000062,0.00000
 006,-0.00000157,0.00000050,0.00000028,0.00000093,-0.00000091,0.0000007
 6,0.00000039,0.00000093,0.00000088,-0.00000078,-0.00000038,-0.00000075
 ,0.00000055,0.00000007,0.00000006,0.00000076,0.00000078,0.00000095,-0.
 00000174,0.00000124,-0.00000048,-0.00000031,-0.00000251,0.00000043,-0.
 00000085,-0.00000019,-0.00000008,0.00000303,0.00000205,0.00000033,-0.0
 0000154,0.00000113,0.00000020,-0.00000092,-0.00000006,0.00000172,0.000
 00022,0.00000102,0.00000044,-0.00000137,-0.00000068,-0.00000110,0.0000
 0056,0.00000170,0.00000062,0.00000013,-0.00000026,-0.00000018,-0.00000
 014,-0.00000073,-0.00000037,-0.00000033,0.00000123,0.00000059,0.000001
 15,0.00000129,-0.00000026,-0.00000031,0.00000164,0.00000109,0.00000060
 ,-0.00000127,0.00000033,-0.00000012,-0.00000111,-0.00000093,-0.0000001
 5,0.00000174,0.00000027,0.00000036,-0.00000073,-0.00000007,0.00000005,
 0.00000017,0.00000071,-0.00000015,0.00000045,-0.00000037,0.00000153,0.
 00000071,0.00000017,0.00000100,0.00000121,0.00000042,0.00000051,-0.000
 00017,-0.00000056,-0.00000053,-0.00000070,0.00000084,0.00000040,-0.000
 00006,0.00000454,0.00000099,-0.00000178,0.00000204,0.00000020,-0.00000
 026,-0.00000326,-0.00000489,0.00000280,0.00000090,0.00000297,-0.000001
 50,0.00000523,-0.00000181,-0.00000241,-0.00000185,0.00000226,0.0000015
 7,-0.00000361,0.00000076,0.00000091,0.00000323,-0.00000236,0.00000005,
 0.00000127,0.00000027,0.00000054,-0.00000068,0.00000049,-0.00000079,0.
 00000244,-0.00000054,0.00000041,-0.00000038,-0.00000034,-0.00000240,0.
 00000118,-0.00000011,0.00000207,-0.00000119,-0.00000031,-0.00000075,-0
 .00000115,0.00000003,-0.00000087,0.00000370,0.00000047,-0.00000303,0.0
 0000807,-0.00000354,-0.00093967,-0.00314565,-0.00108045,0.00074232,0.0
 0052664,0.00082699,-0.01229579,0.00302893,0.00269200,0.00015857,0.0007
 1818,0.00035397,0.00058106,0.00021419,0.00013907,0.00000041,-0.0001336
 3,-0.00015683,-0.00006089,0.00000782,0.00002471,-0.00001205,0.00001049
 ,0.00000935,-0.00080788,0.00031706,0.00047581,-0.00001777,0.00011459,0
 .00006982,0.00002007,-0.00000925,-0.00001720,0.00000352,-0.00000440,-0
 .00001793,0.00000971,-0.00000009,-0.00000784,0.07325355,-0.01646238,-0
 .07109001,0.03000618,-0.00730176,-0.00720114,-0.01193325,0.00153699,0.
 00293721,0.00091654,-0.00030346,-0.00043407,-0.00043785,-0.00005719,0.
 00051111,-0.00014582,-0.00000243,0.00012628,-0.00030697,-0.00000458,0.
 00012140,-0.00005555,0.00001097,0.00000402,0.00001334,-0.00001079,-0.0
 0000084,0.00001963,0.00000048,-0.00001092,0.00001501,0.00000229,0.0000
 0472,-0.07872321,0.02082274,0.07181374\\0.00000153,0.00000698,0.000003
 28,0.00000354,0.00000686,0.00000613,-0.00000629,-0.00000457,-0.0000192
 5,-0.00000120,-0.00001048,0.00000196,-0.00000616,-0.00000562,-0.000004
 42,0.00000379,0.00000469,0.00000678,-0.00000033,0.00000033,0.00000442,
 0.00000150,0.00000586,0.00000437,-0.00000055,0.00000307,0.00000366,0.0
 0000288,-0.00000014,0.00000196,0.00000044,-0.00000237,0.00000111,0.000
 00312,0.00000147,0.00000621,-0.00000105,-0.00000043,0.00000321,0.00000
 054,0.00000319,0.00000302,0.00000230,-0.00000470,-0.00000010,0.0000013
 7,-0.00000153,0.00000367,0.00000781,-0.00000168,0.00001094,-0.00000305
 ,-0.00000085,-0.00000199,-0.00000048,-0.00000903,-0.00000536,-0.000001
 71,0.00000347,-0.00000627,-0.00000585,-0.00000236,-0.00001129,-0.00000
 233,0.00000271,-0.00000287,0.00001205,-0.00000249,0.00000207,0.0000089
 4,-0.00000195,-0.00000144,-0.00000026,0.00000086,-0.00000109,-0.000002
 17,0.00000317,0.00000178,-0.00000425,-0.00000023,-0.00000440,-0.000001
 45,-0.00000458,0.00000228,0.00000069,-0.00000211,0.00000464,-0.0000051
 4,-0.00000184,-0.00000034,-0.00000259,-0.00000437,-0.00000659,-0.00000
 406,0.00000665,-0.00000393,-0.00000104,0.00000052,-0.00000331,0.000001
 44,0.00000265,0.00000197,-0.00000128,0.00000651,0.00000021,-0.00000057
 ,-0.00000088,0.00000009,-0.00000293,-0.00000198,-0.00000297,0.00000136
 ,-0.00000151,0.00000008,0.00000379,-0.00000391,-0.00000008,-0.00000476
 ,-0.00000161,-0.00000165,-0.00000042,0.00000029,-0.00000312,-0.0000031
 2,-0.00000061,-0.00000166,-0.00000475,-0.00000246,-0.00000046,-0.00000
 178,0.00000180,-0.00000356,0.00000098,-0.00000130,0.00000056,-0.000001
 30,-0.00000206,-0.00000051,-0.00000050,0.00000093,0.00000145,-0.000002
 26,-0.00000104,-0.00000160,-0.00000159,-0.00000292,-0.00000115,-0.0000
 0453,-0.00000354,-0.00000086,0.00000051,-0.00000489,0.00000383,0.00000
 369,0.00000398,-0.00000304,-0.00000058,0.00000326,0.00000044,0.0000029
 3,0.00000522,-0.00000131,-0.00000440,-0.00000015,-0.00000845,0.0000025
 1,0.00000251,-0.00000051,0.00000111,0.00000126,-0.00000039,0.00000013,
 0.00000051,-0.00000020,0.,0.00000430,-0.00000533,0.00000244,0.00000105
 ,-0.00000099,0.00000036,0.00000108,-0.00000026,0.00000252,0.00000331,0
 .00000016,0.00000253,0.00000241,-0.00000379,-0.00000067,0.00000290,-0.
 00000315,-0.00000026,0.00000119,-0.00000122,-0.00000153,0.00000348,-0.
 00000248,-0.00000145,0.00000077,-0.00000476,-0.00000093,-0.00000201,0.
 00000085,0.00000174,0.00000435,0.00000078,-0.00000071,-0.00000190,0.00
 000103,0.00000198,-0.00000640,-0.00000113,-0.00000473,0.00000076,-0.00
 000152,0.00000168,-0.00000003,0.00000178,-0.00000323,-0.00000283,0.000
 00078,0.00000148,-0.00000001,-0.00000255,-0.00000245,-0.00000088,-0.00
 000206,-0.00000177,-0.00000193,-0.00000159,-0.00000265,-0.00000123,-0.
 00000355,0.00000144,-0.00000051,0.00000140,0.00000078,-0.00000016,-0.0
 0000269,-0.00000239,0.00000049,-0.00000386,-0.00000159,0.00000122,-0.0
 0000201,-0.00000116,-0.00000293,0.00000501,0.00000536,-0.00001238,0.00
 000384,-0.00000125,0.00001553,0.00000963,0.00001080,0.00000115,0.00000
 292,-0.00000216,-0.00000227,-0.00000221,-0.00000175,0.00000200,0.00000
 374,-0.00000358,0.00001577,0.00000171,0.00000147,0.00000008,-0.0000010
 4,0.00000170,-0.00000315,0.00000225,-0.00000683,-0.00000024,-0.0000032
 2,0.00000740,-0.00000883,-0.00000258,0.00000198,0.00000539,0.00000322,
 0.00000224,0.00000366,0.00000221,-0.00000035,0.00000193,-0.00000168,-0
 .00000648,0.00000289,-0.00001370,0.00000550,-0.00000445,0.00000988,0.0
 0000680,-0.00000989,0.00001083,-0.00000660,-0.00000026,0.00000742,-0.0
 0000273,0.00000006,0.00000114,0.00000099,-0.00001079,0.00000300,0.0000
 0995,0.00000450,0.00000650,0.00000288,-0.00000844,-0.00000067,0.000000
 01,0.00000371,0.00000051,-0.00000111,-0.00000022,-0.00000035,0.0000019
 5,0.00000504,0.00000340,-0.00000188,0.00000415,0.00000836\\\@
 The archive entry for this job was punched.


 SCIENCE AND PEACE WILL TRIUMPH OVER IGNORANCE AND WAR

                          -- PASTEUR
 Job cpu time:       2 days  2 hours 56 minutes  4.6 seconds.
 Elapsed time:       0 days  3 hours 15 minutes 20.9 seconds.
 File lengths (MBytes):  RWF=   9700 Int=      0 D2E=      0 Chk=     55 Scr=      1
 Normal termination of Gaussian 16 at Sat Dec  7 22:08:42 2024.
