/mnt/lustre/scratch/nvme/SLURM/9663527/usccqdma.fw8U27Xarh
OMP_STACKSIZE=0m
GAUSS_PDEF=16
GAUSS_MDEF=65536MB
GAUSS_RDEF=SCF=Direct
 Entering Gaussian System, Link 0=g16.exe
 Initial command:
 /opt/cesga/2020/software/Core/g16/c1/l1.exe "/mnt/lustre/scratch/nvme/SLURM/9663527/usccqdma.fw8U27Xarh/Gau-178294.inp" -scrdir="/mnt/lustre/scratch/nvme/SLURM/9663527/usccqdma.fw8U27Xarh/"
 Default is to use a total of  16 processors:
                               16 via shared-memory
                                1 via Linda
 Entering Link 1 = /opt/cesga/2020/software/Core/g16/c1/l1.exe PID=    178320.
  
 Copyright (c) 1988-2019, Gaussian, Inc.  All Rights Reserved.
  
 This is part of the Gaussian(R) 16 program.  It is based on
 the Gaussian(R) 09 system (copyright 2009, Gaussian, Inc.),
 the Gaussian(R) 03 system (copyright 2003, Gaussian, Inc.),
 the Gaussian(R) 98 system (copyright 1998, Gaussian, Inc.),
 the Gaussian(R) 94 system (copyright 1995, Gaussian, Inc.),
 the Gaussian 92(TM) system (copyright 1992, Gaussian, Inc.),
 the Gaussian 90(TM) system (copyright 1990, Gaussian, Inc.),
 the Gaussian 88(TM) system (copyright 1988, Gaussian, Inc.),
 the Gaussian 86(TM) system (copyright 1986, Carnegie Mellon
 University), and the Gaussian 82(TM) system (copyright 1983,
 Carnegie Mellon University). Gaussian is a federally registered
 trademark of Gaussian, Inc.
  
 This software contains proprietary and confidential information,
 including trade secrets, belonging to Gaussian, Inc.
  
 This software is provided under written license and may be
 used, copied, transmitted, or stored only in accord with that
 written license.
  
 The following legend is applicable only to US Government
 contracts under FAR:
  
                    RESTRICTED RIGHTS LEGEND
  
 Use, reproduction and disclosure by the US Government is
 subject to restrictions as set forth in subparagraphs (a)
 and (c) of the Commercial Computer Software - Restricted
 Rights clause in FAR 52.227-19.
  
 Gaussian, Inc.
 340 Quinnipiac St., Bldg. 40, Wallingford CT 06492
  
  
 ---------------------------------------------------------------
 Warning -- This program may not be used in any manner that
 competes with the business of Gaussian, Inc. or will provide
 assistance to any competitor of Gaussian, Inc.  The licensee
 of this program is prohibited from giving any competitor of
 Gaussian, Inc. access to this program.  By using this program,
 the user acknowledges that Gaussian, Inc. is engaged in the
 business of creating and licensing software in the field of
 computational chemistry and represents and warrants to the
 licensee that it is not a competitor of Gaussian, Inc. and that
 it will not use this program in any manner prohibited above.
 ---------------------------------------------------------------
  

 Cite this work as:
 Gaussian 16, Revision C.01,
 M. J. Frisch, G. W. Trucks, H. B. Schlegel, G. E. Scuseria, 
 M. A. Robb, J. R. Cheeseman, G. Scalmani, V. Barone, 
 G. A. Petersson, H. Nakatsuji, X. Li, M. Caricato, A. V. Marenich, 
 J. Bloino, B. G. Janesko, R. Gomperts, B. Mennucci, H. P. Hratchian, 
 J. V. Ortiz, A. F. Izmaylov, J. L. Sonnenberg, D. Williams-Young, 
 F. Ding, F. Lipparini, F. Egidi, J. Goings, B. Peng, A. Petrone, 
 T. Henderson, D. Ranasinghe, V. G. Zakrzewski, J. Gao, N. Rega, 
 G. Zheng, W. Liang, M. Hada, M. Ehara, K. Toyota, R. Fukuda, 
 J. Hasegawa, M. Ishida, T. Nakajima, Y. Honda, O. Kitao, H. Nakai, 
 T. Vreven, K. Throssell, J. A. Montgomery, Jr., J. E. Peralta, 
 F. Ogliaro, M. J. Bearpark, J. J. Heyd, E. N. Brothers, K. N. Kudin, 
 V. N. Staroverov, T. A. Keith, R. Kobayashi, J. Normand, 
 K. Raghavachari, A. P. Rendell, J. C. Burant, S. S. Iyengar, 
 J. Tomasi, M. Cossi, J. M. Millam, M. Klene, C. Adamo, R. Cammi, 
 J. W. Ochterski, R. L. Martin, K. Morokuma, O. Farkas, 
 J. B. Foresman, and D. J. Fox, Gaussian, Inc., Wallingford CT, 2019.
 
 ******************************************
 Gaussian 16:  ES64L-G16RevC.01  3-Jul-2019
                 7-Dec-2024 
 ******************************************
 Default route: SCF=Direct
 ----------------------------------------------------
 # m06/genecp scf=tight int=ultrafine 5d freq=noraman
 ----------------------------------------------------
 1/10=4,30=1,38=1/1,3;
 2/12=2,17=6,18=5,40=1/2;
 3/5=7,8=1,11=2,16=1,17=8,25=1,30=1,71=2,74=-54,75=-5,140=1/1,2,3;
 4//1;
 5/5=2,32=2,38=5,98=1/2;
 8/6=4,10=90,11=11/1;
 11/6=1,8=1,9=11,15=111,16=1/1,2,10;
 10/6=1/2;
 6/7=2,8=2,9=2,10=2,28=1/1;
 7/8=1,10=1,25=1/1,2,3,16;
 1/10=4,30=1/3;
 99//99;
 ------
 OPT-TS
 ------
 Symbolic Z-matrix:
 Charge =  0 Multiplicity = 1
 C                     2.08509  -0.83554   1.28169 
 C                     1.83629   1.43758   1.6592 
 C                     3.11444   1.53321   2.17938 
 C                     3.91154   0.3922    2.2326 
 C                     3.39257  -0.80277   1.77774 
 C                     1.45019  -2.06294   0.78418 
 C                    -0.39435  -3.02395  -0.25793 
 C                     0.13215  -4.2974   -0.13203 
 C                     1.37244  -4.45066   0.48012 
 C                     2.03367  -3.32477   0.93859 
 H                     1.19146   2.30729   1.5513 
 H                     4.92858   0.45173   2.61664 
 H                     4.00917  -1.69805   1.78601 
 H                    -1.34449  -2.84404  -0.75128 
 H                     1.81761  -5.43592   0.60312 
 H                     2.99521  -3.42379   1.43502 
 N                     1.32963   0.27753   1.22875 
 N                     0.2379   -1.92798   0.19254 
 Ir                   -0.61651   0.04983   0.09292 
 O                    -2.50694  -1.99349   1.39646 
 O                    -3.54212   0.13785  -0.81808 
 O                    -0.09409   3.06378  -0.0385 
 B                    -2.25409  -0.32952  -1.03845 
 B                    -1.9665   -0.71571   1.52646 
 B                    -0.86124   2.02027  -0.53263 
 O                    -1.68968   2.45133  -1.5454 
 O                    -2.45208  -0.10233   2.66533 
 C                    -3.52625  -0.91027   3.17874 
 C                    -3.16139  -2.31692   2.63241 
 C                    -0.61045   4.28849  -0.59004 
 C                    -1.30686   3.79409  -1.89302 
 C                    -4.34214  -0.21114  -1.95468 
 C                    -3.60031  -1.46093  -2.50764 
 O                    -2.23535  -1.18962  -2.13909 
 C                    -2.133    -3.04882   3.48666 
 H                    -2.55985  -3.42046   4.42794 
 H                    -1.75264  -3.90603   2.91466 
 H                    -1.28074  -2.39612   3.72017 
 C                    -4.34204  -3.22168   2.34687 
 H                    -5.02259  -2.77733   1.61096 
 H                    -3.98731  -4.17994   1.94423 
 H                    -4.90913  -3.42872   3.26583 
 C                    -3.55381  -0.80198   4.68909 
 H                    -3.81087   0.2236    4.98242 
 H                    -4.31136  -1.4763    5.11445 
 H                    -2.58109  -1.04355   5.13155 
 C                    -4.81439  -0.35788   2.58352 
 H                    -4.79288  -0.41217   1.48615 
 H                    -5.70168  -0.88631   2.95825 
 H                    -4.90156   0.70017   2.86023 
 C                    -5.7641   -0.46657  -1.49591 
 H                    -6.39358  -0.80449  -2.33192 
 H                    -5.80544  -1.22099  -0.70093 
 H                    -6.19456   0.46256  -1.10052 
 C                    -4.31042   0.97277  -2.91258 
 H                    -4.65243   1.86486  -2.37262 
 H                    -3.28798   1.1737   -3.25778 
 H                    -4.96528   0.81518  -3.78046 
 C                    -4.00455  -2.74985  -1.80327 
 H                    -3.92513  -2.64064  -0.71227 
 H                    -5.0271   -3.05717  -2.06045 
 H                    -3.32406  -3.55355  -2.11776 
 C                    -3.68188  -1.64035  -4.00955 
 H                    -3.12749  -2.53953  -4.30851 
 H                    -4.72591  -1.7647   -4.33153 
 H                    -3.25095  -0.78583  -4.54216 
 C                    -2.55011   4.56746  -2.28495 
 H                    -2.96752   4.14922  -3.21044 
 H                    -3.32405   4.51011  -1.5118 
 H                    -2.31126   5.62485  -2.46876 
 C                    -0.36456   3.70084  -3.0848 
 H                    -0.87013   3.14534  -3.88601 
 H                    -0.0957    4.69385  -3.46895 
 H                     0.55655   3.15948  -2.83395 
 C                     0.54065   5.25016  -0.80013 
 H                     1.3302    4.80736  -1.41683 
 H                     0.19416   6.17684  -1.27962 
 H                     0.98213   5.51317   0.16999 
 C                    -1.58773   4.85426   0.43141 
 H                    -2.42683   4.16683   0.60235 
 H                    -1.06309   4.98868   1.3855 
 H                    -1.98867   5.82782   0.11971 
 H                    -1.49165   1.22475   0.79488 
 C                     2.99991  -0.37876  -1.65281 
 O                     3.38644   0.64265  -1.08987 
 C                     3.97237  -1.50147  -1.98473 
 H                     3.66237  -2.41866  -1.4503 
 H                     3.90662  -1.75929  -3.05489 
 C                     0.70301   0.4476   -1.72663 
 H                     1.26252   1.37911  -1.5821 
 H                     0.06078   0.54153  -2.61245 
 N                     1.69335  -0.58411  -1.99002 
 C                     1.25691  -1.72549  -2.76941 
 H                     1.57084  -1.64561  -3.82259 
 H                     1.64064  -2.67308  -2.36809 
 H                     0.16223  -1.76203  -2.74433 
 C                     5.40383  -1.15228  -1.62054 
 H                     5.70399  -0.24039  -2.15841 
 H                     5.45312  -0.88149  -0.55405 
 C                     6.37514  -2.28213  -1.9202 
 H                     6.0669   -3.19355  -1.37621 
 H                     6.32157  -2.54625  -2.99126 
 C                     7.81372  -1.94448  -1.55813 
 H                     8.1199   -1.03845  -2.10537 
 H                     7.86469  -1.67855  -0.48956 
 C                     8.77689  -3.08115  -1.85608 
 H                     8.5043   -3.98699  -1.29598 
 H                     8.76126  -3.34135  -2.92383 
 H                     9.8104   -2.82525  -1.59153 
 C                     3.66452   2.83116   2.67707 
 F                     4.81655   3.13192   2.0691 
 F                     2.82181   3.84714   2.48914 
 F                     3.9311    2.76076   3.99018 
 H                    -0.42427  -5.14896  -0.51464 
 

 GradGradGradGradGradGradGradGradGradGradGradGradGradGradGradGradGradGrad
 Berny optimization.
 Initialization pass.
 Trust Radius=3.00D-01 FncErr=1.00D-07 GrdErr=1.00D-07 EigMax=2.50D+02 EigMin=1.00D-04
 Number of steps in this run=      2 maximum allowed number of steps=      2.
 GradGradGradGradGradGradGradGradGradGradGradGradGradGradGradGradGradGrad

 Stoichiometry    C37H60B3F3IrN3O7
 Framework group  C1[X(C37H60B3F3IrN3O7)]
 Deg. of freedom   336
 Full point group                 C1      NOp   1
 Largest Abelian subgroup         C1      NOp   1
 Largest concise Abelian subgroup C1      NOp   1
                         Standard orientation:                         
 ---------------------------------------------------------------------
 Center     Atomic      Atomic             Coordinates (Angstroms)
 Number     Number       Type             X           Y           Z
 ---------------------------------------------------------------------
      1          6           0        2.085089   -0.835541    1.281691
      2          6           0        1.836290    1.437579    1.659201
      3          6           0        3.114440    1.533209    2.179381
      4          6           0        3.911540    0.392198    2.232601
      5          6           0        3.392569   -0.802771    1.777741
      6          6           0        1.450189   -2.062941    0.784181
      7          6           0       -0.394351   -3.023950   -0.257929
      8          6           0        0.132148   -4.297401   -0.132029
      9          6           0        1.372438   -4.450661    0.480121
     10          6           0        2.033669   -3.324771    0.938591
     11          1           0        1.191460    2.307289    1.551301
     12          1           0        4.928580    0.451728    2.616641
     13          1           0        4.009169   -1.698052    1.786011
     14          1           0       -1.344491   -2.844040   -0.751279
     15          1           0        1.817608   -5.435921    0.603121
     16          1           0        2.995209   -3.423791    1.435021
     17          7           0        1.329630    0.277529    1.228751
     18          7           0        0.237899   -1.927981    0.192541
     19         77           0       -0.616510    0.049830    0.092921
     20          8           0       -2.506941   -1.993490    1.396461
     21          8           0       -3.542120    0.137850   -0.818079
     22          8           0       -0.094090    3.063779   -0.038499
     23          5           0       -2.254090   -0.329520   -1.038449
     24          5           0       -1.966501   -0.715710    1.526461
     25          5           0       -0.861240    2.020270   -0.532629
     26          8           0       -1.689680    2.451330   -1.545399
     27          8           0       -2.452080   -0.102330    2.665331
     28          6           0       -3.526251   -0.910270    3.178741
     29          6           0       -3.161391   -2.316920    2.632411
     30          6           0       -0.610449    4.288490   -0.590039
     31          6           0       -1.306859    3.794090   -1.893019
     32          6           0       -4.342140   -0.211139   -1.954679
     33          6           0       -3.600311   -1.460930   -2.507639
     34          8           0       -2.235351   -1.189620   -2.139089
     35          6           0       -2.133001   -3.048820    3.486661
     36          1           0       -2.559851   -3.420460    4.427941
     37          1           0       -1.752641   -3.906030    2.914661
     38          1           0       -1.280741   -2.396120    3.720171
     39          6           0       -4.342041   -3.221679    2.346871
     40          1           0       -5.022591   -2.777329    1.610961
     41          1           0       -3.987311   -4.179940    1.944231
     42          1           0       -4.909131   -3.428719    3.265831
     43          6           0       -3.553811   -0.801980    4.689091
     44          1           0       -3.810870    0.223600    4.982421
     45          1           0       -4.311361   -1.476299    5.114451
     46          1           0       -2.581091   -1.043550    5.131551
     47          6           0       -4.814390   -0.357879    2.583521
     48          1           0       -4.792881   -0.412169    1.486151
     49          1           0       -5.701681   -0.886309    2.958251
     50          1           0       -4.901560    0.700171    2.860231
     51          6           0       -5.764101   -0.466569   -1.495909
     52          1           0       -6.393581   -0.804489   -2.331919
     53          1           0       -5.805441   -1.220989   -0.700929
     54          1           0       -6.194560    0.462561   -1.100519
     55          6           0       -4.310420    0.972771   -2.912579
     56          1           0       -4.652430    1.864861   -2.372619
     57          1           0       -3.287980    1.173700   -3.257779
     58          1           0       -4.965280    0.815181   -3.780459
     59          6           0       -4.004551   -2.749850   -1.803269
     60          1           0       -3.925131   -2.640640   -0.712269
     61          1           0       -5.027101   -3.057169   -2.060449
     62          1           0       -3.324061   -3.553550   -2.117759
     63          6           0       -3.681881   -1.640350   -4.009549
     64          1           0       -3.127491   -2.539530   -4.308509
     65          1           0       -4.725911   -1.764699   -4.331529
     66          1           0       -3.250951   -0.785830   -4.542159
     67          6           0       -2.550109    4.567460   -2.284949
     68          1           0       -2.967519    4.149220   -3.210439
     69          1           0       -3.324049    4.510110   -1.511799
     70          1           0       -2.311259    5.624850   -2.468759
     71          6           0       -0.364559    3.700840   -3.084799
     72          1           0       -0.870130    3.145340   -3.886009
     73          1           0       -0.095699    4.693849   -3.468949
     74          1           0        0.556550    3.159479   -2.833949
     75          6           0        0.540651    5.250159   -0.800129
     76          1           0        1.330201    4.807359   -1.416829
     77          1           0        0.194161    6.176839   -1.279619
     78          1           0        0.982131    5.513169    0.169991
     79          6           0       -1.587729    4.854260    0.431411
     80          1           0       -2.426829    4.166830    0.602351
     81          1           0       -1.063089    4.988680    1.385501
     82          1           0       -1.988669    5.827820    0.119711
     83          1           0       -1.491650    1.224750    0.794881
     84          6           0        2.999910   -0.378761   -1.652809
     85          8           0        3.386440    0.642649   -1.089869
     86          6           0        3.972369   -1.501472   -1.984729
     87          1           0        3.662369   -2.418662   -1.450299
     88          1           0        3.906619   -1.759292   -3.054889
     89          6           0        0.703010    0.447599   -1.726629
     90          1           0        1.262520    1.379109   -1.582099
     91          1           0        0.060780    0.541529   -2.612449
     92          7           0        1.693349   -0.584111   -1.990019
     93          6           0        1.256909   -1.725491   -2.769409
     94          1           0        1.570839   -1.645611   -3.822589
     95          1           0        1.640639   -2.673081   -2.368089
     96          1           0        0.162229   -1.762031   -2.744329
     97          6           0        5.403829   -1.152282   -1.620539
     98          1           0        5.703990   -0.240392   -2.158409
     99          1           0        5.453119   -0.881492   -0.554049
    100          6           0        6.375139   -2.282132   -1.920199
    101          1           0        6.066899   -3.193552   -1.376209
    102          1           0        6.321569   -2.546252   -2.991259
    103          6           0        7.813719   -1.944483   -1.558129
    104          1           0        8.119899   -1.038453   -2.105369
    105          1           0        7.864689   -1.678553   -0.489559
    106          6           0        8.776889   -3.081153   -1.856079
    107          1           0        8.504299   -3.986993   -1.295979
    108          1           0        8.761259   -3.341353   -2.923829
    109          1           0        9.810399   -2.825253   -1.591529
    110          6           0        3.664520    2.831158    2.677071
    111          9           0        4.816550    3.131918    2.069101
    112          9           0        2.821811    3.847139    2.489141
    113          9           0        3.931100    2.760758    3.990181
    114          1           0       -0.424272   -5.148960   -0.514639
 ---------------------------------------------------------------------
 Rotational constants (GHZ):           0.0614577           0.0403962           0.0366012
 General basis read from cards:  (5D, 7F)
 ======================================================================================================
                                       Pseudopotential Parameters
 ======================================================================================================
  Center     Atomic      Valence      Angular      Power
  Number     Number     Electrons     Momentum     of R      Exponent        Coefficient   SO-Coeffient
 ======================================================================================================
    1          6
                                   No pseudopotential on this center.
    2          6
                                   No pseudopotential on this center.
    3          6
                                   No pseudopotential on this center.
    4          6
                                   No pseudopotential on this center.
    5          6
                                   No pseudopotential on this center.
    6          6
                                   No pseudopotential on this center.
    7          6
                                   No pseudopotential on this center.
    8          6
                                   No pseudopotential on this center.
    9          6
                                   No pseudopotential on this center.
   10          6
                                   No pseudopotential on this center.
   11          1
                                   No pseudopotential on this center.
   12          1
                                   No pseudopotential on this center.
   13          1
                                   No pseudopotential on this center.
   14          1
                                   No pseudopotential on this center.
   15          1
                                   No pseudopotential on this center.
   16          1
                                   No pseudopotential on this center.
   17          7
                                   No pseudopotential on this center.
   18          7
                                   No pseudopotential on this center.
   19         77           17
                                      G and up 
                                                     1      823.5880147       -0.15780140    0.00000000
                                                     2      364.6613336    -1517.52704460    0.00000000
                                                     2       55.7082801     -316.53065290    0.00000000
                                                     2       12.0464544      -91.88809410    0.00000000
                                                     2        3.5120610       -9.22417730    0.00000000
                                      S - G
                                                     0      188.0490770        3.15780140    0.00000000
                                                     1      340.4194712       26.83225770    0.00000000
                                                     2      128.2373673      800.42500070    0.00000000
                                                     2       33.8644961      369.40506830    0.00000000
                                                     2        4.7560005      242.41718990    0.00000000
                                                     2        3.9649974     -118.21732820    0.00000000
                                      P - G
                                                     0      289.7291139        2.15780140    0.00000000
                                                     1       87.4633789       61.96786100    0.00000000
                                                     2       30.4363766      269.05819860    0.00000000
                                                     2        4.0553412      231.16547930    0.00000000
                                                     2        3.5525341     -133.69526670    0.00000000
                                      D - G
                                                     0      136.4017106        3.15780140    0.00000000
                                                     1       95.0776925       45.93498030    0.00000000
                                                     2       49.2258410      359.03446680    0.00000000
                                                     2       15.0874145      176.47401190    0.00000000
                                                     2        4.0405764       54.51552860    0.00000000
                                      F - G
                                                     0      127.3507908        3.95461970    0.00000000
                                                     1       66.2364374       52.97736550    0.00000000
                                                     2       34.4299229      274.86433830    0.00000000
                                                     2       10.1995721      137.20473380    0.00000000
                                                     2        2.5409702       14.86333050    0.00000000
   20          8
                                   No pseudopotential on this center.
   21          8
                                   No pseudopotential on this center.
   22          8
                                   No pseudopotential on this center.
   23          5
                                   No pseudopotential on this center.
   24          5
                                   No pseudopotential on this center.
   25          5
                                   No pseudopotential on this center.
   26          8
                                   No pseudopotential on this center.
   27          8
                                   No pseudopotential on this center.
   28          6
                                   No pseudopotential on this center.
   29          6
                                   No pseudopotential on this center.
   30          6
                                   No pseudopotential on this center.
   31          6
                                   No pseudopotential on this center.
   32          6
                                   No pseudopotential on this center.
   33          6
                                   No pseudopotential on this center.
   34          8
                                   No pseudopotential on this center.
   35          6
                                   No pseudopotential on this center.
   36          1
                                   No pseudopotential on this center.
   37          1
                                   No pseudopotential on this center.
   38          1
                                   No pseudopotential on this center.
   39          6
                                   No pseudopotential on this center.
   40          1
                                   No pseudopotential on this center.
   41          1
                                   No pseudopotential on this center.
   42          1
                                   No pseudopotential on this center.
   43          6
                                   No pseudopotential on this center.
   44          1
                                   No pseudopotential on this center.
   45          1
                                   No pseudopotential on this center.
   46          1
                                   No pseudopotential on this center.
   47          6
                                   No pseudopotential on this center.
   48          1
                                   No pseudopotential on this center.
   49          1
                                   No pseudopotential on this center.
   50          1
                                   No pseudopotential on this center.
   51          6
                                   No pseudopotential on this center.
   52          1
                                   No pseudopotential on this center.
   53          1
                                   No pseudopotential on this center.
   54          1
                                   No pseudopotential on this center.
   55          6
                                   No pseudopotential on this center.
   56          1
                                   No pseudopotential on this center.
   57          1
                                   No pseudopotential on this center.
   58          1
                                   No pseudopotential on this center.
   59          6
                                   No pseudopotential on this center.
   60          1
                                   No pseudopotential on this center.
   61          1
                                   No pseudopotential on this center.
   62          1
                                   No pseudopotential on this center.
   63          6
                                   No pseudopotential on this center.
   64          1
                                   No pseudopotential on this center.
   65          1
                                   No pseudopotential on this center.
   66          1
                                   No pseudopotential on this center.
   67          6
                                   No pseudopotential on this center.
   68          1
                                   No pseudopotential on this center.
   69          1
                                   No pseudopotential on this center.
   70          1
                                   No pseudopotential on this center.
   71          6
                                   No pseudopotential on this center.
   72          1
                                   No pseudopotential on this center.
   73          1
                                   No pseudopotential on this center.
   74          1
                                   No pseudopotential on this center.
   75          6
                                   No pseudopotential on this center.
   76          1
                                   No pseudopotential on this center.
   77          1
                                   No pseudopotential on this center.
   78          1
                                   No pseudopotential on this center.
   79          6
                                   No pseudopotential on this center.
   80          1
                                   No pseudopotential on this center.
   81          1
                                   No pseudopotential on this center.
   82          1
                                   No pseudopotential on this center.
   83          1
                                   No pseudopotential on this center.
   84          6
                                   No pseudopotential on this center.
   85          8
                                   No pseudopotential on this center.
   86          6
                                   No pseudopotential on this center.
   87          1
                                   No pseudopotential on this center.
   88          1
                                   No pseudopotential on this center.
   89          6
                                   No pseudopotential on this center.
   90          1
                                   No pseudopotential on this center.
   91          1
                                   No pseudopotential on this center.
   92          7
                                   No pseudopotential on this center.
   93          6
                                   No pseudopotential on this center.
   94          1
                                   No pseudopotential on this center.
   95          1
                                   No pseudopotential on this center.
   96          1
                                   No pseudopotential on this center.
   97          6
                                   No pseudopotential on this center.
   98          1
                                   No pseudopotential on this center.
   99          1
                                   No pseudopotential on this center.
  100          6
                                   No pseudopotential on this center.
  101          1
                                   No pseudopotential on this center.
  102          1
                                   No pseudopotential on this center.
  103          6
                                   No pseudopotential on this center.
  104          1
                                   No pseudopotential on this center.
  105          1
                                   No pseudopotential on this center.
  106          6
                                   No pseudopotential on this center.
  107          1
                                   No pseudopotential on this center.
  108          1
                                   No pseudopotential on this center.
  109          1
                                   No pseudopotential on this center.
  110          6
                                   No pseudopotential on this center.
  111          9
                                   No pseudopotential on this center.
  112          9
                                   No pseudopotential on this center.
  113          9
                                   No pseudopotential on this center.
  114          1
                                   No pseudopotential on this center.
 ======================================================================================================
 There are   939 symmetry adapted cartesian basis functions of A   symmetry.
 There are   884 symmetry adapted basis functions of A   symmetry.
   884 basis functions,  1767 primitive gaussians,   939 cartesian basis functions
   209 alpha electrons      209 beta electrons
       nuclear repulsion energy      9176.5292080906 Hartrees.
 NAtoms=  114 NActive=  114 NUniq=  114 SFac= 1.00D+00 NAtFMM=   60 NAOKFM=T Big=T
 Integral buffers will be    131072 words long.
 Raffenetti 2 integral format.
 Two-electron integral symmetry is turned on.
 One-electron integrals computed using PRISM.
   1 Symmetry operations used in ECPInt.
 ECPInt:  NShTT=   57970 NPrTT=  353525 LenC2=   41753 LenP2D=  127886.
 LDataN:  DoStor=T MaxTD1= 6 Len=  172
 NBasis=   884 RedAO= T EigKep=  4.65D-04  NBF=   884
 NBsUse=   884 1.00D-06 EigRej= -1.00D+00 NBFU=   884
 Defaulting to unpruned grid for atomic number  77.
 ExpMin= 2.90D-02 ExpMax= 7.00D+03 ExpMxC= 1.05D+03 IAcc=3 IRadAn=         5 AccDes= 0.00D+00
 Harris functional with IExCor= 1009 and IRadAn=       5 diagonalized for initial guess.
 HarFok:  IExCor= 1009 AccDes= 0.00D+00 IRadAn=         5 IDoV= 1 UseB2=F ITyADJ=14
 ICtDFT=  3500011 ScaDFX=  1.000000  1.000000  1.000000  1.000000
 Defaulting to unpruned grid for atomic number  77.
 FoFCou: FMM=F IPFlag=           0 FMFlag=      100000 FMFlg1=        2001
         NFxFlg=           0 DoJE=T BraDBF=F KetDBF=T FulRan=T
         wScrn=  0.000000 ICntrl=       500 IOpCl=  0 I1Cent=   200000004 NGrid=           0
         NMat0=    1 NMatS0=      1 NMatT0=    0 NMatD0=    1 NMtDS0=    0 NMtDT0=    0
 Petite list used in FoFCou.
 Requested convergence on RMS density matrix=1.00D-08 within 128 cycles.
 Requested convergence on MAX density matrix=1.00D-06.
 Requested convergence on             energy=1.00D-06.
 No special actions if energy rises.
 Defaulting to unpruned grid for atomic number  77.
 Defaulting to unpruned grid for atomic number  77.
 Defaulting to unpruned grid for atomic number  77.
 Defaulting to unpruned grid for atomic number  77.
 Defaulting to unpruned grid for atomic number  77.
 Defaulting to unpruned grid for atomic number  77.
 Defaulting to unpruned grid for atomic number  77.
 Defaulting to unpruned grid for atomic number  77.
 Defaulting to unpruned grid for atomic number  77.
 Defaulting to unpruned grid for atomic number  77.
 Defaulting to unpruned grid for atomic number  77.
 Defaulting to unpruned grid for atomic number  77.
 Defaulting to unpruned grid for atomic number  77.
 Defaulting to unpruned grid for atomic number  77.
 Defaulting to unpruned grid for atomic number  77.
 Defaulting to unpruned grid for atomic number  77.
 SCF Done:  E(RM06) =  -2614.44935573     A.U. after   15 cycles
            NFock= 15  Conv=0.74D-08     -V/T= 2.0345
 DoSCS=F DFT=T ScalE2(SS,OS)=  1.000000  1.000000
 Range of M.O.s used for correlation:     1   884
 NBasis=   884 NAE=   209 NBE=   209 NFC=     0 NFV=     0
 NROrb=    884 NOA=   209 NOB=   209 NVA=   675 NVB=   675

 **** Warning!!: The largest alpha MO coefficient is  0.12009965D+02

   1 Symmetry operations used in ECPInt.
 ECPInt:  NShTT=   57970 NPrTT=  353525 LenC2=   41753 LenP2D=  127886.
 LDataN:  DoStor=T MaxTD1= 7 Len=  274
 Number of processors reduced to   7 by ecpmxn.
 Symmetrizing basis deriv contribution to polar:
 IMax=3 JMax=2 DiffMx= 0.00D+00
 G2DrvN: will do   115 centers at a time, making    1 passes.
 Calling FoFCou, ICntrl=  3107 FMM=T I1Cent=   0 AccDes= 0.00D+00.
 Defaulting to unpruned grid for atomic number  77.
 Defaulting to unpruned grid for atomic number  77.
 Defaulting to unpruned grid for atomic number  77.
 Defaulting to unpruned grid for atomic number  77.
 Defaulting to unpruned grid for atomic number  77.
 Defaulting to unpruned grid for atomic number  77.
 Defaulting to unpruned grid for atomic number  77.
 Defaulting to unpruned grid for atomic number  77.
 Defaulting to unpruned grid for atomic number  77.
 Defaulting to unpruned grid for atomic number  77.
 Defaulting to unpruned grid for atomic number  77.
 Defaulting to unpruned grid for atomic number  77.
 Defaulting to unpruned grid for atomic number  77.
 Defaulting to unpruned grid for atomic number  77.
 Defaulting to unpruned grid for atomic number  77.
 Defaulting to unpruned grid for atomic number  77.
 End of G2Drv F.D. properties file   721 does not exist.
 End of G2Drv F.D. properties file   722 does not exist.
 End of G2Drv F.D. properties file   788 does not exist.
          IDoAtm=11111111111111111111111111111111111111111111111111
          IDoAtm=11111111111111111111111111111111111111111111111111
          IDoAtm=11111111111111
          Differentiating once with respect to electric field.
                with respect to dipole field.
          Differentiating once with respect to nuclear coordinates.
 Defaulting to unpruned grid for atomic number  77.
 CalDSu exits because no D1Ps are significant.
 Defaulting to unpruned grid for atomic number  77.
 Defaulting to unpruned grid for atomic number  77.
 Defaulting to unpruned grid for atomic number  77.
 Defaulting to unpruned grid for atomic number  77.
 Defaulting to unpruned grid for atomic number  77.
 Defaulting to unpruned grid for atomic number  77.
 Defaulting to unpruned grid for atomic number  77.
 Defaulting to unpruned grid for atomic number  77.
 Defaulting to unpruned grid for atomic number  77.
 Defaulting to unpruned grid for atomic number  77.
 Defaulting to unpruned grid for atomic number  77.
 Defaulting to unpruned grid for atomic number  77.
 Defaulting to unpruned grid for atomic number  77.
 Defaulting to unpruned grid for atomic number  77.
 Defaulting to unpruned grid for atomic number  77.
 Defaulting to unpruned grid for atomic number  77.
          There are   345 degrees of freedom in the 1st order CPHF.  IDoFFX=6 NUNeed=     3.
    342 vectors produced by pass  0 Test12= 1.41D-13 1.00D-09 XBig12= 5.26D+02 7.22D+00.
 AX will form    72 AO Fock derivatives at one time.
    342 vectors produced by pass  1 Test12= 1.41D-13 1.00D-09 XBig12= 8.18D+01 9.19D-01.
    342 vectors produced by pass  2 Test12= 1.41D-13 1.00D-09 XBig12= 9.26D-01 7.60D-02.
    342 vectors produced by pass  3 Test12= 1.41D-13 1.00D-09 XBig12= 6.04D-03 7.36D-03.
    342 vectors produced by pass  4 Test12= 1.41D-13 1.00D-09 XBig12= 2.11D-05 3.66D-04.
    289 vectors produced by pass  5 Test12= 1.41D-13 1.00D-09 XBig12= 4.41D-08 1.15D-05.
     76 vectors produced by pass  6 Test12= 1.41D-13 1.00D-09 XBig12= 6.66D-11 4.84D-07.
      3 vectors produced by pass  7 Test12= 1.41D-13 1.00D-09 XBig12= 9.05D-14 1.98D-08.
 InvSVY:  IOpt=1 It=  1 EMax= 2.49D-14
 Solved reduced A of dimension  2078 with   345 vectors.
 Isotropic polarizability for W=    0.000000      512.91 Bohr**3.
 End of Minotr F.D. properties file   721 does not exist.
 End of Minotr F.D. properties file   722 does not exist.
 End of Minotr F.D. properties file   788 does not exist.
 Hyperfine terms turned off by default for NAtoms > 100.

 **********************************************************************

            Population analysis using the SCF Density.

 **********************************************************************

 Orbital symmetries:
       Occupied  (A) (A) (A) (A) (A) (A) (A) (A) (A) (A) (A) (A)
                 (A) (A) (A) (A) (A) (A) (A) (A) (A) (A) (A) (A)
                 (A) (A) (A) (A) (A) (A) (A) (A) (A) (A) (A) (A)
                 (A) (A) (A) (A) (A) (A) (A) (A) (A) (A) (A) (A)
                 (A) (A) (A) (A) (A) (A) (A) (A) (A) (A) (A) (A)
                 (A) (A) (A) (A) (A) (A) (A) (A) (A) (A) (A) (A)
                 (A) (A) (A) (A) (A) (A) (A) (A) (A) (A) (A) (A)
                 (A) (A) (A) (A) (A) (A) (A) (A) (A) (A) (A) (A)
                 (A) (A) (A) (A) (A) (A) (A) (A) (A) (A) (A) (A)
                 (A) (A) (A) (A) (A) (A) (A) (A) (A) (A) (A) (A)
                 (A) (A) (A) (A) (A) (A) (A) (A) (A) (A) (A) (A)
                 (A) (A) (A) (A) (A) (A) (A) (A) (A) (A) (A) (A)
                 (A) (A) (A) (A) (A) (A) (A) (A) (A) (A) (A) (A)
                 (A) (A) (A) (A) (A) (A) (A) (A) (A) (A) (A) (A)
                 (A) (A) (A) (A) (A) (A) (A) (A) (A) (A) (A) (A)
                 (A) (A) (A) (A) (A) (A) (A) (A) (A) (A) (A) (A)
                 (A) (A) (A) (A) (A) (A) (A) (A) (A) (A) (A) (A)
                 (A) (A) (A) (A) (A)
       Virtual   (A) (A) (A) (A) (A) (A) (A) (A) (A) (A) (A) (A)
                 (A) (A) (A) (A) (A) (A) (A) (A) (A) (A) (A) (A)
                 (A) (A) (A) (A) (A) (A) (A) (A) (A) (A) (A) (A)
                 (A) (A) (A) (A) (A) (A) (A) (A) (A) (A) (A) (A)
                 (A) (A) (A) (A) (A) (A) (A) (A) (A) (A) (A) (A)
                 (A) (A) (A) (A) (A) (A) (A) (A) (A) (A) (A) (A)
                 (A) (A) (A) (A) (A) (A) (A) (A) (A) (A) (A) (A)
                 (A) (A) (A) (A) (A) (A) (A) (A) (A) (A) (A) (A)
                 (A) (A) (A) (A) (A) (A) (A) (A) (A) (A) (A) (A)
                 (A) (A) (A) (A) (A) (A) (A) (A) (A) (A) (A) (A)
                 (A) (A) (A) (A) (A) (A) (A) (A) (A) (A) (A) (A)
                 (A) (A) (A) (A) (A) (A) (A) (A) (A) (A) (A) (A)
                 (A) (A) (A) (A) (A) (A) (A) (A) (A) (A) (A) (A)
                 (A) (A) (A) (A) (A) (A) (A) (A) (A) (A) (A) (A)
                 (A) (A) (A) (A) (A) (A) (A) (A) (A) (A) (A) (A)
                 (A) (A) (A) (A) (A) (A) (A) (A) (A) (A) (A) (A)
                 (A) (A) (A) (A) (A) (A) (A) (A) (A) (A) (A) (A)
                 (A) (A) (A) (A) (A) (A) (A) (A) (A) (A) (A) (A)
                 (A) (A) (A) (A) (A) (A) (A) (A) (A) (A) (A) (A)
                 (A) (A) (A) (A) (A) (A) (A) (A) (A) (A) (A) (A)
                 (A) (A) (A) (A) (A) (A) (A) (A) (A) (A) (A) (A)
                 (A) (A) (A) (A) (A) (A) (A) (A) (A) (A) (A) (A)
                 (A) (A) (A) (A) (A) (A) (A) (A) (A) (A) (A) (A)
                 (A) (A) (A) (A) (A) (A) (A) (A) (A) (A) (A) (A)
                 (A) (A) (A) (A) (A) (A) (A) (A) (A) (A) (A) (A)
                 (A) (A) (A) (A) (A) (A) (A) (A) (A) (A) (A) (A)
                 (A) (A) (A) (A) (A) (A) (A) (A) (A) (A) (A) (A)
                 (A) (A) (A) (A) (A) (A) (A) (A) (A) (A) (A) (A)
                 (A) (A) (A) (A) (A) (A) (A) (A) (A) (A) (A) (A)
                 (A) (A) (A) (A) (A) (A) (A) (A) (A) (A) (A) (A)
                 (A) (A) (A) (A) (A) (A) (A) (A) (A) (A) (A) (A)
                 (A) (A) (A) (A) (A) (A) (A) (A) (A) (A) (A) (A)
                 (A) (A) (A) (A) (A) (A) (A) (A) (A) (A) (A) (A)
                 (A) (A) (A) (A) (A) (A) (A) (A) (A) (A) (A) (A)
                 (A) (A) (A) (A) (A) (A) (A) (A) (A) (A) (A) (A)
                 (A) (A) (A) (A) (A) (A) (A) (A) (A) (A) (A) (A)
                 (A) (A) (A) (A) (A) (A) (A) (A) (A) (A) (A) (A)
                 (A) (A) (A) (A) (A) (A) (A) (A) (A) (A) (A) (A)
                 (A) (A) (A) (A) (A) (A) (A) (A) (A) (A) (A) (A)
                 (A) (A) (A) (A) (A) (A) (A) (A) (A) (A) (A) (A)
                 (A) (A) (A) (A) (A) (A) (A) (A) (A) (A) (A) (A)
                 (A) (A) (A) (A) (A) (A) (A) (A) (A) (A) (A) (A)
                 (A) (A) (A) (A) (A) (A) (A) (A) (A) (A) (A) (A)
                 (A) (A) (A) (A) (A) (A) (A) (A) (A) (A) (A) (A)
                 (A) (A) (A) (A) (A) (A) (A) (A) (A) (A) (A) (A)
                 (A) (A) (A) (A) (A) (A) (A) (A) (A) (A) (A) (A)
                 (A) (A) (A) (A) (A) (A) (A) (A) (A) (A) (A) (A)
                 (A) (A) (A) (A) (A) (A) (A) (A) (A) (A) (A) (A)
                 (A) (A) (A) (A) (A) (A) (A) (A) (A) (A) (A) (A)
                 (A) (A) (A) (A) (A) (A) (A) (A) (A) (A) (A) (A)
                 (A) (A) (A) (A) (A) (A) (A) (A) (A) (A) (A) (A)
                 (A) (A) (A) (A) (A) (A) (A) (A) (A) (A) (A) (A)
                 (A) (A) (A) (A) (A) (A) (A) (A) (A) (A) (A) (A)
                 (A) (A) (A) (A) (A) (A) (A) (A) (A) (A) (A) (A)
                 (A) (A) (A) (A) (A) (A) (A) (A) (A) (A) (A) (A)
                 (A) (A) (A) (A) (A) (A) (A) (A) (A) (A) (A) (A)
                 (A) (A) (A)
 The electronic state is 1-A.
 Alpha  occ. eigenvalues --  -24.82057 -24.81446 -24.81426 -19.21084 -19.20959
 Alpha  occ. eigenvalues --  -19.20852 -19.20798 -19.20458 -19.20002 -19.16666
 Alpha  occ. eigenvalues --  -14.46007 -14.44284 -14.40979 -10.50171 -10.32380
 Alpha  occ. eigenvalues --  -10.32336 -10.31795 -10.30523 -10.29927 -10.29854
 Alpha  occ. eigenvalues --  -10.29802 -10.29797 -10.29587 -10.29410 -10.29255
 Alpha  occ. eigenvalues --  -10.29174 -10.28720 -10.28476 -10.28098 -10.28030
 Alpha  occ. eigenvalues --  -10.27765 -10.26242 -10.24241 -10.23693 -10.23627
 Alpha  occ. eigenvalues --  -10.23419 -10.23204 -10.23145 -10.23084 -10.23060
 Alpha  occ. eigenvalues --  -10.23042 -10.22968 -10.22861 -10.22859 -10.22772
 Alpha  occ. eigenvalues --  -10.22760 -10.22586 -10.22447 -10.22007 -10.21857
 Alpha  occ. eigenvalues --   -6.82210  -6.80493  -6.79662  -3.64995  -2.08051
 Alpha  occ. eigenvalues --   -2.06653  -2.05670  -1.34559  -1.26093  -1.25487
 Alpha  occ. eigenvalues --   -1.07066  -1.06674  -1.06245  -1.02565  -1.00214
 Alpha  occ. eigenvalues --   -1.00135  -0.99634  -0.99351  -0.97539  -0.92276
 Alpha  occ. eigenvalues --   -0.85247  -0.84266  -0.83051  -0.81281  -0.80850
 Alpha  occ. eigenvalues --   -0.80744  -0.80520  -0.78666  -0.76806  -0.75215
 Alpha  occ. eigenvalues --   -0.75163  -0.74946  -0.73014  -0.70747  -0.70666
 Alpha  occ. eigenvalues --   -0.70512  -0.70480  -0.70060  -0.68290  -0.68211
 Alpha  occ. eigenvalues --   -0.67938  -0.67799  -0.67660  -0.65486  -0.65107
 Alpha  occ. eigenvalues --   -0.64061  -0.62249  -0.61895  -0.61510  -0.60546
 Alpha  occ. eigenvalues --   -0.60506  -0.60173  -0.59351  -0.57930  -0.57236
 Alpha  occ. eigenvalues --   -0.55303  -0.54989  -0.54852  -0.54519  -0.53783
 Alpha  occ. eigenvalues --   -0.53477  -0.53305  -0.52330  -0.51799  -0.50173
 Alpha  occ. eigenvalues --   -0.49255  -0.48939  -0.48723  -0.48491  -0.48083
 Alpha  occ. eigenvalues --   -0.47940  -0.47583  -0.47544  -0.47033  -0.46946
 Alpha  occ. eigenvalues --   -0.46690  -0.46606  -0.46411  -0.45970  -0.45569
 Alpha  occ. eigenvalues --   -0.44951  -0.44757  -0.44616  -0.44558  -0.44467
 Alpha  occ. eigenvalues --   -0.44297  -0.44094  -0.43905  -0.43701  -0.43659
 Alpha  occ. eigenvalues --   -0.43287  -0.43207  -0.42814  -0.42334  -0.42180
 Alpha  occ. eigenvalues --   -0.41825  -0.40969  -0.40671  -0.40389  -0.40275
 Alpha  occ. eigenvalues --   -0.40233  -0.40141  -0.40000  -0.39805  -0.39781
 Alpha  occ. eigenvalues --   -0.39631  -0.39493  -0.39390  -0.39222  -0.39102
 Alpha  occ. eigenvalues --   -0.38870  -0.38748  -0.38646  -0.38074  -0.37756
 Alpha  occ. eigenvalues --   -0.37725  -0.37581  -0.36857  -0.36778  -0.36741
 Alpha  occ. eigenvalues --   -0.36592  -0.36496  -0.36270  -0.36236  -0.36023
 Alpha  occ. eigenvalues --   -0.35756  -0.35364  -0.35220  -0.35158  -0.34954
 Alpha  occ. eigenvalues --   -0.34886  -0.33919  -0.33479  -0.33401  -0.33138
 Alpha  occ. eigenvalues --   -0.32850  -0.32683  -0.32570  -0.32449  -0.32319
 Alpha  occ. eigenvalues --   -0.31986  -0.31907  -0.31708  -0.31354  -0.30764
 Alpha  occ. eigenvalues --   -0.30575  -0.30436  -0.30160  -0.28116  -0.27233
 Alpha  occ. eigenvalues --   -0.26888  -0.26771  -0.26433  -0.26158  -0.25314
 Alpha  occ. eigenvalues --   -0.24102  -0.23960  -0.22617  -0.17936
 Alpha virt. eigenvalues --   -0.07309  -0.03839  -0.02871   0.01182   0.02299
 Alpha virt. eigenvalues --    0.03663   0.05124   0.05734   0.06542   0.07311
 Alpha virt. eigenvalues --    0.07645   0.08020   0.08757   0.09498   0.09799
 Alpha virt. eigenvalues --    0.10028   0.10728   0.10931   0.11195   0.11293
 Alpha virt. eigenvalues --    0.11742   0.12198   0.12691   0.12786   0.12826
 Alpha virt. eigenvalues --    0.13152   0.13647   0.13771   0.13922   0.14273
 Alpha virt. eigenvalues --    0.14369   0.14749   0.14873   0.15107   0.15116
 Alpha virt. eigenvalues --    0.15350   0.15513   0.15839   0.15940   0.15964
 Alpha virt. eigenvalues --    0.16297   0.16645   0.16679   0.16847   0.17058
 Alpha virt. eigenvalues --    0.17111   0.17507   0.17566   0.17641   0.17846
 Alpha virt. eigenvalues --    0.18164   0.18495   0.18621   0.18809   0.18881
 Alpha virt. eigenvalues --    0.18943   0.19172   0.19262   0.19380   0.19583
 Alpha virt. eigenvalues --    0.19826   0.20005   0.20152   0.20262   0.20330
 Alpha virt. eigenvalues --    0.20675   0.20814   0.21198   0.21416   0.21615
 Alpha virt. eigenvalues --    0.21865   0.22060   0.22249   0.22429   0.22649
 Alpha virt. eigenvalues --    0.22971   0.23061   0.23498   0.23550   0.23804
 Alpha virt. eigenvalues --    0.23973   0.24031   0.24200   0.24488   0.24698
 Alpha virt. eigenvalues --    0.24736   0.24955   0.25160   0.25476   0.25535
 Alpha virt. eigenvalues --    0.25938   0.26034   0.26396   0.26576   0.26778
 Alpha virt. eigenvalues --    0.26926   0.27315   0.27350   0.27798   0.28196
 Alpha virt. eigenvalues --    0.28381   0.28820   0.29095   0.29624   0.30107
 Alpha virt. eigenvalues --    0.30612   0.31297   0.31308   0.31673   0.32521
 Alpha virt. eigenvalues --    0.33401   0.33978   0.34386   0.35244   0.35672
 Alpha virt. eigenvalues --    0.36202   0.36448   0.37053   0.37715   0.38363
 Alpha virt. eigenvalues --    0.38926   0.39420   0.40155   0.40386   0.42415
 Alpha virt. eigenvalues --    0.42578   0.43117   0.46255   0.46747   0.47557
 Alpha virt. eigenvalues --    0.47733   0.48430   0.48913   0.49098   0.50154
 Alpha virt. eigenvalues --    0.50294   0.50414   0.50737   0.50938   0.51233
 Alpha virt. eigenvalues --    0.51578   0.51703   0.52144   0.52225   0.53158
 Alpha virt. eigenvalues --    0.53340   0.53809   0.54167   0.54626   0.54960
 Alpha virt. eigenvalues --    0.55557   0.55797   0.55890   0.56204   0.56651
 Alpha virt. eigenvalues --    0.56832   0.56916   0.57215   0.57410   0.57491
 Alpha virt. eigenvalues --    0.57796   0.57994   0.58266   0.58420   0.58522
 Alpha virt. eigenvalues --    0.59070   0.59190   0.59316   0.59700   0.59844
 Alpha virt. eigenvalues --    0.60025   0.60468   0.60596   0.61217   0.61448
 Alpha virt. eigenvalues --    0.62053   0.62539   0.62678   0.62895   0.63153
 Alpha virt. eigenvalues --    0.63204   0.63882   0.64199   0.64301   0.65162
 Alpha virt. eigenvalues --    0.65252   0.65752   0.66034   0.66234   0.66679
 Alpha virt. eigenvalues --    0.66924   0.67190   0.67287   0.67628   0.68298
 Alpha virt. eigenvalues --    0.68603   0.68934   0.69191   0.69407   0.69527
 Alpha virt. eigenvalues --    0.70083   0.70367   0.71049   0.71146   0.71310
 Alpha virt. eigenvalues --    0.71982   0.72111   0.72394   0.72492   0.73067
 Alpha virt. eigenvalues --    0.73261   0.73360   0.73981   0.74319   0.74584
 Alpha virt. eigenvalues --    0.75021   0.75298   0.75800   0.76199   0.76933
 Alpha virt. eigenvalues --    0.77185   0.77598   0.77886   0.78212   0.78291
 Alpha virt. eigenvalues --    0.78764   0.79022   0.79572   0.79635   0.80091
 Alpha virt. eigenvalues --    0.80364   0.80767   0.81673   0.81951   0.82091
 Alpha virt. eigenvalues --    0.82324   0.82591   0.83241   0.83547   0.83681
 Alpha virt. eigenvalues --    0.83809   0.83908   0.84132   0.84331   0.84605
 Alpha virt. eigenvalues --    0.84780   0.85073   0.85489   0.85794   0.86041
 Alpha virt. eigenvalues --    0.86158   0.86395   0.86491   0.87027   0.87394
 Alpha virt. eigenvalues --    0.87651   0.87780   0.88103   0.88301   0.88476
 Alpha virt. eigenvalues --    0.88558   0.88784   0.89137   0.89203   0.89263
 Alpha virt. eigenvalues --    0.89862   0.90178   0.90303   0.90389   0.90511
 Alpha virt. eigenvalues --    0.90877   0.91033   0.91181   0.91325   0.91819
 Alpha virt. eigenvalues --    0.91838   0.92235   0.92488   0.92674   0.93180
 Alpha virt. eigenvalues --    0.93407   0.93922   0.94248   0.94516   0.94793
 Alpha virt. eigenvalues --    0.95082   0.95116   0.95723   0.95925   0.96073
 Alpha virt. eigenvalues --    0.96108   0.96747   0.96915   0.97058   0.97154
 Alpha virt. eigenvalues --    0.97458   0.97748   0.98363   0.98718   0.98989
 Alpha virt. eigenvalues --    0.99387   0.99944   1.00759   1.01249   1.01385
 Alpha virt. eigenvalues --    1.01882   1.02687   1.03181   1.03386   1.03722
 Alpha virt. eigenvalues --    1.04167   1.04996   1.05540   1.05877   1.06323
 Alpha virt. eigenvalues --    1.07267   1.07410   1.07792   1.08353   1.08749
 Alpha virt. eigenvalues --    1.09269   1.09831   1.10481   1.10899   1.11662
 Alpha virt. eigenvalues --    1.12208   1.13207   1.13560   1.14110   1.15315
 Alpha virt. eigenvalues --    1.15920   1.16605   1.17006   1.17535   1.18139
 Alpha virt. eigenvalues --    1.18542   1.18918   1.19212   1.19281   1.19562
 Alpha virt. eigenvalues --    1.19862   1.20701   1.20841   1.21804   1.22522
 Alpha virt. eigenvalues --    1.22713   1.23400   1.24398   1.24748   1.25035
 Alpha virt. eigenvalues --    1.26264   1.26361   1.27536   1.28071   1.28448
 Alpha virt. eigenvalues --    1.29611   1.30369   1.30885   1.31244   1.31603
 Alpha virt. eigenvalues --    1.31900   1.32609   1.33005   1.33608   1.34791
 Alpha virt. eigenvalues --    1.34947   1.35322   1.35848   1.36374   1.36547
 Alpha virt. eigenvalues --    1.36917   1.38040   1.38365   1.39146   1.39544
 Alpha virt. eigenvalues --    1.39731   1.39883   1.40495   1.41110   1.41707
 Alpha virt. eigenvalues --    1.42051   1.42935   1.43236   1.43398   1.43958
 Alpha virt. eigenvalues --    1.44224   1.44560   1.45333   1.45434   1.45830
 Alpha virt. eigenvalues --    1.46198   1.46563   1.47121   1.47384   1.47863
 Alpha virt. eigenvalues --    1.48389   1.48715   1.49554   1.50190   1.51244
 Alpha virt. eigenvalues --    1.51660   1.52666   1.52812   1.53468   1.54325
 Alpha virt. eigenvalues --    1.55368   1.55782   1.56642   1.58664   1.58903
 Alpha virt. eigenvalues --    1.59617   1.60044   1.60551   1.62212   1.62914
 Alpha virt. eigenvalues --    1.64285   1.64626   1.65285   1.66115   1.66375
 Alpha virt. eigenvalues --    1.66578   1.67162   1.67559   1.67761   1.68301
 Alpha virt. eigenvalues --    1.68826   1.69253   1.70144   1.70467   1.71643
 Alpha virt. eigenvalues --    1.72041   1.72471   1.73334   1.74011   1.74695
 Alpha virt. eigenvalues --    1.74912   1.76120   1.76647   1.76810   1.77231
 Alpha virt. eigenvalues --    1.77476   1.77855   1.78153   1.78954   1.79572
 Alpha virt. eigenvalues --    1.80585   1.80629   1.81044   1.81803   1.82182
 Alpha virt. eigenvalues --    1.82384   1.82699   1.83348   1.84049   1.84487
 Alpha virt. eigenvalues --    1.85291   1.85407   1.85761   1.86025   1.86549
 Alpha virt. eigenvalues --    1.86706   1.87424   1.88396   1.88755   1.88978
 Alpha virt. eigenvalues --    1.89315   1.89841   1.90129   1.90462   1.90808
 Alpha virt. eigenvalues --    1.90940   1.91072   1.91325   1.91598   1.91740
 Alpha virt. eigenvalues --    1.92043   1.92115   1.92533   1.92708   1.93155
 Alpha virt. eigenvalues --    1.93248   1.93480   1.93686   1.94104   1.94190
 Alpha virt. eigenvalues --    1.95241   1.95613   1.96101   1.96645   1.97287
 Alpha virt. eigenvalues --    1.97341   1.97939   1.98844   1.99564   2.00084
 Alpha virt. eigenvalues --    2.00537   2.01109   2.01250   2.01837   2.01942
 Alpha virt. eigenvalues --    2.02661   2.02909   2.03178   2.03293   2.03702
 Alpha virt. eigenvalues --    2.03964   2.04433   2.04973   2.05701   2.05953
 Alpha virt. eigenvalues --    2.06316   2.06788   2.07134   2.07268   2.07401
 Alpha virt. eigenvalues --    2.07681   2.07944   2.08116   2.09322   2.09812
 Alpha virt. eigenvalues --    2.10141   2.10179   2.10818   2.10960   2.11026
 Alpha virt. eigenvalues --    2.11824   2.12643   2.13296   2.13536   2.13894
 Alpha virt. eigenvalues --    2.14341   2.14612   2.14822   2.15147   2.15215
 Alpha virt. eigenvalues --    2.15743   2.15882   2.16372   2.17174   2.17424
 Alpha virt. eigenvalues --    2.18178   2.18582   2.18704   2.19023   2.19301
 Alpha virt. eigenvalues --    2.19731   2.19801   2.20380   2.20624   2.21069
 Alpha virt. eigenvalues --    2.21300   2.21452   2.21895   2.22332   2.22920
 Alpha virt. eigenvalues --    2.23181   2.23269   2.23619   2.24130   2.24660
 Alpha virt. eigenvalues --    2.24846   2.25113   2.25871   2.25931   2.26167
 Alpha virt. eigenvalues --    2.26503   2.26915   2.27438   2.28248   2.29483
 Alpha virt. eigenvalues --    2.29987   2.30291   2.31335   2.31583   2.31861
 Alpha virt. eigenvalues --    2.32407   2.32716   2.33139   2.33400   2.33672
 Alpha virt. eigenvalues --    2.34038   2.34429   2.35195   2.36002   2.36798
 Alpha virt. eigenvalues --    2.38043   2.38447   2.38526   2.39222   2.39324
 Alpha virt. eigenvalues --    2.40461   2.41087   2.43496   2.44531   2.45537
 Alpha virt. eigenvalues --    2.45844   2.46371   2.46946   2.47897   2.48124
 Alpha virt. eigenvalues --    2.48638   2.48870   2.49519   2.50205   2.51045
 Alpha virt. eigenvalues --    2.51921   2.52721   2.54345   2.54673   2.58006
 Alpha virt. eigenvalues --    2.58613   2.58988   2.59715   2.60141   2.60588
 Alpha virt. eigenvalues --    2.61468   2.62275   2.63154   2.63438   2.63881
 Alpha virt. eigenvalues --    2.64524   2.65025   2.68142   2.68361   2.68523
 Alpha virt. eigenvalues --    2.70304   2.70560   2.70894   2.73354   2.77000
 Alpha virt. eigenvalues --    2.77226   2.77774   2.78011   2.78199   2.78337
 Alpha virt. eigenvalues --    2.79248   2.79827   2.80072   2.80390   2.81209
 Alpha virt. eigenvalues --    2.81374   2.82147   2.82942   2.83513   2.83998
 Alpha virt. eigenvalues --    2.84623   2.85319   2.86461   2.89255   2.90143
 Alpha virt. eigenvalues --    2.91255   2.92414   2.93969   2.94895   2.95855
 Alpha virt. eigenvalues --    2.96196   2.97180   2.97969   3.02080   3.02735
 Alpha virt. eigenvalues --    3.05048   3.06502   3.06741   3.07716   3.10488
 Alpha virt. eigenvalues --    3.11004   3.11668   3.12308   3.13696   3.15343
 Alpha virt. eigenvalues --    3.22464   3.26387   3.31662   3.45490  13.28889
          Condensed to atoms (all electrons):
 Mulliken charges:
               1
     1  C    0.312467
     2  C    0.044885
     3  C   -0.056174
     4  C   -0.145445
     5  C   -0.179462
     6  C    0.300621
     7  C    0.084917
     8  C   -0.175795
     9  C   -0.146481
    10  C   -0.182753
    11  H    0.236561
    12  H    0.195368
    13  H    0.167493
    14  H    0.208689
    15  H    0.182973
    16  H    0.172522
    17  N   -0.496228
    18  N   -0.540908
    19  Ir  -0.187157
    20  O   -0.529316
    21  O   -0.518154
    22  O   -0.525007
    23  B    0.479531
    24  B    0.534632
    25  B    0.488219
    26  O   -0.505007
    27  O   -0.501363
    28  C    0.291121
    29  C    0.299813
    30  C    0.293073
    31  C    0.284111
    32  C    0.286934
    33  C    0.301539
    34  O   -0.530403
    35  C   -0.513234
    36  H    0.153755
    37  H    0.163979
    38  H    0.178623
    39  C   -0.508447
    40  H    0.166531
    41  H    0.163281
    42  H    0.154890
    43  C   -0.514268
    44  H    0.174906
    45  H    0.148574
    46  H    0.170946
    47  C   -0.509626
    48  H    0.183613
    49  H    0.143630
    50  H    0.175680
    51  C   -0.507193
    52  H    0.149895
    53  H    0.158864
    54  H    0.173328
    55  C   -0.490563
    56  H    0.168603
    57  H    0.172594
    58  H    0.141704
    59  C   -0.516552
    60  H    0.179520
    61  H    0.153958
    62  H    0.152227
    63  C   -0.512486
    64  H    0.163449
    65  H    0.151419
    66  H    0.175754
    67  C   -0.506918
    68  H    0.167386
    69  H    0.173443
    70  H    0.152019
    71  C   -0.503630
    72  H    0.165828
    73  H    0.153244
    74  H    0.177997
    75  C   -0.511902
    76  H    0.182273
    77  H    0.150842
    78  H    0.173608
    79  C   -0.516499
    80  H    0.183808
    81  H    0.176770
    82  H    0.153174
    83  H    0.224946
    84  C    0.575874
    85  O   -0.528554
    86  C   -0.400427
    87  H    0.142219
    88  H    0.164938
    89  C   -0.311439
    90  H    0.186931
    91  H    0.163688
    92  N   -0.380394
    93  C   -0.384542
    94  H    0.171680
    95  H    0.153669
    96  H    0.221296
    97  C   -0.261420
    98  H    0.166184
    99  H    0.140288
   100  C   -0.276246
   101  H    0.126823
   102  H    0.138542
   103  C   -0.282159
   104  H    0.153180
   105  H    0.144472
   106  C   -0.497673
   107  H    0.154911
   108  H    0.159551
   109  H    0.165224
   110  C    0.962726
   111  F   -0.310162
   112  F   -0.311180
   113  F   -0.318033
   114  H    0.180466
 Sum of Mulliken charges =  -0.00000
 Mulliken charges with hydrogens summed into heavy atoms:
               1
     1  C    0.312467
     2  C    0.281446
     3  C   -0.056174
     4  C    0.049923
     5  C   -0.011969
     6  C    0.300621
     7  C    0.293607
     8  C    0.004671
     9  C    0.036493
    10  C   -0.010231
    17  N   -0.496228
    18  N   -0.540908
    19  Ir   0.037789
    20  O   -0.529316
    21  O   -0.518154
    22  O   -0.525007
    23  B    0.479531
    24  B    0.534632
    25  B    0.488219
    26  O   -0.505007
    27  O   -0.501363
    28  C    0.291121
    29  C    0.299813
    30  C    0.293073
    31  C    0.284111
    32  C    0.286934
    33  C    0.301539
    34  O   -0.530403
    35  C   -0.016876
    39  C   -0.023745
    43  C   -0.019841
    47  C   -0.006703
    51  C   -0.025106
    55  C   -0.007662
    59  C   -0.030848
    63  C   -0.021865
    67  C   -0.014069
    71  C   -0.006561
    75  C   -0.005179
    79  C   -0.002747
    84  C    0.575874
    85  O   -0.528554
    86  C   -0.093270
    89  C    0.039180
    92  N   -0.380394
    93  C    0.162104
    97  C    0.045052
   100  C   -0.010880
   103  C    0.015493
   106  C   -0.017986
   110  C    0.962726
   111  F   -0.310162
   112  F   -0.311180
   113  F   -0.318033
 APT charges:
               1
     1  C    0.166666
     2  C    0.045205
     3  C   -0.161238
     4  C    0.085982
     5  C   -0.188703
     6  C    0.189018
     7  C    0.064862
     8  C   -0.049312
     9  C    0.098069
    10  C   -0.213106
    11  H    0.135842
    12  H    0.053929
    13  H    0.039970
    14  H    0.103876
    15  H    0.031729
    16  H    0.044557
    17  N   -0.133243
    18  N   -0.053029
    19  Ir  -1.061358
    20  O   -0.983304
    21  O   -1.010115
    22  O   -1.012265
    23  B    1.299369
    24  B    1.319319
    25  B    1.442129
    26  O   -0.989971
    27  O   -0.972372
    28  C    0.475387
    29  C    0.475718
    30  C    0.534192
    31  C    0.493511
    32  C    0.493430
    33  C    0.500474
    34  O   -0.985830
    35  C   -0.034745
    36  H   -0.020048
    37  H    0.001314
    38  H    0.001972
    39  C    0.003457
    40  H   -0.004558
    41  H    0.000054
    42  H   -0.020314
    43  C   -0.006415
    44  H    0.000863
    45  H   -0.017820
    46  H    0.000918
    47  C   -0.032810
    48  H    0.021117
    49  H   -0.027417
    50  H    0.003330
    51  C    0.004956
    52  H   -0.021184
    53  H   -0.008245
    54  H    0.003082
    55  C   -0.031860
    56  H    0.001905
    57  H    0.023103
    58  H   -0.031646
    59  C   -0.036234
    60  H    0.022130
    61  H   -0.020509
    62  H   -0.009287
    63  C   -0.012240
    64  H   -0.003404
    65  H   -0.016821
    66  H    0.007675
    67  C   -0.009565
    68  H   -0.001909
    69  H    0.008884
    70  H   -0.016906
    71  C   -0.041501
    72  H    0.006194
    73  H   -0.019980
    74  H    0.020127
    75  C   -0.017911
    76  H    0.010654
    77  H   -0.014807
    78  H    0.003106
    79  C   -0.041940
    80  H    0.008558
    81  H    0.007403
    82  H   -0.020720
    83  H    0.085960
    84  C    0.827573
    85  O   -0.675322
    86  C    0.002055
    87  H   -0.027116
    88  H   -0.027802
    89  C    0.239223
    90  H   -0.012068
    91  H   -0.045344
    92  N   -0.680798
    93  C    0.226780
    94  H   -0.048083
    95  H   -0.012754
    96  H    0.055054
    97  C    0.098085
    98  H   -0.019313
    99  H   -0.016332
   100  C    0.104097
   101  H   -0.051866
   102  H   -0.051502
   103  C    0.116728
   104  H   -0.044640
   105  H   -0.048838
   106  C    0.060217
   107  H   -0.020668
   108  H   -0.019674
   109  H   -0.039550
   110  C    1.827247
   111  F   -0.590589
   112  F   -0.523606
   113  F   -0.630425
   114  H    0.043876
 Sum of APT charges =  -0.00000
 APT charges with hydrogens summed into heavy atoms:
               1
     1  C    0.166666
     2  C    0.181047
     3  C   -0.161238
     4  C    0.139910
     5  C   -0.148732
     6  C    0.189018
     7  C    0.168739
     8  C   -0.005436
     9  C    0.129799
    10  C   -0.168548
    17  N   -0.133243
    18  N   -0.053029
    19  Ir  -0.975398
    20  O   -0.983304
    21  O   -1.010115
    22  O   -1.012265
    23  B    1.299369
    24  B    1.319319
    25  B    1.442129
    26  O   -0.989971
    27  O   -0.972372
    28  C    0.475387
    29  C    0.475718
    30  C    0.534192
    31  C    0.493511
    32  C    0.493430
    33  C    0.500474
    34  O   -0.985830
    35  C   -0.051508
    39  C   -0.021361
    43  C   -0.022455
    47  C   -0.035780
    51  C   -0.021390
    55  C   -0.038498
    59  C   -0.043900
    63  C   -0.024790
    67  C   -0.019496
    71  C   -0.035160
    75  C   -0.018959
    79  C   -0.046699
    84  C    0.827573
    85  O   -0.675322
    86  C   -0.052862
    89  C    0.181812
    92  N   -0.680798
    93  C    0.220998
    97  C    0.062440
   100  C    0.000729
   103  C    0.023250
   106  C   -0.019675
   110  C    1.827247
   111  F   -0.590589
   112  F   -0.523606
   113  F   -0.630425
 Electronic spatial extent (au):  <R**2>=          34939.4517
 Charge=             -0.0000 electrons
 Dipole moment (field-independent basis, Debye):
    X=             -0.6478    Y=             -5.9340    Z=             -0.3895  Tot=              5.9819
 Quadrupole moment (field-independent basis, Debye-Ang):
   XX=           -329.9885   YY=           -309.4543   ZZ=           -331.4841
   XY=            -14.0263   XZ=              4.8063   YZ=             -8.7323
 Traceless Quadrupole moment (field-independent basis, Debye-Ang):
   XX=             -6.3462   YY=             14.1880   ZZ=             -7.8418
   XY=            -14.0263   XZ=              4.8063   YZ=             -8.7323
 Octapole moment (field-independent basis, Debye-Ang**2):
  XXX=            -81.4413  YYY=             44.0069  ZZZ=             31.3887  XYY=            -35.8904
  XXY=            -48.5132  XXZ=             35.7030  XZZ=            -35.0401  YZZ=              0.3393
  YYZ=             -5.1063  XYZ=            -13.0669
 Hexadecapole moment (field-independent basis, Debye-Ang**3):
 XXXX=         -23799.6517 YYYY=         -11863.6900 ZZZZ=          -9269.2225 XXXY=            229.0762
 XXXZ=            324.2284 YYYX=             78.8966 YYYZ=              7.1635 ZZZX=             69.1447
 ZZZY=             90.7088 XXYY=          -6185.0768 XXZZ=          -5351.3162 YYZZ=          -3651.8354
 XXYZ=            -66.6237 YYXZ=             65.4370 ZZXY=             76.0777
 N-N= 9.176529208091D+03 E-N=-2.443142128830D+04  KE= 2.527242503543D+03
  Exact polarizability:     574.079      -3.580     528.218      33.973       0.052     436.441
 Approx polarizability:     775.680       9.901     803.793      74.561      19.636     643.925
   1 Symmetry operations used in ECPInt.
 ECPInt:  NShTT=   57970 NPrTT=  353525 LenC2=   41753 LenP2D=  127886.
 LDataN:  DoStor=T MaxTD1= 8 Len=  415
 Calling FoFJK, ICntrl=    100127 FMM=F ISym2X=0 I1Cent= 0 IOpClX= 0 NMat=1 NMatS=1 NMatT=0.
 Defaulting to unpruned grid for atomic number  77.
 Defaulting to unpruned grid for atomic number  77.
 Defaulting to unpruned grid for atomic number  77.
 Defaulting to unpruned grid for atomic number  77.
 Defaulting to unpruned grid for atomic number  77.
 Defaulting to unpruned grid for atomic number  77.
 Defaulting to unpruned grid for atomic number  77.
 Defaulting to unpruned grid for atomic number  77.
 Defaulting to unpruned grid for atomic number  77.
 Defaulting to unpruned grid for atomic number  77.
 Defaulting to unpruned grid for atomic number  77.
 Defaulting to unpruned grid for atomic number  77.
 Defaulting to unpruned grid for atomic number  77.
 Defaulting to unpruned grid for atomic number  77.
 Defaulting to unpruned grid for atomic number  77.
 Defaulting to unpruned grid for atomic number  77.
 Full mass-weighted force constant matrix:
 Low frequencies ---   -8.8828   -4.9426   -0.0009   -0.0007    0.0006    0.8613
 Low frequencies ---    9.0094   12.5580   16.4595
 Diagonal vibrational polarizability:
      106.7941188      80.7788525     192.4747932
 Harmonic frequencies (cm**-1), IR intensities (KM/Mole), Raman scattering
 activities (A**4/AMU), depolarization ratios for plane and unpolarized
 incident light, reduced masses (AMU), force constants (mDyne/A),
 and normal coordinates:
                      1                      2                      3
                      A                      A                      A
 Frequencies --      8.3788                12.4314                16.2969
 Red. masses --      4.8096                 4.3932                 6.3749
 Frc consts  --      0.0002                 0.0004                 0.0010
 IR Inten    --      0.2197                 0.1256                 0.1574
  Atom AN      X      Y      Z        X      Y      Z        X      Y      Z
     1   6    -0.01  -0.04  -0.02    -0.01  -0.02  -0.02    -0.01  -0.01  -0.02
     2   6     0.02  -0.04  -0.01     0.01  -0.01  -0.04    -0.03  -0.01   0.02
     3   6     0.03  -0.05  -0.04     0.01  -0.02  -0.04    -0.05  -0.02   0.06
     4   6     0.02  -0.05  -0.05     0.00  -0.03  -0.03    -0.04  -0.01   0.05
     5   6     0.00  -0.05  -0.04    -0.01  -0.03  -0.02    -0.02  -0.01   0.01
     6   6    -0.02  -0.04  -0.01    -0.02  -0.01  -0.02    -0.00  -0.00  -0.03
     7   6    -0.05  -0.02   0.02    -0.02   0.00  -0.03    -0.01  -0.01  -0.02
     8   6    -0.06  -0.03   0.01    -0.03  -0.00  -0.03    -0.01  -0.01  -0.02
     9   6    -0.05  -0.04  -0.00    -0.04  -0.01  -0.01     0.00  -0.00  -0.04
    10   6    -0.03  -0.04  -0.02    -0.04  -0.02  -0.01     0.00  -0.00  -0.05
    11   1     0.02  -0.03   0.00     0.02  -0.01  -0.05    -0.03  -0.02   0.02
    12   1     0.03  -0.06  -0.08     0.00  -0.04  -0.03    -0.05  -0.02   0.09
    13   1    -0.00  -0.05  -0.06    -0.02  -0.04  -0.01    -0.01  -0.00   0.01
    14   1    -0.05  -0.01   0.03    -0.02   0.01  -0.04    -0.02  -0.01  -0.00
    15   1    -0.05  -0.04  -0.01    -0.05  -0.02  -0.01     0.01  -0.00  -0.05
    16   1    -0.02  -0.05  -0.03    -0.04  -0.03  -0.00     0.01  -0.00  -0.06
    17   7    -0.00  -0.04  -0.00     0.00  -0.01  -0.03    -0.01  -0.01  -0.02
    18   7    -0.03  -0.03   0.01    -0.01  -0.00  -0.03    -0.01  -0.01  -0.02
    19  77    -0.01  -0.02   0.01    -0.01   0.00  -0.02    -0.00  -0.00  -0.03
    20   8    -0.04   0.00   0.02    -0.00   0.00  -0.03    -0.01   0.03   0.01
    21   8    -0.01   0.00   0.00    -0.01   0.02   0.01    -0.00   0.03  -0.00
    22   8     0.01  -0.02   0.01    -0.01   0.01  -0.01     0.03  -0.01  -0.05
    23   5    -0.01  -0.01   0.01    -0.02   0.01  -0.01    -0.02  -0.00  -0.01
    24   5    -0.03   0.00   0.01     0.01  -0.01  -0.01     0.02   0.01  -0.00
    25   5     0.01  -0.02   0.01    -0.01   0.01  -0.01     0.02  -0.01  -0.05
    26   8     0.02  -0.01   0.01    -0.01   0.01  -0.01     0.04  -0.00  -0.06
    27   8    -0.04   0.02  -0.01     0.05  -0.03   0.02     0.07   0.02   0.02
    28   6    -0.06   0.04  -0.01     0.07  -0.04   0.04     0.08   0.03   0.06
    29   6    -0.06   0.03   0.02     0.04  -0.03  -0.01     0.03   0.03   0.03
    30   6     0.03  -0.02  -0.00    -0.01   0.01  -0.00     0.06  -0.01  -0.06
    31   6     0.03  -0.02  -0.00    -0.01   0.01  -0.01     0.06  -0.01  -0.06
    32   6    -0.00   0.01  -0.01    -0.03   0.02   0.03    -0.03   0.01   0.02
    33   6    -0.01   0.00   0.00    -0.04   0.02   0.01    -0.06  -0.02   0.04
    34   8    -0.01  -0.01   0.01    -0.04   0.01  -0.01    -0.05  -0.03   0.01
    35   6    -0.09   0.03   0.05     0.07  -0.05  -0.07     0.05   0.00  -0.01
    36   1    -0.11   0.06   0.05     0.11  -0.08  -0.07     0.08   0.00  -0.00
    37   1    -0.09   0.02   0.07     0.06  -0.03  -0.11     0.02   0.00  -0.04
    38   1    -0.08   0.03   0.05     0.08  -0.06  -0.08     0.07  -0.01  -0.04
    39   6    -0.07   0.04   0.01     0.03  -0.02   0.01     0.01   0.05   0.07
    40   1    -0.05   0.04  -0.01     0.01   0.00   0.04    -0.01   0.07   0.10
    41   1    -0.07   0.03   0.03     0.01  -0.01  -0.03    -0.03   0.05   0.05
    42   1    -0.08   0.06   0.01     0.06  -0.04   0.02     0.04   0.06   0.09
    43   6    -0.08   0.07  -0.01     0.12  -0.08   0.04     0.14   0.02   0.06
    44   1    -0.08   0.08  -0.03     0.14  -0.09   0.08     0.17   0.02   0.08
    45   1    -0.09   0.08  -0.01     0.13  -0.08   0.05     0.14   0.03   0.08
    46   1    -0.09   0.07   0.01     0.13  -0.10   0.00     0.15  -0.01   0.02
    47   6    -0.04   0.05  -0.04     0.05  -0.02   0.09     0.07   0.06   0.11
    48   1    -0.02   0.03  -0.04     0.01   0.01   0.09     0.02   0.06   0.11
    49   1    -0.05   0.06  -0.04     0.06  -0.02   0.11     0.07   0.08   0.14
    50   1    -0.03   0.05  -0.06     0.07  -0.03   0.12     0.10   0.06   0.12
    51   6    -0.01   0.03  -0.02    -0.02   0.02   0.05    -0.03   0.05   0.06
    52   1    -0.01   0.03  -0.02    -0.04   0.02   0.06    -0.05   0.03   0.08
    53   1    -0.03   0.03  -0.02    -0.01   0.03   0.06    -0.02   0.08   0.08
    54   1    -0.00   0.03  -0.02    -0.02   0.02   0.06    -0.00   0.07   0.03
    55   6     0.02   0.01  -0.01    -0.05   0.02   0.02    -0.02  -0.02  -0.01
    56   1     0.02   0.01  -0.01    -0.04   0.02   0.03     0.01   0.01  -0.03
    57   1     0.02  -0.00   0.00    -0.05   0.02   0.01    -0.02  -0.06  -0.04
    58   1     0.02   0.01  -0.01    -0.06   0.02   0.04    -0.04  -0.02   0.01
    59   6    -0.03   0.01   0.00    -0.04   0.02   0.02    -0.07   0.01   0.09
    60   1    -0.04   0.01   0.00    -0.02   0.02   0.02    -0.05   0.04   0.08
    61   1    -0.03   0.02  -0.00    -0.04   0.02   0.03    -0.08   0.02   0.11
    62   1    -0.03   0.00   0.01    -0.04   0.02   0.00    -0.09  -0.01   0.10
    63   6    -0.00  -0.00   0.00    -0.07   0.02   0.01    -0.09  -0.06   0.05
    64   1    -0.01  -0.01   0.01    -0.07   0.02   0.00    -0.11  -0.08   0.07
    65   1    -0.00   0.01  -0.00    -0.07   0.02   0.03    -0.10  -0.05   0.07
    66   1     0.01  -0.01   0.00    -0.07   0.02   0.01    -0.09  -0.08   0.02
    67   6     0.04  -0.01  -0.01    -0.01   0.01  -0.00     0.07   0.00  -0.08
    68   1     0.04  -0.01  -0.01    -0.01   0.01  -0.00     0.07  -0.01  -0.07
    69   1     0.04   0.00  -0.01    -0.01   0.01  -0.00     0.07   0.02  -0.08
    70   1     0.05  -0.01  -0.01    -0.02   0.01   0.00     0.09  -0.00  -0.09
    71   6     0.03  -0.04   0.00    -0.01   0.02  -0.01     0.07  -0.03  -0.06
    72   1     0.03  -0.03   0.00    -0.01   0.02  -0.01     0.06  -0.03  -0.06
    73   1     0.04  -0.04  -0.00    -0.01   0.02  -0.00     0.08  -0.04  -0.06
    74   1     0.03  -0.04   0.00    -0.01   0.02  -0.01     0.06  -0.04  -0.05
    75   6     0.04  -0.04  -0.00    -0.01   0.01   0.00     0.08  -0.03  -0.06
    76   1     0.04  -0.05   0.00    -0.01   0.02  -0.00     0.07  -0.05  -0.05
    77   1     0.06  -0.04  -0.01    -0.02   0.01   0.00     0.10  -0.03  -0.06
    78   1     0.04  -0.03  -0.00    -0.01   0.01   0.00     0.08  -0.04  -0.06
    79   6     0.04  -0.00  -0.01    -0.01  -0.00  -0.00     0.06   0.02  -0.08
    80   1     0.03   0.01  -0.01    -0.01  -0.00  -0.00     0.04   0.03  -0.08
    81   1     0.03  -0.00  -0.01    -0.01  -0.00  -0.00     0.05   0.02  -0.07
    82   1     0.05   0.00  -0.02    -0.02   0.00   0.00     0.08   0.02  -0.09
    83   1     0.00  -0.00   0.01    -0.00  -0.00  -0.01     0.00   0.01  -0.05
    84   6     0.01   0.03   0.03    -0.00   0.03   0.01    -0.01  -0.01  -0.02
    85   8    -0.02   0.05   0.02    -0.02   0.04   0.00    -0.02   0.00  -0.03
    86   6     0.04   0.05   0.04     0.01   0.03   0.04     0.01   0.00  -0.02
    87   1     0.08   0.06   0.07     0.00   0.03   0.03     0.03   0.00  -0.01
    88   1     0.03   0.02   0.05     0.04   0.03   0.03     0.01  -0.01  -0.01
    89   6    -0.01  -0.03   0.01    -0.01   0.01  -0.02    -0.01  -0.03  -0.04
    90   1    -0.03  -0.01  -0.01    -0.02   0.02  -0.03    -0.02  -0.02  -0.06
    91   1    -0.01  -0.06   0.01    -0.01  -0.01  -0.02    -0.01  -0.05  -0.04
    92   7     0.01  -0.01   0.04     0.00   0.02  -0.01    -0.00  -0.02  -0.03
    93   6     0.05  -0.03   0.06     0.02   0.01  -0.01     0.01  -0.03  -0.02
    94   1     0.06  -0.05   0.06     0.03   0.01  -0.01     0.01  -0.04  -0.02
    95   1     0.06  -0.02   0.08     0.02   0.01   0.00     0.02  -0.03  -0.01
    96   1     0.05  -0.05   0.04     0.02   0.00  -0.02     0.01  -0.04  -0.01
    97   6     0.04   0.11  -0.00    -0.00   0.04   0.07     0.01   0.03  -0.02
    98   1    -0.01   0.11  -0.04     0.02   0.02   0.05    -0.02   0.04  -0.03
    99   1     0.05   0.15  -0.01    -0.04   0.08   0.06     0.00   0.03  -0.02
   100   6     0.07   0.14   0.01     0.00   0.02   0.15     0.03   0.05  -0.03
   101   1     0.12   0.15   0.05    -0.02   0.05   0.18     0.05   0.05  -0.02
   102   1     0.05   0.10   0.02     0.04  -0.02   0.16     0.02   0.04  -0.02
   103   6     0.07   0.21  -0.04    -0.01   0.04   0.18     0.02   0.09  -0.04
   104   1     0.02   0.20  -0.08     0.02   0.00   0.15    -0.00   0.09  -0.04
   105   1     0.09   0.25  -0.05    -0.04   0.09   0.17     0.02   0.09  -0.04
   106   6     0.10   0.23  -0.02    -0.00   0.01   0.28     0.05   0.11  -0.04
   107   1     0.16   0.25   0.02    -0.03   0.05   0.33     0.08   0.10  -0.04
   108   1     0.08   0.19  -0.01     0.03  -0.05   0.30     0.04   0.10  -0.04
   109   1     0.10   0.29  -0.06    -0.01   0.02   0.30     0.04   0.13  -0.05
   110   6     0.05  -0.05  -0.05     0.03  -0.02  -0.05    -0.08  -0.03   0.13
   111   9     0.04  -0.06  -0.07     0.03  -0.04  -0.07    -0.04  -0.01   0.21
   112   9     0.05  -0.04  -0.03     0.04  -0.02  -0.05    -0.07  -0.03   0.10
   113   9     0.07  -0.05  -0.05     0.05  -0.02  -0.06    -0.17  -0.06   0.15
   114   1    -0.07  -0.02   0.03    -0.04   0.00  -0.03    -0.01  -0.01  -0.02
[...]
 .00001316,-0.00212293,-0.00210980,0.00066487,0.00026165,-0.00036386,-0
 .00009811,-0.00016140,0.00002270,0.00028371,-0.00048265,-0.00032725,0.
 00050740,-0.00061140,-0.00003102,-0.00017438,-0.00059201,0.00027964,-0
 .00029648,0.00080837,0.00015049,0.00024972,0.00106936,0.00029938,-0.00
 079921,0.00058463,-0.00010216,0.00023746,-0.00030818,0.00026043,-0.000
 33496,-0.00053778,-0.00007138,0.00075196,0.00020820,0.00013248,-0.0002
 0421,0.00012012,0.00008995,-0.00032510,0.00032127,-0.00037276,0.000041
 43,-0.00001275,-0.00013639,0.00011487,0.00013903,0.00003299,0.00014696
 ,0.00026480,0.00007468,0.00006594,-0.00050117,-0.00018851,-0.00032442,
 -0.00000674,-0.00005919,0.00003569,-0.00003566,-0.00002871,0.00005029,
 0.00001770,0.00004668,-0.00000573,0.00001094,0.00000729,-0.00006125,-0
 .00000989,-0.00001942,0.00003905,0.00002012,0.00000029,-0.00000374,0.0
 0000480,0.00000925,-0.00001502,-0.00003360,-0.00001786,0.00002850,-0.0
 0005789,0.00000264,0.00000522,-0.00002991,0.00003813,-0.00000090,-0.00
 000518,-0.00000816,0.00003530,0.00003117,-0.00004546,-0.00000735,-0.00
 004201,-0.00003915,0.00004079,0.00003750,0.00000837,0.00001531,-0.0000
 4372,-0.00001322,0.00000286,0.00000630,0.00001851,-0.00001265,-0.00001
 398,0.00000750,-0.00002071,-0.00002291,-0.00001111,-0.00001187,0.00000
 589,-0.00001526,0.00000684,-0.00000409,0.00001843,0.00000743,-0.000007
 49,-0.00000639,-0.00002527,0.00001466,0.00000798,0.00000730,0.00000190
 ,0.00000241,0.00003318,-0.00002228,-0.00000372,-0.00003022,-0.00003745
 ,-0.00002212,-0.00001786,0.00002437,0.00000961,-0.00000657,-0.00004020
 ,-0.00001500,-0.00000751,0.00001361,0.00001176,0.00001468,-0.00003011,
 -0.00001205,-0.00001015,0.00001632,0.00000072,0.00000293,-0.00003100,-
 0.00000412,-0.00001949,0.00001185,-0.00000052,0.00001279,-0.00000626,-
 0.00000713,-0.00003225,-0.00002130,-0.00000918,-0.00001968,-0.00001470
 ,-0.00000677,0.00001676,0.00000912,0.00002254,-0.00000230,0.00002891,0
 .00001003,-0.00000289,-0.00002051,-0.00002301,-0.00000670,0.00000914,0
 .00002508,0.00000412,-0.00002774,0.00000439,0.00002491,0.00002599,0.00
 013346,0.00011540,-0.00000120,-0.00001054,0.00013096,-0.00009144,0.000
 03814,-0.00008667,0.00006894,-0.00017816,-0.00013421,-0.00006626,0.000
 01700,0.00001917,-0.00002742,-0.00002448,-0.00001152,0.00006929,-0.000
 02400,-0.00003243,-0.00003138,0.00004754,-0.00001456,0.00008376,0.0000
 5353,0.00002733,0.00005176,0.00072954,0.00033316,-0.00004715,-0.000678
 58,-0.00054608,0.00002001,-0.00012710,0.00000753,0.00000781,-0.0000049
 1,0.00001547,0.00001436,-0.00001414,-0.00004079,-0.00034332,0.00010655
 ,0.00035041,0.00004314,0.00000161,0.00003966,0.00006090,0.00002617,-0.
 00012342,0.00005121,-0.00046400,-0.00024960,0.00009335,0.00021656,0.00
 011738,-0.00000675,-0.00003810,-0.00009910,-0.00001225,-0.00005789,0.0
 0000028,-0.00000186,-0.00001765,0.00001401,-0.00002742,0.00000985,0.00
 003535,-0.00001138,0.00001012,0.00003423,-0.00004039,0.00004345,-0.000
 03673,-0.00002328,0.00005213,0.00000667,0.00000191,-0.00002203,0.00000
 576,0.00002045,-0.00002127,-0.00001954,-0.00002139,-0.00003818,-0.0000
 4195,-0.00000329,0.00000063,0.00001415,-0.00000984,0.00001478,0.000002
 35,0.00001315,0.00002817,0.00001300,-0.00001319,-0.00002107,-0.0000018
 4,-0.00000443,-0.00000806,-0.00000374,0.00004881,-0.00000450,-0.000001
 86,-0.04668688,-0.01350132,-0.27905263,0.03188380,0.01398714,-0.065517
 74,-0.03180821,0.03132868,-0.02828898,0.06284565,-0.01942768,0.4098561
 7,-0.00014415,-0.00017725,0.00051243,0.00002023,-0.00000893,0.00000279
 ,-0.00001127,-0.00001612,-0.00000051,0.00004110,-0.00001474,0.00003246
 ,-0.00005596,0.00000486,-0.00001434,-0.00089698,0.00100573,-0.00012355
 ,0.00931381,0.01032846,0.00570876,-0.12705428,-0.11341671,-0.06078471,
 -0.00862632,-0.02337607,-0.00813578,-0.00275262,0.00223010,-0.00468803
 ,-0.00000548,0.00000132,-0.00000420,-0.00000286,-0.00000097,0.00000134
 ,0.00007839,0.00000350,-0.00002846,-0.00041012,-0.00048102,0.00144333,
 0.00027703,0.00001466,0.00196814,-0.00040175,-0.00115287,-0.00045208,-
 0.00007481,0.00001584,-0.00007521,0.00157667,0.00401793,-0.00300306,0.
 00033003,-0.00024164,0.00019618,-0.00008750,-0.00003901,0.00004929,-0.
 00001428,-0.00002578,-0.00000799,0.00001647,-0.00001026,-0.00000513,0.
 00006611,0.00000666,0.00005822,-0.00007622,0.00001576,-0.00002669,-0.0
 0007407,0.00003621,0.00007124,0.00000148,-0.00001254,-0.00000661,0.000
 02430,-0.00002308,-0.00002717,-0.00001105,0.00000378,0.00001994,0.0000
 1953,0.00004130,-0.00000160,0.00000101,0.00000555,-0.00000324,0.000006
 55,0.00000658,-0.00000720,-0.00001083,0.00001061,0.00003072,0.00009176
 ,0.00003313,-0.00006350,-0.00003947,-0.00008201,-0.00000577,-0.0000218
 9,0.00002234,0.00000767,0.00000496,-0.00000511,-0.00000473,0.00001581,
 -0.00002268,0.00000944,-0.00000171,-0.00000693,-0.00000637,-0.00000925
 ,0.00004816,0.00000778,-0.00000522,0.00000232,0.00000006,0.00001057,-0
 .00003915,0.00000327,0.00000447,-0.00001692,-0.00001385,0.00000006,-0.
 00000014,-0.00000109,0.00000087,-0.00000354,-0.00000043,0.00000023,0.0
 0000159,0.00000105,-0.00000116,0.00000109,0.00000092,0.00000254,-0.000
 00070,-0.00000242,0.00000103,0.00000316,-0.00000215,-0.00000053,0.0000
 0169,0.00000246,-0.00000070,-0.00000436,-0.00000239,-0.00000057,-0.000
 00285,-0.00000794,-0.00000171,0.00000254,0.00000013,-0.00000476,0.0000
 0040,0.00000945,0.00000172,-0.00000709,0.00000021,0.00000316,-0.000013
 29,-0.00001235,0.00000186,-0.00000756,0.00000257,-0.00000264,0.0000023
 2,0.00000127,0.00000187,0.00000113,0.00000193,-0.00007742,0.00004644,0
 .00011233,-0.00001283,0.00003045,0.00002485,0.00001796,-0.00003144,0.0
 0000040,0.00015657,-0.00016887,-0.00006798,-0.00001015,-0.00002876,0.0
 0000249,0.00000585,0.00000742,-0.00000579,-0.00000115,0.00000317,-0.00
 000132,-0.00000105,-0.00000810,0.00001216,0.00000124,-0.00000102,0.000
 00123,0.00000081,0.00000108,-0.00000144,-0.00000037,0.00000131,0.00000
 122,-0.00000093,-0.00000182,-0.00000021,-0.00000120,0.00000088,0.00000
 073,0.00000129,0.00000089,-0.00000077,0.00000038,-0.00000221,-0.000000
 37,0.00000010,0.00000205,-0.00000092,-0.00000095,-0.00000024,-0.000001
 68,-0.00000013,0.00000059,-0.00000016,0.00000095,-0.00000068,0.0000006
 9,-0.00000054,0.00000085,-0.00000009,-0.00000055,-0.00000155,0.0000002
 0,0.00000011,-0.00000162,0.00000055,-0.00000023,0.00000072,0.00000003,
 0.00000095,-0.00000090,0.00000037,-0.00006346,0.00011510,0.00000820,-0
 .00006138,-0.00001909,-0.00002526,0.00001812,0.00005092,0.00004035,0.0
 0000010,0.00001880,-0.00000505,0.00000730,-0.00001154,-0.00002949,-0.0
 0000630,-0.00001324,0.00001920,0.00009411,-0.00014912,-0.00005573,-0.0
 0001477,0.00000789,0.00004104,-0.00001529,-0.00000692,0.00002063,0.000
 05568,0.00013159,-0.00003399,0.00002894,-0.00008468,0.00001864,-0.0000
 1549,0.00000308,0.00001062,-0.00005146,-0.00000164,-0.00004749,0.00000
 835,-0.00002417,0.00000255,0.00000115,-0.00000365,-0.00000417,-0.00000
 193,0.00000067,0.00000291,0.00000685,0.00000745,0.00000797,0.00000226,
 -0.00000345,-0.00000474,0.00000068,-0.00000243,-0.00000831,-0.00000396
 ,-0.00000161,0.00001082,-0.00000045,0.00000110,-0.00000261,0.00000033,
 0.00000139,0.00000019,0.00000250,0.00000238,0.00000496,-0.00000031,-0.
 00000260,-0.00000018,-0.00000009,0.00000046,-0.00000343,-0.00000151,-0
 .00000029,0.00000393,0.00000010,0.00000152,0.00000033,0.00003672,0.000
 04950,-0.00000450,-0.00001283,-0.00001113,0.00000350,-0.00000192,-0.00
 001900,0.00000032,-0.00001012,-0.00001346,-0.00001215,0.12880593,-0.00
 013372,0.00007900,0.00007821,-0.00001040,0.00002527,0.00000096,-0.0000
 0411,-0.00002565,-0.00000576,-0.00003504,0.00001928,-0.00000265,-0.000
 00385,-0.00006389,-0.00001926,0.00156960,-0.00027033,0.00083995,-0.017
 79099,-0.01548267,-0.01097002,-0.11267035,-0.23332330,-0.08055343,0.00
 382807,0.00747035,0.00256967,0.00164305,0.00132149,0.00019974,0.000001
 96,0.00000138,0.00000103,-0.00000428,-0.00000389,-0.00000231,0.0000000
 5,0.00001155,-0.00000772,-0.00019180,0.00071920,0.00037166,-0.00057789
 ,0.00042463,0.00015699,0.00031681,0.00029328,0.00016099,0.00005967,-0.
 00008628,0.00002722,0.00296991,-0.00493387,-0.00005419,-0.00050066,0.0
 0049318,-0.00030442,0.00020816,0.00026637,-0.00006268,0.00015376,0.000
 07017,0.00010721,-0.00001493,-0.00014259,0.00005371,-0.00034868,-0.000
 09493,-0.00029840,-0.00033504,-0.00012758,0.00019791,0.00009433,0.0001
 1351,-0.00016324,0.00003064,-0.00013061,0.00010976,0.00009024,0.000084
 54,-0.00005407,-0.00003528,-0.00004299,0.00000470,-0.00001083,-0.00004
 904,0.00001894,-0.00003293,0.00004907,-0.00001264,0.00001153,0.0000381
 9,-0.00001094,-0.00000407,-0.00003671,-0.00008773,-0.00015739,-0.00012
 338,0.00003553,0.00020617,0.00020418,0.00023866,0.00001228,-0.00000202
 ,-0.00001089,-0.00000093,0.00000717,0.00000169,-0.00001688,-0.00002160
 ,-0.00003664,0.00000195,0.00001616,0.00001988,0.00000783,-0.00004641,-
 0.00001762,0.00000813,-0.00000455,-0.00000038,0.00001958,0.00003772,-0
 .00002123,-0.00000027,0.00002174,0.00001661,0.00000478,0.00000951,-0.0
 0000079,-0.00000321,0.00000318,0.00000248,0.00000420,0.00000071,-0.000
 00695,-0.00000032,-0.00000373,0.00000075,0.00000764,0.00001378,-0.0000
 0267,-0.00000440,-0.00000670,0.00000181,0.00001023,-0.00000086,-0.0000
 0381,-0.00000301,0.00000570,0.00000364,0.00000283,0.00000795,0.0000174
 7,0.00001119,-0.00000224,0.00000345,0.00000610,-0.00000245,-0.00001516
 ,-0.00000431,0.00001114,-0.00000135,-0.00000288,0.00002298,0.00002570,
 -0.00000771,0.00001309,-0.00000173,-0.00000043,-0.00000736,-0.00001035
 ,0.00000687,-0.00000342,0.00000576,0.00009445,-0.00010066,-0.00009371,
 0.00001338,-0.00003588,-0.00002305,-0.00003013,0.00005231,-0.00000470,
 0.00002122,0.00004265,0.00013675,0.00003949,0.00000415,-0.00001473,-0.
 00000633,0.00001086,0.00002518,-0.00000293,0.00000574,0.00001239,-0.00
 000051,0.00000974,-0.00001631,-0.00000661,-0.00000626,0.00000243,0.000
 00191,0.00000076,0.00000562,-0.00000058,-0.00000047,-0.00000340,0.0000
 0393,-0.00000385,0.00000176,-0.00000313,-0.00001326,0.,0.00000236,0.00
 000173,0.00000257,-0.00000332,-0.00000298,0.00000481,0.00000228,0.0000
 0160,-0.00000333,0.00000698,-0.00000961,0.00000324,-0.00000003,0.00000
 165,-0.00000100,-0.00000178,-0.00000663,0.00000213,-0.00000106,0.00000
 177,-0.00000053,0.00000516,-0.00000619,0.00000290,-0.00000410,0.000003
 33,0.00000047,-0.00000080,0.00000198,0.00000075,0.00000233,-0.00000658
 ,-0.00000016,0.00006588,-0.00019693,0.00008585,-0.00000083,0.00000776,
 -0.00002939,0.00000377,0.00002556,0.00003007,0.00000130,0.00001135,-0.
 00000773,0.00000011,-0.00000334,-0.00001163,-0.00000778,-0.00000397,0.
 00001133,-0.00000486,0.00002433,-0.00003200,-0.00000304,0.00000789,0.0
 0000977,0.00000244,-0.00000188,0.00000845,0.00003588,0.00001837,0.0000
 8791,-0.00004987,-0.00005265,-0.00003495,-0.00000491,-0.00000976,0.000
 01740,-0.00003130,-0.00002331,-0.00003372,0.00000927,-0.00005372,-0.00
 002115,-0.00000148,0.00000213,0.00000087,0.00000035,-0.00000056,0.0000
 0017,0.00000479,0.00000127,0.00000348,0.00000108,-0.00000014,-0.000004
 10,-0.00000056,-0.00000109,-0.00000074,-0.00000178,0.00000042,0.000004
 22,-0.00000028,0.00000073,-0.00000031,-0.00000003,-0.00000053,0.000000
 06,0.00000100,0.00000071,0.00000183,0.00000020,0.00000009,-0.00000118,
 -0.00000005,-0.00000042,-0.00000011,-0.00000025,0.00000031,0.00000143,
 -0.00000052,0.00000014,-0.00000003,0.00003001,0.00005222,0.00001769,-0
 .00001711,-0.00001509,0.00000143,-0.00000270,-0.00001555,-0.00000350,-
 0.00001004,-0.00001330,-0.00002043,0.12146814,0.24347661,0.00054776,0.
 00015781,-0.00091698,0.00003254,0.00001249,0.00000545,-0.00001964,0.00
 000218,-0.00002079,0.00004858,-0.00002682,-0.00003137,-0.00004502,0.00
 005664,0.00002257,-0.00026780,0.00063988,-0.00056444,0.00261455,0.0029
 3055,0.00233646,-0.06116747,-0.08065501,-0.07469366,-0.00462520,-0.011
 19077,-0.00152612,-0.00471324,0.00011918,0.00445678,-0.00000306,-0.000
 00047,-0.00000445,0.00000092,0.00000149,-0.00000484,0.00002170,-0.0000
 2080,0.00007524,0.00157923,0.00019912,-0.00256729,0.00189685,0.0004011
 6,-0.00251328,-0.00034271,-0.00058081,0.00008017,-0.00001815,-0.000077
 46,0.00002794,-0.00320604,0.00072645,0.00714201,0.00013260,-0.00008776
 ,-0.00015051,0.00015830,0.00020263,-0.00022470,0.00002758,-0.00001267,
 -0.00003964,-0.00000241,-0.00000934,-0.00000331,-0.00005117,0.00005470
 ,0.00007228,-0.00003139,-0.00022975,0.00010578,0.00001694,0.00005175,-
 0.00005643,0.00000747,0.00000460,0.00000232,0.00006853,0.00009252,-0.0
 0006568,-0.00002610,-0.00005745,-0.00003520,-0.00001279,-0.00012066,0.
 00013184,-0.00000571,0.00001472,-0.00000093,-0.00000534,0.00001046,0.0
 0000214,-0.00001725,0.00000916,0.00002372,0.00001184,-0.00000074,-0.00
 000594,-0.00001839,-0.00001178,-0.00006302,0.00004518,-0.00012446,-0.0
 0008567,-0.00000889,0.00002643,0.00000401,-0.00002841,0.00002435,-0.00
 002887,-0.00000341,0.00004004,0.00002562,0.00002689,-0.00007614,-0.000
 02817,-0.00001923,0.00001995,-0.00000049,0.00002860,0.00004075,0.00000
 806,-0.00000236,0.00002001,0.00000662,0.00000459,0.00000896,-0.0000007
 9,-0.00000601,0.00000897,0.00000029,0.00000770,-0.00000166,-0.00000730
 ,-0.00000587,-0.00000885,-0.00000698,0.00000119,0.00002430,0.00001100,
 -0.00000447,-0.00000710,0.00000357,0.00000791,-0.00000182,-0.00000518,
 -0.00000553,0.00001017,0.00000171,-0.00000047,-0.00001209,0.00000447,-
 0.00000146,0.00000221,-0.00000223,0.00000045,0.00000649,0.00000016,0.0
 0000259,-0.00000441,-0.00000036,0.00000499,-0.00000598,-0.00000573,0.0
 0000063,-0.00000471,-0.00000035,0.00000216,0.00000379,-0.00000062,-0.0
 0000242,0.00000162,-0.00000038,-0.00004999,0.00010534,0.00005023,0.000
 01489,-0.00003540,-0.00000825,0.00001514,-0.00002134,-0.00000482,0.000
 07272,-0.00010962,0.00001536,-0.00000681,0.00002844,0.00000616,0.00000
 004,-0.00001149,-0.00001157,0.00000710,-0.00000443,-0.00000155,0.00000
 022,-0.00000111,-0.00000446,0.00000200,0.00000122,-0.00000015,-0.00000
 046,0.00000030,-0.00000039,0.00000131,-0.00000005,-0.00000068,-0.00000
 108,-0.00000035,0.00000005,-0.00000363,-0.00000035,0.00000138,-0.00000
 208,0.00000094,-0.00000190,0.00000118,-0.00000232,0.00000021,0.0000029
 5,0.00000242,0.00000116,-0.00000142,-0.00000090,0.00000025,0.00000163,
 0.00000064,-0.00000154,0.00000114,-0.00000069,0.00000074,-0.00000083,0
 .00000091,-0.00000044,0.00000096,-0.00000142,-0.00000200,0.00000043,0.
 00000141,0.00000091,-0.00000155,0.00000004,-0.00000029,0.00000077,-0.0
 0000109,0.00000051,0.00003495,-0.00004922,-0.00004408,0.00011379,0.000
 05010,0.00007242,-0.00003756,-0.00007848,-0.00003787,0.00000695,0.0000
 0613,-0.00000515,-0.00000110,-0.00000186,-0.00000209,0.00000280,0.0000
 0180,-0.00000353,0.00003171,0.00018331,-0.00007318,0.00000294,-0.00000
 963,-0.00001984,-0.00000912,-0.00000814,0.00000888,-0.00019311,-0.0000
 3559,0.00007728,-0.00003229,0.00000560,-0.00004842,0.00002685,0.000020
 23,-0.00000089,0.00001788,0.00000832,0.00003590,0.00001808,0.00002352,
 0.00001177,0.00000564,0.00000050,-0.00000106,-0.00000317,-0.00000251,0
 .00000192,0.00000003,0.00000157,-0.00000234,-0.00000024,0.00000005,-0.
 00000195,0.00000119,-0.00000353,0.00000151,0.00000031,0.00000033,-0.00
 000087,0.00000417,0.00000292,0.00000215,-0.00000184,-0.00000111,0.0000
 0068,-0.00000034,-0.00000027,-0.00000142,-0.00000232,-0.00000287,-0.00
 000051,0.00000183,0.00000078,0.00000038,0.00000128,0.00000079,0.000000
 12,-0.00000466,0.00000014,-0.00000049,-0.00000421,0.00003152,0.0000714
 7,-0.00001159,-0.00001636,-0.00000974,0.00000546,-0.00001756,-0.000011
 39,0.00000029,-0.00000349,-0.00001494,0.06733991,0.08734586,0.06906783
 \\-0.00001476,0.00001185,-0.00000901,0.00001550,-0.00000693,-0.0000013
 3,-0.00001546,0.00000143,-0.00000007,0.00000837,0.00000051,0.00000018,
 0.00000314,-0.00000539,0.00000137,-0.00000907,0.00000920,-0.00000295,-
 0.00000346,0.00000875,0.00000280,-0.00000205,-0.00001259,0.00000160,-0
 .00000159,0.00000292,0.00000199,0.00000858,0.00000379,0.00000681,0.000
 00252,-0.00000117,0.00000346,-0.00000024,0.00000082,0.00000253,0.00000
 283,-0.00000142,0.00000202,0.00000465,-0.00000489,0.00000289,0.0000022
 4,-0.00000551,0.00000225,-0.00000064,-0.00000044,0.00000250,-0.0000029
 3,0.00000962,0.00000399,-0.00000472,-0.00000717,-0.00000043,0.00000460
 ,-0.00000841,-0.00000389,-0.00000106,0.00000465,-0.00000716,-0.0000002
 6,0.00000759,-0.00001319,0.00000230,-0.00000520,0.00000274,0.00000092,
 0.00000095,0.00000113,-0.00000532,-0.00000064,-0.00000248,-0.00000234,
 -0.00000308,-0.00000252,0.00000341,0.00000277,-0.00000074,-0.00000055,
 0.00000363,-0.00000261,-0.00000450,0.00000243,-0.00000103,-0.00000584,
 0.00000701,0.00000125,0.00000244,0.00000314,-0.00000928,-0.00000440,-0
 .00000123,-0.00000580,-0.00000233,0.00000386,0.00000084,-0.00000379,-0
 .00000769,0.00000451,0.00000360,-0.00000066,-0.00000160,-0.00000338,-0
 .00000709,-0.00000617,0.00000047,0.00000162,0.00000068,-0.00000088,0.0
 0000215,0.00000167,0.00000650,0.00000357,0.00000147,-0.00000255,-0.000
 00020,0.00000354,-0.00000073,0.00000115,0.00000179,0.00000091,-0.00000
 285,-0.00000149,0.00000131,-0.00000024,0.00000011,0.00000149,-0.000001
 24,0.00000182,-0.00000115,0.00000414,0.00000047,-0.00000049,-0.0000015
 8,-0.00000025,-0.00000065,0.00000269,-0.00000029,0.00000705,0.00000368
 ,-0.00000091,0.00000554,-0.00000139,0.00000770,-0.00000227,-0.00000317
 ,0.00000079,-0.00000119,0.00000213,0.00000017,0.00000021,-0.00001016,0
 .00000180,-0.00000079,-0.00000029,-0.00000138,0.00000138,0.00000270,-0
 .00000189,-0.00000146,0.00000416,0.00000111,-0.00000529,-0.00000878,-0
 .00000621,-0.00000168,0.00000058,0.00000154,-0.00000212,-0.00000781,0.
 00000026,0.00000065,0.00000294,0.00000239,0.00000013,0.00000380,-0.000
 00293,0.00000231,-0.00000951,0.00001507,-0.00000197,-0.00000078,-0.000
 00023,0.00000082,-0.00000382,-0.00000019,0.00000203,-0.00000627,-0.000
 00292,-0.00000096,-0.00000002,0.00000074,-0.00000050,-0.00000128,0.000
 00065,0.00000040,-0.00000125,-0.00000156,0.00000673,-0.00000496,-0.000
 00064,-0.00000332,-0.00000078,-0.00000555,-0.00000261,-0.00000086,-0.0
 0000027,0.00000105,0.00000218,-0.00000219,-0.00000416,-0.00000478,-0.0
 0000732,0.00000213,0.00000014,0.00000306,0.00000230,0.00000098,-0.0000
 0216,0.00000114,-0.00000344,0.00000002,-0.00000174,0.00000655,0.000005
 65,0.00000265,-0.00000272,-0.00000470,0.00000082,-0.00000086,-0.000003
 80,-0.00000482,-0.00000025,-0.00000888,0.00000029,-0.00000661,-0.00000
 306,-0.00000234,0.00000108,-0.00000304,0.00000053,0.00000181,-0.000000
 07,-0.00000278,0.00000508,-0.00000486,-0.00000035,0.00000601,0.0000013
 8,0.00000651,-0.00000442,-0.00000417,0.00000312,0.00000767,0.00000179,
 -0.00000901,0.00001077,0.00000307,-0.00000070,-0.00001310,0.00001142,-
 0.00000003,-0.00000422,-0.00001036,0.00000099,-0.00000859,0.00000569,0
 .00000163,0.00000766,0.00000020,-0.00000369,-0.00000138,-0.00000818,-0
 .00000384,-0.00000586,-0.00000228,0.00000295,0.00000327,0.00000308,0.0
 0000203,-0.00000120,-0.00000312,0.00000158,-0.00000674,0.00000281,0.00
 000045,0.00000112,-0.00000099,0.00000514,-0.00000737,0.00000071,0.0000
 0309,0.00001918,-0.00000834,0.00000358,0.00000580,0.00001623,-0.000000
 27,0.00000732,0.00000050,-0.00000420,-0.00002057,0.00001458,-0.0000031
 2,-0.00000478,-0.00001539,-0.00000015,-0.00000454,-0.00000309,0.000005
 38,0.00002704,-0.00001251,0.00000440,0.00000935,0.00003227,-0.00000072
 ,0.00000875,0.00001382,-0.00000202,-0.00002548,0.00001936,-0.00000285,
 -0.00000670,-0.00002442,0.00001619,0.00001061,0.00000947,0.00000248,0.
 00001085,0.,-0.00000313,-0.00000209,0.00000349,-0.00000328,0.00000259,
 -0.00000731,-0.00000143,0.00000423,-0.00000187,0.00000050,0.00000218,0
 .00000184\\\@
 The archive entry for this job was punched.


0EVERYBODY IS IGNORANT, ONLY ON DIFFERENT SUBJECTS.
0          WILL ROGERS
 Job cpu time:       2 days  1 hours 23 minutes 22.2 seconds.
 Elapsed time:       0 days  3 hours  8 minutes 43.0 seconds.
 File lengths (MBytes):  RWF=  10098 Int=      0 D2E=      0 Chk=     55 Scr=      1
 Normal termination of Gaussian 16 at Sat Dec  7 21:57:46 2024.
