/mnt/lustre/scratch/nvme/SLURM/9663512/usccqdma.2ml0cjKJ6p
OMP_STACKSIZE=0m
GAUSS_PDEF=16
GAUSS_MDEF=65536MB
GAUSS_RDEF=SCF=Direct
 Entering Gaussian System, Link 0=g16.exe
 Initial command:
 /opt/cesga/2020/software/Core/g16/c1/l1.exe "/mnt/lustre/scratch/nvme/SLURM/9663512/usccqdma.2ml0cjKJ6p/Gau-2831408.inp" -scrdir="/mnt/lustre/scratch/nvme/SLURM/9663512/usccqdma.2ml0cjKJ6p/"
 Default is to use a total of  16 processors:
                               16 via shared-memory
                                1 via Linda
 Entering Link 1 = /opt/cesga/2020/software/Core/g16/c1/l1.exe PID=   2831435.
  
 Copyright (c) 1988-2019, Gaussian, Inc.  All Rights Reserved.
  
 This is part of the Gaussian(R) 16 program.  It is based on
 the Gaussian(R) 09 system (copyright 2009, Gaussian, Inc.),
 the Gaussian(R) 03 system (copyright 2003, Gaussian, Inc.),
 the Gaussian(R) 98 system (copyright 1998, Gaussian, Inc.),
 the Gaussian(R) 94 system (copyright 1995, Gaussian, Inc.),
 the Gaussian 92(TM) system (copyright 1992, Gaussian, Inc.),
 the Gaussian 90(TM) system (copyright 1990, Gaussian, Inc.),
 the Gaussian 88(TM) system (copyright 1988, Gaussian, Inc.),
 the Gaussian 86(TM) system (copyright 1986, Carnegie Mellon
 University), and the Gaussian 82(TM) system (copyright 1983,
 Carnegie Mellon University). Gaussian is a federally registered
 trademark of Gaussian, Inc.
  
 This software contains proprietary and confidential information,
 including trade secrets, belonging to Gaussian, Inc.
  
 This software is provided under written license and may be
 used, copied, transmitted, or stored only in accord with that
 written license.
  
 The following legend is applicable only to US Government
 contracts under FAR:
  
                    RESTRICTED RIGHTS LEGEND
  
 Use, reproduction and disclosure by the US Government is
 subject to restrictions as set forth in subparagraphs (a)
 and (c) of the Commercial Computer Software - Restricted
 Rights clause in FAR 52.227-19.
  
 Gaussian, Inc.
 340 Quinnipiac St., Bldg. 40, Wallingford CT 06492
  
  
 ---------------------------------------------------------------
 Warning -- This program may not be used in any manner that
 competes with the business of Gaussian, Inc. or will provide
 assistance to any competitor of Gaussian, Inc.  The licensee
 of this program is prohibited from giving any competitor of
 Gaussian, Inc. access to this program.  By using this program,
 the user acknowledges that Gaussian, Inc. is engaged in the
 business of creating and licensing software in the field of
 computational chemistry and represents and warrants to the
 licensee that it is not a competitor of Gaussian, Inc. and that
 it will not use this program in any manner prohibited above.
 ---------------------------------------------------------------
  

 Cite this work as:
 Gaussian 16, Revision C.01,
 M. J. Frisch, G. W. Trucks, H. B. Schlegel, G. E. Scuseria, 
 M. A. Robb, J. R. Cheeseman, G. Scalmani, V. Barone, 
 G. A. Petersson, H. Nakatsuji, X. Li, M. Caricato, A. V. Marenich, 
 J. Bloino, B. G. Janesko, R. Gomperts, B. Mennucci, H. P. Hratchian, 
 J. V. Ortiz, A. F. Izmaylov, J. L. Sonnenberg, D. Williams-Young, 
 F. Ding, F. Lipparini, F. Egidi, J. Goings, B. Peng, A. Petrone, 
 T. Henderson, D. Ranasinghe, V. G. Zakrzewski, J. Gao, N. Rega, 
 G. Zheng, W. Liang, M. Hada, M. Ehara, K. Toyota, R. Fukuda, 
 J. Hasegawa, M. Ishida, T. Nakajima, Y. Honda, O. Kitao, H. Nakai, 
 T. Vreven, K. Throssell, J. A. Montgomery, Jr., J. E. Peralta, 
 F. Ogliaro, M. J. Bearpark, J. J. Heyd, E. N. Brothers, K. N. Kudin, 
 V. N. Staroverov, T. A. Keith, R. Kobayashi, J. Normand, 
 K. Raghavachari, A. P. Rendell, J. C. Burant, S. S. Iyengar, 
 J. Tomasi, M. Cossi, J. M. Millam, M. Klene, C. Adamo, R. Cammi, 
 J. W. Ochterski, R. L. Martin, K. Morokuma, O. Farkas, 
 J. B. Foresman, and D. J. Fox, Gaussian, Inc., Wallingford CT, 2019.
 
 ******************************************
 Gaussian 16:  ES64L-G16RevC.01  3-Jul-2019
                 7-Dec-2024 
 ******************************************
 Default route: SCF=Direct
 ----------------------------------------------------
 # m06/genecp scf=tight int=ultrafine 5d freq=noraman
 ----------------------------------------------------
 1/10=4,30=1,38=1/1,3;
 2/12=2,17=6,18=5,40=1/2;
 3/5=7,8=1,11=2,16=1,17=8,25=1,30=1,71=2,74=-54,75=-5,140=1/1,2,3;
 4//1;
 5/5=2,32=2,38=5,98=1/2;
 8/6=4,10=90,11=11/1;
 11/6=1,8=1,9=11,15=111,16=1/1,2,10;
 10/6=1/2;
 6/7=2,8=2,9=2,10=2,28=1/1;
 7/8=1,10=1,25=1/1,2,3,16;
 1/10=4,30=1/3;
 99//99;
 ------
 OPT-TS
 ------
 Symbolic Z-matrix:
 Charge =  0 Multiplicity = 1
 C                     1.50871   0.12969   2.03674 
 C                     2.68614   0.58477   0.09367 
 C                     3.83191   0.90367   0.80455 
 C                     3.80033   0.82544   2.19315 
 C                     2.6295    0.42672   2.8118 
 C                     0.22249  -0.30291   2.60677 
 C                    -1.95495  -0.96287   2.14879 
 C                    -2.21747  -1.1763    3.49332 
 C                    -1.21366  -0.93466   4.42564 
 C                     0.02114  -0.50284   3.97361 
 H                     2.65842   0.6243   -0.99478 
 H                     4.68638   1.06268   2.77773 
 H                     2.59381   0.34598   3.89422 
 H                    -2.69705  -1.16953   1.3791 
 H                    -1.39265  -1.09985   5.48543 
 H                     0.82571  -0.33295   4.68337 
 N                     1.55576   0.22158   0.69511 
 N                    -0.7706   -0.52292   1.71803 
 Ir                   -0.30775  -0.17721  -0.39567 
 O                    -2.85375   1.07681  -1.78677 
 O                    -1.58373  -1.77077  -2.69354 
 O                    -0.30279   2.82765  -1.55931 
 B                    -1.72403  -1.28766  -1.41078 
 B                    -2.08944   0.9088   -0.64014 
 B                    -0.24667   1.97377  -0.47778 
 O                     0.26375   2.62265   0.63644 
 O                    -2.77123   1.41003   0.46947 
 C                    -4.1251    1.69319   0.07767 
 C                    -3.9845    1.90171  -1.45971 
 C                     0.46528   4.00078  -1.23499 
 C                     0.42545   4.01471   0.32284 
 C                    -2.7456   -2.54286  -3.02854 
 C                    -3.3422   -2.90784  -1.6299 
 O                    -2.83087  -1.85873  -0.78731 
 C                    -5.18775   1.45598  -2.26635 
 H                    -5.41756   0.39525  -2.11141 
 H                    -6.07529   2.04443  -1.99242 
 H                    -4.99529   1.60971  -3.33615 
 C                    -3.61948   3.32836  -1.84588 
 H                    -4.46263   4.01851  -1.70794 
 H                    -2.76076   3.68637  -1.26631 
 H                    -3.32168   3.34001  -2.90192 
 C                    -4.96483   0.47909   0.45326 
 H                    -4.85995   0.29809   1.532 
 H                    -6.03092   0.63632   0.24063 
 H                    -4.62134  -0.41839  -0.0773 
 C                    -4.61615   2.90613   0.84273 
 H                    -4.66343   2.67177   1.91378 
 H                    -3.95269   3.76866   0.71588 
 H                    -5.62574   3.19118   0.5134 
 C                    -3.64505  -1.63936  -3.85821 
 H                    -3.08795  -1.31461  -4.74565 
 H                    -4.5579   -2.15264  -4.18947 
 H                    -3.91343  -0.7383   -3.29426 
 C                    -2.30739  -3.73653  -3.85482 
 H                    -1.52931  -4.31805  -3.34593 
 H                    -3.15714  -4.39946  -4.07285 
 H                    -1.89537  -3.3883   -4.81036 
 C                    -4.85702  -2.89657  -1.56082 
 H                    -5.18009  -3.11378  -0.53373 
 H                    -5.27372  -1.92387  -1.84774 
 H                    -5.2839   -3.66447  -2.22176 
 C                    -2.82676  -4.22279  -1.06048 
 H                    -1.73082  -4.27432  -1.07869 
 H                    -3.14567  -4.30023  -0.01293 
 H                    -3.22424  -5.08863  -1.6064 
 C                     1.69262   4.51653   0.98912 
 H                     1.90019   5.55864   0.70649 
 H                     1.57218   4.48074   2.07975 
 H                     2.56437   3.90485   0.72682 
 C                    -0.78183   4.74198   0.89568 
 H                    -0.71855   5.82814   0.7466 
 H                    -1.71402   4.37427   0.44755 
 H                    -0.8353    4.54125   1.97287 
 C                    -0.15997   5.2077   -1.90524 
 H                     0.38812   6.1242   -1.6431 
 H                    -0.11712   5.08558  -2.99486 
 H                    -1.21035   5.33917  -1.62411 
 C                     1.86265   3.77557  -1.79932 
 H                     2.51016   4.65166  -1.66149 
 H                     2.35246   2.9113   -1.32991 
 H                     1.7787    3.5691   -2.87322 
 H                     0.1576    0.02507  -1.91444 
 C                     2.96517  -2.38341  -0.22759 
 O                     2.91595  -2.43244   1.00142 
 C                     4.30336  -2.36911  -0.95204 
 H                     4.39985  -3.27341  -1.57622 
 H                     4.33083  -1.52567  -1.66278 
 C                     0.53199  -2.22578  -0.39232 
 H                    -0.10194  -2.96621  -0.89725 
 H                     0.64567  -2.54293   0.64987 
 N                     1.8495   -2.31191  -1.0083 
 C                     1.90378  -2.22506  -2.45397 
 H                     2.60373  -2.95673  -2.87553 
 H                     0.90327  -2.42723  -2.85174 
 H                     2.19139  -1.2211   -2.80647 
 C                     5.47867  -2.27446   0.00414 
 H                     5.34367  -1.40229   0.66483 
 H                     5.47238  -3.14398   0.6781 
 C                     6.8132   -2.16887  -0.71521 
 H                     6.9391   -3.02681  -1.39923 
 H                     6.81516  -1.27058  -1.35736 
 C                     7.99866  -2.10542   0.23626 
 H                     7.86992  -1.24589   0.91414 
 H                     7.99465  -2.99969   0.88041 
 C                     9.328    -1.99561  -0.49127 
 H                     10.17574  -1.94819   0.20365 
 H                     9.48775  -2.85853  -1.15307 
 H                     9.36005  -1.09349  -1.11825 
 C                     5.04356   1.40264   0.08353 
 F                     6.16828   1.08796   0.73269 
 F                     5.12735   0.90044  -1.15267 
 F                     5.01387   2.73792  -0.03444 
 C                    -3.5908   -1.60306   3.90901 
 F                    -4.40668  -0.54601   4.02594 
 F                    -4.14221  -2.42764   3.01581 
 F                    -3.5766   -2.22325   5.09266 
 

 GradGradGradGradGradGradGradGradGradGradGradGradGradGradGradGradGradGrad
 Berny optimization.
 Initialization pass.
 Trust Radius=3.00D-01 FncErr=1.00D-07 GrdErr=1.00D-07 EigMax=2.50D+02 EigMin=1.00D-04
 Number of steps in this run=      2 maximum allowed number of steps=      2.
 GradGradGradGradGradGradGradGradGradGradGradGradGradGradGradGradGradGrad

 Stoichiometry    C38H59B3F6IrN3O7
 Framework group  C1[X(C38H59B3F6IrN3O7)]
 Deg. of freedom   345
 Full point group                 C1      NOp   1
 Largest Abelian subgroup         C1      NOp   1
 Largest concise Abelian subgroup C1      NOp   1
                         Standard orientation:                         
 ---------------------------------------------------------------------
 Center     Atomic      Atomic             Coordinates (Angstroms)
 Number     Number       Type             X           Y           Z
 ---------------------------------------------------------------------
      1          6           0        1.508710    0.129690    2.036740
      2          6           0        2.686140    0.584770    0.093670
      3          6           0        3.831910    0.903670    0.804550
      4          6           0        3.800330    0.825440    2.193150
      5          6           0        2.629500    0.426720    2.811800
      6          6           0        0.222490   -0.302910    2.606770
      7          6           0       -1.954950   -0.962871    2.148790
      8          6           0       -2.217470   -1.176301    3.493320
      9          6           0       -1.213660   -0.934661    4.425640
     10          6           0        0.021140   -0.502840    3.973610
     11          1           0        2.658420    0.624300   -0.994780
     12          1           0        4.686380    1.062680    2.777730
     13          1           0        2.593810    0.345980    3.894220
     14          1           0       -2.697050   -1.169531    1.379100
     15          1           0       -1.392650   -1.099851    5.485430
     16          1           0        0.825710   -0.332950    4.683370
     17          7           0        1.555760    0.221580    0.695110
     18          7           0       -0.770600   -0.522921    1.718030
     19         77           0       -0.307750   -0.177210   -0.395670
     20          8           0       -2.853750    1.076809   -1.786770
     21          8           0       -1.583730   -1.770771   -2.693540
     22          8           0       -0.302790    2.827650   -1.559310
     23          5           0       -1.724030   -1.287661   -1.410780
     24          5           0       -2.089440    0.908799   -0.640140
     25          5           0       -0.246670    1.973770   -0.477780
     26          8           0        0.263750    2.622650    0.636440
     27          8           0       -2.771230    1.410029    0.469470
     28          6           0       -4.125100    1.693189    0.077670
     29          6           0       -3.984500    1.901709   -1.459710
     30          6           0        0.465280    4.000780   -1.234990
     31          6           0        0.425450    4.014710    0.322840
     32          6           0       -2.745600   -2.542861   -3.028540
     33          6           0       -3.342200   -2.907841   -1.629900
     34          8           0       -2.830870   -1.858731   -0.787310
     35          6           0       -5.187750    1.455979   -2.266350
     36          1           0       -5.417560    0.395249   -2.111410
     37          1           0       -6.075290    2.044429   -1.992420
     38          1           0       -4.995290    1.609709   -3.336150
     39          6           0       -3.619480    3.328359   -1.845880
     40          1           0       -4.462630    4.018509   -1.707940
     41          1           0       -2.760760    3.686369   -1.266310
     42          1           0       -3.321680    3.340009   -2.901920
     43          6           0       -4.964830    0.479089    0.453260
     44          1           0       -4.859950    0.298089    1.532000
     45          1           0       -6.030920    0.636319    0.240630
     46          1           0       -4.621340   -0.418391   -0.077300
     47          6           0       -4.616150    2.906129    0.842730
     48          1           0       -4.663430    2.671769    1.913780
     49          1           0       -3.952690    3.768659    0.715880
     50          1           0       -5.625740    3.191179    0.513400
     51          6           0       -3.645050   -1.639361   -3.858210
     52          1           0       -3.087950   -1.314611   -4.745650
     53          1           0       -4.557900   -2.152641   -4.189470
     54          1           0       -3.913430   -0.738301   -3.294260
     55          6           0       -2.307390   -3.736531   -3.854820
     56          1           0       -1.529310   -4.318051   -3.345930
     57          1           0       -3.157140   -4.399461   -4.072850
     58          1           0       -1.895370   -3.388301   -4.810360
     59          6           0       -4.857020   -2.896571   -1.560820
     60          1           0       -5.180090   -3.113781   -0.533730
     61          1           0       -5.273720   -1.923871   -1.847740
     62          1           0       -5.283900   -3.664471   -2.221760
     63          6           0       -2.826760   -4.222791   -1.060480
     64          1           0       -1.730820   -4.274321   -1.078690
     65          1           0       -3.145670   -4.300231   -0.012930
     66          1           0       -3.224240   -5.088631   -1.606400
     67          6           0        1.692620    4.516530    0.989120
     68          1           0        1.900190    5.558640    0.706490
     69          1           0        1.572180    4.480740    2.079750
     70          1           0        2.564370    3.904850    0.726820
     71          6           0       -0.781830    4.741979    0.895680
     72          1           0       -0.718550    5.828139    0.746600
     73          1           0       -1.714020    4.374269    0.447550
     74          1           0       -0.835300    4.541249    1.972870
     75          6           0       -0.159970    5.207700   -1.905240
     76          1           0        0.388120    6.124200   -1.643100
     77          1           0       -0.117120    5.085580   -2.994860
     78          1           0       -1.210350    5.339169   -1.624110
     79          6           0        1.862650    3.775570   -1.799320
     80          1           0        2.510160    4.651660   -1.661490
     81          1           0        2.352460    2.911300   -1.329910
     82          1           0        1.778700    3.569100   -2.873220
     83          1           0        0.157600    0.025070   -1.914440
     84          6           0        2.965170   -2.383410   -0.227590
     85          8           0        2.915950   -2.432440    1.001420
     86          6           0        4.303360   -2.369110   -0.952040
     87          1           0        4.399850   -3.273410   -1.576220
     88          1           0        4.330830   -1.525670   -1.662780
     89          6           0        0.531990   -2.225780   -0.392320
     90          1           0       -0.101940   -2.966210   -0.897250
     91          1           0        0.645670   -2.542930    0.649870
     92          7           0        1.849500   -2.311910   -1.008300
     93          6           0        1.903780   -2.225060   -2.453970
     94          1           0        2.603730   -2.956730   -2.875530
     95          1           0        0.903270   -2.427230   -2.851740
     96          1           0        2.191390   -1.221100   -2.806470
     97          6           0        5.478670   -2.274460    0.004140
     98          1           0        5.343670   -1.402290    0.664830
     99          1           0        5.472380   -3.143980    0.678100
    100          6           0        6.813200   -2.168870   -0.715210
    101          1           0        6.939100   -3.026810   -1.399230
    102          1           0        6.815160   -1.270580   -1.357360
    103          6           0        7.998660   -2.105420    0.236260
    104          1           0        7.869920   -1.245890    0.914140
    105          1           0        7.994650   -2.999690    0.880410
    106          6           0        9.328000   -1.995610   -0.491270
    107          1           0       10.175740   -1.948190    0.203650
    108          1           0        9.487750   -2.858530   -1.153070
    109          1           0        9.360050   -1.093490   -1.118250
    110          6           0        5.043560    1.402640    0.083530
    111          9           0        6.168280    1.087960    0.732690
    112          9           0        5.127350    0.900440   -1.152670
    113          9           0        5.013870    2.737920   -0.034440
    114          6           0       -3.590800   -1.603061    3.909010
    115          9           0       -4.406680   -0.546011    4.025940
    116          9           0       -4.142210   -2.427641    3.015810
    117          9           0       -3.576600   -2.223251    5.092660
 ---------------------------------------------------------------------
 Rotational constants (GHZ):           0.0605919           0.0341656           0.0320252
 General basis read from cards:  (5D, 7F)
 ======================================================================================================
                                       Pseudopotential Parameters
 ======================================================================================================
  Center     Atomic      Valence      Angular      Power
  Number     Number     Electrons     Momentum     of R      Exponent        Coefficient   SO-Coeffient
 ======================================================================================================
    1          6
                                   No pseudopotential on this center.
    2          6
                                   No pseudopotential on this center.
    3          6
                                   No pseudopotential on this center.
    4          6
                                   No pseudopotential on this center.
    5          6
                                   No pseudopotential on this center.
    6          6
                                   No pseudopotential on this center.
    7          6
                                   No pseudopotential on this center.
    8          6
                                   No pseudopotential on this center.
    9          6
                                   No pseudopotential on this center.
   10          6
                                   No pseudopotential on this center.
   11          1
                                   No pseudopotential on this center.
   12          1
                                   No pseudopotential on this center.
   13          1
                                   No pseudopotential on this center.
   14          1
                                   No pseudopotential on this center.
   15          1
                                   No pseudopotential on this center.
   16          1
                                   No pseudopotential on this center.
   17          7
                                   No pseudopotential on this center.
   18          7
                                   No pseudopotential on this center.
   19         77           17
                                      G and up 
                                                     1      823.5880147       -0.15780140    0.00000000
                                                     2      364.6613336    -1517.52704460    0.00000000
                                                     2       55.7082801     -316.53065290    0.00000000
                                                     2       12.0464544      -91.88809410    0.00000000
                                                     2        3.5120610       -9.22417730    0.00000000
                                      S - G
                                                     0      188.0490770        3.15780140    0.00000000
                                                     1      340.4194712       26.83225770    0.00000000
                                                     2      128.2373673      800.42500070    0.00000000
                                                     2       33.8644961      369.40506830    0.00000000
                                                     2        4.7560005      242.41718990    0.00000000
                                                     2        3.9649974     -118.21732820    0.00000000
                                      P - G
                                                     0      289.7291139        2.15780140    0.00000000
                                                     1       87.4633789       61.96786100    0.00000000
                                                     2       30.4363766      269.05819860    0.00000000
                                                     2        4.0553412      231.16547930    0.00000000
                                                     2        3.5525341     -133.69526670    0.00000000
                                      D - G
                                                     0      136.4017106        3.15780140    0.00000000
                                                     1       95.0776925       45.93498030    0.00000000
                                                     2       49.2258410      359.03446680    0.00000000
                                                     2       15.0874145      176.47401190    0.00000000
                                                     2        4.0405764       54.51552860    0.00000000
                                      F - G
                                                     0      127.3507908        3.95461970    0.00000000
                                                     1       66.2364374       52.97736550    0.00000000
                                                     2       34.4299229      274.86433830    0.00000000
                                                     2       10.1995721      137.20473380    0.00000000
                                                     2        2.5409702       14.86333050    0.00000000
   20          8
                                   No pseudopotential on this center.
   21          8
                                   No pseudopotential on this center.
   22          8
                                   No pseudopotential on this center.
   23          5
                                   No pseudopotential on this center.
   24          5
                                   No pseudopotential on this center.
   25          5
                                   No pseudopotential on this center.
   26          8
                                   No pseudopotential on this center.
   27          8
                                   No pseudopotential on this center.
   28          6
                                   No pseudopotential on this center.
   29          6
                                   No pseudopotential on this center.
   30          6
                                   No pseudopotential on this center.
   31          6
                                   No pseudopotential on this center.
   32          6
                                   No pseudopotential on this center.
   33          6
                                   No pseudopotential on this center.
   34          8
                                   No pseudopotential on this center.
   35          6
                                   No pseudopotential on this center.
   36          1
                                   No pseudopotential on this center.
   37          1
                                   No pseudopotential on this center.
   38          1
                                   No pseudopotential on this center.
   39          6
                                   No pseudopotential on this center.
   40          1
                                   No pseudopotential on this center.
   41          1
                                   No pseudopotential on this center.
   42          1
                                   No pseudopotential on this center.
   43          6
                                   No pseudopotential on this center.
   44          1
                                   No pseudopotential on this center.
   45          1
                                   No pseudopotential on this center.
   46          1
                                   No pseudopotential on this center.
   47          6
                                   No pseudopotential on this center.
   48          1
                                   No pseudopotential on this center.
   49          1
                                   No pseudopotential on this center.
   50          1
                                   No pseudopotential on this center.
   51          6
                                   No pseudopotential on this center.
   52          1
                                   No pseudopotential on this center.
   53          1
                                   No pseudopotential on this center.
   54          1
                                   No pseudopotential on this center.
   55          6
                                   No pseudopotential on this center.
   56          1
                                   No pseudopotential on this center.
   57          1
                                   No pseudopotential on this center.
   58          1
                                   No pseudopotential on this center.
   59          6
                                   No pseudopotential on this center.
   60          1
                                   No pseudopotential on this center.
   61          1
                                   No pseudopotential on this center.
   62          1
                                   No pseudopotential on this center.
   63          6
                                   No pseudopotential on this center.
   64          1
                                   No pseudopotential on this center.
   65          1
                                   No pseudopotential on this center.
   66          1
                                   No pseudopotential on this center.
   67          6
                                   No pseudopotential on this center.
   68          1
                                   No pseudopotential on this center.
   69          1
                                   No pseudopotential on this center.
   70          1
                                   No pseudopotential on this center.
   71          6
                                   No pseudopotential on this center.
   72          1
                                   No pseudopotential on this center.
   73          1
                                   No pseudopotential on this center.
   74          1
                                   No pseudopotential on this center.
   75          6
                                   No pseudopotential on this center.
   76          1
                                   No pseudopotential on this center.
   77          1
                                   No pseudopotential on this center.
   78          1
                                   No pseudopotential on this center.
   79          6
                                   No pseudopotential on this center.
   80          1
                                   No pseudopotential on this center.
   81          1
                                   No pseudopotential on this center.
   82          1
                                   No pseudopotential on this center.
   83          1
                                   No pseudopotential on this center.
   84          6
                                   No pseudopotential on this center.
   85          8
                                   No pseudopotential on this center.
   86          6
                                   No pseudopotential on this center.
   87          1
                                   No pseudopotential on this center.
   88          1
                                   No pseudopotential on this center.
   89          6
                                   No pseudopotential on this center.
   90          1
                                   No pseudopotential on this center.
   91          1
                                   No pseudopotential on this center.
   92          7
                                   No pseudopotential on this center.
   93          6
                                   No pseudopotential on this center.
   94          1
                                   No pseudopotential on this center.
   95          1
                                   No pseudopotential on this center.
   96          1
                                   No pseudopotential on this center.
   97          6
                                   No pseudopotential on this center.
   98          1
                                   No pseudopotential on this center.
   99          1
                                   No pseudopotential on this center.
  100          6
                                   No pseudopotential on this center.
  101          1
                                   No pseudopotential on this center.
  102          1
                                   No pseudopotential on this center.
  103          6
                                   No pseudopotential on this center.
  104          1
                                   No pseudopotential on this center.
  105          1
                                   No pseudopotential on this center.
  106          6
                                   No pseudopotential on this center.
  107          1
                                   No pseudopotential on this center.
  108          1
                                   No pseudopotential on this center.
  109          1
                                   No pseudopotential on this center.
  110          6
                                   No pseudopotential on this center.
  111          9
                                   No pseudopotential on this center.
  112          9
                                   No pseudopotential on this center.
  113          9
                                   No pseudopotential on this center.
  114          6
                                   No pseudopotential on this center.
  115          9
                                   No pseudopotential on this center.
  116          9
                                   No pseudopotential on this center.
  117          9
                                   No pseudopotential on this center.
 ======================================================================================================
 There are   997 symmetry adapted cartesian basis functions of A   symmetry.
 There are   938 symmetry adapted basis functions of A   symmetry.
   938 basis functions,  1875 primitive gaussians,   997 cartesian basis functions
   225 alpha electrons      225 beta electrons
       nuclear repulsion energy     10509.7084058258 Hartrees.
 NAtoms=  117 NActive=  117 NUniq=  117 SFac= 1.00D+00 NAtFMM=   60 NAOKFM=T Big=T
 Integral buffers will be    131072 words long.
 Raffenetti 2 integral format.
 Two-electron integral symmetry is turned on.
 One-electron integrals computed using PRISM.
   1 Symmetry operations used in ECPInt.
 ECPInt:  NShTT=   62835 NPrTT=  387974 LenC2=   44675 LenP2D=  136648.
 LDataN:  DoStor=T MaxTD1= 6 Len=  172
 NBasis=   938 RedAO= T EigKep=  4.38D-04  NBF=   938
 NBsUse=   938 1.00D-06 EigRej= -1.00D+00 NBFU=   938
 Defaulting to unpruned grid for atomic number  77.
 ExpMin= 2.90D-02 ExpMax= 7.00D+03 ExpMxC= 1.05D+03 IAcc=3 IRadAn=         5 AccDes= 0.00D+00
 Harris functional with IExCor= 1009 and IRadAn=       5 diagonalized for initial guess.
 HarFok:  IExCor= 1009 AccDes= 0.00D+00 IRadAn=         5 IDoV= 1 UseB2=F ITyADJ=14
 ICtDFT=  3500011 ScaDFX=  1.000000  1.000000  1.000000  1.000000
 Defaulting to unpruned grid for atomic number  77.
 FoFCou: FMM=F IPFlag=           0 FMFlag=      100000 FMFlg1=        2001
         NFxFlg=           0 DoJE=T BraDBF=F KetDBF=T FulRan=T
         wScrn=  0.000000 ICntrl=       500 IOpCl=  0 I1Cent=   200000004 NGrid=           0
         NMat0=    1 NMatS0=      1 NMatT0=    0 NMatD0=    1 NMtDS0=    0 NMtDT0=    0
 Petite list used in FoFCou.
 Requested convergence on RMS density matrix=1.00D-08 within 128 cycles.
 Requested convergence on MAX density matrix=1.00D-06.
 Requested convergence on             energy=1.00D-06.
 No special actions if energy rises.
 Defaulting to unpruned grid for atomic number  77.
 Defaulting to unpruned grid for atomic number  77.
 Defaulting to unpruned grid for atomic number  77.
 Defaulting to unpruned grid for atomic number  77.
 Defaulting to unpruned grid for atomic number  77.
 Defaulting to unpruned grid for atomic number  77.
 Defaulting to unpruned grid for atomic number  77.
 Defaulting to unpruned grid for atomic number  77.
 Defaulting to unpruned grid for atomic number  77.
 Defaulting to unpruned grid for atomic number  77.
 Defaulting to unpruned grid for atomic number  77.
 Defaulting to unpruned grid for atomic number  77.
 Defaulting to unpruned grid for atomic number  77.
 Defaulting to unpruned grid for atomic number  77.
 Defaulting to unpruned grid for atomic number  77.
 Defaulting to unpruned grid for atomic number  77.
 SCF Done:  E(RM06) =  -2951.39601381     A.U. after   16 cycles
            NFock= 16  Conv=0.35D-08     -V/T= 2.0310
 DoSCS=F DFT=T ScalE2(SS,OS)=  1.000000  1.000000
 Range of M.O.s used for correlation:     1   938
 NBasis=   938 NAE=   225 NBE=   225 NFC=     0 NFV=     0
 NROrb=    938 NOA=   225 NOB=   225 NVA=   713 NVB=   713
   1 Symmetry operations used in ECPInt.
 ECPInt:  NShTT=   62835 NPrTT=  387974 LenC2=   44675 LenP2D=  136648.
 LDataN:  DoStor=T MaxTD1= 7 Len=  274
 Number of processors reduced to   6 by ecpmxn.
 Symmetrizing basis deriv contribution to polar:
 IMax=3 JMax=2 DiffMx= 0.00D+00
 G2DrvN: will do   118 centers at a time, making    1 passes.
 Calling FoFCou, ICntrl=  3107 FMM=T I1Cent=   0 AccDes= 0.00D+00.
 Defaulting to unpruned grid for atomic number  77.
 Defaulting to unpruned grid for atomic number  77.
 Defaulting to unpruned grid for atomic number  77.
 Defaulting to unpruned grid for atomic number  77.
 Defaulting to unpruned grid for atomic number  77.
 Defaulting to unpruned grid for atomic number  77.
 Defaulting to unpruned grid for atomic number  77.
 Defaulting to unpruned grid for atomic number  77.
 Defaulting to unpruned grid for atomic number  77.
 Defaulting to unpruned grid for atomic number  77.
 Defaulting to unpruned grid for atomic number  77.
 Defaulting to unpruned grid for atomic number  77.
 Defaulting to unpruned grid for atomic number  77.
 Defaulting to unpruned grid for atomic number  77.
 Defaulting to unpruned grid for atomic number  77.
 Defaulting to unpruned grid for atomic number  77.
 End of G2Drv F.D. properties file   721 does not exist.
 End of G2Drv F.D. properties file   722 does not exist.
 End of G2Drv F.D. properties file   788 does not exist.
          IDoAtm=11111111111111111111111111111111111111111111111111
          IDoAtm=11111111111111111111111111111111111111111111111111
          IDoAtm=11111111111111111
          Differentiating once with respect to electric field.
                with respect to dipole field.
          Differentiating once with respect to nuclear coordinates.
 Defaulting to unpruned grid for atomic number  77.
 CalDSu exits because no D1Ps are significant.
 Defaulting to unpruned grid for atomic number  77.
 Defaulting to unpruned grid for atomic number  77.
 Defaulting to unpruned grid for atomic number  77.
 Defaulting to unpruned grid for atomic number  77.
 Defaulting to unpruned grid for atomic number  77.
 Defaulting to unpruned grid for atomic number  77.
 Defaulting to unpruned grid for atomic number  77.
 Defaulting to unpruned grid for atomic number  77.
 Defaulting to unpruned grid for atomic number  77.
 Defaulting to unpruned grid for atomic number  77.
 Defaulting to unpruned grid for atomic number  77.
 Defaulting to unpruned grid for atomic number  77.
 Defaulting to unpruned grid for atomic number  77.
 Defaulting to unpruned grid for atomic number  77.
 Defaulting to unpruned grid for atomic number  77.
 Defaulting to unpruned grid for atomic number  77.
          There are   354 degrees of freedom in the 1st order CPHF.  IDoFFX=6 NUNeed=     3.
    351 vectors produced by pass  0 Test12= 1.60D-13 1.00D-09 XBig12= 5.17D+02 1.02D+01.
 AX will form    72 AO Fock derivatives at one time.
    351 vectors produced by pass  1 Test12= 1.60D-13 1.00D-09 XBig12= 1.04D+02 1.41D+00.
    351 vectors produced by pass  2 Test12= 1.60D-13 1.00D-09 XBig12= 1.15D+00 9.16D-02.
    351 vectors produced by pass  3 Test12= 1.60D-13 1.00D-09 XBig12= 7.28D-03 7.66D-03.
    351 vectors produced by pass  4 Test12= 1.60D-13 1.00D-09 XBig12= 3.02D-05 3.85D-04.
    313 vectors produced by pass  5 Test12= 1.60D-13 1.00D-09 XBig12= 6.36D-08 1.52D-05.
     88 vectors produced by pass  6 Test12= 1.60D-13 1.00D-09 XBig12= 9.34D-11 4.64D-07.
      3 vectors produced by pass  7 Test12= 1.60D-13 1.00D-09 XBig12= 1.20D-13 1.71D-08.
 InvSVY:  IOpt=1 It=  1 EMax= 2.49D-14
 Solved reduced A of dimension  2159 with   354 vectors.
 Isotropic polarizability for W=    0.000000      524.59 Bohr**3.
 End of Minotr F.D. properties file   721 does not exist.
 End of Minotr F.D. properties file   722 does not exist.
 End of Minotr F.D. properties file   788 does not exist.
 Hyperfine terms turned off by default for NAtoms > 100.

 **********************************************************************

            Population analysis using the SCF Density.

 **********************************************************************

 Orbital symmetries:
       Occupied  (A) (A) (A) (A) (A) (A) (A) (A) (A) (A) (A) (A)
                 (A) (A) (A) (A) (A) (A) (A) (A) (A) (A) (A) (A)
                 (A) (A) (A) (A) (A) (A) (A) (A) (A) (A) (A) (A)
                 (A) (A) (A) (A) (A) (A) (A) (A) (A) (A) (A) (A)
                 (A) (A) (A) (A) (A) (A) (A) (A) (A) (A) (A) (A)
                 (A) (A) (A) (A) (A) (A) (A) (A) (A) (A) (A) (A)
                 (A) (A) (A) (A) (A) (A) (A) (A) (A) (A) (A) (A)
                 (A) (A) (A) (A) (A) (A) (A) (A) (A) (A) (A) (A)
                 (A) (A) (A) (A) (A) (A) (A) (A) (A) (A) (A) (A)
                 (A) (A) (A) (A) (A) (A) (A) (A) (A) (A) (A) (A)
                 (A) (A) (A) (A) (A) (A) (A) (A) (A) (A) (A) (A)
                 (A) (A) (A) (A) (A) (A) (A) (A) (A) (A) (A) (A)
                 (A) (A) (A) (A) (A) (A) (A) (A) (A) (A) (A) (A)
                 (A) (A) (A) (A) (A) (A) (A) (A) (A) (A) (A) (A)
                 (A) (A) (A) (A) (A) (A) (A) (A) (A) (A) (A) (A)
                 (A) (A) (A) (A) (A) (A) (A) (A) (A) (A) (A) (A)
                 (A) (A) (A) (A) (A) (A) (A) (A) (A) (A) (A) (A)
                 (A) (A) (A) (A) (A) (A) (A) (A) (A) (A) (A) (A)
                 (A) (A) (A) (A) (A) (A) (A) (A) (A)
       Virtual   (A) (A) (A) (A) (A) (A) (A) (A) (A) (A) (A) (A)
                 (A) (A) (A) (A) (A) (A) (A) (A) (A) (A) (A) (A)
                 (A) (A) (A) (A) (A) (A) (A) (A) (A) (A) (A) (A)
                 (A) (A) (A) (A) (A) (A) (A) (A) (A) (A) (A) (A)
                 (A) (A) (A) (A) (A) (A) (A) (A) (A) (A) (A) (A)
                 (A) (A) (A) (A) (A) (A) (A) (A) (A) (A) (A) (A)
                 (A) (A) (A) (A) (A) (A) (A) (A) (A) (A) (A) (A)
                 (A) (A) (A) (A) (A) (A) (A) (A) (A) (A) (A) (A)
                 (A) (A) (A) (A) (A) (A) (A) (A) (A) (A) (A) (A)
                 (A) (A) (A) (A) (A) (A) (A) (A) (A) (A) (A) (A)
                 (A) (A) (A) (A) (A) (A) (A) (A) (A) (A) (A) (A)
                 (A) (A) (A) (A) (A) (A) (A) (A) (A) (A) (A) (A)
                 (A) (A) (A) (A) (A) (A) (A) (A) (A) (A) (A) (A)
                 (A) (A) (A) (A) (A) (A) (A) (A) (A) (A) (A) (A)
                 (A) (A) (A) (A) (A) (A) (A) (A) (A) (A) (A) (A)
                 (A) (A) (A) (A) (A) (A) (A) (A) (A) (A) (A) (A)
                 (A) (A) (A) (A) (A) (A) (A) (A) (A) (A) (A) (A)
                 (A) (A) (A) (A) (A) (A) (A) (A) (A) (A) (A) (A)
                 (A) (A) (A) (A) (A) (A) (A) (A) (A) (A) (A) (A)
                 (A) (A) (A) (A) (A) (A) (A) (A) (A) (A) (A) (A)
                 (A) (A) (A) (A) (A) (A) (A) (A) (A) (A) (A) (A)
                 (A) (A) (A) (A) (A) (A) (A) (A) (A) (A) (A) (A)
                 (A) (A) (A) (A) (A) (A) (A) (A) (A) (A) (A) (A)
                 (A) (A) (A) (A) (A) (A) (A) (A) (A) (A) (A) (A)
                 (A) (A) (A) (A) (A) (A) (A) (A) (A) (A) (A) (A)
                 (A) (A) (A) (A) (A) (A) (A) (A) (A) (A) (A) (A)
                 (A) (A) (A) (A) (A) (A) (A) (A) (A) (A) (A) (A)
                 (A) (A) (A) (A) (A) (A) (A) (A) (A) (A) (A) (A)
                 (A) (A) (A) (A) (A) (A) (A) (A) (A) (A) (A) (A)
                 (A) (A) (A) (A) (A) (A) (A) (A) (A) (A) (A) (A)
                 (A) (A) (A) (A) (A) (A) (A) (A) (A) (A) (A) (A)
                 (A) (A) (A) (A) (A) (A) (A) (A) (A) (A) (A) (A)
                 (A) (A) (A) (A) (A) (A) (A) (A) (A) (A) (A) (A)
                 (A) (A) (A) (A) (A) (A) (A) (A) (A) (A) (A) (A)
                 (A) (A) (A) (A) (A) (A) (A) (A) (A) (A) (A) (A)
                 (A) (A) (A) (A) (A) (A) (A) (A) (A) (A) (A) (A)
                 (A) (A) (A) (A) (A) (A) (A) (A) (A) (A) (A) (A)
                 (A) (A) (A) (A) (A) (A) (A) (A) (A) (A) (A) (A)
                 (A) (A) (A) (A) (A) (A) (A) (A) (A) (A) (A) (A)
                 (A) (A) (A) (A) (A) (A) (A) (A) (A) (A) (A) (A)
                 (A) (A) (A) (A) (A) (A) (A) (A) (A) (A) (A) (A)
                 (A) (A) (A) (A) (A) (A) (A) (A) (A) (A) (A) (A)
                 (A) (A) (A) (A) (A) (A) (A) (A) (A) (A) (A) (A)
                 (A) (A) (A) (A) (A) (A) (A) (A) (A) (A) (A) (A)
                 (A) (A) (A) (A) (A) (A) (A) (A) (A) (A) (A) (A)
                 (A) (A) (A) (A) (A) (A) (A) (A) (A) (A) (A) (A)
                 (A) (A) (A) (A) (A) (A) (A) (A) (A) (A) (A) (A)
                 (A) (A) (A) (A) (A) (A) (A) (A) (A) (A) (A) (A)
                 (A) (A) (A) (A) (A) (A) (A) (A) (A) (A) (A) (A)
                 (A) (A) (A) (A) (A) (A) (A) (A) (A) (A) (A) (A)
                 (A) (A) (A) (A) (A) (A) (A) (A) (A) (A) (A) (A)
                 (A) (A) (A) (A) (A) (A) (A) (A) (A) (A) (A) (A)
                 (A) (A) (A) (A) (A) (A) (A) (A) (A) (A) (A) (A)
                 (A) (A) (A) (A) (A) (A) (A) (A) (A) (A) (A) (A)
                 (A) (A) (A) (A) (A) (A) (A) (A) (A) (A) (A) (A)
                 (A) (A) (A) (A) (A) (A) (A) (A) (A) (A) (A) (A)
                 (A) (A) (A) (A) (A) (A) (A) (A) (A) (A) (A) (A)
                 (A) (A) (A) (A) (A) (A) (A) (A) (A) (A) (A) (A)
                 (A) (A) (A) (A) (A) (A) (A) (A) (A) (A) (A) (A)
                 (A) (A) (A) (A) (A)
 The electronic state is 1-A.
 Alpha  occ. eigenvalues --  -24.84032 -24.84005 -24.83486 -24.83408 -24.83171
 Alpha  occ. eigenvalues --  -24.82798 -19.21519 -19.21512 -19.21356 -19.21110
 Alpha  occ. eigenvalues --  -19.20774 -19.20491 -19.16652 -14.46353 -14.46241
 Alpha  occ. eigenvalues --  -14.40708 -10.52311 -10.51675 -10.33431 -10.33285
 Alpha  occ. eigenvalues --  -10.32355 -10.32344 -10.31502 -10.30418 -10.30416
 Alpha  occ. eigenvalues --  -10.30389 -10.30209 -10.30174 -10.30066 -10.29771
 Alpha  occ. eigenvalues --  -10.29743 -10.29732 -10.29619 -10.29491 -10.29400
 Alpha  occ. eigenvalues --  -10.25662 -10.23846 -10.23748 -10.23495 -10.23385
 Alpha  occ. eigenvalues --  -10.23347 -10.23332 -10.23237 -10.23187 -10.23177
 Alpha  occ. eigenvalues --  -10.23091 -10.22999 -10.22928 -10.22868 -10.22866
 Alpha  occ. eigenvalues --  -10.22559 -10.22379 -10.22345 -10.21947  -6.81889
 Alpha  occ. eigenvalues --   -6.81792  -6.81354  -3.65362  -2.07747  -2.07047
 Alpha  occ. eigenvalues --   -2.06533  -1.36634  -1.36015  -1.28146  -1.27649
 Alpha  occ. eigenvalues --   -1.27525  -1.26982  -1.07481  -1.06927  -1.06617
 Alpha  occ. eigenvalues --   -1.02550  -1.01546  -1.00513  -1.00031  -0.99874
 Alpha  occ. eigenvalues --   -0.99070  -0.92065  -0.87256  -0.86334  -0.84744
 Alpha  occ. eigenvalues --   -0.81475  -0.81054  -0.80943  -0.80832  -0.80773
 Alpha  occ. eigenvalues --   -0.76426  -0.76274  -0.75872  -0.75238  -0.75223
 Alpha  occ. eigenvalues --   -0.73089  -0.71365  -0.70866  -0.70515  -0.70370
 Alpha  occ. eigenvalues --   -0.69849  -0.69614  -0.69334  -0.68517  -0.67939
 Alpha  occ. eigenvalues --   -0.67671  -0.66933  -0.65913  -0.65358  -0.62872
 Alpha  occ. eigenvalues --   -0.62686  -0.62649  -0.62211  -0.62012  -0.61832
 Alpha  occ. eigenvalues --   -0.61620  -0.61434  -0.60783  -0.59893  -0.57533
 Alpha  occ. eigenvalues --   -0.57409  -0.55911  -0.55484  -0.55331  -0.55124
 Alpha  occ. eigenvalues --   -0.55032  -0.54162  -0.53646  -0.52134  -0.51676
 Alpha  occ. eigenvalues --   -0.50577  -0.50207  -0.49842  -0.49715  -0.49291
 Alpha  occ. eigenvalues --   -0.49204  -0.49043  -0.48784  -0.48550  -0.48089
 Alpha  occ. eigenvalues --   -0.47882  -0.47491  -0.47242  -0.47174  -0.47082
 Alpha  occ. eigenvalues --   -0.46768  -0.46585  -0.46300  -0.46176  -0.46076
 Alpha  occ. eigenvalues --   -0.45667  -0.45507  -0.45328  -0.45058  -0.44846
 Alpha  occ. eigenvalues --   -0.44737  -0.44629  -0.44233  -0.44027  -0.43934
 Alpha  occ. eigenvalues --   -0.43798  -0.43538  -0.43330  -0.43294  -0.42914
 Alpha  occ. eigenvalues --   -0.42380  -0.42022  -0.40959  -0.40900  -0.40790
 Alpha  occ. eigenvalues --   -0.40625  -0.40500  -0.40465  -0.40398  -0.40317
 Alpha  occ. eigenvalues --   -0.40241  -0.40032  -0.39891  -0.39600  -0.39583
 Alpha  occ. eigenvalues --   -0.39431  -0.38850  -0.38669  -0.38534  -0.38440
 Alpha  occ. eigenvalues --   -0.38257  -0.38051  -0.37772  -0.37642  -0.37469
 Alpha  occ. eigenvalues --   -0.37338  -0.36886  -0.36679  -0.36669  -0.36523
 Alpha  occ. eigenvalues --   -0.36260  -0.36056  -0.35664  -0.35299  -0.35253
 Alpha  occ. eigenvalues --   -0.35000  -0.34705  -0.34313  -0.34213  -0.33888
 Alpha  occ. eigenvalues --   -0.33182  -0.33052  -0.32969  -0.32862  -0.32522
 Alpha  occ. eigenvalues --   -0.32307  -0.32231  -0.32028  -0.31743  -0.31532
 Alpha  occ. eigenvalues --   -0.31249  -0.30869  -0.30375  -0.28799  -0.28736
 Alpha  occ. eigenvalues --   -0.28152  -0.27826  -0.27473  -0.26736  -0.26601
 Alpha  occ. eigenvalues --   -0.26311  -0.24240  -0.24058  -0.22741  -0.19111
 Alpha virt. eigenvalues --   -0.08765  -0.05162  -0.04246  -0.00757   0.01586
 Alpha virt. eigenvalues --    0.03030   0.04706   0.05771   0.06181   0.06817
 Alpha virt. eigenvalues --    0.07040   0.07709   0.08467   0.09129   0.09395
 Alpha virt. eigenvalues --    0.10486   0.10703   0.10919   0.11065   0.11144
 Alpha virt. eigenvalues --    0.11307   0.11957   0.12042   0.12527   0.12612
 Alpha virt. eigenvalues --    0.12783   0.13256   0.13368   0.13814   0.14032
 Alpha virt. eigenvalues --    0.14213   0.14392   0.14450   0.14707   0.14821
 Alpha virt. eigenvalues --    0.15007   0.15067   0.15391   0.15632   0.15763
 Alpha virt. eigenvalues --    0.16030   0.16221   0.16396   0.16475   0.16600
 Alpha virt. eigenvalues --    0.16741   0.16956   0.17053   0.17497   0.18014
 Alpha virt. eigenvalues --    0.18109   0.18223   0.18315   0.18626   0.18751
 Alpha virt. eigenvalues --    0.18890   0.19061   0.19145   0.19409   0.19692
 Alpha virt. eigenvalues --    0.19900   0.20174   0.20325   0.20517   0.20585
 Alpha virt. eigenvalues --    0.20652   0.20877   0.21048   0.21206   0.21502
 Alpha virt. eigenvalues --    0.21624   0.21908   0.21982   0.22169   0.22310
 Alpha virt. eigenvalues --    0.22436   0.22821   0.22925   0.23038   0.23167
 Alpha virt. eigenvalues --    0.23411   0.23626   0.23741   0.23912   0.24022
 Alpha virt. eigenvalues --    0.24113   0.24444   0.24664   0.24921   0.25342
 Alpha virt. eigenvalues --    0.25449   0.25531   0.25791   0.26032   0.26300
 Alpha virt. eigenvalues --    0.26495   0.26809   0.27096   0.27185   0.27503
 Alpha virt. eigenvalues --    0.27686   0.27984   0.28719   0.29469   0.29788
 Alpha virt. eigenvalues --    0.30071   0.30425   0.30972   0.31186   0.32073
 Alpha virt. eigenvalues --    0.32172   0.32926   0.33332   0.33868   0.34269
 Alpha virt. eigenvalues --    0.34911   0.35463   0.36026   0.36128   0.36740
 Alpha virt. eigenvalues --    0.37074   0.37616   0.37671   0.38502   0.39189
 Alpha virt. eigenvalues --    0.39549   0.40637   0.41407   0.42545   0.42960
 Alpha virt. eigenvalues --    0.43849   0.45327   0.45947   0.47157   0.47574
 Alpha virt. eigenvalues --    0.47671   0.48090   0.48318   0.48739   0.49387
 Alpha virt. eigenvalues --    0.50041   0.50422   0.50709   0.50901   0.51017
 Alpha virt. eigenvalues --    0.51598   0.51623   0.51974   0.52125   0.52875
 Alpha virt. eigenvalues --    0.52968   0.53058   0.53299   0.53468   0.54537
 Alpha virt. eigenvalues --    0.54947   0.55182   0.55360   0.55925   0.56375
 Alpha virt. eigenvalues --    0.56515   0.56651   0.56814   0.56904   0.57174
 Alpha virt. eigenvalues --    0.57429   0.57721   0.57950   0.58087   0.59044
 Alpha virt. eigenvalues --    0.59073   0.59214   0.59389   0.59576   0.59779
 Alpha virt. eigenvalues --    0.60042   0.60408   0.60972   0.61292   0.61639
 Alpha virt. eigenvalues --    0.61877   0.62119   0.62344   0.62676   0.62941
 Alpha virt. eigenvalues --    0.63416   0.63989   0.64069   0.64502   0.64963
 Alpha virt. eigenvalues --    0.65072   0.65736   0.65885   0.66427   0.66719
 Alpha virt. eigenvalues --    0.66727   0.67261   0.67613   0.67857   0.68003
 Alpha virt. eigenvalues --    0.68321   0.68623   0.68787   0.69704   0.70156
 Alpha virt. eigenvalues --    0.70226   0.70303   0.70819   0.71282   0.71587
 Alpha virt. eigenvalues --    0.71606   0.72250   0.72496   0.72713   0.72895
 Alpha virt. eigenvalues --    0.73272   0.73517   0.73821   0.74283   0.74442
 Alpha virt. eigenvalues --    0.74652   0.75279   0.75589   0.75788   0.76015
 Alpha virt. eigenvalues --    0.76242   0.76738   0.77571   0.77763   0.78379
 Alpha virt. eigenvalues --    0.78518   0.78892   0.79023   0.79526   0.79876
 Alpha virt. eigenvalues --    0.80010   0.80692   0.81220   0.81625   0.81869
 Alpha virt. eigenvalues --    0.82443   0.82731   0.83245   0.83552   0.83671
 Alpha virt. eigenvalues --    0.83910   0.84063   0.84174   0.84437   0.84613
 Alpha virt. eigenvalues --    0.84727   0.85014   0.85445   0.85739   0.85949
 Alpha virt. eigenvalues --    0.86166   0.86452   0.86836   0.87093   0.87271
 Alpha virt. eigenvalues --    0.87433   0.87623   0.87927   0.88128   0.88378
 Alpha virt. eigenvalues --    0.88645   0.88826   0.88955   0.89116   0.89669
 Alpha virt. eigenvalues --    0.89774   0.89887   0.90248   0.90410   0.90744
 Alpha virt. eigenvalues --    0.90864   0.91242   0.91315   0.91365   0.91886
 Alpha virt. eigenvalues --    0.92175   0.92283   0.92681   0.92966   0.93447
 Alpha virt. eigenvalues --    0.93597   0.94038   0.94172   0.94341   0.94887
 Alpha virt. eigenvalues --    0.95088   0.95336   0.95385   0.95612   0.95768
 Alpha virt. eigenvalues --    0.96368   0.96866   0.97205   0.97496   0.97660
 Alpha virt. eigenvalues --    0.98029   0.98361   0.98765   0.99401   0.99615
 Alpha virt. eigenvalues --    0.99968   1.00209   1.00387   1.00755   1.01436
 Alpha virt. eigenvalues --    1.01715   1.02245   1.02869   1.03556   1.04202
 Alpha virt. eigenvalues --    1.04675   1.05234   1.06030   1.06371   1.07159
 Alpha virt. eigenvalues --    1.07413   1.07556   1.08459   1.09052   1.09754
 Alpha virt. eigenvalues --    1.10012   1.10943   1.11158   1.11459   1.11671
 Alpha virt. eigenvalues --    1.12286   1.13769   1.13832   1.14059   1.14557
 Alpha virt. eigenvalues --    1.15167   1.15481   1.16251   1.16320   1.16759
 Alpha virt. eigenvalues --    1.17135   1.17324   1.17736   1.17796   1.18696
 Alpha virt. eigenvalues --    1.19726   1.19938   1.20574   1.20612   1.20948
 Alpha virt. eigenvalues --    1.21351   1.21468   1.22125   1.22542   1.22744
 Alpha virt. eigenvalues --    1.23548   1.24186   1.24601   1.24917   1.25321
 Alpha virt. eigenvalues --    1.25606   1.26594   1.26949   1.27552   1.28445
 Alpha virt. eigenvalues --    1.28735   1.29465   1.30421   1.30594   1.31389
 Alpha virt. eigenvalues --    1.31586   1.33170   1.33666   1.34059   1.34630
 Alpha virt. eigenvalues --    1.35166   1.35358   1.35726   1.36213   1.36518
 Alpha virt. eigenvalues --    1.37406   1.37593   1.37907   1.38396   1.38784
 Alpha virt. eigenvalues --    1.39016   1.39302   1.39690   1.40234   1.40357
 Alpha virt. eigenvalues --    1.40624   1.41181   1.41938   1.42292   1.42666
 Alpha virt. eigenvalues --    1.42735   1.43169   1.43859   1.44195   1.44615
 Alpha virt. eigenvalues --    1.44779   1.45315   1.45667   1.45884   1.46318
 Alpha virt. eigenvalues --    1.46687   1.47169   1.47315   1.47869   1.48023
 Alpha virt. eigenvalues --    1.48207   1.49257   1.50461   1.51023   1.51836
 Alpha virt. eigenvalues --    1.52855   1.53129   1.54208   1.54303   1.55091
 Alpha virt. eigenvalues --    1.55329   1.55968   1.56641   1.58688   1.59768
 Alpha virt. eigenvalues --    1.60218   1.60478   1.62002   1.63195   1.63353
 Alpha virt. eigenvalues --    1.63801   1.64378   1.64426   1.65394   1.65494
 Alpha virt. eigenvalues --    1.66427   1.66661   1.67105   1.67844   1.68144
 Alpha virt. eigenvalues --    1.68575   1.69089   1.69345   1.69559   1.70284
 Alpha virt. eigenvalues --    1.70815   1.71541   1.72119   1.72764   1.73139
 Alpha virt. eigenvalues --    1.73264   1.73893   1.74718   1.74978   1.75424
 Alpha virt. eigenvalues --    1.75618   1.75797   1.76694   1.77113   1.77453
 Alpha virt. eigenvalues --    1.78228   1.78360   1.78745   1.78930   1.79369
 Alpha virt. eigenvalues --    1.80197   1.80234   1.81148   1.81400   1.82057
 Alpha virt. eigenvalues --    1.82567   1.82712   1.83527   1.83989   1.84180
 Alpha virt. eigenvalues --    1.84398   1.84896   1.85624   1.85922   1.86104
 Alpha virt. eigenvalues --    1.86817   1.87219   1.87450   1.87577   1.88175
 Alpha virt. eigenvalues --    1.88406   1.88734   1.89318   1.89637   1.89807
 Alpha virt. eigenvalues --    1.90064   1.90278   1.90674   1.90824   1.91217
 Alpha virt. eigenvalues --    1.91263   1.91664   1.91904   1.92196   1.92226
 Alpha virt. eigenvalues --    1.92573   1.93043   1.93353   1.93513   1.93763
 Alpha virt. eigenvalues --    1.94033   1.94649   1.94725   1.95401   1.95971
 Alpha virt. eigenvalues --    1.96398   1.97041   1.97610   1.97854   1.98443
 Alpha virt. eigenvalues --    1.98574   1.98986   1.99293   2.00146   2.00386
 Alpha virt. eigenvalues --    2.01213   2.01555   2.01885   2.02217   2.02508
 Alpha virt. eigenvalues --    2.02532   2.02826   2.03041   2.03172   2.03310
 Alpha virt. eigenvalues --    2.04013   2.04120   2.04829   2.05362   2.05751
 Alpha virt. eigenvalues --    2.06136   2.06617   2.06904   2.07235   2.07741
 Alpha virt. eigenvalues --    2.07881   2.08235   2.08405   2.08795   2.08934
 Alpha virt. eigenvalues --    2.09122   2.09422   2.09603   2.10159   2.10504
 Alpha virt. eigenvalues --    2.11145   2.11472   2.11692   2.11776   2.12508
 Alpha virt. eigenvalues --    2.12708   2.13427   2.13652   2.14259   2.14503
 Alpha virt. eigenvalues --    2.14784   2.14989   2.15363   2.16016   2.16128
 Alpha virt. eigenvalues --    2.16342   2.16765   2.16951   2.17159   2.17803
 Alpha virt. eigenvalues --    2.18181   2.18551   2.18964   2.19492   2.19604
 Alpha virt. eigenvalues --    2.19784   2.20232   2.20458   2.20861   2.21285
 Alpha virt. eigenvalues --    2.21728   2.22419   2.22538   2.23110   2.23447
 Alpha virt. eigenvalues --    2.23844   2.24281   2.24596   2.24878   2.25008
 Alpha virt. eigenvalues --    2.25099   2.25448   2.25652   2.26127   2.26857
 Alpha virt. eigenvalues --    2.27397   2.27653   2.27732   2.28469   2.28715
 Alpha virt. eigenvalues --    2.29488   2.29722   2.30392   2.31719   2.32592
 Alpha virt. eigenvalues --    2.32774   2.33341   2.33447   2.33730   2.34115
 Alpha virt. eigenvalues --    2.34412   2.35090   2.36132   2.36735   2.37051
 Alpha virt. eigenvalues --    2.38340   2.38406   2.38783   2.39408   2.40055
 Alpha virt. eigenvalues --    2.40428   2.41876   2.42010   2.42412   2.44519
 Alpha virt. eigenvalues --    2.44886   2.45941   2.46261   2.47119   2.47195
 Alpha virt. eigenvalues --    2.47746   2.48945   2.49699   2.49895   2.50691
 Alpha virt. eigenvalues --    2.51503   2.52067   2.53878   2.54145   2.54921
 Alpha virt. eigenvalues --    2.56045   2.57071   2.59267   2.59664   2.60494
 Alpha virt. eigenvalues --    2.60859   2.61150   2.61934   2.62632   2.63544
 Alpha virt. eigenvalues --    2.64238   2.64488   2.65350   2.65750   2.66105
 Alpha virt. eigenvalues --    2.66991   2.68208   2.68934   2.69373   2.70498
 Alpha virt. eigenvalues --    2.75360   2.75979   2.76257   2.76541   2.77151
 Alpha virt. eigenvalues --    2.77509   2.77686   2.77832   2.78019   2.78535
 Alpha virt. eigenvalues --    2.79036   2.80213   2.80370   2.80759   2.81048
 Alpha virt. eigenvalues --    2.81556   2.81682   2.82541   2.83841   2.84710
 Alpha virt. eigenvalues --    2.86256   2.87117   2.89505   2.91300   2.91844
 Alpha virt. eigenvalues --    2.91942   2.93431   2.94172   2.94588   2.95706
 Alpha virt. eigenvalues --    2.96313   2.98228   3.00565   3.03335   3.03739
 Alpha virt. eigenvalues --    3.05673   3.06553   3.07137   3.07364   3.07962
 Alpha virt. eigenvalues --    3.08741   3.10013   3.11376   3.11862   3.12608
 Alpha virt. eigenvalues --    3.13442   3.14178   3.14750   3.22475   3.26760
 Alpha virt. eigenvalues --    3.32081   3.45463  13.01087
          Condensed to atoms (all electrons):
 Mulliken charges:
               1
     1  C    0.377032
     2  C    0.015994
     3  C   -0.048561
     4  C   -0.154643
     5  C   -0.164132
     6  C    0.324274
     7  C    0.077340
     8  C   -0.085767
     9  C   -0.152101
    10  C   -0.187860
    11  H    0.219752
    12  H    0.202911
    13  H    0.181257
    14  H    0.229405
    15  H    0.201316
    16  H    0.180738
    17  N   -0.502528
    18  N   -0.534350
    19  Ir  -0.158233
    20  O   -0.514685
    21  O   -0.497393
    22  O   -0.502179
    23  B    0.473696
    24  B    0.431522
    25  B    0.544718
    26  O   -0.500129
    27  O   -0.511451
    28  C    0.295425
    29  C    0.284844
    30  C    0.286357
    31  C    0.291008
    32  C    0.279312
    33  C    0.290432
    34  O   -0.531281
    35  C   -0.509401
    36  H    0.160093
    37  H    0.153813
    38  H    0.174974
    39  C   -0.492317
    40  H    0.145751
    41  H    0.154766
    42  H    0.179581
    43  C   -0.519236
    44  H    0.155784
    45  H    0.151100
    46  H    0.182615
    47  C   -0.507309
    48  H    0.173762
    49  H    0.165897
    50  H    0.151816
    51  C   -0.502632
    52  H    0.175375
    53  H    0.143118
    54  H    0.178853
    55  C   -0.504298
    56  H    0.162177
    57  H    0.150254
    58  H    0.173398
    59  C   -0.505079
    60  H    0.170030
    61  H    0.163423
    62  H    0.155664
    63  C   -0.509929
    64  H    0.177643
    65  H    0.173513
    66  H    0.154332
    67  C   -0.505543
    68  H    0.155036
    69  H    0.167321
    70  H    0.159553
    71  C   -0.501662
    72  H    0.152758
    73  H    0.166083
    74  H    0.175500
    75  C   -0.509896
    76  H    0.152298
    77  H    0.178182
    78  H    0.169715
    79  C   -0.491207
    80  H    0.156335
    81  H    0.135678
    82  H    0.185619
    83  H    0.171832
    84  C    0.575675
    85  O   -0.541592
    86  C   -0.408387
    87  H    0.171621
    88  H    0.152020
    89  C   -0.333446
    90  H    0.135037
    91  H    0.182357
    92  N   -0.362827
    93  C   -0.362514
    94  H    0.162763
    95  H    0.210148
    96  H    0.172738
    97  C   -0.256392
    98  H    0.119552
    99  H    0.164703
   100  C   -0.276237
   101  H    0.136383
   102  H    0.136362
   103  C   -0.279994
   104  H    0.142769
   105  H    0.147451
   106  C   -0.497696
   107  H    0.162051
   108  H    0.158059
   109  H    0.159189
   110  C    0.970275
   111  F   -0.308519
   112  F   -0.305786
   113  F   -0.302309
   114  C    0.968087
   115  F   -0.303872
   116  F   -0.308724
   117  F   -0.316121
 Sum of Mulliken charges =  -0.00000
 Mulliken charges with hydrogens summed into heavy atoms:
               1
     1  C    0.377032
     2  C    0.235746
     3  C   -0.048561
     4  C    0.048268
     5  C    0.017125
     6  C    0.324274
     7  C    0.306746
     8  C   -0.085767
     9  C    0.049216
    10  C   -0.007121
    17  N   -0.502528
    18  N   -0.534350
    19  Ir   0.013599
    20  O   -0.514685
    21  O   -0.497393
    22  O   -0.502179
    23  B    0.473696
    24  B    0.431522
    25  B    0.544718
    26  O   -0.500129
    27  O   -0.511451
    28  C    0.295425
    29  C    0.284844
    30  C    0.286357
    31  C    0.291008
    32  C    0.279312
    33  C    0.290432
    34  O   -0.531281
    35  C   -0.020521
    39  C   -0.012218
    43  C   -0.029737
    47  C   -0.015834
    51  C   -0.005286
    55  C   -0.018469
    59  C   -0.015963
    63  C   -0.004441
    67  C   -0.023634
    71  C   -0.007322
    75  C   -0.009701
    79  C   -0.013575
    84  C    0.575675
    85  O   -0.541592
    86  C   -0.084746
    89  C   -0.016052
    92  N   -0.362827
    93  C    0.183135
    97  C    0.027863
   100  C   -0.003491
   103  C    0.010225
   106  C   -0.018397
   110  C    0.970275
   111  F   -0.308519
   112  F   -0.305786
   113  F   -0.302309
   114  C    0.968087
   115  F   -0.303872
   116  F   -0.308724
   117  F   -0.316121
 APT charges:
               1
     1  C    0.207233
     2  C    0.065384
     3  C   -0.204566
     4  C    0.100427
     5  C   -0.155261
     6  C    0.207592
     7  C    0.047223
     8  C   -0.180222
     9  C    0.085028
    10  C   -0.189060
    11  H    0.083351
    12  H    0.068683
    13  H    0.045953
    14  H    0.132303
    15  H    0.064939
    16  H    0.046657
    17  N   -0.163755
    18  N   -0.040053
    19  Ir  -0.940226
    20  O   -1.005653
    21  O   -0.974724
    22  O   -0.919474
    23  B    1.361960
    24  B    1.323593
    25  B    1.151399
    26  O   -0.878006
    27  O   -0.951161
    28  C    0.499296
    29  C    0.493440
    30  C    0.460590
    31  C    0.467514
    32  C    0.502844
    33  C    0.502190
    34  O   -1.019121
    35  C   -0.004971
    36  H   -0.007681
    37  H   -0.018219
    38  H    0.006016
    39  C   -0.025201
    40  H   -0.027266
    41  H    0.000909
    42  H    0.008846
    43  C   -0.061229
    44  H    0.003816
    45  H   -0.020723
    46  H    0.040303
    47  C   -0.004962
    48  H    0.003257
    49  H   -0.002261
    50  H   -0.016123
    51  C   -0.035887
    52  H    0.004558
    53  H   -0.026337
    54  H    0.027667
    55  C   -0.009126
    56  H    0.000249
    57  H   -0.016149
    58  H    0.002482
    59  C   -0.009298
    60  H    0.005707
    61  H   -0.001553
    62  H   -0.019322
    63  C   -0.046096
    64  H    0.012480
    65  H    0.005413
    66  H   -0.020610
    67  C   -0.012473
    68  H   -0.008384
    69  H    0.002644
    70  H   -0.003728
    71  C   -0.020826
    72  H   -0.022092
    73  H    0.000235
    74  H    0.002481
    75  C   -0.001626
    76  H   -0.015732
    77  H    0.004920
    78  H    0.004346
    79  C   -0.018868
    80  H   -0.012711
    81  H   -0.023822
    82  H    0.010680
    83  H   -0.000564
    84  C    0.897271
    85  O   -0.708020
    86  C   -0.022360
    87  H   -0.024089
    88  H   -0.007908
    89  C    0.372685
    90  H   -0.088077
    91  H   -0.031156
    92  N   -0.802715
    93  C    0.264079
    94  H   -0.029728
    95  H    0.048105
    96  H   -0.029044
    97  C    0.105975
    98  H   -0.037067
    99  H   -0.021590
   100  C    0.106084
   101  H   -0.056563
   102  H   -0.038642
   103  C    0.115387
   104  H   -0.045930
   105  H   -0.049923
   106  C    0.064836
   107  H   -0.042651
   108  H   -0.022651
   109  H   -0.017638
   110  C    1.776341
   111  F   -0.582057
   112  F   -0.517466
   113  F   -0.591930
   114  C    1.802987
   115  F   -0.593196
   116  F   -0.524958
   117  F   -0.597878
 Sum of APT charges =   0.00000
 APT charges with hydrogens summed into heavy atoms:
               1
     1  C    0.207233
     2  C    0.148734
     3  C   -0.204566
     4  C    0.169111
     5  C   -0.109308
     6  C    0.207592
     7  C    0.179527
     8  C   -0.180222
     9  C    0.149967
    10  C   -0.142403
    17  N   -0.163755
    18  N   -0.040053
    19  Ir  -0.940790
    20  O   -1.005653
    21  O   -0.974724
    22  O   -0.919474
    23  B    1.361960
    24  B    1.323593
    25  B    1.151399
    26  O   -0.878006
    27  O   -0.951161
    28  C    0.499296
    29  C    0.493440
    30  C    0.460590
    31  C    0.467514
    32  C    0.502844
    33  C    0.502190
    34  O   -1.019121
    35  C   -0.024855
    39  C   -0.042713
    43  C   -0.037833
    47  C   -0.020089
    51  C   -0.029999
    55  C   -0.022543
    59  C   -0.024465
    63  C   -0.048813
    67  C   -0.021941
    71  C   -0.040202
    75  C   -0.008093
    79  C   -0.044721
    84  C    0.897271
    85  O   -0.708020
    86  C   -0.054357
    89  C    0.253451
    92  N   -0.802715
    93  C    0.253412
    97  C    0.047318
   100  C    0.010879
   103  C    0.019534
   106  C   -0.018104
   110  C    1.776341
   111  F   -0.582057
   112  F   -0.517466
   113  F   -0.591930
   114  C    1.802987
   115  F   -0.593196
   116  F   -0.524958
   117  F   -0.597878
 Electronic spatial extent (au):  <R**2>=          38652.2575
 Charge=              0.0000 electrons
 Dipole moment (field-independent basis, Debye):
    X=             -0.0812    Y=              2.2935    Z=              2.8239  Tot=              3.6389
 Quadrupole moment (field-independent basis, Debye-Ang):
   XX=           -353.6445   YY=           -347.6373   ZZ=           -339.2392
   XY=              6.2932   XZ=             10.4547   YZ=              9.8346
 Traceless Quadrupole moment (field-independent basis, Debye-Ang):
   XX=             -6.8042   YY=             -0.7969   ZZ=              7.6011
   XY=              6.2932   XZ=             10.4547   YZ=              9.8346
 Octapole moment (field-independent basis, Debye-Ang**2):
  XXX=           -127.0149  YYY=             34.6022  ZZZ=            112.2556  XYY=            -41.7329
  XXY=              9.1616  XXZ=            -33.1164  XZZ=             34.7098  YZZ=            -16.2059
  YYZ=            -51.1913  XYZ=              7.0723
 Hexadecapole moment (field-independent basis, Debye-Ang**3):
 XXXX=         -28207.0033 YYYY=         -12268.5824 ZZZZ=          -8553.4342 XXXY=            174.8353
 XXXZ=             88.9881 YYYX=            382.6012 YYYZ=            -52.1862 ZZZX=            -82.4933
 ZZZY=            -92.6420 XXYY=          -6667.4232 XXZZ=          -6147.4882 YYZZ=          -3608.0163
 XXYZ=            121.7238 YYXZ=            -73.3127 ZZXY=            152.4417
 N-N= 1.050970840583D+04 E-N=-2.789756548066D+04  KE= 2.862568464316D+03
  Exact polarizability:     613.817      17.703     462.880      10.391      -0.512     497.078
 Approx polarizability:     816.215      46.234     647.928       5.683     -13.438     805.357
   1 Symmetry operations used in ECPInt.
 ECPInt:  NShTT=   62835 NPrTT=  387974 LenC2=   44675 LenP2D=  136648.
 LDataN:  DoStor=T MaxTD1= 8 Len=  415
 Calling FoFJK, ICntrl=    100127 FMM=F ISym2X=0 I1Cent= 0 IOpClX= 0 NMat=1 NMatS=1 NMatT=0.
 Defaulting to unpruned grid for atomic number  77.
 Defaulting to unpruned grid for atomic number  77.
 Defaulting to unpruned grid for atomic number  77.
 Defaulting to unpruned grid for atomic number  77.
 Defaulting to unpruned grid for atomic number  77.
 Defaulting to unpruned grid for atomic number  77.
 Defaulting to unpruned grid for atomic number  77.
 Defaulting to unpruned grid for atomic number  77.
 Defaulting to unpruned grid for atomic number  77.
 Defaulting to unpruned grid for atomic number  77.
 Defaulting to unpruned grid for atomic number  77.
 Defaulting to unpruned grid for atomic number  77.
 Defaulting to unpruned grid for atomic number  77.
 Defaulting to unpruned grid for atomic number  77.
 Defaulting to unpruned grid for atomic number  77.
 Defaulting to unpruned grid for atomic number  77.
 Full mass-weighted force constant matrix:
 Low frequencies ---   -4.2920   -1.3282   -0.0010    0.0008    0.0009    4.5113
 Low frequencies ---   17.5541   23.4293   28.3504
 Diagonal vibrational polarizability:
      107.6426261     124.1902712      50.0312213
 Harmonic frequencies (cm**-1), IR intensities (KM/Mole), Raman scattering
 activities (A**4/AMU), depolarization ratios for plane and unpolarized
 incident light, reduced masses (AMU), force constants (mDyne/A),
 and normal coordinates:
                      1                      2                      3
                      A                      A                      A
 Frequencies --     17.2132                23.3941                28.0738
 Red. masses --      5.1374                 4.8758                 4.9553
 Frc consts  --      0.0009                 0.0016                 0.0023
 IR Inten    --      0.1573                 0.1242                 0.8952
  Atom AN      X      Y      Z        X      Y      Z        X      Y      Z
     1   6     0.01   0.01  -0.02     0.02   0.00  -0.04    -0.03   0.10  -0.01
     2   6    -0.00   0.02  -0.02     0.00  -0.00  -0.05     0.00  -0.02  -0.03
     3   6     0.00   0.01  -0.03     0.01  -0.01  -0.06    -0.02   0.06  -0.03
     4   6     0.01   0.01  -0.03     0.02  -0.00  -0.06    -0.05   0.19  -0.02
     5   6     0.01   0.01  -0.02     0.02   0.00  -0.05    -0.05   0.20  -0.01
     6   6     0.02  -0.01  -0.01     0.02   0.01  -0.03    -0.02   0.09  -0.01
     7   6     0.02  -0.02  -0.01     0.01   0.01  -0.01     0.02  -0.03  -0.01
     8   6     0.04  -0.05  -0.01     0.02   0.03  -0.00     0.01   0.02  -0.00
     9   6     0.04  -0.06  -0.01     0.03   0.04  -0.01    -0.01   0.11   0.00
    10   6     0.03  -0.03  -0.02     0.03   0.02  -0.03    -0.03   0.15  -0.00
    11   1    -0.01   0.02  -0.02    -0.01  -0.00  -0.05     0.02  -0.10  -0.03
    12   1     0.02   0.00  -0.03     0.02  -0.00  -0.07    -0.07   0.26  -0.02
    13   1     0.02   0.00  -0.02     0.03   0.00  -0.05    -0.08   0.30  -0.01
    14   1     0.01  -0.01  -0.00     0.01   0.01   0.00     0.04  -0.10  -0.01
    15   1     0.06  -0.08  -0.01     0.03   0.06  -0.01    -0.02   0.15   0.01
    16   1     0.04  -0.04  -0.02     0.03   0.03  -0.03    -0.04   0.21   0.00
    17   7     0.00   0.02  -0.02     0.00  -0.00  -0.04     0.00   0.00  -0.02
    18   7     0.01   0.00  -0.01     0.01  -0.00  -0.02    -0.00   0.01  -0.01
    19  77    -0.00   0.02  -0.01    -0.01   0.00  -0.03    -0.00  -0.03  -0.02
    20   8    -0.03   0.02   0.03    -0.00   0.01  -0.03     0.00   0.01   0.00
    21   8    -0.01   0.04  -0.02    -0.02  -0.01  -0.01    -0.02  -0.01  -0.02
    22   8    -0.04   0.01  -0.04    -0.03   0.05   0.07     0.05  -0.02  -0.00
    23   5    -0.01   0.02  -0.01    -0.01  -0.01  -0.01    -0.01  -0.02  -0.01
    24   5    -0.01   0.02   0.02    -0.01  -0.01  -0.02     0.01  -0.01  -0.00
    25   5    -0.01   0.02  -0.03    -0.03   0.01   0.04     0.00  -0.03  -0.01
    26   8     0.02   0.03  -0.05    -0.03  -0.03   0.06    -0.03  -0.04   0.01
    27   8     0.01   0.01   0.03    -0.03  -0.03  -0.02     0.02  -0.01   0.00
    28   6    -0.00  -0.00   0.06    -0.02  -0.02  -0.03     0.02   0.00   0.02
    29   6    -0.03   0.00   0.06     0.00   0.01  -0.03     0.01   0.02   0.02
    30   6    -0.03   0.01  -0.07    -0.03   0.03   0.10     0.07  -0.04   0.03
    31   6     0.01   0.03  -0.07    -0.02  -0.02   0.11     0.03  -0.05   0.03
    32   6    -0.01   0.04  -0.02    -0.01  -0.04   0.02    -0.04   0.02  -0.02
    33   6    -0.00   0.02  -0.02     0.01  -0.04   0.03    -0.03  -0.00  -0.03
    34   8     0.00   0.01  -0.01    -0.00  -0.01   0.01    -0.01  -0.02  -0.01
    35   6    -0.04  -0.00   0.08     0.01   0.05  -0.06     0.00   0.05   0.02
    36   1    -0.03  -0.01   0.07    -0.01   0.05  -0.08    -0.02   0.06   0.01
    37   1    -0.04  -0.02   0.10     0.01   0.06  -0.07     0.02   0.07   0.03
    38   1    -0.07   0.01   0.08     0.04   0.06  -0.05    -0.00   0.06   0.02
    39   6    -0.05   0.01   0.06     0.02   0.02   0.02     0.04   0.02   0.03
    40   1    -0.05   0.00   0.07     0.02   0.02   0.02     0.05   0.03   0.05
    41   1    -0.04   0.01   0.04     0.01   0.00   0.05     0.05  -0.00   0.03
    42   1    -0.07   0.01   0.05     0.04   0.04   0.02     0.03   0.03   0.03
    43   6     0.01  -0.01   0.07    -0.03  -0.03  -0.07     0.02   0.00   0.00
    44   1     0.04  -0.02   0.07    -0.05  -0.05  -0.08     0.03  -0.01   0.00
    45   1     0.01  -0.02   0.09    -0.03  -0.02  -0.09     0.02   0.01   0.01
    46   1     0.01  -0.01   0.06    -0.02  -0.02  -0.09     0.01   0.01  -0.01
    47   6    -0.00  -0.01   0.07    -0.03  -0.04  -0.01     0.03  -0.00   0.03
    48   1     0.02  -0.01   0.07    -0.05  -0.06  -0.02     0.03  -0.02   0.03
    49   1    -0.01  -0.00   0.07    -0.03  -0.04   0.02     0.04  -0.00   0.04
    50   1    -0.01  -0.02   0.09    -0.03  -0.03  -0.02     0.03   0.01   0.04
    51   6    -0.02   0.06  -0.00    -0.04  -0.06   0.03    -0.03   0.05   0.01
    52   1    -0.03   0.07  -0.00    -0.06  -0.05   0.02    -0.04   0.07   0.01
    53   1    -0.02   0.06  -0.00    -0.04  -0.08   0.04    -0.04   0.07   0.00
    54   1    -0.02   0.05   0.01    -0.05  -0.06   0.02    -0.02   0.04   0.03
    55   6    -0.02   0.06  -0.04    -0.01  -0.04   0.02    -0.07   0.03  -0.06
    56   1    -0.01   0.05  -0.06     0.01  -0.01   0.01    -0.07   0.00  -0.08
    57   1    -0.02   0.06  -0.04     0.00  -0.05   0.04    -0.08   0.05  -0.06
    58   1    -0.03   0.07  -0.04    -0.03  -0.04   0.01    -0.07   0.04  -0.06
    59   6    -0.00   0.02  -0.01     0.01  -0.07   0.05    -0.02   0.00  -0.01
    60   1     0.00   0.00  -0.01     0.03  -0.06   0.06    -0.02  -0.01  -0.01
    61   1    -0.00   0.03   0.01    -0.02  -0.09   0.03    -0.02   0.01   0.01
    62   1    -0.01   0.03  -0.02     0.03  -0.10   0.07    -0.03   0.02  -0.02
    63   6     0.00   0.02  -0.05     0.05  -0.02   0.04    -0.03  -0.02  -0.06
    64   1     0.00   0.02  -0.05     0.05   0.01   0.03    -0.03  -0.02  -0.08
    65   1     0.01  -0.00  -0.05     0.06  -0.01   0.04    -0.01  -0.03  -0.05
    66   1    -0.00   0.02  -0.06     0.06  -0.03   0.05    -0.04  -0.00  -0.06
    67   6     0.02   0.04  -0.10    -0.01  -0.06   0.11     0.04  -0.11   0.07
    68   1     0.00   0.04  -0.12    -0.01  -0.05   0.17     0.10  -0.12   0.09
    69   1     0.04   0.06  -0.10     0.01  -0.13   0.11     0.01  -0.14   0.06
    70   1     0.02   0.05  -0.12    -0.01  -0.05   0.07     0.02  -0.15   0.08
    71   6     0.02   0.03  -0.05    -0.01  -0.03   0.14     0.05  -0.01   0.01
    72   1     0.00   0.02  -0.06    -0.01  -0.03   0.18     0.09  -0.01   0.02
    73   1     0.01   0.01  -0.02    -0.02  -0.02   0.14     0.05   0.03  -0.01
    74   1     0.04   0.04  -0.04     0.00  -0.07   0.14     0.02  -0.01   0.01
    75   6    -0.05   0.00  -0.07    -0.04   0.06   0.15     0.11  -0.02   0.03
    76   1    -0.04   0.01  -0.09    -0.03   0.05   0.18     0.12  -0.03   0.05
    77   1    -0.07  -0.01  -0.07    -0.05   0.10   0.15     0.13  -0.00   0.03
    78   1    -0.04   0.00  -0.05    -0.03   0.05   0.17     0.10  -0.00   0.00
    79   6    -0.04   0.01  -0.10    -0.04   0.06   0.08     0.08  -0.06   0.06
    80   1    -0.04   0.01  -0.13    -0.03   0.04   0.12     0.10  -0.08   0.09
    81   1    -0.03   0.02  -0.09    -0.04   0.03   0.04     0.04  -0.08   0.04
    82   1    -0.07  -0.01  -0.09    -0.05   0.10   0.07     0.10  -0.03   0.05
    83   1    -0.01   0.02  -0.01    -0.02   0.02  -0.03    -0.00  -0.05  -0.02
    84   6    -0.01   0.00   0.04     0.01   0.01  -0.01    -0.03  -0.01   0.03
    85   8    -0.05   0.01   0.04    -0.02  -0.01  -0.01    -0.03   0.04   0.03
    86   6     0.00  -0.03   0.08     0.02  -0.01   0.02    -0.03   0.00   0.03
    87   1     0.00  -0.05   0.10     0.02  -0.02   0.02    -0.01   0.00   0.03
    88   1     0.03  -0.05   0.06     0.05  -0.02   0.01    -0.04   0.00   0.03
    89   6    -0.01   0.02  -0.02     0.01   0.01  -0.06    -0.03  -0.03   0.03
[...]
 03179,-0.00001253,-0.00001719,-0.00000572,-0.00014399,-0.00007809,0.00
 016198,-0.00015270,-0.00004462,0.00030346,0.00090492,0.00069668,-0.000
 46827,-0.00000267,-0.00005405,0.00000210,0.00001949,0.00003552,0.00002
 599,0.00000065,0.00000344,0.00000999,0.00001208,0.00001344,-0.00001218
 ,0.00002763,-0.00001195,-0.00005002,-0.00001127,0.00000788,-0.00000135
 ,0.00001172,0.00001515,0.00001183,0.00000152,0.00001757,-0.00001141,0.
 00022718,0.00041176,-0.00003298,0.00009758,0.00012940,-0.00045795,-0.0
 0002139,0.00007825,-0.00005039,-0.00005370,-0.00026036,0.00045633,0.00
 012702,0.00009621,-0.00013778,-0.00002564,-0.00001319,0.00002119,0.000
 00194,0.00007990,0.00002861,0.00000701,-0.00001608,0.00001648,0.000054
 74,0.00001801,-0.00005450,0.00001688,0.00001378,-0.00004320,0.00000914
 ,0.00000390,0.00003436,-0.00001613,-0.00003343,0.00001218,0.00002781,0
 .00004116,-0.00004907,-0.00002022,-0.00000687,0.00002487,0.00000434,0.
 00001134,0.00002788,0.00001404,0.00000258,-0.00004584,-0.00003469,-0.0
 0007362,0.00024307,0.00018982,-0.00002360,-0.00044628,0.00000629,0.000
 02244,-0.00000187,0.00002564,-0.00002706,-0.00009115,0.00001335,0.0001
 7913,-0.00001917,0.00004023,-0.00000820,0.00001055,0.00021675,-0.00033
 844,-0.00098529,-0.00003994,-0.00002247,-0.00001348,-0.00000064,-0.000
 00211,-0.00000822,0.00000317,-0.00000087,0.00000099,0.00000120,0.00000
 365,0.00001427,0.00000249,0.00000143,-0.00000282,-0.00001718,0.0000057
 9,-0.00002956,-0.00000066,0.00000377,0.00000375,0.00000666,-0.00000140
 ,-0.00000325,0.00001038,0.00000334,0.00001701,-0.00000102,0.00001127,0
 .00000769,0.00000810,0.00000795,-0.00000094,-0.00000497,-0.00000398,0.
 00000732,-0.00000107,-0.00001141,-0.00000804,0.00000511,0.00001152,0.0
 0000404,0.00000721,0.00000591,-0.00000186,0.00000080,-0.00000605,-0.00
 000334,-0.00000316,-0.00000407,0.00000834,-0.00004440,-0.00002043,0.00
 003806,-0.00012286,0.00000086,-0.00020662,0.00004391,0.00005525,0.0001
 6275,0.00000965,-0.00001582,0.00000446,0.00000197,0.00000781,0.0000030
 5,0.00000085,-0.00000590,-0.00000602,0.00002807,-0.00017079,-0.0001461
 4,-0.00001266,0.00011218,0.00006778,-0.00003517,0.00001249,-0.00002572
 ,0.00011234,0.00005102,0.00008812,-0.00001597,-0.00002929,-0.00003804,
 -0.00000138,-0.00000135,0.00000239,-0.00001228,0.00000777,0.00001104,0
 .00000427,0.00000671,0.00000686,-0.00000271,-0.00001002,-0.00002216,0.
 00000340,0.00001136,0.00001082,-0.00000146,0.00000025,0.00000202,0.000
 00259,-0.00000180,0.00000890,-0.00000335,0.00000527,0.00000395,0.00000
 123,-0.00000133,-0.00000262,0.00000146,-0.00000298,-0.00000911,0.00000
 056,0.00000533,0.00000389,-0.00000007,-0.00000205,0.00000005,0.0000018
 6,-0.00000020,0.00000224,0.00000391,-0.00000019,0.00000073,-0.00000157
 ,0.00000239,0.00000126,-0.00000057,-0.00000091,-0.00000109,0.00011041,
 0.00001935,-0.00012173,-0.00002571,-0.00000316,0.00001400,-0.00002188,
 0.00001267,0.00007288,-0.00003186,-0.00002670,0.00002993,-0.06715272,-
 0.08666404,-0.16154504,0.00425776,-0.03793195,-0.00746418,0.09586015,0
 .14820416,0.24323754,0.00046398,0.00004761,-0.00003682,-0.00005049,-0.
 00005761,-0.00009775,-0.00017140,-0.00002671,0.00023810,0.00016187,0.0
 0004762,-0.00009321,-0.00032530,-0.00013503,0.00010418,0.00053105,0.00
 012109,0.00064500,-0.00449468,-0.00271515,-0.00269076,0.00124928,-0.01
 733728,0.03289413,-0.00077550,-0.00090350,0.00026510,0.00045392,0.0002
 0672,0.00103720,-0.00000170,0.00000322,0.00000886,-0.00001961,-0.00000
 676,-0.00000371,0.00006661,0.00002029,0.00002188,-0.00007209,-0.000187
 34,0.00001051,-0.00097055,-0.00062246,0.00154462,-0.00003045,-0.000022
 49,-0.00007975,-0.00023294,-0.00004052,0.00016060,-0.00174572,0.000539
 45,0.00204012,0.00017501,-0.00006213,0.00000888,0.00057559,-0.00021494
 ,0.00015365,0.00033755,0.00027737,0.00025241,0.00000682,-0.00035078,0.
 00013273,-0.00064370,-0.00045114,-0.00038305,-0.00097079,0.00038627,-0
 .00030343,0.00004524,0.00052904,-0.00020286,-0.00001198,-0.00038680,0.
 00002853,0.00088189,-0.00037438,-0.00002337,-0.00066036,-0.00002428,-0
 .00011577,-0.00018210,0.00016567,0.00012975,0.00004184,0.00009730,0.00
 001275,-0.00004679,0.00023675,-0.00001396,-0.00019922,-0.00008245,-0.0
 0002309,-0.00019700,-0.00023860,-0.00010561,0.00058560,0.00044325,0.00
 021186,0.00001944,-0.00002624,-0.00000498,-0.00000589,0.00002865,0.000
 02387,0.00002943,-0.00002149,0.00001035,0.00000514,0.00001718,-0.00000
 845,0.00003505,-0.00002800,-0.00006238,0.00002297,-0.00002966,0.000008
 70,-0.00001105,0.00002478,0.00001760,-0.00000379,0.00001690,-0.0000184
 1,0.00019167,0.00007034,0.00021162,-0.00010349,-0.00009347,0.00007640,
 0.00006050,-0.00000596,0.00001416,-0.00006235,0.00000184,-0.00001560,0
 .00007244,-0.00000267,0.00007857,-0.00003605,-0.00003721,-0.00004650,0
 .00000176,0.00004502,-0.00002402,0.00003235,-0.00003097,0.00000044,0.0
 0003123,0.00001365,-0.00000256,-0.00000053,-0.00000132,-0.00001274,0.0
 0002807,0.00000999,0.00002433,-0.00002158,-0.00000787,-0.00000387,0.00
 001817,0.00001541,0.00000373,-0.00000665,-0.00001615,0.00000197,0.0000
 1651,0.00002047,0.00001596,-0.00000704,0.00000046,-0.00000757,-0.00001
 363,-0.00000193,0.00009109,0.00002015,0.00003087,-0.00003534,0.0000035
 8,-0.00001276,0.00000844,0.00003236,0.00000574,-0.00001016,-0.00000178
 ,0.00003877,0.00006612,0.00002993,-0.00003022,-0.00003299,-0.00003099,
 -0.00000352,-0.00002853,0.00001175,0.00002845,0.00001166,-0.00000305,-
 0.00003344,0.00000207,-0.00000597,-0.00002612,0.00000694,-0.00000607,0
 .00002107,0.00000054,0.00002103,0.00001033,-0.00001232,0.00000370,-0.0
 0003203,-0.00001364,0.00000612,-0.00002671,0.00000350,0.00000070,0.000
 01123,0.00001360,-0.00001179,0.00001669,-0.00000162,-0.00001174,-0.000
 00306,0.00000584,-0.00000193,-0.00001422,-0.00000037,0.00000054,0.0000
 0132,0.00001028,0.00001237,-0.00000552,-0.00000502,-0.00002014,0.00000
 028,-0.00002109,-0.00001033,-0.00001380,-0.00000156,0.00002062,-0.0000
 0853,0.00000553,0.00000708,0.00000522,0.00000395,-0.00012570,-0.000027
 75,0.00029078,0.00015419,-0.00003653,-0.00006525,-0.00010974,0.0001060
 9,0.00008552,-0.00002614,-0.00002149,0.00001849,-0.00000683,0.00001607
 ,0.00001065,-0.00000528,-0.00000834,-0.00001315,0.00020488,-0.00024022
 ,-0.00031010,-0.00001383,0.00009270,0.00003905,0.00002816,-0.00001047,
 0.00002854,-0.00015280,0.00007100,0.00012345,-0.00003205,-0.00003481,-
 0.00009211,-0.00002647,0.00002288,0.00001620,0.00000276,-0.00000995,-0
 .00000826,0.00001177,0.00000100,0.00001142,0.00000675,-0.00003077,-0.0
 0000925,0.00001130,0.00002103,0.00001961,0.00000006,0.00000892,-0.0000
 0076,0.00000967,-0.00000247,-0.00001309,-0.00000967,0.00001228,0.00001
 088,0.00000201,-0.00000254,-0.00000776,0.00000451,-0.00001212,0.000011
 74,0.00000309,0.00000601,0.00000750,-0.00000112,0.00000415,-0.00000347
 ,-0.00000015,0.00000067,-0.00001071,-0.00001434,-0.00000190,-0.0000049
 8,-0.00000036,0.00000599,0.00000803,0.00000320,-0.00000193,0.00000161,
 0.00051361,0.00022784,-0.00027448,-0.00018927,-0.00002780,0.00000362,-
 0.00010619,-0.00001795,0.00014343,-0.00013598,-0.00017637,0.00008379,-
 0.08592655,-0.01290553,0.01815871,0.00222601,0.03237623,-0.02943773,0.
 00820022,0.00387351,-0.03019627,0.08136757,0.00018564,0.00005765,-0.00
 008428,-0.00002649,-0.00001862,-0.00007658,-0.00011315,-0.00001328,0.0
 0014357,0.00009366,0.00002913,-0.00007140,-0.00021322,-0.00008059,0.00
 008647,0.00031007,-0.00001804,-0.00010533,-0.00435425,-0.00085313,-0.0
 0131563,-0.00322771,-0.00227958,0.02348008,0.00151642,0.00020507,0.001
 15306,-0.00047114,0.00006318,0.00041445,0.00001047,-0.00000564,0.00000
 582,-0.00001277,-0.00001062,-0.00000030,0.00003558,-0.00000888,0.00000
 260,-0.00000523,-0.00015379,-0.00010655,-0.00079796,-0.00088251,-0.000
 00241,-0.00009363,-0.00006233,-0.00001479,-0.00012184,-0.00005100,0.00
 002860,-0.00019705,-0.00030348,0.00169687,-0.00011980,0.00007360,-0.00
 009443,0.00004120,0.00002248,0.00024573,0.00014277,0.00023452,0.000225
 95,-0.00006124,-0.00019792,0.00008830,-0.00018434,-0.00037394,-0.00030
 392,0.00015125,-0.00007539,-0.00046353,0.00009746,0.00027544,-0.000139
 52,-0.00007602,-0.00018234,0.00003767,-0.00017246,-0.00004424,0.000357
 44,0.00008029,0.00012905,-0.00001183,-0.00004125,-0.00001238,-0.000133
 95,0.00006266,0.00008883,-0.00000318,0.00002932,0.00011298,-0.00002703
 ,-0.00012615,-0.00007134,-0.00002527,-0.00008383,-0.00032107,-0.000123
 69,0.00017609,0.00043173,0.00024019,-0.00002011,-0.00001071,0.00003893
 ,-0.00000140,-0.00001205,-0.00003329,0.00000004,0.00000830,-0.00001508
 ,-0.00000528,-0.00001282,0.00003579,-0.00000779,0.00000676,0.00006267,
 0.00000452,-0.00000325,-0.00001269,0.00001092,0.00000942,-0.00000981,-
 0.00001232,-0.00001291,0.00002696,-0.00002902,0.00002398,-0.00032991,-
 0.00006175,0.00003920,-0.00016237,0.00002951,-0.00004494,0.00006995,-0
 .00000200,-0.00004619,0.00006418,-0.00000098,0.00000785,-0.00012202,-0
 .00001671,0.00006482,0.00005740,-0.00001572,-0.00003020,0.00003000,0.0
 0001979,-0.00000400,0.00003233,0.00002632,0.00000433,-0.00001633,-0.00
 000779,0.00000077,-0.00000574,0.00001860,0.00000821,0.00001089,-0.0000
 1454,-0.00000367,-0.00000887,0.00000622,0.00000664,0.00000716,-0.00001
 849,-0.00000159,-0.00000177,0.00001663,0.00001254,0.00001223,-0.000006
 54,0.00000248,-0.00000151,0.00001426,0.00001845,0.00005266,0.00001066,
 -0.00004162,-0.00001498,-0.00001846,0.00001763,-0.00004336,0.00000917,
 0.00002450,0.00002502,-0.00003976,0.00005575,0.00005790,-0.00000618,-0
 .00001808,-0.00000389,0.00002396,-0.00003724,-0.00002676,0.00001020,0.
 00003203,0.00001254,-0.00001250,-0.00000580,0.00000143,-0.00000181,-0.
 00001786,0.00000536,0.00000494,0.00001095,0.00000048,-0.00000182,0.000
 00979,-0.00000386,0.00000313,-0.00000440,0.00000161,-0.00000660,-0.000
 02203,0.00000817,-0.00000497,0.00000948,-0.00002116,0.00001269,0.00001
 883,0.00001402,0.00000275,-0.00000763,0.00000243,-0.00000689,-0.000011
 39,-0.00000441,0.00000231,0.00000469,0.00001020,-0.00000094,0.00000880
 ,-0.00000225,-0.00001375,-0.00000077,-0.00000218,-0.00001064,-0.000012
 71,-0.00000235,0.00000935,-0.00000049,-0.00000076,0.00000550,0.0000052
 6,0.00000653,-0.00005498,-0.00002363,0.00019365,0.00018564,-0.00005414
 ,0.00016156,-0.00007077,0.00012343,-0.00010983,-0.00001709,-0.00002190
 ,0.00000465,-0.00000631,0.00001005,0.00001076,-0.00000393,-0.00000076,
 -0.00001389,0.00018728,-0.00015284,-0.00015315,-0.00000975,0.00006882,
 0.00003782,-0.00000688,0.00000608,-0.00000193,-0.00023262,0.00009717,-
 0.00001152,-0.00001270,-0.00003144,-0.00003585,-0.00002188,0.00002042,
 0.00000723,0.00000777,-0.00001904,-0.00000882,0.00001701,0.00000828,-0
 .00000221,0.00000495,-0.00003195,0.00000286,0.00000743,0.00001284,0.00
 001569,-0.00000462,0.00001403,-0.00000351,0.00000492,-0.00000396,-0.00
 001052,-0.00000662,0.00000812,0.00000830,0.00000356,0.00000319,-0.0000
 1059,0.00000289,-0.00001431,0.00001219,0.00000231,0.00000282,0.0000064
 7,-0.00000178,0.00000894,-0.00000525,-0.00000116,0.00000002,-0.0000072
 2,-0.00001070,-0.00000229,-0.00000319,0.00000008,0.00000367,0.00000617
 ,0.00000292,0.00000164,-0.00000154,0.00037263,0.00007017,-0.00015572,-
 0.00015027,-0.00000073,-0.00001195,-0.00007559,0.00000254,0.00008936,-
 0.00009379,-0.00007453,0.00004672,-0.01559030,-0.12786079,0.09364403,0
 .02439831,-0.04644816,0.04593560,0.00092449,0.02036825,-0.01805544,-0.
 00208052,0.15815731,-0.00026254,0.00003534,0.00024592,0.00009584,0.000
 06121,0.00015878,0.00018449,0.00002387,-0.00029169,-0.00018476,-0.0000
 5671,0.00016234,0.00038230,0.00015983,-0.00021358,-0.00054865,-0.00002
 475,0.00003961,0.00454592,0.00260548,0.00183327,0.00471748,0.01935884,
 -0.02733722,-0.00352715,-0.00165008,-0.00373241,0.00146438,-0.00035408
 ,0.00037303,-0.00001823,-0.00000226,-0.00001411,0.00002734,0.00001380,
 -0.00000286,-0.00002531,0.00000329,0.00001174,-0.00035351,-0.00008103,
 0.00082211,0.00142110,0.00088524,0.00204542,0.00025209,0.00012777,-0.0
 0004361,0.00018249,0.00001783,0.00007761,0.00116501,-0.00057140,-0.001
 77059,0.00015471,0.00010614,0.00042060,-0.00013930,0.00012655,-0.00028
 074,0.00000959,-0.00019271,-0.00043016,0.00011883,0.00041269,-0.000114
 13,-0.00032901,0.00002758,0.00050744,-0.00014144,-0.00012475,0.0005615
 4,-0.00017571,-0.00062956,0.00009761,0.00012806,0.00042722,0.00003817,
 0.00010279,0.00028423,-0.00038030,-0.00011132,-0.00031112,-0.00000940,
 0.00010056,-0.00002918,0.00013451,-0.00011627,-0.00017231,-0.00002339,
 -0.00002049,-0.00024675,0.00002866,0.00009332,0.00005188,0.00014438,0.
 00008054,0.00032506,0.00023169,0.00018700,-0.00014455,-0.00057510,0.00
 001391,-0.00001195,-0.00004287,0.00001605,0.00002717,0.00004139,-0.000
 01108,0.00000112,0.00002031,0.00001166,0.00001519,-0.00004474,0.000014
 87,-0.00000302,-0.00007750,-0.00002174,0.00001943,0.00000994,0.0000000
 6,-0.00000979,0.00001217,0.00001620,0.00001854,-0.00003036,0.00008084,
 0.00014920,0.00027237,0.00006412,-0.00018111,-0.00015474,-0.00005931,0
 .00007966,-0.00011469,-0.00000254,0.00000075,0.00016048,0.00004643,0.0
 0005296,0.00003411,0.00001544,-0.00007988,-0.00003376,0.00002098,0.000
 06740,-0.00001378,-0.00003069,0.00000623,-0.00002668,0.00000222,0.0000
 0536,-0.00002371,0.00001943,0.00001093,-0.00001979,-0.00002333,-0.0000
 0977,0.00000356,0.00001115,-0.00001379,0.00001779,0.00000860,0.0000149
 9,-0.00004041,0.00000287,0.00000431,0.00001704,-0.00001955,-0.00001301
 ,0.00000305,0.00001760,0.00000377,-0.00002894,-0.00008340,-0.00008750,
 0.00012181,0.00009536,0.00010934,0.00000029,0.00001967,0.00000345,0.00
 002259,0.00000654,-0.00003419,-0.00009465,-0.00001566,-0.00007099,0.00
 007977,0.00002676,0.00002257,-0.00001689,-0.00000829,0.00011622,-0.000
 02112,-0.00001553,-0.00003761,-0.00007077,0.00001877,0.00001829,-0.000
 01345,0.00000565,0.00003139,-0.00000846,-0.00000180,-0.00002007,0.0000
 1034,-0.00000684,-0.00001546,0.00001021,-0.00001905,0.00002291,-0.0000
 2119,0.00000454,0.00003939,-0.00000830,0.00000958,-0.00001571,0.000017
 48,-0.00000220,-0.00002682,-0.00000243,-0.00000112,0.00001687,0.000000
 59,0.00001481,0.00002392,0.00000435,-0.00000626,-0.00000831,-0.0000101
 1,-0.00000587,-0.00001508,-0.00000157,0.00002724,0.00000444,0.00001598
 ,0.00002048,0.00002417,0.00000163,-0.00001808,0.00000074,-0.00000451,-
 0.00001139,-0.00001097,-0.00000314,0.00008086,0.00002200,-0.00027603,-
 0.00034904,0.00007568,-0.00025231,0.00015794,-0.00015372,0.00017378,0.
 00003672,0.00002303,-0.00001136,0.00001014,-0.00001362,-0.00001391,0.0
 0000707,0.00000217,0.00001945,-0.00028218,0.00013588,0.00022377,0.0000
 1085,-0.00003837,-0.00000737,-0.00002423,-0.00000453,-0.00004796,0.000
 38851,-0.00008242,0.00001262,0.00001561,0.00003468,0.00005770,0.000032
 73,-0.00003175,-0.00001398,-0.00001814,0.00002628,0.00001951,-0.000017
 66,-0.00000197,-0.00000088,-0.00001021,0.00004523,-0.00000877,-0.00001
 279,-0.00001727,-0.00002231,0.00000440,-0.00002174,0.00000379,-0.00000
 926,0.00000354,0.00002222,0.00001026,-0.00001116,-0.00001131,-0.000004
 16,-0.00000315,0.00001447,-0.00000477,0.00001947,-0.00002571,-0.000004
 10,-0.00000142,-0.00000827,0.00000257,-0.00001408,0.00000732,0.0000025
 8,-0.00000069,0.00001448,0.00002198,0.00000320,0.00000653,-0.00000106,
 -0.00000496,-0.00000950,-0.00000536,-0.00000163,0.00000023,-0.00064685
 ,-0.00020954,0.00025110,0.00026044,0.00001722,0.00002469,0.00012756,0.
 00001850,-0.00013355,0.00016577,0.00017233,-0.00008179,0.02293738,0.09
 602263,-0.24909458,-0.01787840,0.03344646,-0.00546883,-0.02001253,-0.0
 0367901,-0.07464943,0.00529911,-0.14648553,0.35662238\\0.00000261,-0.0
 0000020,-0.00000993,-0.00000766,-0.00000023,-0.00000924,0.00000167,0.0
 0000316,0.00000332,0.00000525,0.00000117,-0.00000291,-0.00000472,0.000
 00174,-0.00000087,-0.00000142,0.00000179,0.00000257,0.00000731,0.00000
 068,-0.00000271,0.00000026,0.00000076,0.00000727,0.00000273,-0.0000008
 8,-0.00000251,0.00000301,-0.00000176,0.00000837,0.00000084,0.00000037,
 0.00000286,0.00000160,0.00000241,-0.00000050,0.00000223,0.00000024,0.0
 0000129,-0.00000067,-0.00000067,-0.00000003,0.00000292,0.00000063,0.00
 000056,-0.00000099,0.00000097,-0.00000363,0.00000188,-0.00000358,0.000
 00514,0.00000089,-0.00000179,-0.00000565,-0.00000113,0.00001466,0.0000
 1084,0.00000137,-0.00000258,0.00000239,0.00000118,-0.00000160,-0.00000
 190,-0.00000407,-0.00000040,-0.00000860,0.00000114,-0.00000426,0.00000
 091,0.00000074,-0.00000180,0.00000107,0.00000452,-0.00000542,0.0000094
 8,-0.00000247,-0.00000316,-0.00000357,0.00000357,-0.00000162,-0.000002
 76,-0.00000642,-0.00000293,0.00000002,-0.00000401,-0.00000195,0.000000
 85,0.00000007,0.00000444,0.00000643,0.00000043,-0.00000059,-0.00000267
 ,0.00000025,-0.00000304,0.00000222,0.00000358,-0.00000140,-0.00000354,
 -0.00000494,-0.00000363,0.00000597,-0.00000497,-0.00000340,0.00000683,
 0.00000019,-0.00000099,0.00000148,-0.00000107,-0.00000164,0.00000252,0
 .00000013,-0.00000119,-0.00000285,0.00000465,0.00000044,0.00000084,-0.
 00000270,-0.00000103,0.00000124,-0.00000318,-0.00000027,-0.00000093,-0
 .00000371,-0.00000093,0.00000403,-0.00000116,0.00000210,0.00000121,0.0
 0000175,-0.00000236,0.00000520,-0.00000034,-0.00000044,0.00000190,0.00
 000165,-0.00000559,-0.00000113,0.00000202,0.00000214,-0.00000051,-0.00
 000003,-0.00000194,0.00000262,-0.00000191,-0.00000125,0.00000105,-0.00
 000039,-0.00000242,0.00000155,-0.00000516,0.00000201,-0.00000145,-0.00
 000280,-0.00000320,0.00000497,0.00000298,0.00000017,0.00000376,-0.0000
 0057,-0.00000478,-0.00000027,0.00000015,0.00000311,0.00000226,0.000001
 34,-0.00000251,0.00000149,-0.00000049,-0.00000177,0.00000138,-0.000001
 23,-0.00000187,0.00000114,0.00000142,-0.00000187,0.00000086,-0.0000001
 3,-0.00000171,0.00000339,-0.00000091,-0.00000062,0.00000212,0.00000021
 ,-0.00000117,0.00000281,0.00000935,0.00000233,0.00000124,-0.00000393,-
 0.00000036,0.00000122,0.00000032,-0.00000138,0.00000426,-0.00000013,-0
 .00000231,0.00000094,0.00000250,0.00000347,-0.00000842,-0.00000197,-0.
 00000245,-0.00000049,-0.00000142,-0.00000054,0.00000400,-0.00000095,0.
 00000234,-0.00000069,-0.00000423,0.00000378,0.00000057,-0.00000168,-0.
 00000101,0.00000039,0.00000059,-0.00000134,-0.00000011,-0.00000036,0.0
 0000024,0.00000037,-0.00000971,-0.00000638,-0.00000591,0.00000112,0.00
 000403,0.00000112,-0.00000245,0.00000072,0.00000093,-0.00000025,-0.000
 00053,-0.00000083,0.00000195,-0.00000306,-0.00000177,-0.00000277,0.000
 00093,-0.00000087,-0.00000242,0.00000132,-0.00000286,-0.00000261,0.000
 00038,-0.00000140,-0.00000069,0.00000151,-0.00000370,0.00000600,0.0000
 0587,-0.00000595,0.00000019,-0.00000262,0.00000497,-0.00000307,0.00000
 182,-0.00000549,0.00000153,-0.00000007,-0.00000197,0.00000005,-0.00000
 063,-0.00000026,0.00000085,-0.00000580,-0.00000010,0.00000204,0.000003
 77,-0.00000115,0.00000106,0.00000161,0.00000149,-0.00000659,0.00000093
 ,-0.00000106,0.00000260,-0.00000475,-0.00000003,-0.00000177,0.00000474
 ,-0.00000076,-0.00000122,0.00000027,0.00000140,0.00000268,0.00000171,-
 0.00000261,0.00000255,0.00000074,0.00000283,0.00000109,0.00000483,-0.0
 0000370,0.00000147,0.00000269,-0.00000140,0.00000255,0.00000658,-0.000
 00464,0.00000087,0.00000161,-0.00000319,-0.00000221,-0.00000218,-0.000
 00104,0.00000059,-0.00000262,0.00000082,0.00000048,0.00000315,-0.00000
 318,0.00000182,0.00000431,-0.00000372,0.00000052,0.00000886,-0.0000086
 0,0.00000095,0.00000328,-0.00000305,0.00000064,0.00000221,-0.00000280,
 -0.00000009,-0.00000203,0.00000054,-0.00000162,0.00000078,-0.00000033,
 0.00000125,0.00000206,0.00000084,0.00000056,-0.00000291,-0.00000720,-0
 .00000165,0.00000672,-0.00000254,0.00000448,-0.00000133,0.00000809,-0.
 00000073,0.00000216,-0.00000152,0.,-0.00000252,-0.00000275,0.00000464,
 -0.00000145,0.00000204\\\@
 The archive entry for this job was punched.


 WOMEN HOLD UP HALF THE SKY. -- MAO TSE TUNG
 Job cpu time:       2 days  7 hours 19 minutes 22.4 seconds.
 Elapsed time:       0 days  3 hours 31 minutes 28.6 seconds.
 File lengths (MBytes):  RWF=  11754 Int=      0 D2E=      0 Chk=     62 Scr=      1
 Normal termination of Gaussian 16 at Sat Dec  7 22:19:06 2024.
