/mnt/lustre/scratch/nvme/SLURM/9663541/usccqdma.ErWrrbF6uY
OMP_STACKSIZE=0m
GAUSS_PDEF=16
GAUSS_MDEF=65536MB
GAUSS_RDEF=SCF=Direct
 Entering Gaussian System, Link 0=g16.exe
 Initial command:
 /opt/cesga/2020/software/Core/g16/c1/l1.exe "/mnt/lustre/scratch/nvme/SLURM/9663541/usccqdma.ErWrrbF6uY/Gau-90087.inp" -scrdir="/mnt/lustre/scratch/nvme/SLURM/9663541/usccqdma.ErWrrbF6uY/"
 Default is to use a total of  16 processors:
                               16 via shared-memory
                                1 via Linda
 Entering Link 1 = /opt/cesga/2020/software/Core/g16/c1/l1.exe PID=     90115.
  
 Copyright (c) 1988-2019, Gaussian, Inc.  All Rights Reserved.
  
 This is part of the Gaussian(R) 16 program.  It is based on
 the Gaussian(R) 09 system (copyright 2009, Gaussian, Inc.),
 the Gaussian(R) 03 system (copyright 2003, Gaussian, Inc.),
 the Gaussian(R) 98 system (copyright 1998, Gaussian, Inc.),
 the Gaussian(R) 94 system (copyright 1995, Gaussian, Inc.),
 the Gaussian 92(TM) system (copyright 1992, Gaussian, Inc.),
 the Gaussian 90(TM) system (copyright 1990, Gaussian, Inc.),
 the Gaussian 88(TM) system (copyright 1988, Gaussian, Inc.),
 the Gaussian 86(TM) system (copyright 1986, Carnegie Mellon
 University), and the Gaussian 82(TM) system (copyright 1983,
 Carnegie Mellon University). Gaussian is a federally registered
 trademark of Gaussian, Inc.
  
 This software contains proprietary and confidential information,
 including trade secrets, belonging to Gaussian, Inc.
  
 This software is provided under written license and may be
 used, copied, transmitted, or stored only in accord with that
 written license.
  
 The following legend is applicable only to US Government
 contracts under FAR:
  
                    RESTRICTED RIGHTS LEGEND
  
 Use, reproduction and disclosure by the US Government is
 subject to restrictions as set forth in subparagraphs (a)
 and (c) of the Commercial Computer Software - Restricted
 Rights clause in FAR 52.227-19.
  
 Gaussian, Inc.
 340 Quinnipiac St., Bldg. 40, Wallingford CT 06492
  
  
 ---------------------------------------------------------------
 Warning -- This program may not be used in any manner that
 competes with the business of Gaussian, Inc. or will provide
 assistance to any competitor of Gaussian, Inc.  The licensee
 of this program is prohibited from giving any competitor of
 Gaussian, Inc. access to this program.  By using this program,
 the user acknowledges that Gaussian, Inc. is engaged in the
 business of creating and licensing software in the field of
 computational chemistry and represents and warrants to the
 licensee that it is not a competitor of Gaussian, Inc. and that
 it will not use this program in any manner prohibited above.
 ---------------------------------------------------------------
  

 Cite this work as:
 Gaussian 16, Revision C.01,
 M. J. Frisch, G. W. Trucks, H. B. Schlegel, G. E. Scuseria, 
 M. A. Robb, J. R. Cheeseman, G. Scalmani, V. Barone, 
 G. A. Petersson, H. Nakatsuji, X. Li, M. Caricato, A. V. Marenich, 
 J. Bloino, B. G. Janesko, R. Gomperts, B. Mennucci, H. P. Hratchian, 
 J. V. Ortiz, A. F. Izmaylov, J. L. Sonnenberg, D. Williams-Young, 
 F. Ding, F. Lipparini, F. Egidi, J. Goings, B. Peng, A. Petrone, 
 T. Henderson, D. Ranasinghe, V. G. Zakrzewski, J. Gao, N. Rega, 
 G. Zheng, W. Liang, M. Hada, M. Ehara, K. Toyota, R. Fukuda, 
 J. Hasegawa, M. Ishida, T. Nakajima, Y. Honda, O. Kitao, H. Nakai, 
 T. Vreven, K. Throssell, J. A. Montgomery, Jr., J. E. Peralta, 
 F. Ogliaro, M. J. Bearpark, J. J. Heyd, E. N. Brothers, K. N. Kudin, 
 V. N. Staroverov, T. A. Keith, R. Kobayashi, J. Normand, 
 K. Raghavachari, A. P. Rendell, J. C. Burant, S. S. Iyengar, 
 J. Tomasi, M. Cossi, J. M. Millam, M. Klene, C. Adamo, R. Cammi, 
 J. W. Ochterski, R. L. Martin, K. Morokuma, O. Farkas, 
 J. B. Foresman, and D. J. Fox, Gaussian, Inc., Wallingford CT, 2019.
 
 ******************************************
 Gaussian 16:  ES64L-G16RevC.01  3-Jul-2019
                 7-Dec-2024 
 ******************************************
 Default route: SCF=Direct
 ----------------------------------------------------
 # m06/genecp scf=tight int=ultrafine 5d freq=noraman
 ----------------------------------------------------
 1/10=4,30=1,38=1/1,3;
 2/12=2,17=6,18=5,40=1/2;
 3/5=7,8=1,11=2,16=1,17=8,25=1,30=1,71=2,74=-54,75=-5,140=1/1,2,3;
 4//1;
 5/5=2,32=2,38=5,98=1/2;
 8/6=4,10=90,11=11/1;
 11/6=1,8=1,9=11,15=111,16=1/1,2,10;
 10/6=1/2;
 6/7=2,8=2,9=2,10=2,28=1/1;
 7/8=1,10=1,25=1/1,2,3,16;
 1/10=4,30=1/3;
 99//99;
 ------
 OPT-TS
 ------
 Symbolic Z-matrix:
 Charge =  0 Multiplicity = 1
 C                     1.74263  -0.62121   1.88629 
 C                     2.267     1.00032   0.32332 
 C                     3.49094   1.25572   0.93185 
 C                     3.83074   0.54689   2.07632 
 C                     2.93701  -0.39084   2.56829 
 C                     0.75378  -1.62768   2.31762 
 C                    -1.31157  -2.62688   1.91927 
 C                    -1.18876  -3.43236   3.04211 
 C                    -0.04245  -3.328     3.81896 
 C                     0.93409  -2.4149    3.45293 
 H                     1.93055   1.56145  -0.54963 
 H                     4.78398   0.72178   2.57025 
 H                     3.19306  -0.95948   3.45722 
 H                    -2.18799  -2.65777   1.27251 
 H                     0.09345  -3.94971   4.70146 
 H                     1.83825  -2.32315   4.04722 
 N                     1.42719   0.07759   0.7813 
 N                    -0.36198  -1.7488    1.56318 
 Ir                   -0.5111   -0.5698   -0.25707 
 O                    -2.90965   0.22474   1.5304 
 O                    -3.15309  -2.07905  -0.47898 
 O                    -2.34982   1.81135  -1.18427 
 B                    -2.20475  -1.27209  -1.10584 
 B                    -1.64874   0.61691   1.13439 
 B                    -1.08928   1.35093  -0.82806 
 O                    -0.13057   2.34082  -1.04869 
 O                    -1.13615   1.57958   1.99118 
 C                    -2.00434   1.64565   3.13849 
 C                    -3.35051   1.11553   2.56578 
 C                    -2.16027   2.9954   -1.97604 
 C                    -0.81668   3.54774  -1.41825 
 C                    -4.34534  -2.02008  -1.27832 
 C                    -3.76059  -1.79129  -2.69922 
 O                    -2.58022  -1.02962  -2.41994 
 C                    -4.19935   0.33634   3.5505 
 H                    -5.12375   0.00595   3.05942 
 H                    -3.67659  -0.55595   3.91459 
 H                    -4.47736   0.95995   4.41246 
 C                    -4.1885    2.19351   1.89224 
 H                    -3.59335   2.75573   1.16087 
 H                    -5.0048    1.70843   1.34145 
 H                    -4.62408   2.89304   2.61845 
 C                    -1.40032   0.72626   4.19276 
 H                    -1.94727   0.77363   5.14391 
 H                    -1.3884   -0.31743   3.84944 
 H                    -0.36183   1.03408   4.37453 
 C                    -2.04252   3.06768   3.65839 
 H                    -2.74146   3.15379   4.50295 
 H                    -1.04555   3.36087   4.01141 
 H                    -2.34776   3.77885   2.88313 
 C                    -5.12966  -3.30399  -1.10567 
 H                    -5.99717  -3.32424  -1.78109 
 H                    -4.51205  -4.18698  -1.30434 
 H                    -5.50364  -3.37579  -0.07598 
 C                    -5.15864  -0.83258  -0.77501 
 H                    -6.13012  -0.75957  -1.28324 
 H                    -5.33342  -0.96056   0.30127 
 H                    -4.60681   0.10846  -0.90982 
 C                    -3.31531  -3.08126  -3.37544 
 H                    -4.16687  -3.69451  -3.70051 
 H                    -2.71733  -2.82536  -4.25933 
 H                    -2.68461  -3.67984  -2.70465 
 C                    -4.65099  -0.99293  -3.63037 
 H                    -4.15381  -0.86915  -4.60143 
 H                    -5.60779  -1.5077   -3.80096 
 H                    -4.85552   0.00529  -3.2259 
 C                     0.02746   4.30287  -2.42538 
 H                     0.95532   4.6448   -1.94843 
 H                     0.2995    3.67367  -3.27987 
 H                    -0.50762   5.18833  -2.79763 
 C                    -0.98426   4.38071  -0.15549 
 H                     0.00569   4.55169   0.2862 
 H                    -1.4442    5.3558   -0.36557 
 H                    -1.58716   3.84851   0.59063 
 C                    -3.35657   3.90635  -1.7966 
 H                    -3.22111   4.84343  -2.35545 
 H                    -4.25679   3.40836  -2.18031 
 H                    -3.53101   4.15273  -0.74314 
 C                    -2.0646    2.54225  -3.42758 
 H                    -1.19137   1.89626  -3.58816 
 H                    -2.95638   1.95063  -3.66956 
 H                    -2.00713   3.39264  -4.12041 
 H                    -0.38521   0.04142  -1.75652 
 C                     2.94169  -2.13971  -0.78974 
 O                     2.79972  -2.71377   0.29164 
 C                     4.31063  -1.62522  -1.22118 
 H                     4.59556  -2.08534  -2.1804 
 H                     4.24098  -0.54244  -1.42727 
 C                     0.53426  -2.23152  -1.20319 
 H                    -0.00358  -2.57572  -2.09843 
 H                     0.60295  -3.07205  -0.50376 
 N                     1.89882  -1.9101   -1.63172 
 C                     2.0105   -1.11408  -2.83216 
 H                     1.85014  -0.03885  -2.63773 
 H                     2.9837   -1.24256  -3.31492 
 H                     1.23768  -1.43521  -3.54151 
 C                     5.38389  -1.8737   -0.17194 
 H                     4.95804  -1.66443   0.81933 
 H                     5.64023  -2.94449  -0.15606 
 C                     6.63731  -1.03609  -0.38645 
 H                     6.38023   0.0365   -0.3151 
 H                     7.3471   -1.23029   0.43501 
 C                     7.34523  -1.2851   -1.71196 
 H                     7.53294  -2.36625  -1.82407 
 H                     6.68277  -1.0052   -2.54617 
 C                     8.65066  -0.51535  -1.82321 
 H                     9.15113  -0.6885   -2.7841 
 H                     8.47722   0.56577  -1.7277 
 H                     9.34927  -0.80559  -1.02586 
 C                     4.39153   2.2773    0.31447 
 F                     5.54319   2.39734   0.9804 
 F                     4.69147   1.95093  -0.95255 
 F                     3.81252   3.48083   0.27383 
 H                    -1.98308  -4.13147   3.2902 
 

 GradGradGradGradGradGradGradGradGradGradGradGradGradGradGradGradGradGrad
 Berny optimization.
 Initialization pass.
 Trust Radius=3.00D-01 FncErr=1.00D-07 GrdErr=1.00D-07 EigMax=2.50D+02 EigMin=1.00D-04
 Number of steps in this run=      2 maximum allowed number of steps=      2.
 GradGradGradGradGradGradGradGradGradGradGradGradGradGradGradGradGradGrad

 Stoichiometry    C37H60B3F3IrN3O7
 Framework group  C1[X(C37H60B3F3IrN3O7)]
 Deg. of freedom   336
 Full point group                 C1      NOp   1
 Largest Abelian subgroup         C1      NOp   1
 Largest concise Abelian subgroup C1      NOp   1
                         Standard orientation:                         
 ---------------------------------------------------------------------
 Center     Atomic      Atomic             Coordinates (Angstroms)
 Number     Number       Type             X           Y           Z
 ---------------------------------------------------------------------
      1          6           0        1.742629   -0.621210    1.886289
      2          6           0        2.266999    1.000320    0.323319
      3          6           0        3.490939    1.255720    0.931849
      4          6           0        3.830739    0.546890    2.076319
      5          6           0        2.937009   -0.390840    2.568289
      6          6           0        0.753779   -1.627680    2.317619
      7          6           0       -1.311571   -2.626880    1.919269
      8          6           0       -1.188761   -3.432360    3.042109
      9          6           0       -0.042451   -3.328000    3.818959
     10          6           0        0.934089   -2.414900    3.452929
     11          1           0        1.930549    1.561450   -0.549631
     12          1           0        4.783979    0.721780    2.570249
     13          1           0        3.193059   -0.959480    3.457219
     14          1           0       -2.187991   -2.657770    1.272509
     15          1           0        0.093449   -3.949710    4.701459
     16          1           0        1.838249   -2.323150    4.047219
     17          7           0        1.427189    0.077590    0.781299
     18          7           0       -0.361981   -1.748800    1.563179
     19         77           0       -0.511101   -0.569800   -0.257071
     20          8           0       -2.909651    0.224740    1.530399
     21          8           0       -3.153091   -2.079050   -0.478981
     22          8           0       -2.349821    1.811350   -1.184271
     23          5           0       -2.204751   -1.272090   -1.105841
     24          5           0       -1.648741    0.616910    1.134389
     25          5           0       -1.089281    1.350930   -0.828061
     26          8           0       -0.130571    2.340820   -1.048691
     27          8           0       -1.136151    1.579580    1.991179
     28          6           0       -2.004341    1.645650    3.138489
     29          6           0       -3.350511    1.115530    2.565779
     30          6           0       -2.160271    2.995400   -1.976041
     31          6           0       -0.816681    3.547740   -1.418251
     32          6           0       -4.345341   -2.020080   -1.278321
     33          6           0       -3.760591   -1.791290   -2.699221
     34          8           0       -2.580221   -1.029620   -2.419941
     35          6           0       -4.199351    0.336340    3.550499
     36          1           0       -5.123751    0.005950    3.059419
     37          1           0       -3.676591   -0.555950    3.914589
     38          1           0       -4.477361    0.959950    4.412459
     39          6           0       -4.188501    2.193510    1.892239
     40          1           0       -3.593351    2.755730    1.160869
     41          1           0       -5.004801    1.708430    1.341449
     42          1           0       -4.624081    2.893040    2.618449
     43          6           0       -1.400321    0.726260    4.192759
     44          1           0       -1.947271    0.773630    5.143909
     45          1           0       -1.388401   -0.317430    3.849439
     46          1           0       -0.361831    1.034080    4.374529
     47          6           0       -2.042521    3.067680    3.658389
     48          1           0       -2.741461    3.153790    4.502949
     49          1           0       -1.045551    3.360870    4.011409
     50          1           0       -2.347761    3.778850    2.883129
     51          6           0       -5.129661   -3.303990   -1.105671
     52          1           0       -5.997171   -3.324240   -1.781091
     53          1           0       -4.512051   -4.186980   -1.304341
     54          1           0       -5.503641   -3.375790   -0.075981
     55          6           0       -5.158641   -0.832580   -0.775011
     56          1           0       -6.130121   -0.759570   -1.283241
     57          1           0       -5.333421   -0.960560    0.301269
     58          1           0       -4.606811    0.108460   -0.909821
     59          6           0       -3.315311   -3.081260   -3.375441
     60          1           0       -4.166871   -3.694510   -3.700511
     61          1           0       -2.717331   -2.825360   -4.259331
     62          1           0       -2.684611   -3.679840   -2.704651
     63          6           0       -4.650991   -0.992930   -3.630371
     64          1           0       -4.153811   -0.869150   -4.601431
     65          1           0       -5.607791   -1.507700   -3.800961
     66          1           0       -4.855521    0.005290   -3.225901
     67          6           0        0.027459    4.302870   -2.425381
     68          1           0        0.955319    4.644800   -1.948431
     69          1           0        0.299499    3.673670   -3.279871
     70          1           0       -0.507621    5.188330   -2.797631
     71          6           0       -0.984261    4.380710   -0.155491
     72          1           0        0.005689    4.551690    0.286199
     73          1           0       -1.444201    5.355800   -0.365571
     74          1           0       -1.587161    3.848510    0.590629
     75          6           0       -3.356571    3.906350   -1.796601
     76          1           0       -3.221111    4.843430   -2.355451
     77          1           0       -4.256791    3.408360   -2.180311
     78          1           0       -3.531011    4.152730   -0.743141
     79          6           0       -2.064601    2.542250   -3.427581
     80          1           0       -1.191371    1.896260   -3.588161
     81          1           0       -2.956381    1.950630   -3.669561
     82          1           0       -2.007131    3.392640   -4.120411
     83          1           0       -0.385211    0.041420   -1.756521
     84          6           0        2.941689   -2.139710   -0.789741
     85          8           0        2.799719   -2.713770    0.291639
     86          6           0        4.310629   -1.625220   -1.221181
     87          1           0        4.595559   -2.085340   -2.180401
     88          1           0        4.240979   -0.542440   -1.427271
     89          6           0        0.534259   -2.231520   -1.203191
     90          1           0       -0.003581   -2.575720   -2.098431
     91          1           0        0.602949   -3.072050   -0.503761
     92          7           0        1.898819   -1.910100   -1.631721
     93          6           0        2.010499   -1.114080   -2.832161
     94          1           0        1.850139   -0.038850   -2.637731
     95          1           0        2.983699   -1.242560   -3.314921
     96          1           0        1.237679   -1.435210   -3.541511
     97          6           0        5.383889   -1.873700   -0.171941
     98          1           0        4.958039   -1.664430    0.819329
     99          1           0        5.640229   -2.944490   -0.156061
    100          6           0        6.637309   -1.036090   -0.386451
    101          1           0        6.380229    0.036500   -0.315101
    102          1           0        7.347099   -1.230290    0.435009
    103          6           0        7.345229   -1.285100   -1.711961
    104          1           0        7.532939   -2.366250   -1.824071
    105          1           0        6.682769   -1.005200   -2.546171
    106          6           0        8.650659   -0.515350   -1.823211
    107          1           0        9.151129   -0.688500   -2.784101
    108          1           0        8.477219    0.565770   -1.727701
    109          1           0        9.349269   -0.805590   -1.025861
    110          6           0        4.391529    2.277300    0.314469
    111          9           0        5.543189    2.397340    0.980399
    112          9           0        4.691469    1.950930   -0.952551
    113          9           0        3.812519    3.480830    0.273829
    114          1           0       -1.983081   -4.131470    3.290199
 ---------------------------------------------------------------------
 Rotational constants (GHZ):           0.0712018           0.0403440           0.0389374
 General basis read from cards:  (5D, 7F)
 ======================================================================================================
                                       Pseudopotential Parameters
 ======================================================================================================
  Center     Atomic      Valence      Angular      Power
  Number     Number     Electrons     Momentum     of R      Exponent        Coefficient   SO-Coeffient
 ======================================================================================================
    1          6
                                   No pseudopotential on this center.
    2          6
                                   No pseudopotential on this center.
    3          6
                                   No pseudopotential on this center.
    4          6
                                   No pseudopotential on this center.
    5          6
                                   No pseudopotential on this center.
    6          6
                                   No pseudopotential on this center.
    7          6
                                   No pseudopotential on this center.
    8          6
                                   No pseudopotential on this center.
    9          6
                                   No pseudopotential on this center.
   10          6
                                   No pseudopotential on this center.
   11          1
                                   No pseudopotential on this center.
   12          1
                                   No pseudopotential on this center.
   13          1
                                   No pseudopotential on this center.
   14          1
                                   No pseudopotential on this center.
   15          1
                                   No pseudopotential on this center.
   16          1
                                   No pseudopotential on this center.
   17          7
                                   No pseudopotential on this center.
   18          7
                                   No pseudopotential on this center.
   19         77           17
                                      G and up 
                                                     1      823.5880147       -0.15780140    0.00000000
                                                     2      364.6613336    -1517.52704460    0.00000000
                                                     2       55.7082801     -316.53065290    0.00000000
                                                     2       12.0464544      -91.88809410    0.00000000
                                                     2        3.5120610       -9.22417730    0.00000000
                                      S - G
                                                     0      188.0490770        3.15780140    0.00000000
                                                     1      340.4194712       26.83225770    0.00000000
                                                     2      128.2373673      800.42500070    0.00000000
                                                     2       33.8644961      369.40506830    0.00000000
                                                     2        4.7560005      242.41718990    0.00000000
                                                     2        3.9649974     -118.21732820    0.00000000
                                      P - G
                                                     0      289.7291139        2.15780140    0.00000000
                                                     1       87.4633789       61.96786100    0.00000000
                                                     2       30.4363766      269.05819860    0.00000000
                                                     2        4.0553412      231.16547930    0.00000000
                                                     2        3.5525341     -133.69526670    0.00000000
                                      D - G
                                                     0      136.4017106        3.15780140    0.00000000
                                                     1       95.0776925       45.93498030    0.00000000
                                                     2       49.2258410      359.03446680    0.00000000
                                                     2       15.0874145      176.47401190    0.00000000
                                                     2        4.0405764       54.51552860    0.00000000
                                      F - G
                                                     0      127.3507908        3.95461970    0.00000000
                                                     1       66.2364374       52.97736550    0.00000000
                                                     2       34.4299229      274.86433830    0.00000000
                                                     2       10.1995721      137.20473380    0.00000000
                                                     2        2.5409702       14.86333050    0.00000000
   20          8
                                   No pseudopotential on this center.
   21          8
                                   No pseudopotential on this center.
   22          8
                                   No pseudopotential on this center.
   23          5
                                   No pseudopotential on this center.
   24          5
                                   No pseudopotential on this center.
   25          5
                                   No pseudopotential on this center.
   26          8
                                   No pseudopotential on this center.
   27          8
                                   No pseudopotential on this center.
   28          6
                                   No pseudopotential on this center.
   29          6
                                   No pseudopotential on this center.
   30          6
                                   No pseudopotential on this center.
   31          6
                                   No pseudopotential on this center.
   32          6
                                   No pseudopotential on this center.
   33          6
                                   No pseudopotential on this center.
   34          8
                                   No pseudopotential on this center.
   35          6
                                   No pseudopotential on this center.
   36          1
                                   No pseudopotential on this center.
   37          1
                                   No pseudopotential on this center.
   38          1
                                   No pseudopotential on this center.
   39          6
                                   No pseudopotential on this center.
   40          1
                                   No pseudopotential on this center.
   41          1
                                   No pseudopotential on this center.
   42          1
                                   No pseudopotential on this center.
   43          6
                                   No pseudopotential on this center.
   44          1
                                   No pseudopotential on this center.
   45          1
                                   No pseudopotential on this center.
   46          1
                                   No pseudopotential on this center.
   47          6
                                   No pseudopotential on this center.
   48          1
                                   No pseudopotential on this center.
   49          1
                                   No pseudopotential on this center.
   50          1
                                   No pseudopotential on this center.
   51          6
                                   No pseudopotential on this center.
   52          1
                                   No pseudopotential on this center.
   53          1
                                   No pseudopotential on this center.
   54          1
                                   No pseudopotential on this center.
   55          6
                                   No pseudopotential on this center.
   56          1
                                   No pseudopotential on this center.
   57          1
                                   No pseudopotential on this center.
   58          1
                                   No pseudopotential on this center.
   59          6
                                   No pseudopotential on this center.
   60          1
                                   No pseudopotential on this center.
   61          1
                                   No pseudopotential on this center.
   62          1
                                   No pseudopotential on this center.
   63          6
                                   No pseudopotential on this center.
   64          1
                                   No pseudopotential on this center.
   65          1
                                   No pseudopotential on this center.
   66          1
                                   No pseudopotential on this center.
   67          6
                                   No pseudopotential on this center.
   68          1
                                   No pseudopotential on this center.
   69          1
                                   No pseudopotential on this center.
   70          1
                                   No pseudopotential on this center.
   71          6
                                   No pseudopotential on this center.
   72          1
                                   No pseudopotential on this center.
   73          1
                                   No pseudopotential on this center.
   74          1
                                   No pseudopotential on this center.
   75          6
                                   No pseudopotential on this center.
   76          1
                                   No pseudopotential on this center.
   77          1
                                   No pseudopotential on this center.
   78          1
                                   No pseudopotential on this center.
   79          6
                                   No pseudopotential on this center.
   80          1
                                   No pseudopotential on this center.
   81          1
                                   No pseudopotential on this center.
   82          1
                                   No pseudopotential on this center.
   83          1
                                   No pseudopotential on this center.
   84          6
                                   No pseudopotential on this center.
   85          8
                                   No pseudopotential on this center.
   86          6
                                   No pseudopotential on this center.
   87          1
                                   No pseudopotential on this center.
   88          1
                                   No pseudopotential on this center.
   89          6
                                   No pseudopotential on this center.
   90          1
                                   No pseudopotential on this center.
   91          1
                                   No pseudopotential on this center.
   92          7
                                   No pseudopotential on this center.
   93          6
                                   No pseudopotential on this center.
   94          1
                                   No pseudopotential on this center.
   95          1
                                   No pseudopotential on this center.
   96          1
                                   No pseudopotential on this center.
   97          6
                                   No pseudopotential on this center.
   98          1
                                   No pseudopotential on this center.
   99          1
                                   No pseudopotential on this center.
  100          6
                                   No pseudopotential on this center.
  101          1
                                   No pseudopotential on this center.
  102          1
                                   No pseudopotential on this center.
  103          6
                                   No pseudopotential on this center.
  104          1
                                   No pseudopotential on this center.
  105          1
                                   No pseudopotential on this center.
  106          6
                                   No pseudopotential on this center.
  107          1
                                   No pseudopotential on this center.
  108          1
                                   No pseudopotential on this center.
  109          1
                                   No pseudopotential on this center.
  110          6
                                   No pseudopotential on this center.
  111          9
                                   No pseudopotential on this center.
  112          9
                                   No pseudopotential on this center.
  113          9
                                   No pseudopotential on this center.
  114          1
                                   No pseudopotential on this center.
 ======================================================================================================
 There are   939 symmetry adapted cartesian basis functions of A   symmetry.
 There are   884 symmetry adapted basis functions of A   symmetry.
   884 basis functions,  1767 primitive gaussians,   939 cartesian basis functions
   209 alpha electrons      209 beta electrons
       nuclear repulsion energy      9355.0388206176 Hartrees.
 NAtoms=  114 NActive=  114 NUniq=  114 SFac= 1.00D+00 NAtFMM=   60 NAOKFM=T Big=T
 Integral buffers will be    131072 words long.
 Raffenetti 2 integral format.
 Two-electron integral symmetry is turned on.
 One-electron integrals computed using PRISM.
   1 Symmetry operations used in ECPInt.
 ECPInt:  NShTT=   57970 NPrTT=  353525 LenC2=   42809 LenP2D=  131197.
 LDataN:  DoStor=T MaxTD1= 6 Len=  172
 NBasis=   884 RedAO= T EigKep=  4.55D-04  NBF=   884
 NBsUse=   884 1.00D-06 EigRej= -1.00D+00 NBFU=   884
 Defaulting to unpruned grid for atomic number  77.
 ExpMin= 2.90D-02 ExpMax= 7.00D+03 ExpMxC= 1.05D+03 IAcc=3 IRadAn=         5 AccDes= 0.00D+00
 Harris functional with IExCor= 1009 and IRadAn=       5 diagonalized for initial guess.
 HarFok:  IExCor= 1009 AccDes= 0.00D+00 IRadAn=         5 IDoV= 1 UseB2=F ITyADJ=14
 ICtDFT=  3500011 ScaDFX=  1.000000  1.000000  1.000000  1.000000
 Defaulting to unpruned grid for atomic number  77.
 FoFCou: FMM=F IPFlag=           0 FMFlag=      100000 FMFlg1=        2001
         NFxFlg=           0 DoJE=T BraDBF=F KetDBF=T FulRan=T
         wScrn=  0.000000 ICntrl=       500 IOpCl=  0 I1Cent=   200000004 NGrid=           0
         NMat0=    1 NMatS0=      1 NMatT0=    0 NMatD0=    1 NMtDS0=    0 NMtDT0=    0
 Petite list used in FoFCou.
 Requested convergence on RMS density matrix=1.00D-08 within 128 cycles.
 Requested convergence on MAX density matrix=1.00D-06.
 Requested convergence on             energy=1.00D-06.
 No special actions if energy rises.
 Defaulting to unpruned grid for atomic number  77.
 Defaulting to unpruned grid for atomic number  77.
 Defaulting to unpruned grid for atomic number  77.
 Defaulting to unpruned grid for atomic number  77.
 Defaulting to unpruned grid for atomic number  77.
 Defaulting to unpruned grid for atomic number  77.
 Defaulting to unpruned grid for atomic number  77.
 Defaulting to unpruned grid for atomic number  77.
 Defaulting to unpruned grid for atomic number  77.
 Defaulting to unpruned grid for atomic number  77.
 Defaulting to unpruned grid for atomic number  77.
 Defaulting to unpruned grid for atomic number  77.
 Defaulting to unpruned grid for atomic number  77.
 Defaulting to unpruned grid for atomic number  77.
 Defaulting to unpruned grid for atomic number  77.
 Defaulting to unpruned grid for atomic number  77.
 SCF Done:  E(RM06) =  -2614.46436293     A.U. after   14 cycles
            NFock= 14  Conv=0.95D-08     -V/T= 2.0345
 DoSCS=F DFT=T ScalE2(SS,OS)=  1.000000  1.000000
 Range of M.O.s used for correlation:     1   884
 NBasis=   884 NAE=   209 NBE=   209 NFC=     0 NFV=     0
 NROrb=    884 NOA=   209 NOB=   209 NVA=   675 NVB=   675

 **** Warning!!: The largest alpha MO coefficient is  0.12723009D+02

   1 Symmetry operations used in ECPInt.
 ECPInt:  NShTT=   57970 NPrTT=  353525 LenC2=   42809 LenP2D=  131197.
 LDataN:  DoStor=T MaxTD1= 7 Len=  274
 Number of processors reduced to   7 by ecpmxn.
 Symmetrizing basis deriv contribution to polar:
 IMax=3 JMax=2 DiffMx= 0.00D+00
 G2DrvN: will do   115 centers at a time, making    1 passes.
 Calling FoFCou, ICntrl=  3107 FMM=T I1Cent=   0 AccDes= 0.00D+00.
 Defaulting to unpruned grid for atomic number  77.
 Defaulting to unpruned grid for atomic number  77.
 Defaulting to unpruned grid for atomic number  77.
 Defaulting to unpruned grid for atomic number  77.
 Defaulting to unpruned grid for atomic number  77.
 Defaulting to unpruned grid for atomic number  77.
 Defaulting to unpruned grid for atomic number  77.
 Defaulting to unpruned grid for atomic number  77.
 Defaulting to unpruned grid for atomic number  77.
 Defaulting to unpruned grid for atomic number  77.
 Defaulting to unpruned grid for atomic number  77.
 Defaulting to unpruned grid for atomic number  77.
 Defaulting to unpruned grid for atomic number  77.
 Defaulting to unpruned grid for atomic number  77.
 Defaulting to unpruned grid for atomic number  77.
 Defaulting to unpruned grid for atomic number  77.
 End of G2Drv F.D. properties file   721 does not exist.
 End of G2Drv F.D. properties file   722 does not exist.
 End of G2Drv F.D. properties file   788 does not exist.
          IDoAtm=11111111111111111111111111111111111111111111111111
          IDoAtm=11111111111111111111111111111111111111111111111111
          IDoAtm=11111111111111
          Differentiating once with respect to electric field.
                with respect to dipole field.
          Differentiating once with respect to nuclear coordinates.
 Defaulting to unpruned grid for atomic number  77.
 CalDSu exits because no D1Ps are significant.
 Defaulting to unpruned grid for atomic number  77.
 Defaulting to unpruned grid for atomic number  77.
 Defaulting to unpruned grid for atomic number  77.
 Defaulting to unpruned grid for atomic number  77.
 Defaulting to unpruned grid for atomic number  77.
 Defaulting to unpruned grid for atomic number  77.
 Defaulting to unpruned grid for atomic number  77.
 Defaulting to unpruned grid for atomic number  77.
 Defaulting to unpruned grid for atomic number  77.
 Defaulting to unpruned grid for atomic number  77.
 Defaulting to unpruned grid for atomic number  77.
 Defaulting to unpruned grid for atomic number  77.
 Defaulting to unpruned grid for atomic number  77.
 Defaulting to unpruned grid for atomic number  77.
 Defaulting to unpruned grid for atomic number  77.
 Defaulting to unpruned grid for atomic number  77.
          There are   345 degrees of freedom in the 1st order CPHF.  IDoFFX=6 NUNeed=     3.
    342 vectors produced by pass  0 Test12= 1.41D-13 1.00D-09 XBig12= 4.54D+02 6.55D+00.
 AX will form    72 AO Fock derivatives at one time.
    342 vectors produced by pass  1 Test12= 1.41D-13 1.00D-09 XBig12= 6.88D+01 1.32D+00.
    342 vectors produced by pass  2 Test12= 1.41D-13 1.00D-09 XBig12= 7.19D-01 7.18D-02.
    342 vectors produced by pass  3 Test12= 1.41D-13 1.00D-09 XBig12= 4.78D-03 4.29D-03.
    342 vectors produced by pass  4 Test12= 1.41D-13 1.00D-09 XBig12= 1.63D-05 2.72D-04.
    302 vectors produced by pass  5 Test12= 1.41D-13 1.00D-09 XBig12= 2.82D-08 1.12D-05.
     76 vectors produced by pass  6 Test12= 1.41D-13 1.00D-09 XBig12= 4.02D-11 3.40D-07.
      3 vectors produced by pass  7 Test12= 1.41D-13 1.00D-09 XBig12= 5.34D-14 1.08D-08.
 InvSVY:  IOpt=1 It=  1 EMax= 1.42D-14
 Solved reduced A of dimension  2091 with   345 vectors.
 Isotropic polarizability for W=    0.000000      503.49 Bohr**3.
 End of Minotr F.D. properties file   721 does not exist.
 End of Minotr F.D. properties file   722 does not exist.
 End of Minotr F.D. properties file   788 does not exist.
 Hyperfine terms turned off by default for NAtoms > 100.

 **********************************************************************

            Population analysis using the SCF Density.

 **********************************************************************

 Orbital symmetries:
       Occupied  (A) (A) (A) (A) (A) (A) (A) (A) (A) (A) (A) (A)
                 (A) (A) (A) (A) (A) (A) (A) (A) (A) (A) (A) (A)
                 (A) (A) (A) (A) (A) (A) (A) (A) (A) (A) (A) (A)
                 (A) (A) (A) (A) (A) (A) (A) (A) (A) (A) (A) (A)
                 (A) (A) (A) (A) (A) (A) (A) (A) (A) (A) (A) (A)
                 (A) (A) (A) (A) (A) (A) (A) (A) (A) (A) (A) (A)
                 (A) (A) (A) (A) (A) (A) (A) (A) (A) (A) (A) (A)
                 (A) (A) (A) (A) (A) (A) (A) (A) (A) (A) (A) (A)
                 (A) (A) (A) (A) (A) (A) (A) (A) (A) (A) (A) (A)
                 (A) (A) (A) (A) (A) (A) (A) (A) (A) (A) (A) (A)
                 (A) (A) (A) (A) (A) (A) (A) (A) (A) (A) (A) (A)
                 (A) (A) (A) (A) (A) (A) (A) (A) (A) (A) (A) (A)
                 (A) (A) (A) (A) (A) (A) (A) (A) (A) (A) (A) (A)
                 (A) (A) (A) (A) (A) (A) (A) (A) (A) (A) (A) (A)
                 (A) (A) (A) (A) (A) (A) (A) (A) (A) (A) (A) (A)
                 (A) (A) (A) (A) (A) (A) (A) (A) (A) (A) (A) (A)
                 (A) (A) (A) (A) (A) (A) (A) (A) (A) (A) (A) (A)
                 (A) (A) (A) (A) (A)
       Virtual   (A) (A) (A) (A) (A) (A) (A) (A) (A) (A) (A) (A)
                 (A) (A) (A) (A) (A) (A) (A) (A) (A) (A) (A) (A)
                 (A) (A) (A) (A) (A) (A) (A) (A) (A) (A) (A) (A)
                 (A) (A) (A) (A) (A) (A) (A) (A) (A) (A) (A) (A)
                 (A) (A) (A) (A) (A) (A) (A) (A) (A) (A) (A) (A)
                 (A) (A) (A) (A) (A) (A) (A) (A) (A) (A) (A) (A)
                 (A) (A) (A) (A) (A) (A) (A) (A) (A) (A) (A) (A)
                 (A) (A) (A) (A) (A) (A) (A) (A) (A) (A) (A) (A)
                 (A) (A) (A) (A) (A) (A) (A) (A) (A) (A) (A) (A)
                 (A) (A) (A) (A) (A) (A) (A) (A) (A) (A) (A) (A)
                 (A) (A) (A) (A) (A) (A) (A) (A) (A) (A) (A) (A)
                 (A) (A) (A) (A) (A) (A) (A) (A) (A) (A) (A) (A)
                 (A) (A) (A) (A) (A) (A) (A) (A) (A) (A) (A) (A)
                 (A) (A) (A) (A) (A) (A) (A) (A) (A) (A) (A) (A)
                 (A) (A) (A) (A) (A) (A) (A) (A) (A) (A) (A) (A)
                 (A) (A) (A) (A) (A) (A) (A) (A) (A) (A) (A) (A)
                 (A) (A) (A) (A) (A) (A) (A) (A) (A) (A) (A) (A)
                 (A) (A) (A) (A) (A) (A) (A) (A) (A) (A) (A) (A)
                 (A) (A) (A) (A) (A) (A) (A) (A) (A) (A) (A) (A)
                 (A) (A) (A) (A) (A) (A) (A) (A) (A) (A) (A) (A)
                 (A) (A) (A) (A) (A) (A) (A) (A) (A) (A) (A) (A)
                 (A) (A) (A) (A) (A) (A) (A) (A) (A) (A) (A) (A)
                 (A) (A) (A) (A) (A) (A) (A) (A) (A) (A) (A) (A)
                 (A) (A) (A) (A) (A) (A) (A) (A) (A) (A) (A) (A)
                 (A) (A) (A) (A) (A) (A) (A) (A) (A) (A) (A) (A)
                 (A) (A) (A) (A) (A) (A) (A) (A) (A) (A) (A) (A)
                 (A) (A) (A) (A) (A) (A) (A) (A) (A) (A) (A) (A)
                 (A) (A) (A) (A) (A) (A) (A) (A) (A) (A) (A) (A)
                 (A) (A) (A) (A) (A) (A) (A) (A) (A) (A) (A) (A)
                 (A) (A) (A) (A) (A) (A) (A) (A) (A) (A) (A) (A)
                 (A) (A) (A) (A) (A) (A) (A) (A) (A) (A) (A) (A)
                 (A) (A) (A) (A) (A) (A) (A) (A) (A) (A) (A) (A)
                 (A) (A) (A) (A) (A) (A) (A) (A) (A) (A) (A) (A)
                 (A) (A) (A) (A) (A) (A) (A) (A) (A) (A) (A) (A)
                 (A) (A) (A) (A) (A) (A) (A) (A) (A) (A) (A) (A)
                 (A) (A) (A) (A) (A) (A) (A) (A) (A) (A) (A) (A)
                 (A) (A) (A) (A) (A) (A) (A) (A) (A) (A) (A) (A)
                 (A) (A) (A) (A) (A) (A) (A) (A) (A) (A) (A) (A)
                 (A) (A) (A) (A) (A) (A) (A) (A) (A) (A) (A) (A)
                 (A) (A) (A) (A) (A) (A) (A) (A) (A) (A) (A) (A)
                 (A) (A) (A) (A) (A) (A) (A) (A) (A) (A) (A) (A)
                 (A) (A) (A) (A) (A) (A) (A) (A) (A) (A) (A) (A)
                 (A) (A) (A) (A) (A) (A) (A) (A) (A) (A) (A) (A)
                 (A) (A) (A) (A) (A) (A) (A) (A) (A) (A) (A) (A)
                 (A) (A) (A) (A) (A) (A) (A) (A) (A) (A) (A) (A)
                 (A) (A) (A) (A) (A) (A) (A) (A) (A) (A) (A) (A)
                 (A) (A) (A) (A) (A) (A) (A) (A) (A) (A) (A) (A)
                 (A) (A) (A) (A) (A) (A) (A) (A) (A) (A) (A) (A)
                 (A) (A) (A) (A) (A) (A) (A) (A) (A) (A) (A) (A)
                 (A) (A) (A) (A) (A) (A) (A) (A) (A) (A) (A) (A)
                 (A) (A) (A) (A) (A) (A) (A) (A) (A) (A) (A) (A)
                 (A) (A) (A) (A) (A) (A) (A) (A) (A) (A) (A) (A)
                 (A) (A) (A) (A) (A) (A) (A) (A) (A) (A) (A) (A)
                 (A) (A) (A) (A) (A) (A) (A) (A) (A) (A) (A) (A)
                 (A) (A) (A) (A) (A) (A) (A) (A) (A) (A) (A) (A)
                 (A) (A) (A) (A) (A) (A) (A) (A) (A) (A) (A) (A)
                 (A) (A) (A)
 The electronic state is 1-A.
 Alpha  occ. eigenvalues --  -24.83350 -24.82791 -24.82653 -19.21404 -19.20841
 Alpha  occ. eigenvalues --  -19.20728 -19.20654 -19.19868 -19.19405 -19.16438
 Alpha  occ. eigenvalues --  -14.46031 -14.44585 -14.40196 -10.51378 -10.32531
 Alpha  occ. eigenvalues --  -10.32364 -10.32038 -10.30990 -10.30202 -10.30096
 Alpha  occ. eigenvalues --  -10.29947 -10.29660 -10.29642 -10.29577 -10.29144
 Alpha  occ. eigenvalues --  -10.28984 -10.28927 -10.28700 -10.28507 -10.28309
 Alpha  occ. eigenvalues --  -10.27787 -10.25795 -10.23558 -10.23511 -10.23506
 Alpha  occ. eigenvalues --  -10.23415 -10.23219 -10.23037 -10.23023 -10.22946
 Alpha  occ. eigenvalues --  -10.22700 -10.22612 -10.22607 -10.22532 -10.22365
 Alpha  occ. eigenvalues --  -10.22321 -10.22241 -10.22151 -10.21962 -10.21489
 Alpha  occ. eigenvalues --   -6.82070  -6.81124  -6.78941  -3.64333  -2.07280
 Alpha  occ. eigenvalues --   -2.06088  -2.05095  -1.35764  -1.27301  -1.26717
 Alpha  occ. eigenvalues --   -1.07122  -1.06633  -1.05699  -1.02195  -1.00409
 Alpha  occ. eigenvalues --   -1.00134  -0.99738  -0.98707  -0.98008  -0.91639
 Alpha  occ. eigenvalues --   -0.86027  -0.84181  -0.83339  -0.81200  -0.80782
 Alpha  occ. eigenvalues --   -0.80631  -0.79909  -0.79093  -0.75955  -0.75618
 Alpha  occ. eigenvalues --   -0.75096  -0.74367  -0.73743  -0.71154  -0.70466
 Alpha  occ. eigenvalues --   -0.69986  -0.69909  -0.69507  -0.68764  -0.68574
 Alpha  occ. eigenvalues --   -0.68349  -0.67767  -0.67191  -0.65375  -0.64826
 Alpha  occ. eigenvalues --   -0.64441  -0.62551  -0.61763  -0.61725  -0.61607
 Alpha  occ. eigenvalues --   -0.61062  -0.60703  -0.60286  -0.57362  -0.56419
 Alpha  occ. eigenvalues --   -0.55504  -0.55225  -0.54687  -0.54117  -0.53820
 Alpha  occ. eigenvalues --   -0.53600  -0.52830  -0.52375  -0.51259  -0.50377
 Alpha  occ. eigenvalues --   -0.49285  -0.49239  -0.49008  -0.48709  -0.48569
 Alpha  occ. eigenvalues --   -0.48081  -0.47572  -0.47483  -0.47187  -0.46703
 Alpha  occ. eigenvalues --   -0.46660  -0.46466  -0.45989  -0.45802  -0.45550
 Alpha  occ. eigenvalues --   -0.45510  -0.45353  -0.45020  -0.44896  -0.44460
 Alpha  occ. eigenvalues --   -0.44434  -0.44281  -0.44174  -0.43948  -0.43635
 Alpha  occ. eigenvalues --   -0.43204  -0.43107  -0.43035  -0.42605  -0.42153
 Alpha  occ. eigenvalues --   -0.41754  -0.40737  -0.40706  -0.40537  -0.40319
 Alpha  occ. eigenvalues --   -0.40223  -0.40095  -0.39884  -0.39862  -0.39768
 Alpha  occ. eigenvalues --   -0.39503  -0.39330  -0.39315  -0.38976  -0.38870
 Alpha  occ. eigenvalues --   -0.38717  -0.38486  -0.38236  -0.38209  -0.37727
 Alpha  occ. eigenvalues --   -0.37305  -0.37237  -0.37103  -0.36919  -0.36608
 Alpha  occ. eigenvalues --   -0.36469  -0.36274  -0.36097  -0.35861  -0.35704
 Alpha  occ. eigenvalues --   -0.35469  -0.35437  -0.35374  -0.35191  -0.34545
 Alpha  occ. eigenvalues --   -0.34395  -0.33928  -0.33849  -0.33430  -0.33104
 Alpha  occ. eigenvalues --   -0.32700  -0.32440  -0.32372  -0.32112  -0.31980
 Alpha  occ. eigenvalues --   -0.31754  -0.31409  -0.31223  -0.30973  -0.30860
 Alpha  occ. eigenvalues --   -0.30458  -0.29821  -0.29248  -0.28029  -0.27349
 Alpha  occ. eigenvalues --   -0.26925  -0.26536  -0.26093  -0.25426  -0.25015
 Alpha  occ. eigenvalues --   -0.23831  -0.23417  -0.22449  -0.18407
 Alpha virt. eigenvalues --   -0.07528  -0.04143  -0.03239   0.00785   0.02720
 Alpha virt. eigenvalues --    0.03878   0.05384   0.06012   0.06572   0.06943
 Alpha virt. eigenvalues --    0.07260   0.08410   0.09363   0.09755   0.10026
 Alpha virt. eigenvalues --    0.10237   0.10701   0.10978   0.11376   0.11558
 Alpha virt. eigenvalues --    0.12021   0.12242   0.12772   0.12945   0.13124
 Alpha virt. eigenvalues --    0.13349   0.13735   0.14071   0.14156   0.14176
 Alpha virt. eigenvalues --    0.14634   0.14681   0.14920   0.15122   0.15403
 Alpha virt. eigenvalues --    0.15584   0.15660   0.15834   0.16162   0.16240
 Alpha virt. eigenvalues --    0.16440   0.16673   0.16844   0.17024   0.17315
 Alpha virt. eigenvalues --    0.17488   0.17585   0.17839   0.17969   0.18227
 Alpha virt. eigenvalues --    0.18372   0.18620   0.18766   0.19000   0.19121
 Alpha virt. eigenvalues --    0.19157   0.19267   0.19530   0.19790   0.19867
 Alpha virt. eigenvalues --    0.20011   0.20050   0.20411   0.20418   0.20598
 Alpha virt. eigenvalues --    0.20811   0.21106   0.21340   0.21585   0.21681
 Alpha virt. eigenvalues --    0.22084   0.22181   0.22606   0.22807   0.23099
 Alpha virt. eigenvalues --    0.23148   0.23326   0.23454   0.23858   0.23974
 Alpha virt. eigenvalues --    0.24131   0.24262   0.24528   0.24598   0.24936
 Alpha virt. eigenvalues --    0.25204   0.25456   0.25633   0.25795   0.26098
 Alpha virt. eigenvalues --    0.26506   0.26562   0.26912   0.27077   0.27511
 Alpha virt. eigenvalues --    0.27659   0.27690   0.28012   0.28093   0.28621
 Alpha virt. eigenvalues --    0.28982   0.29243   0.29305   0.29701   0.30098
 Alpha virt. eigenvalues --    0.30712   0.31023   0.31210   0.31543   0.32486
 Alpha virt. eigenvalues --    0.33190   0.33760   0.34286   0.34785   0.35922
 Alpha virt. eigenvalues --    0.36085   0.36729   0.37121   0.37604   0.38511
 Alpha virt. eigenvalues --    0.38974   0.39641   0.40282   0.41215   0.41703
 Alpha virt. eigenvalues --    0.42551   0.43925   0.45324   0.46552   0.46981
 Alpha virt. eigenvalues --    0.47377   0.48461   0.48677   0.49308   0.49620
 Alpha virt. eigenvalues --    0.49920   0.50208   0.50346   0.51312   0.51889
 Alpha virt. eigenvalues --    0.52024   0.52305   0.52409   0.52791   0.53264
 Alpha virt. eigenvalues --    0.53555   0.54319   0.54765   0.54836   0.55051
 Alpha virt. eigenvalues --    0.55440   0.55495   0.55734   0.56011   0.56475
 Alpha virt. eigenvalues --    0.56598   0.56974   0.57127   0.57364   0.57770
 Alpha virt. eigenvalues --    0.57896   0.58015   0.58159   0.58390   0.58614
 Alpha virt. eigenvalues --    0.58843   0.59389   0.59551   0.59709   0.60133
 Alpha virt. eigenvalues --    0.60197   0.60406   0.60767   0.60911   0.61563
 Alpha virt. eigenvalues --    0.62027   0.62294   0.62617   0.63074   0.63323
 Alpha virt. eigenvalues --    0.63982   0.64022   0.64421   0.64676   0.64887
 Alpha virt. eigenvalues --    0.65150   0.65478   0.65839   0.66362   0.66840
 Alpha virt. eigenvalues --    0.67213   0.67404   0.67778   0.68222   0.68525
 Alpha virt. eigenvalues --    0.68689   0.69010   0.69579   0.69759   0.70222
 Alpha virt. eigenvalues --    0.70727   0.70775   0.70998   0.71383   0.71674
 Alpha virt. eigenvalues --    0.72058   0.72337   0.72559   0.72869   0.73290
 Alpha virt. eigenvalues --    0.73402   0.73555   0.74275   0.74442   0.75063
 Alpha virt. eigenvalues --    0.75152   0.75599   0.75850   0.76141   0.76411
 Alpha virt. eigenvalues --    0.76655   0.77203   0.78016   0.78270   0.78525
 Alpha virt. eigenvalues --    0.78816   0.79625   0.79725   0.80181   0.80653
 Alpha virt. eigenvalues --    0.80919   0.81470   0.81922   0.82109   0.82449
 Alpha virt. eigenvalues --    0.82718   0.83306   0.83692   0.83928   0.84078
 Alpha virt. eigenvalues --    0.84250   0.84544   0.84616   0.84872   0.85174
 Alpha virt. eigenvalues --    0.85335   0.85574   0.85719   0.85953   0.86300
 Alpha virt. eigenvalues --    0.86422   0.86675   0.86868   0.87362   0.87470
 Alpha virt. eigenvalues --    0.87968   0.88147   0.88376   0.88678   0.88781
 Alpha virt. eigenvalues --    0.89014   0.89350   0.89692   0.89746   0.89979
 Alpha virt. eigenvalues --    0.90078   0.90208   0.90318   0.90403   0.90803
 Alpha virt. eigenvalues --    0.91049   0.91309   0.91495   0.91822   0.92123
 Alpha virt. eigenvalues --    0.92322   0.92491   0.92611   0.93120   0.93378
 Alpha virt. eigenvalues --    0.93684   0.93957   0.94152   0.94568   0.94842
 Alpha virt. eigenvalues --    0.94948   0.95340   0.95525   0.95805   0.96056
 Alpha virt. eigenvalues --    0.96274   0.96810   0.96912   0.97243   0.97456
 Alpha virt. eigenvalues --    0.97778   0.98220   0.98735   0.98871   0.99779
 Alpha virt. eigenvalues --    1.00396   1.00477   1.00863   1.01345   1.02009
 Alpha virt. eigenvalues --    1.02482   1.02939   1.03495   1.03636   1.03997
 Alpha virt. eigenvalues --    1.04581   1.05204   1.05666   1.06676   1.07285
 Alpha virt. eigenvalues --    1.07612   1.08240   1.08718   1.08929   1.09646
 Alpha virt. eigenvalues --    1.10030   1.10343   1.10897   1.11654   1.12636
 Alpha virt. eigenvalues --    1.12759   1.13722   1.14228   1.14775   1.15505
 Alpha virt. eigenvalues --    1.16058   1.16121   1.16359   1.17106   1.17674
 Alpha virt. eigenvalues --    1.17969   1.18720   1.18891   1.19298   1.19945
 Alpha virt. eigenvalues --    1.20631   1.21215   1.21408   1.22246   1.22721
 Alpha virt. eigenvalues --    1.23619   1.23717   1.24173   1.24559   1.25597
 Alpha virt. eigenvalues --    1.26195   1.26695   1.27961   1.28517   1.28686
 Alpha virt. eigenvalues --    1.28965   1.29327   1.30342   1.30520   1.30652
 Alpha virt. eigenvalues --    1.31690   1.32112   1.32909   1.33784   1.34322
 Alpha virt. eigenvalues --    1.34657   1.35009   1.35632   1.36857   1.37450
 Alpha virt. eigenvalues --    1.38152   1.38430   1.38710   1.38994   1.39595
 Alpha virt. eigenvalues --    1.39899   1.40112   1.40961   1.41452   1.42098
 Alpha virt. eigenvalues --    1.42249   1.42953   1.43371   1.43708   1.44383
 Alpha virt. eigenvalues --    1.44599   1.45059   1.45837   1.46127   1.46509
 Alpha virt. eigenvalues --    1.46737   1.47313   1.47344   1.48414   1.48709
 Alpha virt. eigenvalues --    1.48796   1.49723   1.49952   1.50709   1.51499
 Alpha virt. eigenvalues --    1.51919   1.52802   1.54320   1.54763   1.55047
 Alpha virt. eigenvalues --    1.55388   1.56004   1.57550   1.58567   1.59408
 Alpha virt. eigenvalues --    1.60179   1.60790   1.62235   1.62942   1.63750
 Alpha virt. eigenvalues --    1.64207   1.64658   1.65102   1.65644   1.66179
 Alpha virt. eigenvalues --    1.67084   1.67615   1.68078   1.68797   1.69470
 Alpha virt. eigenvalues --    1.69960   1.70189   1.70772   1.71437   1.71756
 Alpha virt. eigenvalues --    1.72154   1.72438   1.73399   1.73944   1.75119
 Alpha virt. eigenvalues --    1.76234   1.76419   1.76953   1.77139   1.77352
 Alpha virt. eigenvalues --    1.77858   1.78241   1.78774   1.79830   1.80087
 Alpha virt. eigenvalues --    1.80552   1.80968   1.81646   1.81991   1.83021
 Alpha virt. eigenvalues --    1.83300   1.83618   1.83978   1.84250   1.84405
 Alpha virt. eigenvalues --    1.84759   1.84845   1.85727   1.86145   1.86605
 Alpha virt. eigenvalues --    1.87012   1.87602   1.88114   1.88260   1.88498
 Alpha virt. eigenvalues --    1.88922   1.89077   1.89994   1.90225   1.90703
 Alpha virt. eigenvalues --    1.90979   1.91202   1.91238   1.91723   1.91881
 Alpha virt. eigenvalues --    1.91948   1.92234   1.92761   1.93107   1.93138
 Alpha virt. eigenvalues --    1.93312   1.93646   1.93731   1.94339   1.94643
 Alpha virt. eigenvalues --    1.95560   1.95882   1.96260   1.96765   1.97017
 Alpha virt. eigenvalues --    1.97499   1.97848   1.99077   1.99788   2.00161
 Alpha virt. eigenvalues --    2.00517   2.00965   2.01256   2.01713   2.02079
 Alpha virt. eigenvalues --    2.02469   2.02810   2.02985   2.03091   2.03548
 Alpha virt. eigenvalues --    2.04145   2.04931   2.05391   2.05568   2.05913
 Alpha virt. eigenvalues --    2.06423   2.06662   2.06897   2.07461   2.07821
 Alpha virt. eigenvalues --    2.07981   2.08883   2.09043   2.09825   2.09912
 Alpha virt. eigenvalues --    2.10165   2.10658   2.10828   2.11075   2.11395
 Alpha virt. eigenvalues --    2.11812   2.12294   2.13008   2.13601   2.13634
 Alpha virt. eigenvalues --    2.14067   2.14481   2.14818   2.15020   2.15469
 Alpha virt. eigenvalues --    2.15744   2.16211   2.16302   2.16839   2.17148
 Alpha virt. eigenvalues --    2.17914   2.18028   2.18570   2.18662   2.19404
 Alpha virt. eigenvalues --    2.19648   2.19745   2.20082   2.20311   2.20908
 Alpha virt. eigenvalues --    2.21124   2.21653   2.21872   2.22127   2.22445
 Alpha virt. eigenvalues --    2.22867   2.23563   2.24100   2.24652   2.25188
 Alpha virt. eigenvalues --    2.25332   2.25924   2.26143   2.26215   2.26496
 Alpha virt. eigenvalues --    2.27022   2.27308   2.28054   2.28683   2.28939
 Alpha virt. eigenvalues --    2.29855   2.30321   2.31352   2.31668   2.32087
 Alpha virt. eigenvalues --    2.32357   2.32758   2.33138   2.33284   2.33363
 Alpha virt. eigenvalues --    2.35031   2.35169   2.35438   2.36238   2.36679
 Alpha virt. eigenvalues --    2.37709   2.38378   2.38621   2.39589   2.39783
 Alpha virt. eigenvalues --    2.40395   2.41519   2.42750   2.44159   2.45894
 Alpha virt. eigenvalues --    2.46489   2.47130   2.47586   2.48101   2.48836
 Alpha virt. eigenvalues --    2.49130   2.49630   2.49806   2.50681   2.50759
 Alpha virt. eigenvalues --    2.51118   2.53643   2.54486   2.54722   2.56868
 Alpha virt. eigenvalues --    2.57860   2.58242   2.59530   2.59935   2.60293
 Alpha virt. eigenvalues --    2.61201   2.61885   2.63408   2.64113   2.65138
 Alpha virt. eigenvalues --    2.65358   2.65427   2.66376   2.68380   2.69070
 Alpha virt. eigenvalues --    2.70090   2.70689   2.72003   2.72426   2.73855
 Alpha virt. eigenvalues --    2.77032   2.77312   2.78163   2.78339   2.78747
 Alpha virt. eigenvalues --    2.78839   2.79832   2.80091   2.80683   2.81166
 Alpha virt. eigenvalues --    2.81379   2.81890   2.82342   2.83276   2.84202
 Alpha virt. eigenvalues --    2.84780   2.85889   2.87226   2.89129   2.91161
 Alpha virt. eigenvalues --    2.91469   2.92168   2.92952   2.94630   2.96527
 Alpha virt. eigenvalues --    2.96739   2.97206   2.98501   3.00482   3.04188
 Alpha virt. eigenvalues --    3.04392   3.06316   3.06869   3.08399   3.09362
 Alpha virt. eigenvalues --    3.10358   3.13070   3.13707   3.13897   3.15723
 Alpha virt. eigenvalues --    3.22740   3.27336   3.31809   3.45349  14.59711
          Condensed to atoms (all electrons):
 Mulliken charges:
               1
     1  C    0.331691
     2  C    0.016901
     3  C   -0.065079
     4  C   -0.164983
     5  C   -0.175064
     6  C    0.341023
     7  C    0.043923
     8  C   -0.171202
     9  C   -0.140965
    10  C   -0.168632
    11  H    0.232035
    12  H    0.198296
    13  H    0.179308
    14  H    0.258776
    15  H    0.184364
    16  H    0.174314
    17  N   -0.463344
    18  N   -0.549235
    19  Ir  -0.103484
    20  O   -0.483464
    21  O   -0.532151
    22  O   -0.519023
    23  B    0.477796
    24  B    0.497311
    25  B    0.425891
    26  O   -0.523943
    27  O   -0.512761
    28  C    0.291208
    29  C    0.289700
    30  C    0.286025
    31  C    0.297771
    32  C    0.297119
    33  C    0.300276
    34  O   -0.512352
    35  C   -0.507765
    36  H    0.172082
    37  H    0.163579
    38  H    0.150807
    39  C   -0.497472
    40  H    0.166364
    41  H    0.172873
    42  H    0.148422
    43  C   -0.497968
    44  H    0.154463
    45  H    0.153825
    46  H    0.166403
    47  C   -0.510560
    48  H    0.152352
    49  H    0.172527
    50  H    0.171137
    51  C   -0.516915
    52  H    0.151033
    53  H    0.170239
    54  H    0.165182
    55  C   -0.500327
    56  H    0.141499
    57  H    0.161260
    58  H    0.189994
    59  C   -0.512898
    60  H    0.147449
    61  H    0.171670
    62  H    0.176177
    63  C   -0.504799
    64  H    0.166952
    65  H    0.147108
    66  H    0.167586
    67  C   -0.514683
    68  H    0.170774
    69  H    0.172573
    70  H    0.151795
    71  C   -0.500041
    72  H    0.172431
    73  H    0.147533
    74  H    0.166151
    75  C   -0.510146
    76  H    0.152983
    77  H    0.170314
    78  H    0.165983
    79  C   -0.504798
    80  H    0.182379
    81  H    0.176555
    82  H    0.147901
    83  H    0.166954
    84  C    0.586203
    85  O   -0.538336
    86  C   -0.412350
    87  H    0.171902
    88  H    0.149937
    89  C   -0.349997
    90  H    0.143749
    91  H    0.186282
    92  N   -0.363413
    93  C   -0.355224
    94  H    0.176295
    95  H    0.167837
    96  H    0.189955
    97  C   -0.266184
    98  H    0.144528
    99  H    0.155773
   100  C   -0.282729
   101  H    0.122406
   102  H    0.139284
   103  C   -0.279706
   104  H    0.145434
   105  H    0.147938
   106  C   -0.498042
   107  H    0.162722
   108  H    0.161890
   109  H    0.157053
   110  C    0.981195
   111  F   -0.319925
   112  F   -0.307689
   113  F   -0.307829
   114  H    0.186058
 Sum of Mulliken charges =  -0.00000
 Mulliken charges with hydrogens summed into heavy atoms:
               1
     1  C    0.331691
     2  C    0.248937
     3  C   -0.065079
     4  C    0.033313
     5  C    0.004244
     6  C    0.341023
     7  C    0.302699
     8  C    0.014856
     9  C    0.043398
    10  C    0.005681
    17  N   -0.463344
    18  N   -0.549235
    19  Ir   0.063470
    20  O   -0.483464
    21  O   -0.532151
    22  O   -0.519023
    23  B    0.477796
    24  B    0.497311
    25  B    0.425891
    26  O   -0.523943
    27  O   -0.512761
    28  C    0.291208
    29  C    0.289700
    30  C    0.286025
    31  C    0.297771
    32  C    0.297119
    33  C    0.300276
    34  O   -0.512352
    35  C   -0.021298
    39  C   -0.009812
    43  C   -0.023276
    47  C   -0.014544
    51  C   -0.030461
    55  C   -0.007574
    59  C   -0.017602
    63  C   -0.023153
    67  C   -0.019541
    71  C   -0.013926
    75  C   -0.020866
    79  C    0.002036
    84  C    0.586203
    85  O   -0.538336
    86  C   -0.090510
    89  C   -0.019966
    92  N   -0.363413
    93  C    0.178863
    97  C    0.034117
   100  C   -0.021039
   103  C    0.013667
   106  C   -0.016377
   110  C    0.981195
   111  F   -0.319925
   112  F   -0.307689
   113  F   -0.307829
 APT charges:
               1
     1  C    0.282470
     2  C    0.090410
     3  C   -0.245189
     4  C    0.125101
     5  C   -0.193989
     6  C    0.197077
     7  C    0.010145
     8  C   -0.072600
     9  C    0.130351
    10  C   -0.174225
    11  H    0.119133
    12  H    0.067667
    13  H    0.047402
    14  H    0.163539
    15  H    0.032289
    16  H    0.046232
    17  N   -0.261231
    18  N   -0.072644
    19  Ir  -0.759425
    20  O   -0.888029
    21  O   -1.023933
    22  O   -1.014869
    23  B    1.288687
    24  B    1.128850
    25  B    1.324868
    26  O   -0.983031
    27  O   -0.893025
    28  C    0.442560
    29  C    0.460212
    30  C    0.496343
    31  C    0.526901
    32  C    0.516609
    33  C    0.493176
    34  O   -0.974901
    35  C    0.000406
    36  H    0.004437
    37  H   -0.005559
    38  H   -0.013977
    39  C   -0.016796
    40  H    0.012092
    41  H    0.002294
    42  H   -0.026963
    43  C   -0.015133
    44  H   -0.019378
    45  H   -0.014085
    46  H   -0.001418
    47  C    0.000463
    48  H   -0.016357
    49  H    0.001226
    50  H    0.001389
    51  C   -0.010044
    52  H   -0.017470
    53  H    0.000857
    54  H   -0.002881
    55  C   -0.037523
    56  H   -0.030465
    57  H   -0.004402
    58  H    0.031889
    59  C   -0.031637
    60  H   -0.028051
    61  H    0.003855
    62  H    0.008245
    63  C   -0.007817
    64  H   -0.001804
    65  H   -0.022146
    66  H    0.007601
    67  C   -0.016144
    68  H    0.004128
    69  H    0.004110
    70  H   -0.013848
    71  C   -0.029100
    72  H   -0.000312
    73  H   -0.023915
    74  H    0.004770
    75  C   -0.005710
    76  H   -0.016463
    77  H    0.000815
    78  H    0.001950
    79  C   -0.029264
    80  H    0.006603
    81  H   -0.002960
    82  H   -0.025373
    83  H   -0.007580
    84  C    0.888847
    85  O   -0.717253
    86  C   -0.036243
    87  H   -0.017182
    88  H   -0.011576
    89  C    0.379582
    90  H   -0.086025
    91  H   -0.032644
    92  N   -0.794779
    93  C    0.267675
    94  H   -0.030280
    95  H   -0.012216
    96  H    0.006036
    97  C    0.106964
    98  H   -0.022315
    99  H   -0.039964
   100  C    0.121024
   101  H   -0.052588
   102  H   -0.065912
   103  C    0.101776
   104  H   -0.052489
   105  H   -0.039104
   106  C    0.071052
   107  H   -0.038918
   108  H   -0.015275
   109  H   -0.025924
   110  C    1.764704
   111  F   -0.564822
   112  F   -0.564096
   113  F   -0.564499
   114  H    0.040955
 Sum of APT charges =  -0.00000
 APT charges with hydrogens summed into heavy atoms:
               1
     1  C    0.282470
     2  C    0.209543
     3  C   -0.245189
     4  C    0.192769
     5  C   -0.146588
     6  C    0.197077
     7  C    0.173684
     8  C   -0.031645
     9  C    0.162640
    10  C   -0.127993
    17  N   -0.261231
    18  N   -0.072644
    19  Ir  -0.767005
    20  O   -0.888029
    21  O   -1.023933
    22  O   -1.014869
    23  B    1.288687
    24  B    1.128850
    25  B    1.324868
    26  O   -0.983031
    27  O   -0.893025
    28  C    0.442560
    29  C    0.460212
    30  C    0.496343
    31  C    0.526901
    32  C    0.516609
    33  C    0.493176
    34  O   -0.974901
    35  C   -0.014693
    39  C   -0.029373
    43  C   -0.050013
    47  C   -0.013279
    51  C   -0.029537
    55  C   -0.040501
    59  C   -0.047589
    63  C   -0.024166
    67  C   -0.021753
    71  C   -0.048557
    75  C   -0.019408
    79  C   -0.050994
    84  C    0.888847
    85  O   -0.717253
    86  C   -0.065001
    89  C    0.260913
    92  N   -0.794779
    93  C    0.231214
    97  C    0.044685
   100  C    0.002524
   103  C    0.010182
   106  C   -0.009065
   110  C    1.764704
   111  F   -0.564822
   112  F   -0.564096
   113  F   -0.564499
 Electronic spatial extent (au):  <R**2>=          32947.5622
 Charge=             -0.0000 electrons
 Dipole moment (field-independent basis, Debye):
    X=             -1.1487    Y=              0.4025    Z=              4.4862  Tot=              4.6484
 Quadrupole moment (field-independent basis, Debye-Ang):
   XX=           -330.5452   YY=           -333.1203   ZZ=           -306.1960
   XY=              0.9875   XZ=              2.8326   YZ=            -11.1151
 Traceless Quadrupole moment (field-independent basis, Debye-Ang):
   XX=             -7.2580   YY=             -9.8331   ZZ=             17.0911
   XY=              0.9875   XZ=              2.8326   YZ=            -11.1151
 Octapole moment (field-independent basis, Debye-Ang**2):
  XXX=            -66.9747  YYY=              2.7334  ZZZ=             47.6647  XYY=            -75.5779
  XXY=            -27.8796  XXZ=              9.5157  XZZ=             12.1564  YZZ=            -52.6574
  YYZ=             12.0616  XYZ=              2.6949
 Hexadecapole moment (field-independent basis, Debye-Ang**3):
 XXXX=         -24148.3140 YYYY=          -9858.7452 ZZZZ=          -9009.5240 XXXY=            199.6987
 XXXZ=            204.2323 YYYX=            311.6037 YYYZ=           -216.4303 ZZZX=             70.6708
 ZZZY=           -164.2518 XXYY=          -5716.3905 XXZZ=          -5307.6321 YYZZ=          -2958.1896
 XXYZ=            103.4622 YYXZ=            -14.7127 ZZXY=             33.7399
 N-N= 9.355038820618D+03 E-N=-2.478858588306D+04  KE= 2.527251646700D+03
  Exact polarizability:     567.559      20.779     463.932      15.678     -37.197     478.976
 Approx polarizability:     759.556      53.543     697.658      37.565     -79.079     722.192
   1 Symmetry operations used in ECPInt.
 ECPInt:  NShTT=   57970 NPrTT=  353525 LenC2=   42809 LenP2D=  131197.
 LDataN:  DoStor=T MaxTD1= 8 Len=  415
 Calling FoFJK, ICntrl=    100127 FMM=F ISym2X=0 I1Cent= 0 IOpClX= 0 NMat=1 NMatS=1 NMatT=0.
 Defaulting to unpruned grid for atomic number  77.
 Defaulting to unpruned grid for atomic number  77.
 Defaulting to unpruned grid for atomic number  77.
 Defaulting to unpruned grid for atomic number  77.
 Defaulting to unpruned grid for atomic number  77.
 Defaulting to unpruned grid for atomic number  77.
 Defaulting to unpruned grid for atomic number  77.
 Defaulting to unpruned grid for atomic number  77.
 Defaulting to unpruned grid for atomic number  77.
 Defaulting to unpruned grid for atomic number  77.
 Defaulting to unpruned grid for atomic number  77.
 Defaulting to unpruned grid for atomic number  77.
 Defaulting to unpruned grid for atomic number  77.
 Defaulting to unpruned grid for atomic number  77.
 Defaulting to unpruned grid for atomic number  77.
 Defaulting to unpruned grid for atomic number  77.
 Full mass-weighted force constant matrix:
 Low frequencies ---   -4.0832    0.0002    0.0005    0.0008    4.9883    8.2153
 Low frequencies ---   12.8096   18.7907   28.5740
 Diagonal vibrational polarizability:
       99.1895799      83.5003452      62.6656019
 Harmonic frequencies (cm**-1), IR intensities (KM/Mole), Raman scattering
 activities (A**4/AMU), depolarization ratios for plane and unpolarized
 incident light, reduced masses (AMU), force constants (mDyne/A),
 and normal coordinates:
                      1                      2                      3
                      A                      A                      A
 Frequencies --     10.8738                18.5943                28.5417
 Red. masses --      4.4449                 4.7935                 4.1380
 Frc consts  --      0.0003                 0.0010                 0.0020
 IR Inten    --      0.0434                 0.2155                 0.1919
  Atom AN      X      Y      Z        X      Y      Z        X      Y      Z
     1   6     0.01   0.03   0.00     0.00   0.02  -0.03    -0.01  -0.02   0.01
     2   6     0.01   0.01  -0.02    -0.00   0.02  -0.04     0.01  -0.01   0.03
     3   6     0.03  -0.01  -0.03    -0.01   0.03  -0.03    -0.00  -0.01   0.05
     4   6     0.03  -0.00  -0.03    -0.01   0.05  -0.02    -0.02  -0.02   0.05
     5   6     0.02   0.01  -0.02    -0.01   0.05  -0.02    -0.02  -0.02   0.03
     6   6     0.00   0.04   0.01     0.02   0.01  -0.04    -0.01  -0.03  -0.01
     7   6     0.01   0.03   0.02     0.04  -0.02  -0.04    -0.02  -0.01  -0.02
     8   6     0.00   0.04   0.03     0.05  -0.03  -0.05    -0.02  -0.02  -0.03
     9   6    -0.00   0.06   0.03     0.05  -0.02  -0.05    -0.02  -0.03  -0.03
    10   6    -0.00   0.05   0.03     0.04  -0.00  -0.05    -0.02  -0.04  -0.02
    11   1     0.01   0.01  -0.01    -0.00   0.01  -0.04     0.02  -0.00   0.02
    12   1     0.04  -0.02  -0.05    -0.02   0.06  -0.02    -0.03  -0.01   0.06
    13   1     0.02   0.01  -0.02    -0.01   0.06  -0.01    -0.03  -0.03   0.03
    14   1     0.01   0.02   0.01     0.04  -0.03  -0.04    -0.02   0.00  -0.02
    15   1    -0.01   0.07   0.04     0.06  -0.03  -0.06    -0.03  -0.04  -0.03
    16   1    -0.01   0.07   0.03     0.04   0.00  -0.05    -0.02  -0.05  -0.01
    17   7     0.00   0.03   0.00     0.00   0.01  -0.04     0.00  -0.02   0.01
    18   7     0.01   0.03   0.01     0.02  -0.01  -0.04    -0.01  -0.01  -0.01
    19  77     0.00   0.02   0.01     0.00   0.00  -0.03    -0.00  -0.01  -0.01
    20   8    -0.02  -0.04  -0.01     0.03  -0.01   0.02     0.05  -0.04   0.05
    21   8     0.04  -0.04  -0.02    -0.00   0.01   0.00    -0.00  -0.00  -0.00
    22   8    -0.01   0.04   0.07    -0.03  -0.00   0.02     0.00   0.01   0.02
    23   5     0.01   0.01  -0.00    -0.01   0.01  -0.01    -0.01   0.00  -0.01
    24   5    -0.03  -0.01   0.00     0.02  -0.00  -0.00     0.01   0.00  -0.01
    25   5     0.00   0.03   0.02    -0.02   0.01  -0.01     0.01  -0.01  -0.03
    26   8     0.00   0.02  -0.01    -0.03   0.01  -0.02     0.02  -0.02  -0.08
    27   8    -0.07   0.01   0.00     0.04  -0.01  -0.00    -0.01   0.06  -0.07
    28   6    -0.08  -0.00  -0.01     0.06  -0.02   0.01     0.03   0.07  -0.04
    29   6    -0.06  -0.05  -0.02     0.05  -0.01   0.03     0.04  -0.02   0.03
    30   6    -0.03   0.05   0.08    -0.06   0.01   0.03    -0.02   0.01   0.02
    31   6     0.01   0.03   0.02    -0.05   0.01   0.00     0.02  -0.01  -0.06
    32   6     0.04  -0.07  -0.02    -0.01   0.01   0.02    -0.01  -0.00   0.01
    33   6     0.03  -0.01  -0.01    -0.03   0.01   0.01    -0.02   0.00   0.01
    34   8    -0.01   0.04   0.01    -0.03   0.01  -0.01    -0.03   0.01   0.00
    35   6    -0.05  -0.06  -0.02     0.06  -0.02   0.04     0.11  -0.03   0.09
    36   1    -0.03  -0.10  -0.03     0.06  -0.01   0.05     0.12  -0.11   0.13
    37   1    -0.03  -0.04  -0.00     0.07  -0.02   0.02     0.18   0.02   0.12
    38   1    -0.08  -0.06  -0.04     0.08  -0.02   0.05     0.10  -0.01   0.06
    39   6    -0.09  -0.08  -0.04     0.04  -0.01   0.05    -0.05  -0.10   0.01
    40   1    -0.10  -0.09  -0.06     0.03  -0.00   0.04    -0.11  -0.12  -0.06
    41   1    -0.08  -0.11  -0.03     0.03  -0.00   0.06    -0.07  -0.16   0.10
    42   1    -0.10  -0.07  -0.06     0.05  -0.01   0.06    -0.03  -0.07  -0.01
    43   6    -0.07   0.03   0.00     0.07  -0.02  -0.00     0.11   0.15  -0.03
    44   1    -0.08   0.02  -0.00     0.09  -0.02   0.01     0.15   0.16  -0.01
    45   1    -0.03   0.02   0.01     0.07  -0.02  -0.01     0.16   0.13   0.01
    46   1    -0.08   0.06   0.01     0.08  -0.02  -0.01     0.11   0.21  -0.08
    47   6    -0.13   0.00  -0.03     0.07  -0.02   0.02    -0.03   0.09  -0.11
    48   1    -0.14  -0.01  -0.03     0.09  -0.02   0.03     0.02   0.09  -0.07
    49   1    -0.14   0.04  -0.02     0.08  -0.02   0.00    -0.02   0.17  -0.18
    50   1    -0.15  -0.02  -0.04     0.06  -0.01   0.03    -0.11   0.04  -0.13
    51   6     0.09  -0.11  -0.05    -0.01   0.01   0.03    -0.00  -0.01   0.01
    52   1     0.09  -0.13  -0.06    -0.02   0.01   0.04    -0.01  -0.01   0.02
    53   1     0.13  -0.08  -0.07    -0.02   0.01   0.02     0.00  -0.01   0.01
    54   1     0.09  -0.15  -0.06     0.00   0.01   0.04     0.01  -0.01   0.02
    55   6    -0.02  -0.12   0.00    -0.01   0.01   0.03    -0.01  -0.01   0.02
    56   1    -0.02  -0.15   0.01    -0.01   0.01   0.04    -0.02  -0.02   0.04
    57   1    -0.00  -0.14   0.00     0.01   0.01   0.03     0.01  -0.01   0.03
    58   1    -0.06  -0.09   0.02    -0.01   0.01   0.02    -0.02  -0.01   0.01
    59   6     0.09   0.03  -0.04    -0.04   0.01   0.01    -0.02   0.01   0.00
    60   1     0.12  -0.01  -0.06    -0.05   0.01   0.02    -0.01   0.00   0.01
    61   1     0.08   0.07  -0.03    -0.06   0.01  -0.00    -0.03   0.02  -0.00
    62   1     0.12   0.04  -0.05    -0.03   0.01  -0.00    -0.00   0.01  -0.00
    63   6    -0.01  -0.03  -0.00    -0.05   0.01   0.02    -0.04  -0.01   0.02
    64   1    -0.01   0.01   0.01    -0.06   0.01   0.02    -0.04   0.01   0.01
    65   1     0.02  -0.08  -0.02    -0.05   0.01   0.04    -0.03  -0.02   0.02
    66   1    -0.06  -0.05   0.02    -0.04   0.01   0.03    -0.06  -0.01   0.02
    67   6    -0.03   0.02  -0.01    -0.07   0.02  -0.01    -0.01  -0.05  -0.12
    68   1     0.00   0.01  -0.05    -0.06   0.02  -0.03     0.01  -0.05  -0.18
    69   1    -0.07   0.02  -0.02    -0.09   0.03  -0.02    -0.06  -0.08  -0.12
    70   1    -0.03   0.03   0.02    -0.08   0.03   0.01    -0.02  -0.06  -0.12
    71   6     0.08   0.03   0.03    -0.03   0.00   0.01     0.11   0.02  -0.07
    72   1     0.10   0.03  -0.02    -0.02   0.00  -0.01     0.14   0.02  -0.14
    73   1     0.07   0.03   0.05    -0.04   0.00   0.03     0.11   0.02  -0.07
    74   1     0.12   0.04   0.07    -0.01  -0.01   0.02     0.16   0.05  -0.02
    75   6    -0.01   0.06   0.15    -0.06  -0.00   0.06     0.01   0.03   0.09
    76   1    -0.03   0.07   0.15    -0.08   0.00   0.07    -0.02   0.02   0.07
    77   1    -0.03   0.08   0.19    -0.06  -0.01   0.08    -0.03   0.04   0.15
    78   1     0.05   0.06   0.16    -0.04  -0.01   0.07     0.08   0.04   0.10
    79   6    -0.10   0.07   0.07    -0.09   0.03   0.02    -0.11   0.01   0.01
    80   1    -0.12   0.07   0.01    -0.09   0.03  -0.01    -0.14  -0.02  -0.04
    81   1    -0.12   0.08   0.10    -0.09   0.02   0.03    -0.14   0.03   0.06
    82   1    -0.13   0.08   0.07    -0.11   0.03   0.03    -0.13   0.00   0.01
    83   1    -0.00   0.02   0.01    -0.01   0.01  -0.03     0.00  -0.02  -0.02
    84   6     0.00  -0.00   0.01    -0.02  -0.03   0.02    -0.00   0.00  -0.01
    85   8    -0.01   0.01   0.01    -0.06  -0.04   0.00     0.00  -0.00  -0.01
    86   6     0.01  -0.02   0.01     0.00  -0.04   0.06    -0.00   0.01  -0.00
    87   1    -0.00  -0.03   0.01     0.03  -0.04   0.07     0.00   0.02  -0.00
    88   1     0.03  -0.02   0.00     0.02  -0.04   0.06    -0.01   0.01  -0.00
    89   6     0.00   0.02   0.01    -0.01   0.01  -0.05    -0.00  -0.01  -0.01
    90   1     0.00   0.02   0.00     0.00   0.04  -0.07     0.00  -0.01  -0.01
    91   1    -0.01   0.02   0.01    -0.04  -0.01  -0.07     0.00  -0.01  -0.01
    92   7     0.00   0.01   0.01     0.01  -0.01  -0.01    -0.00  -0.00  -0.01
    93   6     0.01   0.01   0.01     0.05  -0.00   0.00    -0.00  -0.00  -0.01
    94   1     0.01   0.01   0.00     0.03  -0.00   0.00    -0.02  -0.00  -0.01
    95   1     0.01   0.00   0.01     0.07   0.02   0.04     0.00   0.01  -0.00
    96   1     0.02   0.01   0.00     0.08  -0.00  -0.04     0.00  -0.01  -0.01
    97   6     0.01  -0.04   0.01    -0.04  -0.05   0.10    -0.00   0.02  -0.00
    98   1     0.01  -0.02   0.01    -0.08  -0.06   0.09    -0.01   0.02  -0.00
    99   1    -0.01  -0.04   0.01    -0.04  -0.05   0.10    -0.00   0.02  -0.00
   100   6     0.02  -0.06  -0.00    -0.03  -0.05   0.16    -0.01   0.02  -0.00
   101   1     0.04  -0.06  -0.01    -0.04  -0.05   0.15    -0.01   0.02  -0.00
   102   1     0.02  -0.07  -0.00    -0.07  -0.04   0.20    -0.01   0.03  -0.00
   103   6     0.01  -0.09  -0.00     0.03  -0.04   0.20    -0.00   0.02  -0.00
   104   1    -0.01  -0.09   0.00     0.04  -0.04   0.21     0.01   0.02   0.00
   105   1     0.02  -0.08  -0.00     0.07  -0.05   0.16    -0.00   0.01  -0.00
   106   6     0.03  -0.12  -0.01     0.04  -0.04   0.26    -0.01   0.03  -0.00
   107   1     0.02  -0.14  -0.01     0.08  -0.04   0.29    -0.01   0.03  -0.00
   108   1     0.06  -0.11  -0.02     0.03  -0.04   0.25    -0.02   0.03  -0.01
   109   1     0.03  -0.13  -0.01    -0.00  -0.03   0.30    -0.01   0.04   0.00
   110   6     0.04  -0.03  -0.05    -0.00   0.02  -0.05     0.00   0.01   0.08
   111   9     0.04  -0.04  -0.06    -0.02   0.06  -0.02     0.01  -0.03   0.08
   112   9     0.03  -0.06  -0.05     0.03  -0.03  -0.03    -0.01   0.05   0.07
   113   9     0.06  -0.02  -0.07    -0.01   0.01  -0.11     0.02   0.02   0.13
   114   1     0.00   0.04   0.03     0.06  -0.05  -0.06    -0.03  -0.02  -0.03
[...]
 10239,0.00000173,0.00061702,-0.00028376,-0.00016774,-0.00052233,0.0002
 4394,0.00011898,-0.00004877,0.00006041,-0.00003842,0.00003100,-0.00000
 171,-0.00004870,0.00003317,0.00000474,0.00008328,0.00012043,-0.0000443
 3,0.00003332,0.00019084,-0.00018764,-0.00007687,0.00001019,-0.00004982
 ,-0.00003057,-0.00002318,-0.00002571,0.00010823,0.00000565,0.00016124,
 0.00000361,0.00000474,-0.00000245,0.00000864,0.00000370,0.00000365,-0.
 00000299,-0.00001173,0.00001004,-0.00000120,-0.00000386,-0.00000350,0.
 00002016,0.00000837,-0.00000334,-0.00000560,-0.00000384,-0.00000340,0.
 00000660,0.00000209,0.00000525,0.00000072,-0.00000667,-0.00000097,-0.0
 0002306,-0.00000086,-0.00000066,0.00001686,-0.00000662,-0.00000381,-0.
 00001580,-0.00001099,0.00000337,0.00001670,0.00001546,0.00001955,-0.00
 001893,-0.00000160,-0.00001004,0.00000774,-0.00000152,-0.00000155,0.00
 000198,0.00001023,0.00000922,0.00001081,-0.00001444,0.00000670,0.00001
 162,-0.00000159,0.00000486,0.00000981,0.00000254,0.00000511,-0.0000026
 1,-0.00000168,-0.00000574,-0.00000775,0.00000073,0.00000169,0.00001054
 ,0.00000130,0.00000272,0.00001194,-0.00000180,0.00000424,-0.00000951,-
 0.00000271,0.00000538,-0.00000186,0.00000459,-0.00000707,0.00000761,0.
 00000757,-0.00000136,0.00000330,0.00000578,0.00000306,-0.00000423,-0.0
 0000241,0.00000648,0.00000260,-0.00000770,-0.00000310,0.00000167,0.000
 00782,0.00000389,-0.00000277,0.00000080,0.00001158,0.00000493,-0.00000
 286,0.00000275,0.00000417,0.00000029,-0.00000688,0.00016700,0.00013277
 ,0.00008608,0.00021997,-0.00034618,0.00006378,0.00002303,0.00002020,0.
 00004751,-0.00008007,-0.00001625,-0.00000641,0.00003506,-0.00002614,0.
 00006359,-0.00023454,0.00006088,-0.00006626,0.00000419,-0.00001467,-0.
 00000457,-0.00005256,0.00000552,0.00001478,-0.00000694,-0.00001737,0.0
 0000113,0.00001119,-0.00001640,0.00000870,-0.00001016,-0.00000013,-0.0
 0000615,0.00000017,0.00001085,0.00000669,-0.00001123,-0.00001783,0.000
 01065,0.00000743,0.00002585,-0.00000718,-0.00002207,-0.00000447,-0.000
 00210,0.00001496,-0.00001865,0.00002572,-0.00000777,-0.00004918,0.0000
 7655,0.00038592,0.00008766,-0.00055614,-0.00030355,0.00001153,0.000588
 42,-0.00023933,0.00019152,-0.00003267,-0.00001268,-0.00001934,0.000030
 08,0.00019030,0.00017828,0.00006704,0.00008627,-0.00003801,-0.00012647
 ,-0.00001356,0.00001341,0.00003162,-0.00001492,-0.00001902,0.00000734,
 -0.00010683,-0.00001754,0.00026942,-0.00000306,0.00018005,-0.00018213,
 0.00008208,-0.00006973,-0.00003673,-0.00003965,0.00005113,0.00004901,-
 0.00000182,-0.00003388,0.00000614,0.00005060,-0.00003139,-0.00014357,-
 0.00001145,-0.00000771,0.00009596,0.00000404,-0.00003800,0.00005923,0.
 00004528,0.00025803,0.00013487,-0.00018038,-0.00005780,-0.00035672,0.0
 0007181,-0.00013436,0.00003020,-0.00007472,0.00001660,-0.00003653,0.00
 002782,-0.00004431,0.00001229,0.00002044,0.00005346,0.00008481,-0.0000
 1727,0.00005260,0.00003583,-0.00000370,-0.00000370,-0.00000035,-0.0000
 4122,-0.00003520,-0.00003323,0.00003224,-0.00003473,0.00001798,-0.0058
 7645,0.01776672,-0.07560222,-0.02400823,0.02198882,0.00271505,0.027270
 07,-0.05491709,-0.01397278,0.00477282,-0.00497696,0.08003125,-0.000174
 26,0.00044765,0.00037701,-0.00000404,-0.00000462,0.00001261,-0.0000146
 2,-0.00002124,0.00003473,0.00003301,0.00002919,0.00001463,-0.00007190,
 -0.00003562,-0.00004780,-0.00029820,0.00072552,-0.00078292,0.00514519,
 0.00377730,-0.00128927,-0.20542972,-0.14100382,0.04235152,-0.01275463,
 -0.01649803,0.00842327,-0.00146026,-0.00143894,-0.00510021,-0.00000711
 ,0.00000066,0.00000013,-0.00000438,0.00000403,0.00000235,0.00007165,-0
 .00001290,0.00000881,-0.00050397,0.00096072,0.00103612,0.00017275,0.00
 150301,0.00122577,-0.00060083,-0.00085300,0.00041938,-0.00001140,-0.00
 006170,-0.00000106,0.00311391,-0.00107973,-0.00295630,0.00003715,0.000
 06315,0.00009058,0.00000641,0.00003682,-0.00001984,0.00003456,0.000000
 21,0.00004920,0.00002072,-0.00002651,0.00002178,-0.00001420,-0.0000063
 6,-0.00003877,-0.00007163,0.00002351,0.00003560,-0.00002368,0.00006519
 ,-0.00004066,0.00000447,-0.00003451,0.00001708,0.00002086,-0.00002516,
 -0.00003027,-0.00000250,0.00000328,0.00002159,0.00000797,0.00000045,-0
 .00001582,0.00000044,0.00001503,-0.00001109,-0.00000880,0.00001791,-0.
 00000667,-0.00003128,-0.00001442,-0.00001222,-0.00000784,-0.00002005,-
 0.00001796,0.00002251,0.00000758,0.00004582,-0.00001824,0.00002105,-0.
 00001533,-0.00000761,0.00000831,-0.00000458,0.00003220,-0.00004221,0.0
 0001683,0.00000152,-0.00001149,0.00000109,-0.00000511,0.00000064,0.000
 00659,-0.00000023,-0.00000159,0.00000132,-0.00000036,0.00000129,-0.000
 00065,0.00000006,0.00000013,-0.00000235,0.00000059,-0.00002294,-0.0000
 0364,0.00000696,-0.00000373,-0.00000225,-0.00001965,-0.00000892,-0.000
 00847,0.00000203,0.00001642,0.00000502,-0.00000026,0.00000123,-0.00000
 379,0.00000219,-0.00000078,-0.00000148,-0.00000165,0.00000018,0.000000
 84,0.00000010,0.00000046,0.00000104,0.00001966,-0.00000724,-0.00002142
 ,0.00000016,0.00000067,0.00000926,-0.00000056,0.00000189,0.00000246,-0
 .00001354,0.00000219,0.00000507,0.00000616,0.00000121,-0.00000440,0.00
 000342,-0.00000135,0.00000228,-0.00000469,0.00000453,0.00000391,-0.000
 00106,0.00000049,0.00000239,0.00000375,-0.00000142,0.00001045,0.000002
 39,0.00000208,0.00000027,-0.00000304,-0.00000012,0.00000089,-0.0000011
 9,-0.00000283,-0.00000220,-0.00000178,0.00000433,0.00000615,-0.0000006
 5,-0.00000201,0.00000329,0.00000238,0.00000022,-0.00000037,-0.00000165
 ,0.00000232,-0.00000169,-0.00000074,-0.00000217,0.00000020,-0.00000051
 ,0.00000106,-0.00000044,0.,0.00000051,0.00000007,0.00000118,-0.0000018
 8,0.00000108,0.00000139,-0.00000286,0.00000016,0.00000021,0.00000150,0
 .00000024,0.00000166,-0.00000268,0.00000039,-0.00000147,0.00000143,0.0
 0000045,0.00000060,-0.00000066,0.00000115,-0.00000029,-0.00000200,0.00
 000092,0.00000093,0.00000099,-0.00000047,-0.00000042,0.00000111,-0.000
 00016,0.00000053,-0.00000164,0.00000193,0.00000082,-0.00000162,-0.0000
 0154,0.00000071,0.00000049,-0.00000082,-0.00000041,-0.00000195,0.00000
 218,-0.00000013,-0.00001299,-0.00001471,0.00000559,-0.00000684,-0.0000
 1770,-0.00001474,0.00003754,0.00004280,0.00000004,-0.00001102,0.000000
 60,-0.00000128,0.00000123,0.00000432,-0.00000087,0.00000153,-0.0000039
 7,0.00000528,-0.00004104,0.00000268,-0.00000345,0.00000623,0.00001828,
 -0.00000281,-0.00001787,-0.00001458,-0.00002157,0.00002487,0.00002819,
 0.00000115,-0.00000351,-0.00001332,-0.00000188,0.00000252,-0.00000037,
 -0.00000345,-0.00000031,0.00000085,0.00000361,0.00000106,0.00000143,0.
 00000528,-0.00000619,-0.00000535,0.00000141,-0.00000050,0.00000425,-0.
 00000363,0.00000418,0.00000128,0.00000194,-0.00000105,0.00000157,0.000
 00063,0.00000424,-0.00000044,-0.00000146,-0.00000033,-0.00000091,0.000
 00060,-0.00000338,-0.00000213,-0.00000108,0.00000262,0.00000100,0.0000
 0012,0.,-0.00000054,0.00000028,0.00000064,0.00000165,-0.00000174,-0.00
 000034,0.00000203,0.00000050,0.00000088,-0.00000061,-0.00000042,-0.000
 00031,-0.00000130,0.00006662,0.00003690,-0.00004949,-0.00002270,-0.000
 01093,0.00000361,-0.00001491,-0.00000537,0.00002226,-0.00000969,-0.000
 03182,0.00001326,0.21280994,0.00036858,-0.00066286,-0.00055481,0.00001
 985,0.00002109,-0.00001665,-0.00001824,-0.00001967,-0.00001669,-0.0000
 0340,-0.00003179,-0.00001482,-0.00001891,0.00001109,0.00003482,0.00114
 162,-0.00002551,0.00036684,-0.01342836,-0.00786418,0.00003173,-0.14090
 867,-0.16522924,0.05133799,0.00067464,0.00236557,0.00083446,-0.0016746
 6,0.00441148,0.00226338,0.00000049,0.00000110,-0.00000041,0.00000058,-
 0.00000852,-0.00000442,-0.00001745,0.00004068,0.00003755,0.00113698,-0
 .00131242,-0.00158717,0.00115935,-0.00158796,-0.00177127,0.00008826,0.
 00011472,0.00014031,-0.00004308,-0.00001376,0.00007533,-0.00194443,0.0
 0242453,0.00614093,-0.00013167,-0.00015347,-0.00043643,0.00024607,-0.0
 0005423,-0.00019654,0.00023115,0.00012136,-0.00002683,0.00007971,-0.00
 008572,0.00000973,-0.00028369,-0.00011966,-0.00006908,-0.00024260,0.00
 017246,0.00018277,-0.00010236,0.00017597,0.00007279,0.00002094,-0.0001
 1544,0.00000618,0.00010170,-0.00002771,-0.00013132,-0.00006580,-0.0000
 2193,0.00004185,-0.00011364,0.00000700,0.00015854,0.00000118,0.0000213
 1,-0.00001409,-0.00002502,0.00004183,-0.00000860,-0.00004624,0.0000110
 9,0.00001595,-0.00003757,-0.00002693,0.00001581,0.00011403,0.00005212,
 0.00001779,0.00008397,-0.00005876,0.00004723,0.00002066,-0.00000713,0.
 00000740,-0.00005045,-0.00003332,-0.00004038,-0.00000380,0.00004140,-0
 .00001303,0.00003906,0.00000144,-0.00004837,-0.00000432,0.00002425,-0.
 00001099,0.00000021,-0.00000205,0.00000871,0.00000606,-0.00001309,0.00
 000275,0.00002440,0.00004257,-0.00001597,0.00000573,-0.00004263,-0.000
 03546,-0.00006587,-0.00001313,0.00005683,0.00001459,0.00002190,0.00000
 222,0.00000728,0.00000106,-0.00000397,0.00000308,-0.00000825,-0.000009
 18,0.00000445,0.00000274,0.00000411,-0.00000389,0.00000306,-0.00000158
 ,-0.00001760,-0.00000570,0.00003209,0.00000321,0.00000810,-0.00001437,
 0.00000266,0.00000162,0.00000283,0.00002851,0.00000463,-0.00001046,-0.
 00000277,-0.00000531,0.00002837,0.00000320,-0.00000115,-0.00000629,0.0
 0001229,-0.00000742,-0.00001380,-0.00000470,0.00000335,-0.00000461,0.0
 0001000,0.00000638,-0.00000760,0.00000265,0.00000451,0.00000458,0.0000
 0127,-0.00000007,-0.00000727,-0.00000501,-0.00000221,0.00000412,0.0000
 0821,0.00000384,-0.00000331,0.00000048,-0.00000046,-0.00000545,0.00000
 483,0.00000097,0.00000504,-0.00000265,-0.00000359,0.00000255,0.0000036
 3,-0.00000670,-0.00000093,-0.00000097,0.00000158,0.00000031,0.00000049
 ,0.00000129,-0.00000330,0.00000017,-0.00000385,0.00000260,0.,-0.000011
 43,0.00000498,-0.00000008,0.00000228,0.00000003,0.00000192,-0.00000525
 ,-0.00000257,0.00000073,0.00000246,-0.00000059,-0.00000145,-0.00000023
 ,0.00000670,0.00000290,-0.00000250,-0.00000111,0.00000268,0.00000051,0
 .00000236,-0.00000087,-0.00000424,-0.00000308,-0.00000626,-0.00000288,
 0.00000369,0.00000439,-0.00000132,-0.00000540,0.00000127,0.00000129,-0
 .00000012,0.00000145,-0.00000249,0.00000227,0.00004796,-0.00004888,0.0
 0014134,0.00003722,-0.00000698,0.00001799,-0.00000767,0.00000350,-0.00
 001823,-0.00000417,-0.00000223,0.00000032,-0.00000054,0.00000088,0.000
 00082,-0.00000167,-0.00000050,-0.00000017,0.00005809,0.00002663,-0.000
 10761,-0.00000107,-0.00000224,0.00001561,-0.00002250,0.00002126,0.0000
 1609,-0.00003608,-0.00000591,-0.00000727,-0.00000496,-0.00000400,-0.00
 000585,0.00000319,0.00000535,0.00000189,-0.00000496,0.00000278,0.00000
 112,0.00000169,0.00000061,-0.00000194,0.00000135,-0.00000118,0.0000010
 6,0.00000058,0.00000057,0.00000090,0.00000003,0.00000020,-0.00000064,0
 .00000190,0.00000113,0.00000035,0.00000016,-0.00000028,0.00000051,-0.0
 0000201,0.00000011,-0.00000077,-0.00000006,-0.00000129,-0.00000113,-0.
 00000002,0.,0.00000016,0.00000013,0.00000037,-0.00000086,0.00000036,0.
 00000095,0.00000095,-0.00000137,-0.00000006,0.00000145,0.00000038,-0.0
 0000065,-0.00000042,-0.00000055,0.00000006,-0.00000087,0.00000782,0.00
 006616,0.00000764,-0.00001218,-0.00001282,-0.00000267,-0.00001161,-0.0
 0001384,0.00001297,0.00000331,-0.00001194,-0.00000166,0.15353218,0.167
 41374,0.00045267,-0.00051758,-0.00031235,-0.00001020,-0.00002332,0.000
 02048,0.00000742,-0.00002004,0.00001200,0.00005926,-0.00000484,0.00000
 844,-0.00005866,0.00003528,-0.00003357,-0.00118826,0.00001444,-0.00144
 341,0.02065553,0.01423918,-0.00057631,0.04193344,0.05084222,-0.0661275
 6,-0.01310577,-0.01276488,0.00826853,-0.00477329,0.00243904,0.00048872
 ,-0.00000560,-0.00000116,-0.00000388,0.00000531,-0.00000413,-0.0000052
 7,0.00001041,0.00003053,0.00005121,0.00070267,-0.00173191,-0.00053069,
 0.00163974,-0.00147788,-0.00058576,-0.00069877,-0.00060691,0.00032751,
 -0.00006447,0.00004492,-0.00003364,-0.00205850,0.00676530,-0.00192405,
 0.00027983,-0.00014787,0.00063142,-0.00006554,-0.00006350,0.00001602,-
 0.00023498,-0.00020691,0.00005139,-0.00006181,0.00005755,-0.00001151,0
 .00031420,0.00016512,0.00006164,0.00017344,-0.00016159,0.00002853,0.00
 009408,-0.00015473,-0.00013144,-0.00000105,0.00008629,0.00000040,-0.00
 003145,0.00003737,-0.00001338,0.00001853,-0.00001028,-0.00000516,-0.00
 002779,0.00002041,0.00003080,-0.00000231,-0.00001670,0.00002038,0.0000
 1703,-0.00002106,0.00001796,0.00001207,0.00006443,-0.00000591,0.000049
 04,0.00003956,-0.00000890,-0.00012440,-0.00008612,-0.00001008,0.000040
 11,-0.00003009,0.00000694,-0.00001748,0.00001321,-0.00000257,-0.000011
 57,0.00002612,0.00001798,-0.00000269,-0.00000798,-0.00000416,0.0000112
 1,0.00000451,-0.00000472,-0.00000031,0.00000245,-0.00000221,-0.0000051
 2,0.00000023,0.00000017,-0.00000042,-0.00000231,-0.00000060,-0.0000126
 4,-0.00000427,0.00000129,0.00000682,-0.00001314,-0.00000663,-0.0000182
 9,0.00001215,0.00001450,0.00000339,0.00001076,-0.00000095,-0.00000746,
 -0.00000014,-0.00000144,0.00000138,-0.00000016,0.00000096,0.00000003,-
 0.00000150,0.00000015,0.00000027,0.00000267,-0.00000181,0.00001218,0.0
 0001735,-0.00000519,0.00000578,-0.00002152,0.00002333,0.00000564,-0.00
 001984,-0.00004248,-0.00004719,0.00001606,0.00001740,-0.00001014,-0.00
 001512,-0.00001142,0.00000013,0.00000128,0.00000396,-0.00000443,0.0000
 1368,0.00000513,0.00000431,-0.00001027,0.00000493,-0.00001723,-0.00000
 033,-0.00000810,-0.00000446,-0.00000560,-0.00000781,0.00000040,-0.0000
 0457,0.00001060,0.00001484,0.00000128,-0.00000427,-0.00001070,-0.00000
 776,0.00000269,0.00000011,0.,0.00000661,-0.00000575,0.00000088,-0.0000
 0513,0.00000533,-0.00000374,-0.00000159,-0.00000271,0.00000182,-0.0000
 0119,0.00000032,0.00000020,0.00000053,0.00000019,-0.00000120,-0.000000
 10,0.00000026,0.00000266,-0.00000124,-0.00000674,0.00000622,-0.0000044
 1,-0.00000014,-0.00000039,-0.00000027,-0.00000109,0.00000408,0.0000020
 1,0.00000200,-0.00000097,0.00000045,0.00000270,0.00000359,-0.00000134,
 -0.00000173,0.00000196,-0.00000067,-0.00000252,-0.00000033,-0.00000107
 ,0.00000061,-0.00000044,0.00000009,0.00000866,0.00000160,-0.00000419,-
 0.00000160,0.00000052,0.00000536,-0.00000398,0.00000023,-0.00000018,-0
 .00000207,0.00000182,-0.00000234,-0.00003849,0.00012582,-0.00020863,-0
 .00002741,0.00000689,-0.00002581,0.00002977,-0.00002005,0.00001196,0.0
 0000151,0.00000041,0.00000031,0.00000166,0.00000138,-0.00000102,-0.000
 00039,-0.00000228,-0.00000037,-0.00000018,-0.00004598,0.00000654,0.000
 00304,0.00000299,-0.00002706,0.00001804,0.00002968,0.00000101,0.000020
 38,-0.00001490,-0.00000949,0.00000794,0.00002149,0.00000148,-0.0000025
 4,-0.00001173,-0.00000217,0.00000435,-0.00000521,-0.00000094,-0.000003
 65,0.00000436,0.00000178,-0.00000016,0.00000187,-0.00000272,-0.0000003
 5,0.00000125,-0.00000031,0.00000199,-0.00000162,-0.00000026,0.00000053
 ,0.00000006,0.00000142,-0.00000023,-0.00000122,0.00000005,0.00000073,0
 .00000042,0.00000001,-0.00000063,0.00000085,-0.00000054,0.00000036,-0.
 00000091,0.00000002,-0.00000015,0.00000005,0.00000042,0.00000017,0.000
 00009,0.00000051,-0.00000011,0.00000009,0.00000003,0.,-0.00000058,-0.0
 0000010,0.00000001,0.00000017,-0.00000008,-0.00000523,0.00003657,0.000
 01037,0.00000347,-0.00000288,-0.00000074,-0.00000545,-0.00000940,0.000
 01015,0.00000459,-0.00000430,-0.00000054,-0.04385364,-0.05696928,0.061
 96514\\0.00000553,-0.00001405,0.00001749,0.00000354,0.00000043,0.00001
 976,-0.00001799,0.00000778,-0.00001527,0.00000258,-0.00002055,0.000003
 53,0.00000207,0.00000619,-0.00001171,0.00002189,0.00000385,0.00000815,
 -0.00000347,-0.00001476,0.00002096,-0.00000516,0.00000596,-0.00001171,
 0.00001589,0.00000172,0.00000096,-0.00000891,-0.00001039,0.00000476,-0
 .00000036,-0.00000460,0.00000114,0.00000160,0.00000353,0.00000421,0.00
 000249,-0.00000252,0.00000783,0.00000255,-0.00000166,0.00000137,-0.000
 00010,-0.00000048,0.00000040,-0.00000049,-0.00000208,0.00000071,-0.000
 02127,0.00001869,-0.00002144,-0.00001401,0.00001029,-0.00001663,0.0000
 5066,-0.00006644,-0.00003321,0.00002702,0.00000338,-0.00002313,0.00000
 454,0.00000014,-0.00000685,0.00000101,0.00001218,-0.00000712,-0.000017
 94,0.00001007,0.00002799,0.00001367,0.00001275,-0.00000839,-0.00006296
 ,-0.00000531,0.00001238,0.00001233,-0.00001167,0.00003334,0.00001010,0
 .00000613,0.00001791,0.00000113,0.00000071,0.00000494,-0.00000591,0.00
 000055,0.00001791,0.00000640,-0.00000617,0.00000560,-0.00000795,-0.000
 00233,-0.00002210,-0.00001206,-0.00000047,0.00000693,0.00000365,0.0000
 0507,0.00000345,-0.00000569,0.00000105,-0.00000046,0.00000272,0.000002
 69,-0.00000414,0.00000061,-0.00000141,0.00000201,0.00000518,-0.0000064
 5,0.00000598,-0.00000085,0.00000022,0.00000589,-0.00000225,-0.00000138
 ,0.00000090,0.00000041,0.00000388,0.00000131,0.00000242,-0.00000387,0.
 00000005,0.00000190,0.00000149,0.00000332,0.00000333,-0.00000194,0.000
 00612,0.00000017,-0.00000182,0.00000318,0.00000212,-0.00000386,0.00000
 061,-0.00000155,0.00000090,0.00000151,0.00000052,-0.00000920,0.0000022
 6,0.00000017,-0.00000025,0.00000236,-0.00000108,-0.00000027,0.00000272
 ,0.00000101,0.00000271,0.00000155,0.00000561,-0.00000761,0.00000012,-0
 .00000021,-0.00000283,0.00000066,-0.00000167,0.00000315,0.00000073,0.0
 0000326,-0.00000293,0.00000009,0.00001230,-0.00001078,0.00000740,-0.00
 000454,-0.00000099,0.00000154,-0.00000044,-0.00000644,0.00000457,-0.00
 000202,0.00000378,0.00000820,-0.00000068,-0.00000545,0.00000124,0.0000
 0091,0.00000272,0.00000043,0.00000052,0.00000469,0.00000111,-0.0000002
 1,0.00000539,-0.00000332,-0.00000495,-0.00000488,0.00000742,-0.0000030
 3,0.00000258,0.00000206,-0.00000302,-0.00000110,0.00000152,-0.00000315
 ,0.00000423,0.00000490,-0.00001264,0.00000316,0.00000233,0.00000008,0.
 00000145,0.00000220,-0.00000246,-0.00000217,-0.00000002,0.00000149,-0.
 00000499,0.00000236,0.00000868,-0.00000417,0.00000595,-0.00000137,-0.0
 0000271,0.00000056,-0.00000378,0.00000242,0.00000158,-0.00000682,-0.00
 000406,0.00000288,-0.00000250,-0.00000232,0.00000437,-0.00000131,-0.00
 000202,0.00000121,-0.00000085,-0.00000028,0.00000066,-0.00000228,-0.00
 000387,-0.00000235,-0.00000348,-0.00000044,0.00000029,0.00000061,-0.00
 000012,0.00000037,0.00000307,-0.00000096,-0.00000044,-0.00000074,0.000
 00194,-0.00000093,-0.00000367,0.00001063,-0.00000207,0.00002769,-0.000
 00258,0.00004918,0.00000251,0.00001393,-0.00002655,-0.00000396,-0.0000
 0692,-0.00001349,-0.00000209,0.00000446,-0.00000048,0.00000267,0.00000
 794,-0.00000002,0.00000689,0.00001504,0.00000951,-0.00000052,-0.000004
 13,-0.00000024,0.00000663,0.00000464,0.00000352,-0.00002097,-0.0000117
 0,-0.00003808,0.00000768,0.00001262,0.,-0.00000766,0.00000294,-0.00000
 073,-0.00000785,0.00000226,0.00000114,-0.00000741,-0.00000088,-0.00000
 271,0.00000670,-0.00000439,-0.00001158,0.00000176,0.00000626,-0.000002
 92,-0.00000016,0.00000991,-0.00000422,-0.00000165,0.00001067,-0.000002
 94,0.00000921,-0.00001558,-0.00000389,0.00000261,0.00000431,-0.0000111
 3,0.00000362,0.00000767,-0.00002002,-0.00000104,0.00000150,-0.00000893
 ,-0.00000057,0.00000237,-0.00000677,-0.00000201,0.00000193,-0.00001377
 ,-0.00000383,0.00000229,-0.00000915,-0.00000096,0.00000632,-0.00001037
 ,0.00000094,0.00000517,-0.00001058,0.00003261,0.00002978,0.00003483,-0
 .00003307,-0.00000523,-0.00002818,-0.00001469,0.00002350,-0.00000422,0
 .00000701,-0.00002678,-0.00000545,-0.00000004,-0.00000081,0.00000128\\
 \@
 The archive entry for this job was punched.


 ADAM SMITH SAID, "THE REAL PRICE OF ANYTHING IS THE TOIL AND TROUBLE
 OF ACQUIRING IT."  BUT IN ALL UNDERTAKINGS WITH NATURE WE SHOULD FIRST
 READ CAREFULLY THE SMALL PRINT IN THE CONTRACT. THIS MIGHT DISCLOSE
 THAT THE REAL PRICE IS TO BE PAID BY THOSE WHO INHERIT THE DEPLETION
 AND DESPOILATION THAT FOLLOWS.
                               -- E. R. HARRISON IN "COSMOLOGY" (1980)
 Job cpu time:       1 days 19 hours  9 minutes  0.2 seconds.
 Elapsed time:       0 days  2 hours 45 minutes  3.6 seconds.
 File lengths (MBytes):  RWF=  10098 Int=      0 D2E=      0 Chk=     55 Scr=      1
 Normal termination of Gaussian 16 at Sat Dec  7 21:34:07 2024.
