/mnt/lustre/scratch/nvme/SLURM/9663781/usccqdma.Z48xdw7Dgb
OMP_STACKSIZE=0m
GAUSS_PDEF=16
GAUSS_MDEF=65536MB
GAUSS_RDEF=SCF=Direct
 Entering Gaussian System, Link 0=g16.exe
 Initial command:
 /opt/cesga/2020/software/Core/g16/c1/l1.exe "/mnt/lustre/scratch/nvme/SLURM/9663781/usccqdma.Z48xdw7Dgb/Gau-4102622.inp" -scrdir="/mnt/lustre/scratch/nvme/SLURM/9663781/usccqdma.Z48xdw7Dgb/"
 Default is to use a total of  16 processors:
                               16 via shared-memory
                                1 via Linda
 Entering Link 1 = /opt/cesga/2020/software/Core/g16/c1/l1.exe PID=   4102648.
  
 Copyright (c) 1988-2019, Gaussian, Inc.  All Rights Reserved.
  
 This is part of the Gaussian(R) 16 program.  It is based on
 the Gaussian(R) 09 system (copyright 2009, Gaussian, Inc.),
 the Gaussian(R) 03 system (copyright 2003, Gaussian, Inc.),
 the Gaussian(R) 98 system (copyright 1998, Gaussian, Inc.),
 the Gaussian(R) 94 system (copyright 1995, Gaussian, Inc.),
 the Gaussian 92(TM) system (copyright 1992, Gaussian, Inc.),
 the Gaussian 90(TM) system (copyright 1990, Gaussian, Inc.),
 the Gaussian 88(TM) system (copyright 1988, Gaussian, Inc.),
 the Gaussian 86(TM) system (copyright 1986, Carnegie Mellon
 University), and the Gaussian 82(TM) system (copyright 1983,
 Carnegie Mellon University). Gaussian is a federally registered
 trademark of Gaussian, Inc.
  
 This software contains proprietary and confidential information,
 including trade secrets, belonging to Gaussian, Inc.
  
 This software is provided under written license and may be
 used, copied, transmitted, or stored only in accord with that
 written license.
  
 The following legend is applicable only to US Government
 contracts under FAR:
  
                    RESTRICTED RIGHTS LEGEND
  
 Use, reproduction and disclosure by the US Government is
 subject to restrictions as set forth in subparagraphs (a)
 and (c) of the Commercial Computer Software - Restricted
 Rights clause in FAR 52.227-19.
  
 Gaussian, Inc.
 340 Quinnipiac St., Bldg. 40, Wallingford CT 06492
  
  
 ---------------------------------------------------------------
 Warning -- This program may not be used in any manner that
 competes with the business of Gaussian, Inc. or will provide
 assistance to any competitor of Gaussian, Inc.  The licensee
 of this program is prohibited from giving any competitor of
 Gaussian, Inc. access to this program.  By using this program,
 the user acknowledges that Gaussian, Inc. is engaged in the
 business of creating and licensing software in the field of
 computational chemistry and represents and warrants to the
 licensee that it is not a competitor of Gaussian, Inc. and that
 it will not use this program in any manner prohibited above.
 ---------------------------------------------------------------
  

 Cite this work as:
 Gaussian 16, Revision C.01,
 M. J. Frisch, G. W. Trucks, H. B. Schlegel, G. E. Scuseria, 
 M. A. Robb, J. R. Cheeseman, G. Scalmani, V. Barone, 
 G. A. Petersson, H. Nakatsuji, X. Li, M. Caricato, A. V. Marenich, 
 J. Bloino, B. G. Janesko, R. Gomperts, B. Mennucci, H. P. Hratchian, 
 J. V. Ortiz, A. F. Izmaylov, J. L. Sonnenberg, D. Williams-Young, 
 F. Ding, F. Lipparini, F. Egidi, J. Goings, B. Peng, A. Petrone, 
 T. Henderson, D. Ranasinghe, V. G. Zakrzewski, J. Gao, N. Rega, 
 G. Zheng, W. Liang, M. Hada, M. Ehara, K. Toyota, R. Fukuda, 
 J. Hasegawa, M. Ishida, T. Nakajima, Y. Honda, O. Kitao, H. Nakai, 
 T. Vreven, K. Throssell, J. A. Montgomery, Jr., J. E. Peralta, 
 F. Ogliaro, M. J. Bearpark, J. J. Heyd, E. N. Brothers, K. N. Kudin, 
 V. N. Staroverov, T. A. Keith, R. Kobayashi, J. Normand, 
 K. Raghavachari, A. P. Rendell, J. C. Burant, S. S. Iyengar, 
 J. Tomasi, M. Cossi, J. M. Millam, M. Klene, C. Adamo, R. Cammi, 
 J. W. Ochterski, R. L. Martin, K. Morokuma, O. Farkas, 
 J. B. Foresman, and D. J. Fox, Gaussian, Inc., Wallingford CT, 2019.
 
 ******************************************
 Gaussian 16:  ES64L-G16RevC.01  3-Jul-2019
                 7-Dec-2024 
 ******************************************
 Default route: SCF=Direct
 ----------------------------------------------------
 # m06/genecp scf=tight int=ultrafine 5d freq=noraman
 ----------------------------------------------------
 1/10=4,30=1,38=1/1,3;
 2/12=2,17=6,18=5,40=1/2;
 3/5=7,8=1,11=2,16=1,17=8,25=1,30=1,71=2,74=-54,75=-5,140=1/1,2,3;
 4//1;
 5/5=2,32=2,38=5,98=1/2;
 8/6=4,10=90,11=11/1;
 11/6=1,8=1,9=11,15=111,16=1/1,2,10;
 10/6=1/2;
 6/7=2,8=2,9=2,10=2,28=1/1;
 7/8=1,10=1,25=1/1,2,3,16;
 1/10=4,30=1/3;
 99//99;
 ------
 OPT-TS
 ------
 Symbolic Z-matrix:
 Charge =  0 Multiplicity = 1
 C                    -3.34329  -1.74675  -1.10999 
 C                    -1.59826  -3.20553  -0.65448 
 C                    -2.46837  -4.27705  -0.52357 
 C                    -3.83288  -4.05225  -0.66812 
 C                    -4.27448  -2.77367  -0.97025 
 C                    -3.78409  -0.37871  -1.45349 
 C                    -3.33347   1.83951  -2.25415 
 C                    -4.58637   2.20891  -1.78569 
 C                    -5.40047   1.21859  -1.23828 
 H                    -0.52182  -3.32617  -0.53889 
 H                    -4.54503  -4.86814  -0.5577 
 H                    -5.32675  -2.53724  -1.10209 
 H                    -2.66775   2.5629   -2.7211 
 H                    -6.41314   1.46151  -0.90956 
 N                    -2.0239   -1.96077  -0.92215 
 Ir                   -0.54645  -0.26385  -0.90929 
 O                    -0.82809   1.18939   1.87089 
 O                    -0.13193   2.75519  -0.70948 
 B                    -1.44896   0.54521   0.8048 
 B                     0.485     1.50946  -0.69607 
 O                     1.86184   1.64912  -0.64022 
 C                     0.89951   3.75095  -0.82955 
 C                     2.14309   3.00326  -0.27131 
 C                    -1.85506   1.74669   2.70886 
 C                    -3.06805   0.8302    2.38957 
 O                    -2.81293   0.46936   1.02403 
 C                    -1.38558   1.71505   4.14865 
 H                    -2.1664    2.0913    4.82542 
 H                    -1.11011   0.70163   4.46502 
 H                    -0.49975   2.35554   4.26109 
 C                    -2.06159   3.18599   2.25708 
 H                    -2.35036   3.22838   1.19759 
 H                    -2.81925   3.70273   2.86158 
 H                    -1.1119    3.72677   2.3657 
 C                    -3.06978  -0.4665    3.18852 
 H                    -3.31165  -0.30076   4.24733 
 H                    -3.82779  -1.13604   2.76118 
 H                    -2.09824  -0.97433   3.1126 
 C                    -4.4246    1.49949   2.47093 
 H                    -4.49798   2.34858   1.78126 
 H                    -5.2039    0.77631   2.1967 
 H                    -4.62872   1.8545    3.49164 
 C                     3.46962   3.40583  -0.88284 
 H                     3.47987   3.25231  -1.96871 
 H                     3.69963   4.46076  -0.67467 
 H                     4.27036   2.78929  -0.45116 
 C                     2.23381   3.02873   1.24944 
 H                     2.50984   4.0199    1.63462 
 H                     1.2865    2.70539   1.70672 
 H                     3.00607   2.30821   1.55289 
 C                     0.49613   4.98648  -0.05259 
 H                     1.29192   5.74467  -0.08685 
 H                    -0.41026   5.42415  -0.49131 
 H                     0.28304   4.75226   0.99583 
 C                     1.02124   4.08603  -2.31058 
 H                     1.31732   3.20196  -2.89211 
 H                     0.04285   4.42078  -2.67912 
 H                     1.74935   4.88711  -2.49578 
 H                     0.58406   0.1753   -1.98704 
 C                     2.50294  -2.16436  -1.95395 
 O                     1.88078  -2.94798  -1.2376 
 C                     4.00266  -2.00488  -1.80526 
 H                     4.31953  -2.86132  -1.19485 
 H                     4.52825  -2.09189  -2.76866 
 C                     0.40816  -1.3037   -2.7784 
 H                     0.01683  -0.96204  -3.74569 
 H                     0.01796  -2.30244  -2.56664 
 N                     1.85256  -1.38691  -2.87154 
 C                     2.48202  -0.32168  -3.61792 
 H                     2.40088   0.64422  -3.08653 
 H                     3.5395   -0.53201  -3.79489 
 H                     1.99012  -0.22684  -4.59504 
 C                     4.37243  -0.69918  -1.08852 
 H                     4.38645   0.14665  -1.79478 
 H                     3.58497  -0.45426  -0.35947 
 C                     5.71227  -0.77406  -0.37585 
 H                     5.6942   -1.61108   0.34445 
 H                     6.52203  -1.01058  -1.08867 
 C                     6.0405    0.51388   0.36503 
 H                     6.15299   1.33421  -0.36376 
 H                     5.17428   0.79107   0.99394 
 C                     7.29003   0.40014   1.22121 
 H                     7.1677   -0.37835   1.98819 
 H                     8.16241   0.12368   0.61234 
 H                     7.52649   1.34009   1.73528 
 H                    -4.94161   3.23394  -1.86407 
 H                    -2.07285  -5.26527  -0.30213 
 C                    -2.93198   0.51675  -2.10995 
 N                    -5.02025  -0.04353  -1.07125 
 H                    -2.0058    0.17001  -2.59111 
 C                     0.95835  -2.37484   2.40635 
 C                     2.10627  -1.32133   2.26793 
 C                     2.03701  -0.20267   3.29757 
 H                     1.05553   0.28829   3.27091 
 H                     2.24283  -0.56151   4.31513 
 H                     2.79223   0.55268   3.04167 
 C                     3.49869  -1.92145   2.24762 
 H                     4.24745  -1.12166   2.15352 
 H                     3.70402  -2.46563   3.18096 
 H                     3.62365  -2.60876   1.40192 
 C                     0.38509  -2.49895   3.80537 
 H                    -0.43655  -3.22726   3.80159 
 H                     1.14944  -2.85277   4.51235 
 H                    -0.01184  -1.54353   4.17011 
 C                     1.32214  -3.7562    1.8789 
 H                     2.05124  -4.26099   2.52745 
 H                     0.40937  -4.36848   1.85893 
 H                     1.7224   -3.70334   0.85842 
 B                     0.53855  -0.96596   0.64521 
 O                     1.84497  -0.71565   0.9922 
 O                    -0.0598   -1.84555   1.54244 
 

 GradGradGradGradGradGradGradGradGradGradGradGradGradGradGradGradGradGrad
 Berny optimization.
 Initialization pass.
 Trust Radius=3.00D-01 FncErr=1.00D-07 GrdErr=1.00D-07 EigMax=2.50D+02 EigMin=1.00D-04
 Number of steps in this run=      2 maximum allowed number of steps=      2.
 GradGradGradGradGradGradGradGradGradGradGradGradGradGradGradGradGradGrad

 Stoichiometry    C36H61B3IrN3O7
 Framework group  C1[X(C36H61B3IrN3O7)]
 Deg. of freedom   327
 Full point group                 C1      NOp   1
 Largest Abelian subgroup         C1      NOp   1
 Largest concise Abelian subgroup C1      NOp   1
                         Standard orientation:                         
 ---------------------------------------------------------------------
 Center     Atomic      Atomic             Coordinates (Angstroms)
 Number     Number       Type             X           Y           Z
 ---------------------------------------------------------------------
      1          6           0       -3.343290   -1.746751   -1.109989
      2          6           0       -1.598260   -3.205531   -0.654479
      3          6           0       -2.468370   -4.277051   -0.523569
      4          6           0       -3.832880   -4.052251   -0.668119
      5          6           0       -4.274480   -2.773671   -0.970249
      6          6           0       -3.784090   -0.378711   -1.453489
      7          6           0       -3.333470    1.839509   -2.254149
      8          6           0       -4.586370    2.208909   -1.785689
      9          6           0       -5.400470    1.218589   -1.238279
     10          1           0       -0.521820   -3.326171   -0.538889
     11          1           0       -4.545030   -4.868141   -0.557699
     12          1           0       -5.326750   -2.537241   -1.102089
     13          1           0       -2.667750    2.562899   -2.721099
     14          1           0       -6.413140    1.461509   -0.909559
     15          7           0       -2.023900   -1.960771   -0.922149
     16         77           0       -0.546450   -0.263851   -0.909289
     17          8           0       -0.828090    1.189389    1.870891
     18          8           0       -0.131930    2.755189   -0.709479
     19          5           0       -1.448960    0.545209    0.804801
     20          5           0        0.485000    1.509459   -0.696069
     21          8           0        1.861840    1.649119   -0.640219
     22          6           0        0.899510    3.750949   -0.829549
     23          6           0        2.143090    3.003259   -0.271309
     24          6           0       -1.855060    1.746689    2.708861
     25          6           0       -3.068050    0.830199    2.389571
     26          8           0       -2.812930    0.469359    1.024031
     27          6           0       -1.385580    1.715049    4.148651
     28          1           0       -2.166400    2.091299    4.825421
     29          1           0       -1.110110    0.701629    4.465021
     30          1           0       -0.499750    2.355539    4.261091
     31          6           0       -2.061590    3.185989    2.257081
     32          1           0       -2.350360    3.228379    1.197591
     33          1           0       -2.819250    3.702729    2.861581
     34          1           0       -1.111900    3.726769    2.365701
     35          6           0       -3.069780   -0.466501    3.188521
     36          1           0       -3.311650   -0.300761    4.247331
     37          1           0       -3.827790   -1.136041    2.761181
     38          1           0       -2.098240   -0.974331    3.112601
     39          6           0       -4.424600    1.499489    2.470931
     40          1           0       -4.497980    2.348579    1.781261
     41          1           0       -5.203900    0.776309    2.196701
     42          1           0       -4.628720    1.854499    3.491641
     43          6           0        3.469620    3.405829   -0.882839
     44          1           0        3.479870    3.252309   -1.968709
     45          1           0        3.699630    4.460759   -0.674669
     46          1           0        4.270360    2.789289   -0.451159
     47          6           0        2.233810    3.028729    1.249441
     48          1           0        2.509840    4.019899    1.634621
     49          1           0        1.286500    2.705389    1.706721
     50          1           0        3.006070    2.308209    1.552891
     51          6           0        0.496130    4.986479   -0.052589
     52          1           0        1.291920    5.744669   -0.086849
     53          1           0       -0.410260    5.424149   -0.491309
     54          1           0        0.283040    4.752259    0.995831
     55          6           0        1.021240    4.086029   -2.310579
     56          1           0        1.317320    3.201959   -2.892109
     57          1           0        0.042850    4.420779   -2.679119
     58          1           0        1.749350    4.887109   -2.495779
     59          1           0        0.584060    0.175299   -1.987039
     60          6           0        2.502940   -2.164361   -1.953949
     61          8           0        1.880780   -2.947981   -1.237599
     62          6           0        4.002660   -2.004881   -1.805259
     63          1           0        4.319530   -2.861321   -1.194849
     64          1           0        4.528250   -2.091891   -2.768659
     65          6           0        0.408160   -1.303701   -2.778399
     66          1           0        0.016830   -0.962041   -3.745689
     67          1           0        0.017960   -2.302441   -2.566639
     68          7           0        1.852560   -1.386911   -2.871539
     69          6           0        2.482020   -0.321681   -3.617919
     70          1           0        2.400880    0.644219   -3.086529
     71          1           0        3.539500   -0.532011   -3.794889
     72          1           0        1.990120   -0.226841   -4.595039
     73          6           0        4.372430   -0.699181   -1.088519
     74          1           0        4.386450    0.146649   -1.794779
     75          1           0        3.584970   -0.454261   -0.359469
     76          6           0        5.712270   -0.774061   -0.375849
     77          1           0        5.694200   -1.611081    0.344451
     78          1           0        6.522030   -1.010581   -1.088669
     79          6           0        6.040500    0.513879    0.365031
     80          1           0        6.152990    1.334209   -0.363759
     81          1           0        5.174280    0.791069    0.993941
     82          6           0        7.290030    0.400139    1.221211
     83          1           0        7.167700   -0.378351    1.988191
     84          1           0        8.162410    0.123679    0.612341
     85          1           0        7.526490    1.340089    1.735281
     86          1           0       -4.941610    3.233939   -1.864069
     87          1           0       -2.072850   -5.265271   -0.302129
     88          6           0       -2.931980    0.516749   -2.109949
     89          7           0       -5.020250   -0.043531   -1.071249
     90          1           0       -2.005800    0.170009   -2.591109
     91          6           0        0.958350   -2.374841    2.406351
     92          6           0        2.106270   -1.321331    2.267931
     93          6           0        2.037010   -0.202671    3.297571
     94          1           0        1.055530    0.288289    3.270911
     95          1           0        2.242830   -0.561511    4.315131
     96          1           0        2.792230    0.552679    3.041671
     97          6           0        3.498690   -1.921451    2.247621
     98          1           0        4.247450   -1.121661    2.153521
     99          1           0        3.704020   -2.465631    3.180961
    100          1           0        3.623650   -2.608761    1.401921
    101          6           0        0.385090   -2.498951    3.805371
    102          1           0       -0.436550   -3.227261    3.801591
    103          1           0        1.149440   -2.852771    4.512351
    104          1           0       -0.011840   -1.543531    4.170111
    105          6           0        1.322140   -3.756201    1.878901
    106          1           0        2.051240   -4.260991    2.527451
    107          1           0        0.409370   -4.368481    1.858931
    108          1           0        1.722400   -3.703341    0.858421
    109          5           0        0.538550   -0.965961    0.645211
    110          8           0        1.844970   -0.715651    0.992201
    111          8           0       -0.059800   -1.845551    1.542441
 ---------------------------------------------------------------------
 Rotational constants (GHZ):           0.0800649           0.0548338           0.0503419
 General basis read from cards:  (5D, 7F)
 ======================================================================================================
                                       Pseudopotential Parameters
 ======================================================================================================
  Center     Atomic      Valence      Angular      Power
  Number     Number     Electrons     Momentum     of R      Exponent        Coefficient   SO-Coeffient
 ======================================================================================================
    1          6
                                   No pseudopotential on this center.
    2          6
                                   No pseudopotential on this center.
    3          6
                                   No pseudopotential on this center.
    4          6
                                   No pseudopotential on this center.
    5          6
                                   No pseudopotential on this center.
    6          6
                                   No pseudopotential on this center.
    7          6
                                   No pseudopotential on this center.
    8          6
                                   No pseudopotential on this center.
    9          6
                                   No pseudopotential on this center.
   10          1
                                   No pseudopotential on this center.
   11          1
                                   No pseudopotential on this center.
   12          1
                                   No pseudopotential on this center.
   13          1
                                   No pseudopotential on this center.
   14          1
                                   No pseudopotential on this center.
   15          7
                                   No pseudopotential on this center.
   16         77           17
                                      G and up 
                                                     1      823.5880147       -0.15780140    0.00000000
                                                     2      364.6613336    -1517.52704460    0.00000000
                                                     2       55.7082801     -316.53065290    0.00000000
                                                     2       12.0464544      -91.88809410    0.00000000
                                                     2        3.5120610       -9.22417730    0.00000000
                                      S - G
                                                     0      188.0490770        3.15780140    0.00000000
                                                     1      340.4194712       26.83225770    0.00000000
                                                     2      128.2373673      800.42500070    0.00000000
                                                     2       33.8644961      369.40506830    0.00000000
                                                     2        4.7560005      242.41718990    0.00000000
                                                     2        3.9649974     -118.21732820    0.00000000
                                      P - G
                                                     0      289.7291139        2.15780140    0.00000000
                                                     1       87.4633789       61.96786100    0.00000000
                                                     2       30.4363766      269.05819860    0.00000000
                                                     2        4.0553412      231.16547930    0.00000000
                                                     2        3.5525341     -133.69526670    0.00000000
                                      D - G
                                                     0      136.4017106        3.15780140    0.00000000
                                                     1       95.0776925       45.93498030    0.00000000
                                                     2       49.2258410      359.03446680    0.00000000
                                                     2       15.0874145      176.47401190    0.00000000
                                                     2        4.0405764       54.51552860    0.00000000
                                      F - G
                                                     0      127.3507908        3.95461970    0.00000000
                                                     1       66.2364374       52.97736550    0.00000000
                                                     2       34.4299229      274.86433830    0.00000000
                                                     2       10.1995721      137.20473380    0.00000000
                                                     2        2.5409702       14.86333050    0.00000000
   17          8
                                   No pseudopotential on this center.
   18          8
                                   No pseudopotential on this center.
   19          5
                                   No pseudopotential on this center.
   20          5
                                   No pseudopotential on this center.
   21          8
                                   No pseudopotential on this center.
   22          6
                                   No pseudopotential on this center.
   23          6
                                   No pseudopotential on this center.
   24          6
                                   No pseudopotential on this center.
   25          6
                                   No pseudopotential on this center.
   26          8
                                   No pseudopotential on this center.
   27          6
                                   No pseudopotential on this center.
   28          1
                                   No pseudopotential on this center.
   29          1
                                   No pseudopotential on this center.
   30          1
                                   No pseudopotential on this center.
   31          6
                                   No pseudopotential on this center.
   32          1
                                   No pseudopotential on this center.
   33          1
                                   No pseudopotential on this center.
   34          1
                                   No pseudopotential on this center.
   35          6
                                   No pseudopotential on this center.
   36          1
                                   No pseudopotential on this center.
   37          1
                                   No pseudopotential on this center.
   38          1
                                   No pseudopotential on this center.
   39          6
                                   No pseudopotential on this center.
   40          1
                                   No pseudopotential on this center.
   41          1
                                   No pseudopotential on this center.
   42          1
                                   No pseudopotential on this center.
   43          6
                                   No pseudopotential on this center.
   44          1
                                   No pseudopotential on this center.
   45          1
                                   No pseudopotential on this center.
   46          1
                                   No pseudopotential on this center.
   47          6
                                   No pseudopotential on this center.
   48          1
                                   No pseudopotential on this center.
   49          1
                                   No pseudopotential on this center.
   50          1
                                   No pseudopotential on this center.
   51          6
                                   No pseudopotential on this center.
   52          1
                                   No pseudopotential on this center.
   53          1
                                   No pseudopotential on this center.
   54          1
                                   No pseudopotential on this center.
   55          6
                                   No pseudopotential on this center.
   56          1
                                   No pseudopotential on this center.
   57          1
                                   No pseudopotential on this center.
   58          1
                                   No pseudopotential on this center.
   59          1
                                   No pseudopotential on this center.
   60          6
                                   No pseudopotential on this center.
   61          8
                                   No pseudopotential on this center.
   62          6
                                   No pseudopotential on this center.
   63          1
                                   No pseudopotential on this center.
   64          1
                                   No pseudopotential on this center.
   65          6
                                   No pseudopotential on this center.
   66          1
                                   No pseudopotential on this center.
   67          1
                                   No pseudopotential on this center.
   68          7
                                   No pseudopotential on this center.
   69          6
                                   No pseudopotential on this center.
   70          1
                                   No pseudopotential on this center.
   71          1
                                   No pseudopotential on this center.
   72          1
                                   No pseudopotential on this center.
   73          6
                                   No pseudopotential on this center.
   74          1
                                   No pseudopotential on this center.
   75          1
                                   No pseudopotential on this center.
   76          6
                                   No pseudopotential on this center.
   77          1
                                   No pseudopotential on this center.
   78          1
                                   No pseudopotential on this center.
   79          6
                                   No pseudopotential on this center.
   80          1
                                   No pseudopotential on this center.
   81          1
                                   No pseudopotential on this center.
   82          6
                                   No pseudopotential on this center.
   83          1
                                   No pseudopotential on this center.
   84          1
                                   No pseudopotential on this center.
   85          1
                                   No pseudopotential on this center.
   86          1
                                   No pseudopotential on this center.
   87          1
                                   No pseudopotential on this center.
   88          6
                                   No pseudopotential on this center.
   89          7
                                   No pseudopotential on this center.
   90          1
                                   No pseudopotential on this center.
   91          6
                                   No pseudopotential on this center.
   92          6
                                   No pseudopotential on this center.
   93          6
                                   No pseudopotential on this center.
   94          1
                                   No pseudopotential on this center.
   95          1
                                   No pseudopotential on this center.
   96          1
                                   No pseudopotential on this center.
   97          6
                                   No pseudopotential on this center.
   98          1
                                   No pseudopotential on this center.
   99          1
                                   No pseudopotential on this center.
  100          1
                                   No pseudopotential on this center.
  101          6
                                   No pseudopotential on this center.
  102          1
                                   No pseudopotential on this center.
  103          1
                                   No pseudopotential on this center.
  104          1
                                   No pseudopotential on this center.
  105          6
                                   No pseudopotential on this center.
  106          1
                                   No pseudopotential on this center.
  107          1
                                   No pseudopotential on this center.
  108          1
                                   No pseudopotential on this center.
  109          5
                                   No pseudopotential on this center.
  110          8
                                   No pseudopotential on this center.
  111          8
                                   No pseudopotential on this center.
 ======================================================================================================
 There are   881 symmetry adapted cartesian basis functions of A   symmetry.
 There are   830 symmetry adapted basis functions of A   symmetry.
   830 basis functions,  1659 primitive gaussians,   881 cartesian basis functions
   193 alpha electrons      193 beta electrons
       nuclear repulsion energy      8346.3554415822 Hartrees.
 NAtoms=  111 NActive=  111 NUniq=  111 SFac= 1.00D+00 NAtFMM=   60 NAOKFM=T Big=T
 Integral buffers will be    131072 words long.
 Raffenetti 2 integral format.
 Two-electron integral symmetry is turned on.
 One-electron integrals computed using PRISM.
   1 Symmetry operations used in ECPInt.
 ECPInt:  NShTT=   53301 NPrTT=  320676 LenC2=   42297 LenP2D=  130708.
 LDataN:  DoStor=T MaxTD1= 6 Len=  172
 NBasis=   830 RedAO= T EigKep=  6.25D-04  NBF=   830
 NBsUse=   830 1.00D-06 EigRej= -1.00D+00 NBFU=   830
 Defaulting to unpruned grid for atomic number  77.
 ExpMin= 2.90D-02 ExpMax= 5.48D+03 ExpMxC= 8.25D+02 IAcc=3 IRadAn=         5 AccDes= 0.00D+00
 Harris functional with IExCor= 1009 and IRadAn=       5 diagonalized for initial guess.
 HarFok:  IExCor= 1009 AccDes= 0.00D+00 IRadAn=         5 IDoV= 1 UseB2=F ITyADJ=14
 ICtDFT=  3500011 ScaDFX=  1.000000  1.000000  1.000000  1.000000
 Defaulting to unpruned grid for atomic number  77.
 FoFCou: FMM=F IPFlag=           0 FMFlag=      100000 FMFlg1=        2001
         NFxFlg=           0 DoJE=T BraDBF=F KetDBF=T FulRan=T
         wScrn=  0.000000 ICntrl=       500 IOpCl=  0 I1Cent=   200000004 NGrid=           0
         NMat0=    1 NMatS0=      1 NMatT0=    0 NMatD0=    1 NMtDS0=    0 NMtDT0=    0
 Petite list used in FoFCou.
 Requested convergence on RMS density matrix=1.00D-08 within 128 cycles.
 Requested convergence on MAX density matrix=1.00D-06.
 Requested convergence on             energy=1.00D-06.
 No special actions if energy rises.
 Defaulting to unpruned grid for atomic number  77.
 Defaulting to unpruned grid for atomic number  77.
 Defaulting to unpruned grid for atomic number  77.
 Defaulting to unpruned grid for atomic number  77.
 Defaulting to unpruned grid for atomic number  77.
 Defaulting to unpruned grid for atomic number  77.
 Defaulting to unpruned grid for atomic number  77.
 Defaulting to unpruned grid for atomic number  77.
 Defaulting to unpruned grid for atomic number  77.
 Defaulting to unpruned grid for atomic number  77.
 Defaulting to unpruned grid for atomic number  77.
 Defaulting to unpruned grid for atomic number  77.
 Defaulting to unpruned grid for atomic number  77.
 Defaulting to unpruned grid for atomic number  77.
 Defaulting to unpruned grid for atomic number  77.
 Defaulting to unpruned grid for atomic number  77.
 SCF Done:  E(RM06) =  -2277.48269786     A.U. after   14 cycles
            NFock= 14  Conv=0.53D-08     -V/T= 2.0390
 DoSCS=F DFT=T ScalE2(SS,OS)=  1.000000  1.000000
 Range of M.O.s used for correlation:     1   830
 NBasis=   830 NAE=   193 NBE=   193 NFC=     0 NFV=     0
 NROrb=    830 NOA=   193 NOB=   193 NVA=   637 NVB=   637

 **** Warning!!: The largest alpha MO coefficient is  0.11512639D+02

   1 Symmetry operations used in ECPInt.
 ECPInt:  NShTT=   53301 NPrTT=  320676 LenC2=   42297 LenP2D=  130708.
 LDataN:  DoStor=T MaxTD1= 7 Len=  274
 Number of processors reduced to   8 by ecpmxn.
 Symmetrizing basis deriv contribution to polar:
 IMax=3 JMax=2 DiffMx= 0.00D+00
 G2DrvN: will do   112 centers at a time, making    1 passes.
 Calling FoFCou, ICntrl=  3107 FMM=T I1Cent=   0 AccDes= 0.00D+00.
 Defaulting to unpruned grid for atomic number  77.
 Defaulting to unpruned grid for atomic number  77.
 Defaulting to unpruned grid for atomic number  77.
 Defaulting to unpruned grid for atomic number  77.
 Defaulting to unpruned grid for atomic number  77.
 Defaulting to unpruned grid for atomic number  77.
 Defaulting to unpruned grid for atomic number  77.
 Defaulting to unpruned grid for atomic number  77.
 Defaulting to unpruned grid for atomic number  77.
 Defaulting to unpruned grid for atomic number  77.
 Defaulting to unpruned grid for atomic number  77.
 Defaulting to unpruned grid for atomic number  77.
 Defaulting to unpruned grid for atomic number  77.
 Defaulting to unpruned grid for atomic number  77.
 Defaulting to unpruned grid for atomic number  77.
 Defaulting to unpruned grid for atomic number  77.
 End of G2Drv F.D. properties file   721 does not exist.
 End of G2Drv F.D. properties file   722 does not exist.
 End of G2Drv F.D. properties file   788 does not exist.
          IDoAtm=11111111111111111111111111111111111111111111111111
          IDoAtm=11111111111111111111111111111111111111111111111111
          IDoAtm=11111111111
          Differentiating once with respect to electric field.
                with respect to dipole field.
          Differentiating once with respect to nuclear coordinates.
 Defaulting to unpruned grid for atomic number  77.
 CalDSu exits because no D1Ps are significant.
 Defaulting to unpruned grid for atomic number  77.
 Defaulting to unpruned grid for atomic number  77.
 Defaulting to unpruned grid for atomic number  77.
 Defaulting to unpruned grid for atomic number  77.
 Defaulting to unpruned grid for atomic number  77.
 Defaulting to unpruned grid for atomic number  77.
 Defaulting to unpruned grid for atomic number  77.
 Defaulting to unpruned grid for atomic number  77.
 Defaulting to unpruned grid for atomic number  77.
 Defaulting to unpruned grid for atomic number  77.
 Defaulting to unpruned grid for atomic number  77.
 Defaulting to unpruned grid for atomic number  77.
 Defaulting to unpruned grid for atomic number  77.
 Defaulting to unpruned grid for atomic number  77.
 Defaulting to unpruned grid for atomic number  77.
 Defaulting to unpruned grid for atomic number  77.
          There are   336 degrees of freedom in the 1st order CPHF.  IDoFFX=6 NUNeed=     3.
    333 vectors produced by pass  0 Test12= 1.23D-13 1.00D-09 XBig12= 4.65D+02 6.77D+00.
 AX will form    72 AO Fock derivatives at one time.
    333 vectors produced by pass  1 Test12= 1.23D-13 1.00D-09 XBig12= 8.16D+01 8.95D-01.
    333 vectors produced by pass  2 Test12= 1.23D-13 1.00D-09 XBig12= 9.08D-01 9.40D-02.
    333 vectors produced by pass  3 Test12= 1.23D-13 1.00D-09 XBig12= 5.56D-03 6.96D-03.
    333 vectors produced by pass  4 Test12= 1.23D-13 1.00D-09 XBig12= 1.55D-05 3.61D-04.
    286 vectors produced by pass  5 Test12= 1.23D-13 1.00D-09 XBig12= 2.97D-08 1.50D-05.
     54 vectors produced by pass  6 Test12= 1.23D-13 1.00D-09 XBig12= 4.27D-11 3.51D-07.
      3 vectors produced by pass  7 Test12= 1.23D-13 1.00D-09 XBig12= 5.83D-14 1.53D-08.
 InvSVY:  IOpt=1 It=  1 EMax= 5.33D-14
 Solved reduced A of dimension  2008 with   336 vectors.
 Isotropic polarizability for W=    0.000000      489.11 Bohr**3.
 End of Minotr F.D. properties file   721 does not exist.
 End of Minotr F.D. properties file   722 does not exist.
 End of Minotr F.D. properties file   788 does not exist.
 Hyperfine terms turned off by default for NAtoms > 100.

 **********************************************************************

            Population analysis using the SCF Density.

 **********************************************************************

 Orbital symmetries:
       Occupied  (A) (A) (A) (A) (A) (A) (A) (A) (A) (A) (A) (A)
                 (A) (A) (A) (A) (A) (A) (A) (A) (A) (A) (A) (A)
                 (A) (A) (A) (A) (A) (A) (A) (A) (A) (A) (A) (A)
                 (A) (A) (A) (A) (A) (A) (A) (A) (A) (A) (A) (A)
                 (A) (A) (A) (A) (A) (A) (A) (A) (A) (A) (A) (A)
                 (A) (A) (A) (A) (A) (A) (A) (A) (A) (A) (A) (A)
                 (A) (A) (A) (A) (A) (A) (A) (A) (A) (A) (A) (A)
                 (A) (A) (A) (A) (A) (A) (A) (A) (A) (A) (A) (A)
                 (A) (A) (A) (A) (A) (A) (A) (A) (A) (A) (A) (A)
                 (A) (A) (A) (A) (A) (A) (A) (A) (A) (A) (A) (A)
                 (A) (A) (A) (A) (A) (A) (A) (A) (A) (A) (A) (A)
                 (A) (A) (A) (A) (A) (A) (A) (A) (A) (A) (A) (A)
                 (A) (A) (A) (A) (A) (A) (A) (A) (A) (A) (A) (A)
                 (A) (A) (A) (A) (A) (A) (A) (A) (A) (A) (A) (A)
                 (A) (A) (A) (A) (A) (A) (A) (A) (A) (A) (A) (A)
                 (A) (A) (A) (A) (A) (A) (A) (A) (A) (A) (A) (A)
                 (A)
       Virtual   (A) (A) (A) (A) (A) (A) (A) (A) (A) (A) (A) (A)
                 (A) (A) (A) (A) (A) (A) (A) (A) (A) (A) (A) (A)
                 (A) (A) (A) (A) (A) (A) (A) (A) (A) (A) (A) (A)
                 (A) (A) (A) (A) (A) (A) (A) (A) (A) (A) (A) (A)
                 (A) (A) (A) (A) (A) (A) (A) (A) (A) (A) (A) (A)
                 (A) (A) (A) (A) (A) (A) (A) (A) (A) (A) (A) (A)
                 (A) (A) (A) (A) (A) (A) (A) (A) (A) (A) (A) (A)
                 (A) (A) (A) (A) (A) (A) (A) (A) (A) (A) (A) (A)
                 (A) (A) (A) (A) (A) (A) (A) (A) (A) (A) (A) (A)
                 (A) (A) (A) (A) (A) (A) (A) (A) (A) (A) (A) (A)
                 (A) (A) (A) (A) (A) (A) (A) (A) (A) (A) (A) (A)
                 (A) (A) (A) (A) (A) (A) (A) (A) (A) (A) (A) (A)
                 (A) (A) (A) (A) (A) (A) (A) (A) (A) (A) (A) (A)
                 (A) (A) (A) (A) (A) (A) (A) (A) (A) (A) (A) (A)
                 (A) (A) (A) (A) (A) (A) (A) (A) (A) (A) (A) (A)
                 (A) (A) (A) (A) (A) (A) (A) (A) (A) (A) (A) (A)
                 (A) (A) (A) (A) (A) (A) (A) (A) (A) (A) (A) (A)
                 (A) (A) (A) (A) (A) (A) (A) (A) (A) (A) (A) (A)
                 (A) (A) (A) (A) (A) (A) (A) (A) (A) (A) (A) (A)
                 (A) (A) (A) (A) (A) (A) (A) (A) (A) (A) (A) (A)
                 (A) (A) (A) (A) (A) (A) (A) (A) (A) (A) (A) (A)
                 (A) (A) (A) (A) (A) (A) (A) (A) (A) (A) (A) (A)
                 (A) (A) (A) (A) (A) (A) (A) (A) (A) (A) (A) (A)
                 (A) (A) (A) (A) (A) (A) (A) (A) (A) (A) (A) (A)
                 (A) (A) (A) (A) (A) (A) (A) (A) (A) (A) (A) (A)
                 (A) (A) (A) (A) (A) (A) (A) (A) (A) (A) (A) (A)
                 (A) (A) (A) (A) (A) (A) (A) (A) (A) (A) (A) (A)
                 (A) (A) (A) (A) (A) (A) (A) (A) (A) (A) (A) (A)
                 (A) (A) (A) (A) (A) (A) (A) (A) (A) (A) (A) (A)
                 (A) (A) (A) (A) (A) (A) (A) (A) (A) (A) (A) (A)
                 (A) (A) (A) (A) (A) (A) (A) (A) (A) (A) (A) (A)
                 (A) (A) (A) (A) (A) (A) (A) (A) (A) (A) (A) (A)
                 (A) (A) (A) (A) (A) (A) (A) (A) (A) (A) (A) (A)
                 (A) (A) (A) (A) (A) (A) (A) (A) (A) (A) (A) (A)
                 (A) (A) (A) (A) (A) (A) (A) (A) (A) (A) (A) (A)
                 (A) (A) (A) (A) (A) (A) (A) (A) (A) (A) (A) (A)
                 (A) (A) (A) (A) (A) (A) (A) (A) (A) (A) (A) (A)
                 (A) (A) (A) (A) (A) (A) (A) (A) (A) (A) (A) (A)
                 (A) (A) (A) (A) (A) (A) (A) (A) (A) (A) (A) (A)
                 (A) (A) (A) (A) (A) (A) (A) (A) (A) (A) (A) (A)
                 (A) (A) (A) (A) (A) (A) (A) (A) (A) (A) (A) (A)
                 (A) (A) (A) (A) (A) (A) (A) (A) (A) (A) (A) (A)
                 (A) (A) (A) (A) (A) (A) (A) (A) (A) (A) (A) (A)
                 (A) (A) (A) (A) (A) (A) (A) (A) (A) (A) (A) (A)
                 (A) (A) (A) (A) (A) (A) (A) (A) (A) (A) (A) (A)
                 (A) (A) (A) (A) (A) (A) (A) (A) (A) (A) (A) (A)
                 (A) (A) (A) (A) (A) (A) (A) (A) (A) (A) (A) (A)
                 (A) (A) (A) (A) (A) (A) (A) (A) (A) (A) (A) (A)
                 (A) (A) (A) (A) (A) (A) (A) (A) (A) (A) (A) (A)
                 (A) (A) (A) (A) (A) (A) (A) (A) (A) (A) (A) (A)
                 (A) (A) (A) (A) (A) (A) (A) (A) (A) (A) (A) (A)
                 (A) (A) (A) (A) (A) (A) (A) (A) (A) (A) (A) (A)
                 (A) (A) (A) (A) (A) (A) (A) (A) (A) (A) (A) (A)
                 (A)
 The electronic state is 1-A.
 Alpha  occ. eigenvalues --  -19.20591 -19.20411 -19.20210 -19.20193 -19.20075
 Alpha  occ. eigenvalues --  -19.19856 -19.17702 -14.44231 -14.41796 -14.40431
 Alpha  occ. eigenvalues --  -10.33140 -10.30577 -10.29988 -10.29611 -10.29311
 Alpha  occ. eigenvalues --  -10.29299 -10.29232 -10.29171 -10.28966 -10.28928
 Alpha  occ. eigenvalues --  -10.28915 -10.27726 -10.27271 -10.27052 -10.26837
 Alpha  occ. eigenvalues --  -10.26506 -10.26436 -10.26334 -10.26183 -10.23539
 Alpha  occ. eigenvalues --  -10.23270 -10.23077 -10.23038 -10.22940 -10.22922
 Alpha  occ. eigenvalues --  -10.22868 -10.22643 -10.22591 -10.22441 -10.22295
 Alpha  occ. eigenvalues --  -10.22281 -10.22241 -10.21889 -10.21870 -10.21523
 Alpha  occ. eigenvalues --  -10.21112  -6.80922  -6.80763  -6.79762  -3.63418
 Alpha  occ. eigenvalues --   -2.06183  -2.05715  -2.04424  -1.06537  -1.06298
 Alpha  occ. eigenvalues --   -1.05860  -1.03463  -0.99541  -0.99345  -0.99144
 Alpha  occ. eigenvalues --   -0.98122  -0.95737  -0.93421  -0.82818  -0.81924
 Alpha  occ. eigenvalues --   -0.80962  -0.80653  -0.80558  -0.80321  -0.79934
 Alpha  occ. eigenvalues --   -0.76440  -0.75883  -0.75045  -0.74781  -0.74292
 Alpha  occ. eigenvalues --   -0.71263  -0.70577  -0.70323  -0.70251  -0.69738
 Alpha  occ. eigenvalues --   -0.67801  -0.67520  -0.67209  -0.66840  -0.66253
 Alpha  occ. eigenvalues --   -0.66187  -0.63287  -0.62041  -0.61794  -0.61405
 Alpha  occ. eigenvalues --   -0.60901  -0.60355  -0.57391  -0.55872  -0.54996
 Alpha  occ. eigenvalues --   -0.54789  -0.54331  -0.54056  -0.53418  -0.53301
 Alpha  occ. eigenvalues --   -0.53033  -0.52282  -0.51102  -0.49889  -0.49224
 Alpha  occ. eigenvalues --   -0.48523  -0.48259  -0.47692  -0.47353  -0.47158
 Alpha  occ. eigenvalues --   -0.46812  -0.46597  -0.46407  -0.46292  -0.45714
 Alpha  occ. eigenvalues --   -0.45688  -0.44731  -0.44593  -0.44437  -0.44340
 Alpha  occ. eigenvalues --   -0.43885  -0.43717  -0.43699  -0.43423  -0.43112
 Alpha  occ. eigenvalues --   -0.42743  -0.42525  -0.41640  -0.41499  -0.41135
 Alpha  occ. eigenvalues --   -0.40927  -0.40331  -0.40232  -0.40201  -0.39994
 Alpha  occ. eigenvalues --   -0.39940  -0.39886  -0.39624  -0.39596  -0.39403
 Alpha  occ. eigenvalues --   -0.39380  -0.39151  -0.39109  -0.38804  -0.38783
 Alpha  occ. eigenvalues --   -0.38417  -0.38178  -0.37734  -0.37513  -0.37302
 Alpha  occ. eigenvalues --   -0.37261  -0.37059  -0.36903  -0.36708  -0.36486
 Alpha  occ. eigenvalues --   -0.36074  -0.35870  -0.35689  -0.35380  -0.35098
 Alpha  occ. eigenvalues --   -0.35025  -0.34847  -0.34590  -0.33941  -0.33823
 Alpha  occ. eigenvalues --   -0.33511  -0.33047  -0.32843  -0.32187  -0.32092
 Alpha  occ. eigenvalues --   -0.31965  -0.31716  -0.31591  -0.31081  -0.30934
 Alpha  occ. eigenvalues --   -0.30734  -0.30346  -0.30092  -0.29753  -0.29475
 Alpha  occ. eigenvalues --   -0.29037  -0.28402  -0.27792  -0.27195  -0.26958
 Alpha  occ. eigenvalues --   -0.26269  -0.25701  -0.25603  -0.25378  -0.24608
 Alpha  occ. eigenvalues --   -0.22872  -0.22072  -0.19545
 Alpha virt. eigenvalues --   -0.05064  -0.02620  -0.02305  -0.00081   0.02250
 Alpha virt. eigenvalues --    0.03653   0.03942   0.05255   0.06059   0.06652
 Alpha virt. eigenvalues --    0.07570   0.08602   0.08960   0.09338   0.09480
 Alpha virt. eigenvalues --    0.10191   0.10731   0.11089   0.11199   0.11715
 Alpha virt. eigenvalues --    0.11772   0.11973   0.12189   0.12527   0.12754
 Alpha virt. eigenvalues --    0.13309   0.13668   0.13945   0.13995   0.14559
 Alpha virt. eigenvalues --    0.14730   0.14955   0.15080   0.15318   0.15469
 Alpha virt. eigenvalues --    0.15934   0.16002   0.16325   0.16478   0.16605
 Alpha virt. eigenvalues --    0.16816   0.16846   0.17195   0.17429   0.17593
 Alpha virt. eigenvalues --    0.17808   0.17926   0.18018   0.18221   0.18479
 Alpha virt. eigenvalues --    0.18599   0.18667   0.18908   0.19043   0.19170
 Alpha virt. eigenvalues --    0.19307   0.19550   0.19835   0.20082   0.20218
 Alpha virt. eigenvalues --    0.20457   0.20494   0.20675   0.20749   0.20941
 Alpha virt. eigenvalues --    0.21316   0.21779   0.22160   0.22356   0.22429
 Alpha virt. eigenvalues --    0.22626   0.22971   0.23043   0.23520   0.23966
 Alpha virt. eigenvalues --    0.24060   0.24130   0.24589   0.24617   0.24827
 Alpha virt. eigenvalues --    0.24927   0.25510   0.25722   0.25932   0.26283
 Alpha virt. eigenvalues --    0.26408   0.26552   0.27037   0.27183   0.27382
 Alpha virt. eigenvalues --    0.27620   0.27734   0.27967   0.28377   0.28689
 Alpha virt. eigenvalues --    0.29028   0.29411   0.29725   0.29935   0.30082
 Alpha virt. eigenvalues --    0.30525   0.30887   0.31080   0.31170   0.31673
 Alpha virt. eigenvalues --    0.31867   0.32091   0.32404   0.33593   0.33856
 Alpha virt. eigenvalues --    0.34392   0.35238   0.35421   0.35748   0.36337
 Alpha virt. eigenvalues --    0.37045   0.37061   0.39041   0.39201   0.40620
 Alpha virt. eigenvalues --    0.41419   0.43087   0.43521   0.45970   0.46234
 Alpha virt. eigenvalues --    0.47114   0.47586   0.48603   0.49142   0.49414
 Alpha virt. eigenvalues --    0.49992   0.50349   0.50923   0.51070   0.51210
 Alpha virt. eigenvalues --    0.51960   0.52082   0.52391   0.52759   0.53346
 Alpha virt. eigenvalues --    0.53570   0.53880   0.54211   0.54562   0.54869
 Alpha virt. eigenvalues --    0.55563   0.55769   0.56127   0.56507   0.57232
 Alpha virt. eigenvalues --    0.57338   0.57416   0.57694   0.58161   0.58299
 Alpha virt. eigenvalues --    0.58575   0.58818   0.58905   0.59517   0.59669
 Alpha virt. eigenvalues --    0.59853   0.60049   0.60417   0.60793   0.60959
 Alpha virt. eigenvalues --    0.61043   0.61329   0.61792   0.61865   0.62068
 Alpha virt. eigenvalues --    0.62674   0.62881   0.63172   0.63389   0.63899
 Alpha virt. eigenvalues --    0.64245   0.64870   0.64927   0.65095   0.65170
 Alpha virt. eigenvalues --    0.65673   0.65870   0.66178   0.66266   0.66668
 Alpha virt. eigenvalues --    0.67062   0.67489   0.67825   0.68152   0.68492
 Alpha virt. eigenvalues --    0.68984   0.69374   0.69675   0.69900   0.70131
 Alpha virt. eigenvalues --    0.70378   0.70573   0.71222   0.71354   0.71473
 Alpha virt. eigenvalues --    0.71820   0.72011   0.72712   0.73142   0.73338
 Alpha virt. eigenvalues --    0.73587   0.74074   0.74859   0.75026   0.75351
 Alpha virt. eigenvalues --    0.75946   0.76085   0.76472   0.77006   0.77675
 Alpha virt. eigenvalues --    0.77833   0.78665   0.78934   0.79129   0.79339
 Alpha virt. eigenvalues --    0.79670   0.79724   0.80282   0.80320   0.80972
 Alpha virt. eigenvalues --    0.81219   0.81631   0.82053   0.82503   0.82732
 Alpha virt. eigenvalues --    0.83107   0.83495   0.83551   0.83933   0.83951
 Alpha virt. eigenvalues --    0.84178   0.84200   0.84730   0.84873   0.85073
 Alpha virt. eigenvalues --    0.85165   0.85486   0.85585   0.86018   0.86270
 Alpha virt. eigenvalues --    0.86406   0.86790   0.86920   0.87039   0.87732
 Alpha virt. eigenvalues --    0.87868   0.88004   0.88200   0.88436   0.88755
 Alpha virt. eigenvalues --    0.89044   0.89238   0.89547   0.89689   0.89883
 Alpha virt. eigenvalues --    0.90119   0.90431   0.90590   0.90703   0.90874
 Alpha virt. eigenvalues --    0.91348   0.91632   0.92004   0.92473   0.92532
 Alpha virt. eigenvalues --    0.92705   0.92992   0.93191   0.93708   0.94120
 Alpha virt. eigenvalues --    0.94337   0.94456   0.94587   0.94981   0.95545
 Alpha virt. eigenvalues --    0.96057   0.96399   0.96441   0.96551   0.96786
 Alpha virt. eigenvalues --    0.97428   0.97611   0.97905   0.98357   0.98878
 Alpha virt. eigenvalues --    0.99209   0.99645   1.00531   1.00656   1.01224
 Alpha virt. eigenvalues --    1.01606   1.01863   1.02273   1.03246   1.03270
 Alpha virt. eigenvalues --    1.03538   1.03857   1.04518   1.04787   1.06119
 Alpha virt. eigenvalues --    1.06189   1.06488   1.06924   1.07830   1.07946
 Alpha virt. eigenvalues --    1.08114   1.09222   1.09823   1.10179   1.11220
 Alpha virt. eigenvalues --    1.11963   1.12338   1.12768   1.13762   1.14327
 Alpha virt. eigenvalues --    1.14859   1.15051   1.16267   1.16889   1.17176
 Alpha virt. eigenvalues --    1.17595   1.17740   1.18309   1.19281   1.19842
 Alpha virt. eigenvalues --    1.20722   1.20996   1.21413   1.21868   1.23267
 Alpha virt. eigenvalues --    1.23548   1.24344   1.24525   1.25394   1.26236
 Alpha virt. eigenvalues --    1.26624   1.27296   1.27725   1.27982   1.29371
 Alpha virt. eigenvalues --    1.29937   1.30266   1.30943   1.31143   1.31587
 Alpha virt. eigenvalues --    1.33033   1.33449   1.34314   1.34830   1.36064
 Alpha virt. eigenvalues --    1.36410   1.37309   1.37731   1.38169   1.39562
 Alpha virt. eigenvalues --    1.39876   1.40573   1.41010   1.41359   1.42314
 Alpha virt. eigenvalues --    1.42962   1.43472   1.43847   1.44479   1.45313
 Alpha virt. eigenvalues --    1.45455   1.45909   1.46626   1.47312   1.47508
 Alpha virt. eigenvalues --    1.47802   1.48513   1.48876   1.49336   1.49752
 Alpha virt. eigenvalues --    1.50182   1.50481   1.51292   1.52171   1.52719
 Alpha virt. eigenvalues --    1.52843   1.53042   1.53751   1.55189   1.56302
 Alpha virt. eigenvalues --    1.56697   1.57372   1.58580   1.59044   1.60330
 Alpha virt. eigenvalues --    1.61399   1.61932   1.62531   1.62948   1.63614
 Alpha virt. eigenvalues --    1.64493   1.65069   1.65409   1.66119   1.66750
 Alpha virt. eigenvalues --    1.67421   1.68364   1.68449   1.69150   1.69189
 Alpha virt. eigenvalues --    1.69982   1.71137   1.71954   1.72427   1.73671
 Alpha virt. eigenvalues --    1.74248   1.74961   1.75906   1.76813   1.77317
 Alpha virt. eigenvalues --    1.77521   1.78085   1.78822   1.79146   1.79509
 Alpha virt. eigenvalues --    1.80213   1.80803   1.81219   1.81704   1.81805
 Alpha virt. eigenvalues --    1.82672   1.83489   1.83571   1.84110   1.85231
 Alpha virt. eigenvalues --    1.85539   1.85874   1.86027   1.86410   1.87087
 Alpha virt. eigenvalues --    1.87646   1.87694   1.88419   1.88999   1.89323
 Alpha virt. eigenvalues --    1.90062   1.90160   1.90469   1.90736   1.91168
 Alpha virt. eigenvalues --    1.91553   1.91726   1.92269   1.92480   1.92781
 Alpha virt. eigenvalues --    1.92920   1.93276   1.93561   1.93695   1.94400
 Alpha virt. eigenvalues --    1.94683   1.95029   1.95302   1.95604   1.96132
 Alpha virt. eigenvalues --    1.96784   1.97197   1.97412   1.98090   1.98187
 Alpha virt. eigenvalues --    1.98480   1.99596   2.00200   2.00852   2.01085
 Alpha virt. eigenvalues --    2.01897   2.02225   2.02792   2.03450   2.03778
 Alpha virt. eigenvalues --    2.04195   2.05152   2.05410   2.05806   2.06356
 Alpha virt. eigenvalues --    2.06755   2.07116   2.07471   2.07679   2.08298
 Alpha virt. eigenvalues --    2.08618   2.09175   2.09502   2.10100   2.10504
 Alpha virt. eigenvalues --    2.11045   2.11234   2.11652   2.12087   2.12710
 Alpha virt. eigenvalues --    2.12760   2.13489   2.13886   2.14115   2.14333
 Alpha virt. eigenvalues --    2.15024   2.15708   2.16346   2.16942   2.17124
 Alpha virt. eigenvalues --    2.17443   2.17701   2.18437   2.18592   2.19064
 Alpha virt. eigenvalues --    2.19128   2.19402   2.20068   2.20253   2.20593
 Alpha virt. eigenvalues --    2.20795   2.20802   2.21775   2.21876   2.22585
 Alpha virt. eigenvalues --    2.22785   2.23383   2.23473   2.24050   2.24527
 Alpha virt. eigenvalues --    2.24983   2.25140   2.25465   2.26226   2.26306
 Alpha virt. eigenvalues --    2.26820   2.27152   2.27452   2.28020   2.28501
 Alpha virt. eigenvalues --    2.29100   2.29573   2.30376   2.31174   2.31648
 Alpha virt. eigenvalues --    2.32258   2.32486   2.33359   2.33863   2.34374
 Alpha virt. eigenvalues --    2.34600   2.34838   2.35608   2.36084   2.36431
 Alpha virt. eigenvalues --    2.37485   2.37714   2.38628   2.38964   2.39443
 Alpha virt. eigenvalues --    2.39647   2.40168   2.42029   2.45026   2.45591
 Alpha virt. eigenvalues --    2.45650   2.46962   2.48061   2.48495   2.48930
 Alpha virt. eigenvalues --    2.49340   2.50107   2.50495   2.51397   2.53751
 Alpha virt. eigenvalues --    2.55475   2.56800   2.57367   2.58487   2.59048
 Alpha virt. eigenvalues --    2.59607   2.59666   2.60712   2.62384   2.62890
 Alpha virt. eigenvalues --    2.63661   2.64167   2.64191   2.64622   2.65065
 Alpha virt. eigenvalues --    2.66066   2.66431   2.67661   2.68665   2.70632
 Alpha virt. eigenvalues --    2.71575   2.72726   2.73744   2.74912   2.76935
 Alpha virt. eigenvalues --    2.78015   2.78272   2.79683   2.79804   2.80354
 Alpha virt. eigenvalues --    2.80794   2.81246   2.81477   2.81677   2.82604
 Alpha virt. eigenvalues --    2.82783   2.84399   2.85350   2.86341   2.86451
 Alpha virt. eigenvalues --    2.87371   2.91591   2.95043   2.95279   2.95985
 Alpha virt. eigenvalues --    2.96505   2.96859   2.97828   2.98318   3.02062
 Alpha virt. eigenvalues --    3.03563   3.07102   3.09706   3.11356   3.11856
 Alpha virt. eigenvalues --    3.14107   3.14579   3.20336   3.22626   3.34354
 Alpha virt. eigenvalues --    3.43239  13.22094
          Condensed to atoms (all electrons):
 Mulliken charges:
               1
     1  C    0.297671
     2  C    0.070060
     3  C   -0.181036
     4  C   -0.135996
     5  C   -0.176234
     6  C    0.238079
     7  C   -0.117467
     8  C   -0.164833
     9  C    0.004257
    10  H    0.220893
    11  H    0.178605
    12  H    0.192833
    13  H    0.185437
    14  H    0.162847
    15  N   -0.491329
    16  Ir  -0.280048
    17  O   -0.532898
    18  O   -0.517242
    19  B    0.489932
    20  B    0.457333
    21  O   -0.492790
    22  C    0.300120
    23  C    0.288624
    24  C    0.288952
    25  C    0.297810
    26  O   -0.514477
    27  C   -0.507453
    28  H    0.153419
    29  H    0.165348
    30  H    0.164704
    31  C   -0.496050
    32  H    0.182378
    33  H    0.147974
    34  H    0.154216
    35  C   -0.509515
    36  H    0.144695
    37  H    0.171712
    38  H    0.183322
    39  C   -0.509003
    40  H    0.163200
    41  H    0.173078
    42  H    0.148503
    43  C   -0.502185
    44  H    0.158189
    45  H    0.151380
    46  H    0.162268
    47  C   -0.494296
    48  H    0.143801
    49  H    0.175067
    50  H    0.161630
    51  C   -0.506381
    52  H    0.151390
    53  H    0.165344
    54  H    0.169574
    55  C   -0.505774
    56  H    0.163171
    57  H    0.165049
    58  H    0.153990
    59  H    0.136259
    60  C    0.593838
    61  O   -0.509057
    62  C   -0.407330
    63  H    0.172839
    64  H    0.156969
    65  C   -0.317895
    66  H    0.166140
    67  H    0.210020
    68  N   -0.354601
    69  C   -0.369613
    70  H    0.185163
    71  H    0.177125
    72  H    0.176223
    73  C   -0.294337
    74  H    0.128763
    75  H    0.216497
    76  C   -0.271998
    77  H    0.133237
    78  H    0.135999
    79  C   -0.271506
    80  H    0.145257
    81  H    0.139811
    82  C   -0.496750
    83  H    0.157689
    84  H    0.158333
    85  H    0.163027
    86  H    0.169238
    87  H    0.180040
    88  C   -0.168074
    89  N   -0.413025
    90  H    0.234188
    91  C    0.290948
    92  C    0.287795
    93  C   -0.491518
    94  H    0.177819
    95  H    0.143872
    96  H    0.151986
    97  C   -0.497321
    98  H    0.151170
    99  H    0.150045
   100  H    0.171923
   101  C   -0.498030
   102  H    0.166707
   103  H    0.149965
   104  H    0.157535
   105  C   -0.528726
   106  H    0.143816
   107  H    0.147985
   108  H    0.216045
   109  B    0.554195
   110  O   -0.491455
   111  O   -0.529073
 Sum of Mulliken charges =  -0.00000
 Mulliken charges with hydrogens summed into heavy atoms:
               1
     1  C    0.297671
     2  C    0.290953
     3  C   -0.000996
     4  C    0.042609
     5  C    0.016598
     6  C    0.238079
     7  C    0.067970
     8  C    0.004405
     9  C    0.167104
    15  N   -0.491329
    16  Ir  -0.143789
    17  O   -0.532898
    18  O   -0.517242
    19  B    0.489932
    20  B    0.457333
    21  O   -0.492790
    22  C    0.300120
    23  C    0.288624
    24  C    0.288952
    25  C    0.297810
    26  O   -0.514477
    27  C   -0.023981
    31  C   -0.011483
    35  C   -0.009787
    39  C   -0.024221
    43  C   -0.030348
    47  C   -0.013797
    51  C   -0.020073
    55  C   -0.023565
    60  C    0.593838
    61  O   -0.509057
    62  C   -0.077522
    65  C    0.058265
    68  N   -0.354601
    69  C    0.168898
    73  C    0.050922
    76  C   -0.002762
    79  C    0.013562
    82  C   -0.017701
    88  C    0.066114
    89  N   -0.413025
    91  C    0.290948
    92  C    0.287795
    93  C   -0.017841
    97  C   -0.024184
   101  C   -0.023823
   105  C   -0.020879
   109  B    0.554195
   110  O   -0.491455
   111  O   -0.529073
 APT charges:
               1
     1  C    0.229035
     2  C    0.084163
     3  C   -0.112750
     4  C    0.159714
     5  C   -0.198090
     6  C    0.230671
     7  C    0.108264
     8  C   -0.113531
     9  C    0.209223
    10  H    0.099618
    11  H    0.023626
    12  H    0.073785
    13  H    0.044543
    14  H   -0.008891
    15  N   -0.199177
    16  Ir  -0.797848
    17  O   -0.917435
    18  O   -0.944131
    19  B    1.127421
    20  B    1.222317
    21  O   -0.920242
    22  C    0.483715
    23  C    0.449677
    24  C    0.452027
    25  C    0.438307
    26  O   -0.897922
    27  C    0.002608
    28  H   -0.017335
    29  H    0.001322
    30  H   -0.000834
    31  C   -0.027447
    32  H    0.008286
    33  H   -0.024397
    34  H   -0.000383
    35  C   -0.034867
    36  H   -0.018691
    37  H   -0.000373
    38  H    0.022561
    39  C   -0.015839
    40  H   -0.000204
    41  H    0.004392
    42  H   -0.013189
    43  C    0.009931
    44  H   -0.002460
    45  H   -0.018762
    46  H    0.000006
    47  C   -0.023668
    48  H   -0.024867
    49  H    0.023188
    50  H   -0.004740
    51  C   -0.012719
    52  H   -0.015468
    53  H   -0.001672
    54  H    0.008354
    55  C   -0.028407
    56  H    0.000120
    57  H   -0.002512
    58  H   -0.018399
    59  H    0.239989
    60  C    0.914606
    61  O   -0.775878
    62  C   -0.023012
    63  H    0.000902
    64  H   -0.033425
    65  C    0.380791
    66  H   -0.071764
    67  H   -0.028574
    68  N   -0.771738
    69  C    0.300730
    70  H   -0.024135
    71  H    0.003566
    72  H   -0.022135
    73  C    0.023270
    74  H   -0.035831
    75  H    0.059323
    76  C    0.112337
    77  H   -0.031931
    78  H   -0.066534
    79  C    0.101653
    80  H   -0.045237
    81  H   -0.052953
    82  C    0.068245
    83  H   -0.017175
    84  H   -0.030639
    85  H   -0.030187
    86  H    0.029661
    87  H    0.037844
    88  C   -0.132816
    89  N   -0.405200
    90  H    0.039370
    91  C    0.492430
    92  C    0.458351
    93  C   -0.033960
    94  H    0.025425
    95  H   -0.022483
    96  H   -0.001971
    97  C   -0.012341
    98  H   -0.007804
    99  H   -0.018219
   100  H    0.013392
   101  C   -0.005551
   102  H   -0.000620
   103  H   -0.018132
   104  H   -0.008189
   105  C   -0.056081
   106  H   -0.023677
   107  H   -0.010843
   108  H    0.076267
   109  B    1.239566
   110  O   -0.943723
   111  O   -0.954582
 Sum of APT charges =  -0.00000
 APT charges with hydrogens summed into heavy atoms:
               1
     1  C    0.229035
     2  C    0.183780
     3  C   -0.074906
     4  C    0.183340
     5  C   -0.124306
     6  C    0.230671
     7  C    0.152807
     8  C   -0.083870
     9  C    0.200332
    15  N   -0.199177
    16  Ir  -0.557859
    17  O   -0.917435
    18  O   -0.944131
    19  B    1.127421
    20  B    1.222317
    21  O   -0.920242
    22  C    0.483715
    23  C    0.449677
    24  C    0.452027
    25  C    0.438307
    26  O   -0.897922
    27  C   -0.014239
    31  C   -0.043941
    35  C   -0.031370
    39  C   -0.024839
    43  C   -0.011285
    47  C   -0.030087
    51  C   -0.021505
    55  C   -0.049198
    60  C    0.914606
    61  O   -0.775878
    62  C   -0.055535
    65  C    0.280453
    68  N   -0.771738
    69  C    0.258026
    73  C    0.046762
    76  C    0.013871
    79  C    0.003464
    82  C   -0.009756
    88  C   -0.093446
    89  N   -0.405200
    91  C    0.492430
    92  C    0.458351
    93  C   -0.032989
    97  C   -0.024972
   101  C   -0.032492
   105  C   -0.014335
   109  B    1.239566
   110  O   -0.943723
   111  O   -0.954582
 Electronic spatial extent (au):  <R**2>=          26111.9125
 Charge=             -0.0000 electrons
 Dipole moment (field-independent basis, Debye):
    X=             -1.6834    Y=              1.5598    Z=             -1.0420  Tot=              2.5204
 Quadrupole moment (field-independent basis, Debye-Ang):
   XX=           -302.8999   YY=           -299.8476   ZZ=           -304.0372
   XY=              5.3760   XZ=             -1.3513   YZ=             -5.3502
 Traceless Quadrupole moment (field-independent basis, Debye-Ang):
   XX=             -0.6383   YY=              2.4140   ZZ=             -1.7756
   XY=              5.3760   XZ=             -1.3513   YZ=             -5.3502
 Octapole moment (field-independent basis, Debye-Ang**2):
  XXX=           -104.2981  YYY=            -37.5156  ZZZ=           -100.9938  XYY=            -90.3247
  XXY=             -3.9074  XXZ=            -54.8232  XZZ=             -6.2794  YZZ=              4.7455
  YYZ=            -29.9777  XYZ=             -8.3866
 Hexadecapole moment (field-independent basis, Debye-Ang**3):
 XXXX=         -17632.6009 YYYY=          -9522.7431 ZZZZ=          -7558.2333 XXXY=            -71.6537
 XXXZ=            -60.4058 YYYX=            317.8121 YYYZ=            -53.3230 ZZZX=           -101.9919
 ZZZY=              4.0092 XXYY=          -4299.3663 XXZZ=          -4179.0531 YYZZ=          -2946.8079
 XXYZ=              1.2586 YYXZ=             91.9485 ZZXY=            -99.1648
 N-N= 8.346355441582D+03 E-N=-2.197071107308D+04  KE= 2.191943895741D+03
  Exact polarizability:     552.419      -6.713     503.470      -8.766     -19.847     411.436
 Approx polarizability:     765.157     -21.288     763.375     -25.548     -45.861     618.085
   1 Symmetry operations used in ECPInt.
 ECPInt:  NShTT=   53301 NPrTT=  320676 LenC2=   42297 LenP2D=  130708.
 LDataN:  DoStor=T MaxTD1= 8 Len=  415
 Calling FoFJK, ICntrl=    100127 FMM=F ISym2X=0 I1Cent= 0 IOpClX= 0 NMat=1 NMatS=1 NMatT=0.
 Defaulting to unpruned grid for atomic number  77.
 Defaulting to unpruned grid for atomic number  77.
 Defaulting to unpruned grid for atomic number  77.
 Defaulting to unpruned grid for atomic number  77.
 Defaulting to unpruned grid for atomic number  77.
 Defaulting to unpruned grid for atomic number  77.
 Defaulting to unpruned grid for atomic number  77.
 Defaulting to unpruned grid for atomic number  77.
 Defaulting to unpruned grid for atomic number  77.
 Defaulting to unpruned grid for atomic number  77.
 Defaulting to unpruned grid for atomic number  77.
 Defaulting to unpruned grid for atomic number  77.
 Defaulting to unpruned grid for atomic number  77.
 Defaulting to unpruned grid for atomic number  77.
 Defaulting to unpruned grid for atomic number  77.
 Defaulting to unpruned grid for atomic number  77.
 Full mass-weighted force constant matrix:
 Low frequencies --- -675.6188   -0.0008   -0.0005   -0.0004    1.5763    7.7206
 Low frequencies ---    9.9997   26.0525   35.4048
 ******    1 imaginary frequencies (negative Signs) ****** 
 Diagonal vibrational polarizability:
       61.0701111      60.6972333      83.1358873
 Harmonic frequencies (cm**-1), IR intensities (KM/Mole), Raman scattering
 activities (A**4/AMU), depolarization ratios for plane and unpolarized
 incident light, reduced masses (AMU), force constants (mDyne/A),
 and normal coordinates:
                      1                      2                      3
                      A                      A                      A
 Frequencies --   -675.6114                25.9334                35.3886
 Red. masses --      1.1804                 4.0549                 4.6691
 Frc consts  --      0.3174                 0.0016                 0.0034
 IR Inten    --    266.0740                 0.0363                 0.5329
  Atom AN      X      Y      Z        X      Y      Z        X      Y      Z
     1   6     0.00   0.01   0.00     0.01  -0.02   0.01     0.03  -0.05  -0.02
     2   6     0.01   0.01   0.00     0.04  -0.01  -0.05     0.07  -0.00  -0.05
     3   6     0.00   0.01  -0.00     0.06  -0.02  -0.06     0.11  -0.04  -0.10
     4   6     0.00   0.00  -0.00     0.05  -0.04  -0.03     0.10  -0.08  -0.11
     5   6     0.00   0.00  -0.00     0.03  -0.04   0.00     0.06  -0.09  -0.07
     6   6    -0.00   0.00   0.00    -0.02  -0.03   0.04    -0.02  -0.06   0.00
     7   6    -0.00  -0.00  -0.00    -0.07  -0.01   0.06    -0.09  -0.03   0.05
     8   6    -0.00   0.00  -0.00    -0.07  -0.04   0.07    -0.10  -0.08   0.05
     9   6    -0.00  -0.00  -0.00    -0.05  -0.06   0.07    -0.07  -0.11   0.03
    10   1     0.01   0.01  -0.01     0.04   0.01  -0.07     0.07   0.03  -0.05
    11   1     0.00   0.00   0.00     0.07  -0.06  -0.04     0.13  -0.11  -0.15
    12   1     0.01   0.00  -0.01     0.02  -0.06   0.03     0.05  -0.12  -0.08
    13   1    -0.00  -0.00  -0.00    -0.09   0.01   0.06    -0.11   0.00   0.06
    14   1    -0.00  -0.00  -0.00    -0.05  -0.08   0.09    -0.08  -0.15   0.03
    15   7     0.01   0.02   0.02     0.02  -0.01  -0.01     0.03  -0.01  -0.02
    16  77     0.01  -0.01  -0.01    -0.00   0.00  -0.00    -0.01   0.02   0.00
    17   8    -0.00   0.00   0.00     0.02   0.04  -0.02    -0.02   0.02   0.00
    18   8    -0.00  -0.00  -0.00     0.02  -0.00  -0.06     0.03   0.02   0.05
    19   5    -0.00   0.01   0.01     0.01  -0.00   0.01    -0.02   0.02  -0.00
    20   5     0.00   0.02   0.01     0.01  -0.00  -0.00     0.01   0.01   0.01
    21   8     0.00   0.00   0.01     0.01  -0.02   0.03     0.01  -0.01  -0.01
    22   6     0.00   0.00  -0.00     0.04  -0.02  -0.07     0.04   0.01   0.05
    23   6     0.00   0.00   0.00     0.01  -0.01  -0.00     0.04  -0.02   0.01
    24   6    -0.00   0.00   0.00     0.03   0.05  -0.02    -0.03   0.03  -0.01
    25   6    -0.00   0.00   0.00     0.03   0.03   0.03    -0.03   0.04  -0.02
    26   8    -0.00   0.00   0.00     0.01  -0.02   0.04    -0.02   0.03  -0.01
    27   6    -0.00   0.00   0.00     0.05   0.10  -0.03    -0.04   0.03  -0.00
    28   1     0.00  -0.00   0.00     0.06   0.12  -0.03    -0.05   0.04  -0.01
    29   1    -0.00   0.00   0.00     0.06   0.12   0.00    -0.06   0.03   0.01
    30   1    -0.00   0.00   0.00     0.05   0.11  -0.06    -0.04   0.02   0.00
    31   6    -0.00   0.00   0.00     0.00   0.04  -0.06    -0.01   0.03  -0.02
    32   1    -0.00  -0.00   0.00    -0.02   0.00  -0.06    -0.00   0.03  -0.02
    33   1    -0.00   0.00  -0.00     0.00   0.04  -0.06    -0.00   0.04  -0.02
    34   1    -0.00   0.00   0.00    -0.00   0.05  -0.09     0.00   0.02  -0.02
    35   6    -0.00  -0.00   0.00     0.06   0.05   0.07    -0.05   0.04  -0.01
    36   1    -0.00  -0.00   0.00     0.07   0.09   0.07    -0.07   0.05  -0.02
    37   1    -0.00  -0.00  -0.00     0.06   0.03   0.11    -0.05   0.05  -0.02
    38   1    -0.00  -0.00   0.00     0.06   0.06   0.08    -0.06   0.04   0.00
    39   6    -0.00  -0.00   0.00     0.03   0.01   0.03    -0.03   0.06  -0.03
    40   1    -0.00  -0.00   0.00     0.01  -0.00   0.01    -0.01   0.05  -0.04
    41   1    -0.00  -0.00  -0.00     0.03  -0.00   0.05    -0.03   0.06  -0.03
    42   1    -0.00   0.00   0.00     0.03   0.04   0.02    -0.03   0.07  -0.04
    43   6     0.00  -0.00   0.00     0.04  -0.03   0.03     0.03  -0.03  -0.01
    44   1    -0.00  -0.00   0.00     0.08  -0.07   0.03     0.01  -0.00  -0.02
    45   1    -0.00  -0.00  -0.00     0.03  -0.02  -0.01     0.05  -0.03   0.00
    46   1    -0.00   0.00   0.00     0.02  -0.01   0.08     0.03  -0.05  -0.04
    47   6     0.00   0.00   0.00    -0.03   0.04  -0.00     0.07  -0.05   0.00
    48   1    -0.00   0.00   0.00    -0.04   0.05  -0.02     0.09  -0.06   0.02
    49   1     0.00   0.00   0.00    -0.05   0.05  -0.02     0.07  -0.03   0.02
    50   1     0.00   0.00   0.00    -0.05   0.05   0.04     0.06  -0.06  -0.02
    51   6    -0.00  -0.00   0.00     0.03   0.02  -0.14     0.07   0.00   0.08
    52   1    -0.00  -0.00   0.00     0.05   0.01  -0.14     0.08  -0.01   0.07
    53   1     0.00   0.00  -0.00     0.06   0.02  -0.19     0.06   0.02   0.11
    54   1    -0.00  -0.00   0.00    -0.01   0.07  -0.14     0.10  -0.02   0.08
    55   6    -0.00  -0.00  -0.00     0.09  -0.09  -0.08     0.01   0.04   0.05
    56   1     0.00   0.00  -0.00     0.10  -0.13  -0.03    -0.01   0.05   0.03
    57   1     0.00   0.00   0.00     0.10  -0.11  -0.13     0.00   0.06   0.08
    58   1     0.00  -0.00   0.00     0.09  -0.10  -0.10     0.01   0.04   0.05
    59   1     0.16   0.75   0.57    -0.02   0.04  -0.01    -0.02   0.05  -0.00
    60   6    -0.01   0.01  -0.00    -0.00   0.05  -0.04    -0.03   0.00   0.02
    61   8     0.00  -0.00   0.00    -0.00   0.03  -0.05    -0.05   0.01   0.02
    62   6    -0.00   0.00  -0.00    -0.00   0.04  -0.04    -0.03  -0.04   0.03
    63   1    -0.00  -0.00  -0.00    -0.00   0.02  -0.07    -0.05  -0.04   0.03
    64   1     0.00   0.00   0.00    -0.00   0.08  -0.04    -0.03  -0.05   0.03
    65   6    -0.06  -0.06   0.03    -0.01   0.05  -0.03    -0.01   0.03  -0.00
    66   1    -0.02   0.09   0.06    -0.00   0.07  -0.02     0.01   0.05  -0.00
    67   1     0.01  -0.13  -0.20    -0.00   0.05  -0.05    -0.03   0.04  -0.02
    68   7    -0.03   0.02   0.03    -0.00   0.07  -0.02    -0.01   0.01   0.02
    69   6    -0.02  -0.00   0.01    -0.01   0.09   0.00     0.02  -0.01   0.02
    70   1     0.00   0.01  -0.02    -0.04   0.08   0.02     0.03   0.00   0.01
    71   1    -0.02  -0.02   0.01    -0.00   0.12   0.02     0.02  -0.03   0.03
    72   1    -0.01  -0.01   0.00     0.01   0.10  -0.00     0.03  -0.01   0.01
    73   6     0.00  -0.00  -0.00    -0.01   0.02   0.01     0.01  -0.05   0.02
    74   1     0.00  -0.00  -0.00     0.01   0.04   0.04    -0.01  -0.04   0.03
    75   1     0.00  -0.00   0.00    -0.03  -0.00   0.00     0.04  -0.04   0.06
    76   6     0.00   0.00  -0.00    -0.03  -0.01   0.05     0.04  -0.07  -0.04
    77   1     0.00   0.00  -0.00    -0.05  -0.04   0.01     0.06  -0.06  -0.03
    78   1     0.00   0.00   0.00    -0.01   0.02   0.06     0.00  -0.10  -0.08
    79   6     0.00   0.00   0.00    -0.05  -0.04   0.11     0.11  -0.07  -0.07
    80   1     0.00   0.00   0.00    -0.02  -0.01   0.14     0.09  -0.08  -0.09
    81   1     0.00  -0.00   0.00    -0.07  -0.06   0.08     0.15  -0.04  -0.03
    82   6     0.00   0.00   0.00    -0.09  -0.08   0.15     0.16  -0.09  -0.14
    83   1     0.00   0.00   0.00    -0.12  -0.11   0.12     0.18  -0.07  -0.12
    84   1    -0.00   0.00   0.00    -0.06  -0.06   0.18     0.12  -0.12  -0.19
    85   1     0.00   0.00   0.00    -0.10  -0.10   0.20     0.21  -0.09  -0.17
    86   1    -0.00  -0.00   0.00    -0.09  -0.04   0.09    -0.14  -0.09   0.06
    87   1     0.01   0.01  -0.01     0.08  -0.02  -0.09     0.14  -0.03  -0.13
    88   6    -0.00  -0.00  -0.00    -0.04  -0.00   0.04    -0.04  -0.02   0.02
    89   7    -0.00   0.00   0.00    -0.02  -0.05   0.06    -0.03  -0.10   0.01
    90   1    -0.00  -0.00  -0.00    -0.04   0.02   0.03    -0.03   0.02   0.02
    91   6     0.00  -0.00  -0.00    -0.01  -0.03  -0.02    -0.03   0.04   0.02
    92   6    -0.00   0.00  -0.00    -0.02  -0.02   0.00    -0.02   0.03   0.01
    93   6    -0.00   0.00  -0.00    -0.03  -0.03   0.02    -0.01   0.03   0.01
    94   1    -0.00   0.00   0.00    -0.04  -0.04   0.02    -0.00   0.04   0.00
    95   1     0.00  -0.00  -0.00    -0.04  -0.04   0.01    -0.01   0.04   0.01
    96   1     0.00  -0.00   0.00    -0.04  -0.02   0.03    -0.00   0.03  -0.00
    97   6    -0.00   0.00  -0.00    -0.02  -0.01   0.01    -0.02   0.02   0.02
    98   1    -0.00   0.00  -0.00    -0.02  -0.01   0.03    -0.01   0.01   0.01
    99   1    -0.00   0.00  -0.00    -0.02  -0.03  -0.00    -0.02   0.02   0.02
   100   1    -0.00   0.00  -0.00    -0.01   0.01  -0.01    -0.03   0.01   0.02
   101   6    -0.00   0.00  -0.00    -0.01  -0.07  -0.02    -0.03   0.05   0.02
   102   1     0.00  -0.00  -0.00    -0.01  -0.06  -0.04    -0.03   0.06   0.03
   103   1     0.00   0.00  -0.00    -0.01  -0.09  -0.04    -0.03   0.06   0.03
   104   1    -0.00   0.00  -0.00    -0.00  -0.08   0.01    -0.03   0.06   0.01
   105   6     0.00   0.00  -0.00    -0.01  -0.01  -0.06    -0.04   0.03   0.04
   106   1     0.00   0.00  -0.00    -0.01  -0.03  -0.07    -0.04   0.03   0.04
   107   1     0.00  -0.00   0.00    -0.01  -0.01  -0.07    -0.04   0.04   0.04
   108   1    -0.00   0.00  -0.00    -0.01   0.02  -0.05    -0.04   0.02   0.04
   109   5    -0.00  -0.00   0.01    -0.01  -0.00   0.00    -0.02   0.03   0.01
   110   8    -0.00   0.00  -0.00    -0.01  -0.00   0.01    -0.01   0.02   0.01
   111   8    -0.00  -0.00  -0.00    -0.02  -0.01  -0.01    -0.02   0.04   0.02
                      4                      5                      6
                      A                      A                      A
 Frequencies --     38.2308                39.6141                46.8463
 Red. masses --      3.9281                 4.8069                 4.2190
 Frc consts  --      0.0034                 0.0044                 0.0055
 IR Inten    --      0.1342                 0.2328                 0.2518
  Atom AN      X      Y      Z        X      Y      Z        X      Y      Z
     1   6     0.02  -0.02   0.02     0.01  -0.01   0.07    -0.00  -0.02   0.04
     2   6     0.04   0.00  -0.01     0.03   0.02   0.07     0.01  -0.01   0.01
     3   6     0.06  -0.01   0.01     0.03   0.03   0.19     0.02  -0.01   0.06
     4   6     0.05  -0.02   0.04     0.02   0.03   0.26     0.01  -0.01   0.11
     5   6     0.03  -0.03   0.04     0.01   0.01   0.19     0.00  -0.02   0.10
     6   6     0.00  -0.02   0.02    -0.01  -0.03  -0.00    -0.01  -0.03   0.03
     7   6    -0.02  -0.02   0.02    -0.03  -0.06  -0.11    -0.03  -0.04  -0.01
     8   6    -0.02  -0.03   0.05    -0.03  -0.05  -0.13    -0.02  -0.03   0.01
     9   6    -0.00  -0.03   0.06    -0.03  -0.03  -0.08    -0.01  -0.03   0.04
    10   1     0.05   0.01  -0.04     0.03   0.02   0.01     0.02  -0.01  -0.03
    11   1     0.06  -0.03   0.05     0.02   0.04   0.36     0.02  -0.01   0.16
    12   1     0.03  -0.04   0.06     0.00   0.00   0.23    -0.00  -0.02   0.14
    13   1    -0.04  -0.01   0.01    -0.04  -0.08  -0.15    -0.04  -0.05  -0.03
    14   1     0.00  -0.04   0.08    -0.03  -0.03  -0.10    -0.00  -0.02   0.05
    15   7     0.03  -0.00  -0.01     0.01   0.00   0.02     0.00  -0.02   0.00
    16  77     0.01   0.01  -0.03     0.01   0.02  -0.01    -0.01  -0.00  -0.01
    17   8     0.03  -0.01  -0.01    -0.03   0.01  -0.00     0.02  -0.04   0.01
    18   8    -0.03   0.02   0.02     0.02   0.02   0.03     0.00  -0.01   0.01
    19   5     0.02   0.02  -0.02    -0.01  -0.00  -0.01    -0.00   0.03  -0.02
    20   5    -0.01   0.03  -0.02     0.01   0.01   0.01    -0.00  -0.01   0.00
    21   8    -0.02   0.04  -0.05     0.01   0.00   0.01    -0.00  -0.02   0.02
[...]
 -0.00000412,0.00008962,-0.00033190,0.00017653,-0.00001836,-0.00006015,
 -0.00054022,0.00010774,-0.00027331,0.00020734,-0.00036509,-0.00037283,
 -0.00041867,-0.00013365,-0.00016793,-0.00020074,0.00031891,-0.00020128
 ,0.00033673,-0.00002537,0.00021113,0.00017282,-0.00026278,-0.00004887,
 -0.00005984,-0.00001732,-0.00001856,0.00002162,-0.00000521,0.00003384,
 -0.00004948,-0.00005000,-0.00009847,0.00003385,0.00000271,0.00075563,0
 .00021891,0.00052150,-0.01793894,0.00258008,-0.00800409,0.00090794,0.0
 0081146,0.00369889,0.00072677,0.00296845,0.00032343,0.00149767,-0.0020
 1413,-0.00664326,-0.00133701,-0.00383312,-0.00097365,0.00176749,0.0058
 4294,-0.00050561,-0.00087040,-0.00043656,0.00029448,-0.00089603,-0.001
 97575,-0.00177904,0.00015406,-0.00008262,-0.00038889,0.00001692,-0.000
 14665,-0.00133768,-0.00110854,0.00076304,0.00270434,-0.00007219,0.0002
 9385,-0.00011821,0.00015541,-0.00008830,0.00014934,-0.00025807,-0.0002
 8348,0.00014087,0.00005257,0.00029239,0.00003181,-0.00008819,0.0000211
 7,0.00013385,0.00012691,-0.00011974,0.00010598,-0.00005080,0.00004431,
 0.00002390,0.00003940,0.00004309,-0.00005953,-0.00019060,0.00004248,0.
 00030213,-0.00009452,-0.00003617,0.00018263,0.00009685,0.00001643,-0.0
 0002857,-0.00006152,0.00002726,-0.00021358,-0.00000543,0.00001303,0.00
 025287,0.00003625,-0.00013381,-0.00000511,0.00004738,0.00004183,-0.000
 07446,-0.00009519,0.00006702,0.00012071,0.00004290,0.00027980,0.000236
 85,-0.00007541,-0.00006961,0.00012121,0.00011730,0.00013967,-0.0000275
 4,0.00007234,-0.00007570,-0.00006809,-0.00011457,0.00018962,0.00018277
 ,0.00004601,-0.00001510,0.00029080,-0.00032134,0.00027126,-0.00018928,
 0.00031753,-0.00072007,-0.00040671,0.00007100,0.00012775,-0.00015320,0
 .00003754,0.00013747,0.00002167,-0.00003158,0.00001240,0.00005028,-0.0
 0006830,-0.00000537,0.00007065,0.00022178,0.00007647,-0.00000005,-0.00
 006564,-0.00000674,0.00010195,-0.00001102,-0.00005145,0.00004800,0.000
 06550,0.00011548,-0.00006287,0.00060464,0.00100519,0.00129225,-0.00151
 506,0.00136666,0.00223306,0.00123038,-0.00185794,-0.00081832,0.0000266
 0,0.00062321,0.00034288,0.00003115,-0.00019150,-0.00006894,0.00010124,
 -0.00012882,-0.00012902,-0.00129447,-0.00006037,0.00143586,0.00004601,
 -0.00004026,-0.00020359,0.00014859,-0.00027469,-0.00037424,0.00110233,
 -0.00004353,0.00018814,-0.00011222,-0.00024273,0.00042603,-0.00005523,
 -0.00000091,0.00000960,0.00012088,-0.00001569,-0.00002157,-0.00006701,
 0.00000061,-0.00007590,0.00054367,0.00082593,0.00067329,0.00035663,-0.
 00009875,-0.00026073,0.00323517,-0.00253491,-0.00771811,0.00004798,0.0
 0024530,-0.00110073,0.00031260,-0.00030236,0.00010437,0.00041703,-0.00
 007286,0.00033050,0.00044972,-0.00039891,-0.00016940,-0.00016969,-0.00
 008843,0.00017612,-0.00016386,0.00027594,-0.00004547,-0.00002723,0.000
 28983,-0.00001197,0.00012868,-0.00015280,0.00008798,-0.00007719,-0.000
 02626,0.00006347,0.00009818,0.00003457,0.00005859,-0.00008415,0.000096
 96,0.00002342,-0.00003782,-0.00017416,-0.00007765,0.00030751,0.0001966
 8,-0.00169858,-0.00002809,-0.00011485,0.00027539,-0.00128444,0.0003888
 7,0.00028323,0.00456133,0.01786354,-0.02848295,-0.00263865,0.04066130,
 -0.15433737,-0.01032275,0.01451914,-0.05298212,0.00010569,0.00226811,0
 .00187370,-0.00004033,-0.00696881,-0.00677930,-0.00036303,0.00167491,0
 .00229429,-0.00765106,0.01123548,-0.01399401,0.00083601,-0.00120504,0.
 00037545,-0.00283722,0.00094007,0.00093841,0.00053843,-0.00052596,0.00
 122057,0.00386650,0.00418162,0.00216824,0.00111609,0.00075369,-0.00175
 916,-0.00024061,-0.00054975,0.00062504,-0.00056077,-0.00028112,-0.0000
 1845,0.00230871,0.00003820,-0.00003694,0.00002671,-0.00065078,0.000227
 16,0.00016846,0.00105773,0.00047218,-0.00050785,0.00049373,-0.00007431
 ,-0.06573867,-0.00861605,-0.06402485,0.08651934,-0.09061639,0.31714043
 ,0.00071523,-0.00053199,0.00022938,-0.00007718,0.00000736,-0.00113287,
 -0.00005852,0.00030328,-0.00032280,0.00014486,0.00018405,0.00010532,-0
 .00031454,-0.00001644,-0.00001382,0.00006603,-0.00012205,0.00008343,-0
 .00009552,-0.00013101,0.00004980,0.00003274,0.00004851,-0.00000927,0.0
 0014354,-0.00015925,0.00001957,-0.00148172,-0.00012465,-0.00063167,-0.
 00006907,-0.00002736,0.00001016,-0.00001094,-0.00003605,0.00002873,0.0
 0002682,0.00000678,-0.00001862,-0.00004471,0.00001890,0.00000745,-0.00
 163592,-0.00040014,-0.00114434,0.00810790,0.00566876,-0.00636161,0.000
 73587,0.00220702,0.00098525,0.00118199,0.00101534,0.00008513,-0.001261
 06,0.00021097,-0.00022282,-0.00371175,-0.00160111,-0.00095251,0.001852
 37,0.00024883,0.00077455,-0.00064828,-0.00032532,0.00009097,-0.0000004
 6,0.00005025,-0.00026894,0.00024812,-0.00056776,-0.00058235,-0.0000762
 4,-0.00096982,0.00021292,0.00057441,0.00030015,0.00011383,-0.00002892,
 0.00003126,-0.00002624,0.00006122,-0.00001928,0.00007832,-0.00020726,-
 0.00012819,-0.00010138,0.00008954,0.00023584,0.00002484,-0.00005607,0.
 00007429,0.00016462,-0.00001146,-0.00007561,0.00003503,-0.00005303,0.0
 0009675,0.00000138,0.00007997,0.00009765,0.00001639,0.00091378,-0.0002
 5323,0.00090970,-0.00056548,0.00039440,0.00016771,0.00001120,0.0000419
 6,-0.00008686,-0.00132719,0.00067308,-0.00075765,0.00009940,0.00022065
 ,-0.00021326,-0.00010754,0.00011056,-0.00007350,0.00006347,-0.00002743
 ,0.00000352,-0.00001825,0.00000562,0.00007172,-0.00003204,0.00004763,0
 .00001758,-0.00003183,0.00000802,0.00002050,0.00003122,-0.00001761,-0.
 00001254,0.00011203,0.00000408,0.00002904,-0.00032688,0.00020224,-0.00
 000469,0.00005370,-0.00010932,0.00010497,-0.00018151,0.00009346,-0.000
 06584,0.00041159,-0.00005056,0.00000844,0.00015113,0.00005220,0.000038
 17,0.00002366,0.00008514,-0.00000891,0.00002689,-0.00006216,0.00003265
 ,-0.00008714,-0.00001636,-0.00000243,0.00014231,0.00003063,-0.00000944
 ,-0.00005479,-0.00001568,-0.00001098,0.00003615,-0.00005959,0.00004853
 ,0.00003003,0.00006336,-0.00003597,-0.00134180,0.00035589,0.00042039,-
 0.00071196,0.00206454,-0.00296103,-0.00016807,-0.00085401,0.00218581,0
 .00003057,0.00010828,0.00008408,0.00013806,-0.00011524,-0.00004911,0.0
 0002627,0.00007031,0.00016214,-0.00130400,-0.00101780,0.00064357,0.000
 08053,-0.00001574,-0.00007198,0.00015408,-0.00018828,-0.00051842,0.001
 91725,-0.00118253,0.00117424,0.00017015,-0.00010523,0.00006551,-0.0000
 8698,-0.00004006,-0.00006965,0.00010048,-0.00000167,-0.00012399,0.0000
 0127,-0.00001016,0.00007889,0.00029601,-0.00041077,-0.00024506,-0.0002
 1291,-0.00005620,0.00028376,0.00040224,0.00041825,-0.00052971,-0.00005
 729,0.00032650,-0.00002239,0.00021014,-0.00022445,-0.00000787,-0.00018
 090,-0.00006165,0.00011990,0.00027877,-0.00003734,-0.00009457,-0.00012
 327,-0.00008370,0.00013252,-0.00006494,0.00023275,0.00003112,0.0000042
 8,0.00008460,0.00000105,0.00009781,-0.00005272,0.00005888,-0.00006970,
 0.00000406,0.00004790,-0.00001312,-0.00005391,-0.00002447,-0.00002266,
 0.00003876,0.00000402,-0.00004961,-0.00008267,-0.00008406,-0.00014041,
 -0.00021284,-0.00024156,-0.00027010,0.00026024,-0.00001422,-0.00011751
 ,0.00009010,0.00024005,-0.13827414,0.01761201,-0.03436499,-0.04177004,
 0.00121671,-0.00841687,-0.00092195,0.00009808,0.00057982,0.00002140,-0
 .00044675,-0.00039705,0.00011959,-0.00003449,-0.00041331,0.00018265,-0
 .00047243,-0.00030069,-0.00261832,-0.00645799,-0.00001523,-0.00230612,
 0.00075837,-0.00000022,0.00013972,0.00029748,-0.00032393,0.00017292,0.
 00012538,0.00006566,0.00606681,-0.00085576,-0.00136445,0.00131375,0.00
 064097,-0.00062439,0.00092132,-0.00045981,0.00225151,0.00052935,-0.000
 83744,-0.00048328,-0.01602545,0.01615488,-0.01422703,0.00044296,0.0037
 9261,0.00121253,0.00158689,0.00013500,0.00024541,0.00033865,-0.0022628
 4,-0.00109950,-0.09954037,-0.05012969,0.04092921,-0.04566834,-0.028898
 04,0.00433344,0.33272414,-0.00073970,-0.00041704,0.00053196,0.00238394
 ,-0.00096186,-0.00137797,-0.00141656,0.00002225,-0.00035624,0.00098319
 ,-0.00039820,0.00030684,0.00001066,0.00105771,-0.00019742,0.00010681,-
 0.00061710,0.00031896,0.00030118,0.00007617,0.00006619,-0.00009559,0.0
 0017725,-0.00003237,0.00013597,0.00001809,-0.00009057,-0.00149683,0.00
 002209,0.00103463,-0.00004049,0.00002325,0.00001863,0.00002551,-0.0000
 1483,-0.00008383,-0.00005065,0.00006194,-0.00003569,0.00003031,-0.0000
 0419,-0.00000752,-0.00017230,-0.00033884,-0.00060954,0.00295074,-0.008
 69315,0.01679013,0.00236816,-0.00264561,-0.00161180,-0.00047743,-0.001
 86245,0.00000905,-0.00197600,-0.00246220,0.00353206,0.00171937,0.00329
 023,-0.00054829,-0.00129290,-0.00151295,0.00012157,0.00054311,0.000527
 42,-0.00015865,0.00025118,0.00085445,0.00029577,-0.00152817,0.00076955
 ,0.00169704,-0.00032553,-0.00015121,0.00098698,0.00203961,0.00010280,-
 0.00185339,0.00021471,-0.00026108,-0.00001979,0.00001973,-0.00002339,-
 0.00018882,-0.00003433,0.00006596,0.00002212,-0.00004155,0.00003661,0.
 00002404,0.00039953,-0.00011744,-0.00037870,-0.00008295,0.00010187,-0.
 00003347,0.00011091,-0.00023202,-0.00003564,-0.00003215,0.00006592,0.0
 0003544,-0.00013659,0.00037499,-0.00037165,0.00012235,0.00002789,-0.00
 011674,0.00022726,-0.00002947,0.00003284,0.00053963,-0.00126363,0.0002
 3297,0.00006263,0.00018775,-0.00016815,-0.00006925,0.00006860,-0.00000
 872,0.00009632,-0.00000292,0.00005510,0.00006559,-0.00007180,-0.000075
 82,-0.00001590,-0.00009019,-0.00005162,0.00001656,0.00001648,0.0000165
 5,-0.00005484,-0.00007700,0.00000937,-0.00001072,0.00003468,-0.0000029
 5,0.00000049,-0.00008511,-0.00014041,-0.00003515,-0.00012352,-0.000036
 32,0.00001143,0.00009904,0.00009940,0.00003983,0.00003833,0.00006988,-
 0.00006232,-0.00007074,0.00003973,-0.00003739,-0.00008305,-0.00001430,
 0.00004448,-0.00000603,0.00000306,0.00001403,0.00003785,-0.00000080,-0
 .00010520,-0.00008051,0.00002092,0.00003049,0.00001541,-0.00005051,0.0
 0003061,0.00001718,-0.00000672,-0.00005623,-0.00007939,0.00005051,0.00
 060205,-0.00044100,-0.00085150,-0.00020684,-0.00344519,0.00288073,0.00
 164608,0.00265342,-0.00289846,0.00009024,-0.00013846,-0.00012164,-0.00
 014815,0.00008227,-0.00004396,0.00002103,0.00008289,0.00004804,0.00088
 000,0.00038762,-0.00170114,-0.00006950,0.00000093,0.00016946,-0.000226
 69,0.00042000,0.00073341,-0.00206576,0.00194659,-0.00123363,-0.0001745
 5,0.00002628,-0.00015025,0.00005857,0.00015417,-0.00001540,-0.00008594
 ,-0.00000019,0.00003236,0.00006744,0.00005073,-0.00000612,0.00008363,-
 0.00024343,-0.00015757,-0.00009251,0.00009710,0.00007860,0.00041797,0.
 00025297,-0.00005881,0.00003755,-0.00007334,0.00028840,-0.00004709,0.0
 0008246,-0.00007727,-0.00016629,0.00003087,-0.00003338,0.00003462,0.00
 004956,-0.00006326,0.00003117,0.00004135,-0.00004482,0.00000261,-0.000
 00987,0.00009062,-0.00000034,-0.00006071,0.00005965,-0.00001584,0.0000
 4198,-0.00004396,-0.00003092,0.00001557,-0.00000302,-0.00001661,-0.000
 01269,-0.00002276,0.00002856,-0.00003221,-0.00002972,0.00011434,0.0002
 8703,0.00005419,-0.00035750,0.00045800,0.00030528,0.00016688,0.0002608
 1,-0.00016749,0.00020634,-0.00016667,-0.00041221,0.02452531,-0.0866876
 3,0.02151629,-0.00487227,-0.00220971,0.00660354,0.00155449,0.00078654,
 -0.00108364,-0.00056710,-0.00029195,0.00014244,-0.00046400,-0.00026925
 ,-0.00082331,0.00012037,0.00075057,0.00027565,0.00007873,0.00004677,-0
 .00028558,0.00024058,0.00063430,0.00015957,-0.00075848,0.00018221,-0.0
 0075686,-0.00045447,-0.00029940,0.00049753,0.01047852,-0.00268264,0.01
 116219,0.00085821,0.00037409,-0.00207755,-0.00081755,0.00059026,0.0034
 0076,-0.00123202,0.00127901,0.00012981,0.03772691,-0.02194843,0.028919
 19,0.00381681,-0.00922211,-0.00252519,-0.00034664,0.00383473,0.0012355
 3,-0.00114656,0.00225238,0.00120707,-0.07280835,-0.12944814,0.08232526
 ,-0.04601200,-0.00285765,0.00982732,0.04378539,0.25697237,0.00072106,-
 0.00002492,-0.00032681,-0.00033201,-0.00100044,-0.00227524,0.00005617,
 0.00036666,-0.00000956,-0.00049490,0.00015158,0.00012127,-0.00037425,-
 0.00050654,0.00004489,-0.00004653,0.00025652,-0.00053445,-0.00032606,-
 0.00032053,-0.00008439,-0.00000216,-0.00013868,0.00014024,-0.00007697,
 0.00000036,0.00002050,-0.00173532,0.00031530,-0.00044272,-0.00013214,-
 0.00007336,-0.00003164,-0.00004344,-0.00002506,0.00001469,0.00007785,-
 0.00006898,-0.00000073,-0.00013217,0.00004172,-0.00000532,-0.00102795,
 -0.00041226,0.00009289,-0.00099363,0.02066007,-0.01931926,0.00043637,-
 0.00049294,0.00483705,0.00111994,0.00332396,0.00049695,0.00151027,0.00
 047332,-0.00978268,-0.00414781,-0.00548119,-0.00151470,0.00241891,0.00
 239610,0.00043008,-0.00098190,-0.00080613,0.00029016,-0.00032171,-0.00
 125997,-0.00072438,0.00037847,-0.00022019,-0.00032575,0.00031152,0.000
 33617,-0.00222305,-0.00188940,0.00040424,0.00398116,-0.00018891,0.0006
 1836,-0.00012942,0.00007220,-0.00009914,0.00017119,-0.00003866,-0.0001
 2829,0.00032083,0.00003328,-0.00002693,0.00003487,-0.00012386,-0.00002
 639,0.00007964,0.00016251,-0.00012989,0.00010359,-0.00004774,0.0000278
 5,0.00004479,0.00000528,-0.00005017,-0.00006552,-0.00092396,0.00026419
 ,0.00002908,0.00026983,-0.00027555,0.00016840,0.00028090,-0.00009319,-
 0.00005868,0.00029649,0.00000747,0.00011768,-0.00010916,-0.00029866,0.
 00055541,0.00016548,-0.00027291,0.00003334,-0.00002331,0.00007061,-0.0
 0012125,-0.00012599,0.00011835,0.00012632,0.00003938,0.00017086,0.0001
 4111,-0.00005851,-0.00003449,0.00004348,0.00009320,0.00010898,-0.00002
 221,0.00006034,-0.00004977,-0.00000717,0.00009752,0.00015763,0.0002069
 8,0.00002196,0.00011036,0.00012486,-0.00009557,0.00003091,-0.00014351,
 0.00008572,0.00004203,-0.00012132,0.00016537,0.00013808,-0.00012021,0.
 00002862,0.00015305,0.00004879,-0.00003983,-0.00000555,0.00000016,-0.0
 0001447,-0.00001597,0.00005574,0.00019782,0.00010001,-0.00002381,-0.00
 008131,-0.00000684,0.00009102,-0.00001542,-0.00006087,0.00003025,0.000
 08239,0.00012735,-0.00006848,-0.00122023,0.00104637,0.00134301,-0.0010
 1541,0.00207350,-0.00210125,0.00038304,-0.00152871,0.00123607,0.000083
 53,0.00034079,0.00011883,0.00014017,-0.00013084,0.00000668,0.00006424,
 -0.00000662,0.00000282,-0.00183248,-0.00047122,0.00231320,0.00007538,-
 0.00001063,-0.00022356,0.00026011,-0.00045818,-0.00069716,0.00272744,-
 0.00148616,0.00060006,0.00003233,-0.00029764,0.00040199,-0.00010130,-0
 .00003417,-0.00003830,0.00016407,-0.00000687,-0.00010097,-0.00006567,-
 0.00000196,-0.00002258,0.00010536,-0.00012978,-0.00001443,-0.00002004,
 -0.00007301,0.00007897,-0.00036510,0.00005447,-0.00005507,-0.00014385,
 0.00030151,-0.00028651,0.00016094,-0.00020875,0.00006655,0.00007842,-0
 .00006402,0.00010395,0.00015169,-0.00010689,0.00000957,-0.00009088,-0.
 00007330,0.00011208,-0.00006144,0.00012129,-0.00008852,-0.00000522,0.0
 0013742,-0.00005613,0.00007247,-0.00009058,0.00006948,-0.00000932,-0.0
 0001974,0.00003534,0.00003826,0.00001248,0.00002724,-0.00007539,0.0000
 9680,0.00000488,-0.00004987,-0.00029473,-0.00020779,0.00021129,-0.0006
 4729,-0.00088810,-0.00049588,0.00013875,0.00045342,-0.00059300,0.00025
 067,0.00066725,-0.04552186,0.01941541,-0.10274965,-0.01911618,0.010812
 73,-0.01960761,0.00005816,-0.00132970,0.00213201,-0.00026819,0.0003368
 5,-0.00065125,0.00006829,0.00062926,0.00108149,-0.00065753,-0.00090512
 ,-0.00023333,-0.00104681,-0.00421224,0.00134988,-0.00177308,0.00022828
 ,0.00002506,0.00107752,-0.00024954,0.00036280,-0.00010712,0.00044205,-
 0.00001899,-0.03696235,0.01892638,-0.03478870,-0.00027135,-0.00034931,
 0.00321058,0.00323910,0.00214958,-0.00918172,-0.00091748,-0.00045903,0
 .00359668,-0.00571457,0.00570331,0.00050916,-0.00072441,0.00116368,0.0
 0180367,0.00093544,-0.00088370,-0.00028306,0.00000919,0.00083015,0.001
 07668,0.06687992,0.08945827,-0.12804971,0.02772651,0.01550514,0.011606
 65,0.02023930,-0.17421175,0.29142321\\-0.00000657,-0.00000034,0.000003
 68,-0.00001405,0.00000034,0.00000207,0.00000450,0.00000800,0.00000386,
 -0.00000189,0.00000220,0.00000250,0.00000087,0.00000301,0.00000523,-0.
 00000834,0.00000320,0.00000386,-0.00001041,-0.00000988,0.00000216,0.00
 000348,0.00000412,-0.00000063,-0.00000704,-0.00000094,0.00000095,0.000
 00901,-0.00000254,0.00000307,-0.00000096,-0.00000008,0.00000290,-0.000
 00192,0.00000101,0.00000148,0.00001169,0.00000785,-0.00000131,0.000002
 76,-0.00000132,0.00000218,-0.00000043,-0.00000741,0.00000344,-0.000004
 82,0.00000254,-0.00000165,0.00000448,0.00000144,-0.00000226,0.00000272
 ,-0.00000133,-0.00000058,-0.00000167,0.00000144,0.00000238,0.00000103,
 -0.00000281,0.00000019,-0.00000004,-0.00000316,-0.00000228,-0.00000292
 ,0.00000021,-0.00000355,0.00000080,0.00000087,-0.00000192,0.00000369,0
 .00000520,0.00000051,-0.00000073,0.00000274,-0.00000320,0.00000336,0.0
 0000279,-0.00000043,0.00000352,0.00000333,-0.00000373,0.00000031,0.000
 00153,0.00000032,-0.00000028,0.00000243,0.00000098,-0.00000043,0.00000
 143,-0.00000107,-0.00000232,-0.00000142,-0.00000020,0.00000212,-0.0000
 0048,-0.00000188,-0.00000090,0.00000249,0.00000034,0.00000234,0.000001
 23,-0.00000026,-0.00000056,0.00000067,0.00000639,0.00000116,0.00000132
 ,-0.00000238,0.00000074,0.00000206,0.00000175,0.00000120,0.00000008,0.
 00000199,0.00000870,-0.00000924,-0.00000025,0.00000185,0.00001901,-0.0
 0000051,-0.00000597,-0.00000816,-0.00000201,-0.00000232,0.00000840,0.0
 0001015,0.00000243,-0.00000051,-0.00000586,-0.00000002,-0.00000144,-0.
 00000116,0.00000006,-0.00000051,-0.00000115,-0.00000086,-0.00000120,-0
 .00000178,0.00000286,0.00000233,-0.00000069,0.00000079,-0.00000073,-0.
 00000234,-0.00000187,-0.00000080,-0.00000048,0.00000165,0.00000050,-0.
 00000151,-0.00000516,0.00000301,-0.00000608,0.00000111,0.00000017,-0.0
 0000159,0.00000605,-0.00000319,0.00000141,0.00000059,0.00000005,-0.000
 00067,0.00000189,-0.00000909,-0.00000297,-0.00000030,-0.00000097,-0.00
 000058,-0.00000388,0.00000107,-0.00000213,0.00000300,0.00000335,-0.000
 00199,-0.00000068,-0.00000012,-0.00000144,-0.00000908,-0.00000424,0.00
 000178,0.00000247,0.00000161,-0.00000270,0.00000548,-0.00000728,-0.000
 00352,-0.00000106,0.00000127,0.00000052,-0.00000428,-0.00000016,0.0000
 0417,0.00000035,-0.00000561,0.00000252,0.00000030,-0.00000175,0.000001
 38,-0.00000050,0.00000142,-0.00000129,-0.00000232,0.00000004,-0.000001
 13,-0.00000608,-0.00000062,0.00000663,0.00000079,-0.00000511,-0.000003
 22,0.00000327,-0.00000184,-0.00000098,-0.00000167,-0.00000190,-0.00000
 212,-0.00000284,-0.00000348,-0.00000343,-0.00000069,-0.00000064,-0.000
 00052,0.00000016,-0.00000253,-0.00000205,0.00000236,0.00000212,0.00000
 145,0.00000101,-0.00000109,-0.00000132,-0.00000258,-0.00000127,0.00000
 094,-0.00000849,-0.00000542,-0.00000400,0.00000116,0.00000103,-0.00000
 238,0.00000523,-0.00000190,-0.00000421,0.00000416,0.00000334,-0.000000
 40,0.00000022,-0.00000267,0.00000024,-0.00000039,-0.00000046,-0.000001
 08,0.00000111,-0.00000267,-0.00000346,0.00000283,-0.00000665,0.0000015
 1,0.00000085,-0.00000241,0.00000179,0.00000436,0.00000180,-0.00000448,
 0.00000235,-0.00000363,0.00000213,-0.00000555,0.00000236,0.00000332,0.
 00000094,-0.00000134,0.00000162,0.00000707,-0.00000204,0.00000102,0.00
 000342,0.00000286,0.00000333,0.00000081,0.00000228,-0.00000068,-0.0000
 0006,0.00000136,-0.00000228,-0.00000232,-0.00000189,-0.00000087,-0.000
 00384,0.00000020,0.00000565,0.00000064,0.00000106,0.00000013,0.0000000
 6,0.00000172,-0.00000292,-0.00000130,-0.00000018,0.00000020,-0.0000033
 6,0.00000335,0.00000179,0.00000160,0.00000196,0.00000070,0.00000184,0.
 00000042,0.00000086,0.00000129,0.00000022,-0.00000030,0.00000402,0.000
 00558,-0.00000140,-0.00000079,0.00000003,0.00000214,-0.00000170,-0.000
 00028,0.00000132,-0.00000296,0.00000054,0.00000401,0.00000344,0.000000
 07,-0.00000024,-0.00000329,-0.00000229,-0.00000272,-0.00000186,0.00000
 092,0.00000123\\\@
 The archive entry for this job was punched.


 Any fool can criticize, condemn, and complain -- and most do.
 -- Dale Carnegie
 Job cpu time:       2 days  0 hours 54 minutes 13.7 seconds.
 Elapsed time:       0 days  3 hours  6 minutes 36.3 seconds.
 File lengths (MBytes):  RWF=   8594 Int=      0 D2E=      0 Chk=     49 Scr=      1
 Normal termination of Gaussian 16 at Sun Dec  8 01:07:02 2024.
