/mnt/lustre/scratch/nvme/SLURM/9663716/usccqdma.qQcLZgNyXF
OMP_STACKSIZE=0m
GAUSS_PDEF=16
GAUSS_MDEF=65536MB
GAUSS_RDEF=SCF=Direct
 Entering Gaussian System, Link 0=g16.exe
 Initial command:
 /opt/cesga/2020/software/Core/g16/c1/l1.exe "/mnt/lustre/scratch/nvme/SLURM/9663716/usccqdma.qQcLZgNyXF/Gau-444362.inp" -scrdir="/mnt/lustre/scratch/nvme/SLURM/9663716/usccqdma.qQcLZgNyXF/"
 Default is to use a total of  16 processors:
                               16 via shared-memory
                                1 via Linda
 Entering Link 1 = /opt/cesga/2020/software/Core/g16/c1/l1.exe PID=    444388.
  
 Copyright (c) 1988-2019, Gaussian, Inc.  All Rights Reserved.
  
 This is part of the Gaussian(R) 16 program.  It is based on
 the Gaussian(R) 09 system (copyright 2009, Gaussian, Inc.),
 the Gaussian(R) 03 system (copyright 2003, Gaussian, Inc.),
 the Gaussian(R) 98 system (copyright 1998, Gaussian, Inc.),
 the Gaussian(R) 94 system (copyright 1995, Gaussian, Inc.),
 the Gaussian 92(TM) system (copyright 1992, Gaussian, Inc.),
 the Gaussian 90(TM) system (copyright 1990, Gaussian, Inc.),
 the Gaussian 88(TM) system (copyright 1988, Gaussian, Inc.),
 the Gaussian 86(TM) system (copyright 1986, Carnegie Mellon
 University), and the Gaussian 82(TM) system (copyright 1983,
 Carnegie Mellon University). Gaussian is a federally registered
 trademark of Gaussian, Inc.
  
 This software contains proprietary and confidential information,
 including trade secrets, belonging to Gaussian, Inc.
  
 This software is provided under written license and may be
 used, copied, transmitted, or stored only in accord with that
 written license.
  
 The following legend is applicable only to US Government
 contracts under FAR:
  
                    RESTRICTED RIGHTS LEGEND
  
 Use, reproduction and disclosure by the US Government is
 subject to restrictions as set forth in subparagraphs (a)
 and (c) of the Commercial Computer Software - Restricted
 Rights clause in FAR 52.227-19.
  
 Gaussian, Inc.
 340 Quinnipiac St., Bldg. 40, Wallingford CT 06492
  
  
 ---------------------------------------------------------------
 Warning -- This program may not be used in any manner that
 competes with the business of Gaussian, Inc. or will provide
 assistance to any competitor of Gaussian, Inc.  The licensee
 of this program is prohibited from giving any competitor of
 Gaussian, Inc. access to this program.  By using this program,
 the user acknowledges that Gaussian, Inc. is engaged in the
 business of creating and licensing software in the field of
 computational chemistry and represents and warrants to the
 licensee that it is not a competitor of Gaussian, Inc. and that
 it will not use this program in any manner prohibited above.
 ---------------------------------------------------------------
  

 Cite this work as:
 Gaussian 16, Revision C.01,
 M. J. Frisch, G. W. Trucks, H. B. Schlegel, G. E. Scuseria, 
 M. A. Robb, J. R. Cheeseman, G. Scalmani, V. Barone, 
 G. A. Petersson, H. Nakatsuji, X. Li, M. Caricato, A. V. Marenich, 
 J. Bloino, B. G. Janesko, R. Gomperts, B. Mennucci, H. P. Hratchian, 
 J. V. Ortiz, A. F. Izmaylov, J. L. Sonnenberg, D. Williams-Young, 
 F. Ding, F. Lipparini, F. Egidi, J. Goings, B. Peng, A. Petrone, 
 T. Henderson, D. Ranasinghe, V. G. Zakrzewski, J. Gao, N. Rega, 
 G. Zheng, W. Liang, M. Hada, M. Ehara, K. Toyota, R. Fukuda, 
 J. Hasegawa, M. Ishida, T. Nakajima, Y. Honda, O. Kitao, H. Nakai, 
 T. Vreven, K. Throssell, J. A. Montgomery, Jr., J. E. Peralta, 
 F. Ogliaro, M. J. Bearpark, J. J. Heyd, E. N. Brothers, K. N. Kudin, 
 V. N. Staroverov, T. A. Keith, R. Kobayashi, J. Normand, 
 K. Raghavachari, A. P. Rendell, J. C. Burant, S. S. Iyengar, 
 J. Tomasi, M. Cossi, J. M. Millam, M. Klene, C. Adamo, R. Cammi, 
 J. W. Ochterski, R. L. Martin, K. Morokuma, O. Farkas, 
 J. B. Foresman, and D. J. Fox, Gaussian, Inc., Wallingford CT, 2019.
 
 ******************************************
 Gaussian 16:  ES64L-G16RevC.01  3-Jul-2019
                 7-Dec-2024 
 ******************************************
 Default route: SCF=Direct
 ----------------------------------------------------
 # m06/genecp scf=tight int=ultrafine 5d freq=noraman
 ----------------------------------------------------
 1/10=4,30=1,38=1/1,3;
 2/12=2,17=6,18=5,40=1/2;
 3/5=7,8=1,11=2,16=1,17=8,25=1,30=1,71=2,74=-54,75=-5,140=1/1,2,3;
 4//1;
 5/5=2,32=2,38=5,98=1/2;
 8/6=4,10=90,11=11/1;
 11/6=1,8=1,9=11,15=111,16=1/1,2,10;
 10/6=1/2;
 6/7=2,8=2,9=2,10=2,28=1/1;
 7/8=1,10=1,25=1/1,2,3,16;
 1/10=4,30=1/3;
 99//99;
 ------
 OPT-TS
 ------
 Symbolic Z-matrix:
 Charge =  0 Multiplicity = 1
 C                     2.31709   1.5947   -0.91935 
 C                     1.11723   1.64323  -2.90185 
 C                     2.09224   2.39939  -3.53648 
 C                     3.22029   2.7615   -2.81144 
 C                     3.33417   2.35862  -1.48954 
 C                     2.35588   1.11694   0.47865 
 C                     1.29402  -0.07125   2.15719 
 C                     2.34184   0.14394   3.04383 
 C                     3.43357   0.88749   2.61679 
 C                     3.43695   1.382     1.32131 
 H                     0.2027    1.34037  -3.40777 
 H                     4.00922   3.35371  -3.27072 
 H                     4.21476   2.63364  -0.91576 
 H                     0.39604  -0.61078   2.44886 
 H                     4.27356   1.08396   3.28065 
 H                     4.28468   1.96274   0.96813 
 N                     1.23109   1.25169  -1.63123 
 N                     1.29641   0.39792   0.90431 
 Ir                   -0.39713   0.06524  -0.59901 
 O                    -1.50998   2.79017  -1.36024 
 O                    -1.6158   -0.27118   2.13386 
 O                    -1.65331  -2.78869   0.01797 
 B                    -1.88904  -0.14928   0.77262 
 B                    -1.13333   1.98314  -0.29893 
 B                    -1.23422  -1.84895  -0.94771 
 O                    -1.86326  -2.14367  -2.16859 
 O                    -1.07797   2.72176   0.87791 
 C                    -1.10045   4.11098   0.51033 
 C                    -1.85287   4.08617  -0.85086 
 C                    -2.37618  -3.83286  -0.65162 
 C                    -2.87473  -3.12249  -1.94444 
 C                    -2.83914  -0.4949    2.84402 
 C                    -3.90867   0.05312   1.84863 
 O                    -3.26341  -0.07694   0.57481 
 C                    -3.36643   4.12821  -0.70529 
 H                    -3.81902   3.90413  -1.67907 
 H                    -3.71346   3.3679    0.00543 
 H                    -3.72185   5.11413  -0.37583 
 C                    -1.40045   5.13731  -1.84618 
 H                    -0.34523   5.01019  -2.11513 
 H                    -1.99309   5.05324  -2.76606 
 H                    -1.54331   6.15038  -1.44285 
 C                    -1.77435   4.91088   1.60592 
 H                    -1.85836   5.96972   1.32115 
 H                    -2.77774   4.53111   1.82882 
 H                    -1.17886   4.8533    2.5263 
 C                     0.35562   4.54386   0.37206 
 H                     0.85379   4.00146  -0.44543 
 H                     0.45218   5.62152   0.18302 
 H                     0.88253   4.30538   1.30541 
 C                    -2.94313  -1.99231   3.09137 
 H                    -2.06887  -2.3135    3.67347 
 H                    -3.84708  -2.25809   3.65618 
 H                    -2.92643  -2.54009   2.14356 
 C                    -2.77348   0.2393    4.17026 
 H                    -2.52877   1.29845   4.03495 
 H                    -3.72811   0.16074   4.7106 
 H                    -1.99427  -0.20919   4.80069 
 C                    -5.21125  -0.72243   1.82294 
 H                    -5.71406  -0.67902   2.80008 
 H                    -5.88389  -0.28558   1.07336 
 H                    -5.05447  -1.77506   1.55957 
 C                    -4.20145   1.53429   2.04903 
 H                    -3.27048   2.11744   2.03747 
 H                    -4.83373   1.87842   1.21977 
 H                    -4.73629   1.72724   2.98877 
 C                    -2.96691  -4.02447  -3.16147 
 H                    -3.6848   -4.84084  -2.99444 
 H                    -3.31417  -3.44041  -4.0231 
 H                    -1.99499  -4.45874  -3.42224 
 C                    -4.19302  -2.38128  -1.75321 
 H                    -4.14147  -1.69918  -0.89445 
 H                    -4.37541  -1.77038  -2.64649 
 H                    -5.04158  -3.06862  -1.62808 
 C                    -3.4834   -4.34424   0.24958 
 H                    -4.08932  -5.09745  -0.27448 
 H                    -3.05485  -4.81745   1.14349 
 H                    -4.14781  -3.53613   0.57534 
 C                    -1.40192  -4.97539  -0.92121 
 H                    -0.59682  -4.68362  -1.60775 
 H                    -0.94193  -5.27777   0.02929 
 H                    -1.91023  -5.84995  -1.34879 
 H                    -1.4844    0.16209  -1.74996 
 C                     3.00525  -1.75636  -0.64071 
 O                     3.26568  -1.04821  -1.61294 
 C                     4.08671  -2.09091   0.3754 
 H                     3.7644   -1.75168   1.37548 
 H                     4.20278  -3.18389   0.46193 
 C                     0.68034  -1.90062  -1.33245 
 H                     1.13102  -1.37066  -2.17728 
 H                     0.32753  -2.84052  -1.78009 
 N                     1.75177  -2.23212  -0.39827 
 C                     1.42702  -3.1388    0.68248 
 H                     1.53855  -4.19337   0.37728 
 H                     2.06199  -2.96664   1.55777 
 H                     0.38176  -2.98327   0.97397 
 C                     5.41562  -1.44216   0.03327 
 H                     5.78372  -1.83318  -0.92721 
 H                     5.25449  -0.36539  -0.1389 
 C                     6.45575  -1.64412   1.12221 
 H                     6.07405  -1.23255   2.07499 
 H                     6.60413  -2.723     1.30542 
 C                     7.7951   -0.99998   0.79796 
 H                     8.17361  -1.41197  -0.15129 
 H                     7.64274   0.07678   0.61571 
 C                     8.8249   -1.19933   1.89715 
 H                     9.01218  -2.26801   2.07212 
 H                     9.78559  -0.72948   1.65241 
 H                     8.47661  -0.77022   2.84742 
 H                     2.288    -0.26136   4.05121 
 H                     1.96332   2.69394  -4.57458 
 

 GradGradGradGradGradGradGradGradGradGradGradGradGradGradGradGradGradGrad
 Berny optimization.
 Initialization pass.
 Trust Radius=3.00D-01 FncErr=1.00D-07 GrdErr=1.00D-07 EigMax=2.50D+02 EigMin=1.00D-04
 Number of steps in this run=      2 maximum allowed number of steps=      2.
 GradGradGradGradGradGradGradGradGradGradGradGradGradGradGradGradGradGrad

 Stoichiometry    C36H61B3IrN3O7
 Framework group  C1[X(C36H61B3IrN3O7)]
 Deg. of freedom   327
 Full point group                 C1      NOp   1
 Largest Abelian subgroup         C1      NOp   1
 Largest concise Abelian subgroup C1      NOp   1
                         Standard orientation:                         
 ---------------------------------------------------------------------
 Center     Atomic      Atomic             Coordinates (Angstroms)
 Number     Number       Type             X           Y           Z
 ---------------------------------------------------------------------
      1          6           0        2.317090    1.594702   -0.919350
      2          6           0        1.117230    1.643231   -2.901850
      3          6           0        2.092240    2.399392   -3.536480
      4          6           0        3.220290    2.761502   -2.811440
      5          6           0        3.334170    2.358622   -1.489540
      6          6           0        2.355880    1.116942    0.478650
      7          6           0        1.294020   -0.071249    2.157190
      8          6           0        2.341840    0.143942    3.043830
      9          6           0        3.433570    0.887492    2.616790
     10          6           0        3.436950    1.382002    1.321310
     11          1           0        0.202700    1.340371   -3.407770
     12          1           0        4.009220    3.353712   -3.270720
     13          1           0        4.214760    2.633642   -0.915760
     14          1           0        0.396040   -0.610779    2.448860
     15          1           0        4.273560    1.083962    3.280650
     16          1           0        4.284680    1.962742    0.968130
     17          7           0        1.231090    1.251691   -1.631230
     18          7           0        1.296410    0.397921    0.904310
     19         77           0       -0.397130    0.065241   -0.599010
     20          8           0       -1.509980    2.790171   -1.360240
     21          8           0       -1.615800   -0.271179    2.133860
     22          8           0       -1.653309   -2.788689    0.017970
     23          5           0       -1.889040   -0.149279    0.772620
     24          5           0       -1.133330    1.983141   -0.298930
     25          5           0       -1.234219   -1.848949   -0.947710
     26          8           0       -1.863259   -2.143669   -2.168590
     27          8           0       -1.077970    2.721761    0.877910
     28          6           0       -1.100451    4.110981    0.510330
     29          6           0       -1.852871    4.086171   -0.850860
     30          6           0       -2.376179   -3.832859   -0.651620
     31          6           0       -2.874729   -3.122489   -1.944440
     32          6           0       -2.839140   -0.494899    2.844020
     33          6           0       -3.908670    0.053120    1.848630
     34          8           0       -3.263410   -0.076940    0.574810
     35          6           0       -3.366431    4.128210   -0.705290
     36          1           0       -3.819021    3.904130   -1.679070
     37          1           0       -3.713460    3.367900    0.005430
     38          1           0       -3.721851    5.114130   -0.375830
     39          6           0       -1.400451    5.137311   -1.846180
     40          1           0       -0.345231    5.010191   -2.115130
     41          1           0       -1.993091    5.053241   -2.766060
     42          1           0       -1.543311    6.150381   -1.442850
     43          6           0       -1.774351    4.910881    1.605920
     44          1           0       -1.858361    5.969721    1.321150
     45          1           0       -2.777741    4.531111    1.828820
     46          1           0       -1.178861    4.853301    2.526300
     47          6           0        0.355619    4.543861    0.372060
     48          1           0        0.853789    4.001461   -0.445430
     49          1           0        0.452179    5.621521    0.183020
     50          1           0        0.882529    4.305381    1.305410
     51          6           0       -2.943129   -1.992310    3.091370
     52          1           0       -2.068869   -2.313499    3.673470
     53          1           0       -3.847079   -2.258090    3.656180
     54          1           0       -2.926429   -2.540089    2.143560
     55          6           0       -2.773480    0.239301    4.170260
     56          1           0       -2.528770    1.298451    4.034950
     57          1           0       -3.728110    0.160740    4.710600
     58          1           0       -1.994270   -0.209189    4.800690
     59          6           0       -5.211250   -0.722430    1.822940
     60          1           0       -5.714060   -0.679020    2.800080
     61          1           0       -5.883890   -0.285580    1.073360
     62          1           0       -5.054469   -1.775060    1.559570
     63          6           0       -4.201450    1.534290    2.049030
     64          1           0       -3.270480    2.117440    2.037470
     65          1           0       -4.833730    1.878420    1.219770
     66          1           0       -4.736290    1.727240    2.988770
     67          6           0       -2.966909   -4.024470   -3.161470
     68          1           0       -3.684799   -4.840840   -2.994440
     69          1           0       -3.314169   -3.440410   -4.023100
     70          1           0       -1.994989   -4.458739   -3.422240
     71          6           0       -4.193019   -2.381280   -1.753210
     72          1           0       -4.141469   -1.699180   -0.894450
     73          1           0       -4.375409   -1.770380   -2.646490
     74          1           0       -5.041579   -3.068620   -1.628080
     75          6           0       -3.483399   -4.344240    0.249580
     76          1           0       -4.089319   -5.097450   -0.274480
     77          1           0       -3.054849   -4.817450    1.143490
     78          1           0       -4.147809   -3.536130    0.575340
     79          6           0       -1.401919   -4.975389   -0.921210
     80          1           0       -0.596819   -4.683619   -1.607750
     81          1           0       -0.941929   -5.277769    0.029290
     82          1           0       -1.910228   -5.849949   -1.348790
     83          1           0       -1.484400    0.162091   -1.749960
     84          6           0        3.005251   -1.756358   -0.640710
     85          8           0        3.265681   -1.048208   -1.612940
     86          6           0        4.086711   -2.090908    0.375400
     87          1           0        3.764401   -1.751678    1.375480
     88          1           0        4.202781   -3.183888    0.461930
     89          6           0        0.680341   -1.900619   -1.332450
     90          1           0        1.131021   -1.370659   -2.177280
     91          1           0        0.327531   -2.840519   -1.780090
     92          7           0        1.751771   -2.232119   -0.398270
     93          6           0        1.427021   -3.138799    0.682480
     94          1           0        1.538551   -4.193369    0.377280
     95          1           0        2.061991   -2.966638    1.557770
     96          1           0        0.381761   -2.983269    0.973970
     97          6           0        5.415621   -1.442158    0.033270
     98          1           0        5.783721   -1.833178   -0.927210
     99          1           0        5.254490   -0.365388   -0.138900
    100          6           0        6.455751   -1.644118    1.122210
    101          1           0        6.074051   -1.232548    2.074990
    102          1           0        6.604131   -2.722997    1.305420
    103          6           0        7.795101   -0.999977    0.797960
    104          1           0        8.173611   -1.411967   -0.151290
    105          1           0        7.642740    0.076783    0.615710
    106          6           0        8.824901   -1.199327    1.897150
    107          1           0        9.012181   -2.268007    2.072120
    108          1           0        9.785590   -0.729477    1.652410
    109          1           0        8.476610   -0.770217    2.847420
    110          1           0        2.288000   -0.261358    4.051210
    111          1           0        1.963320    2.693942   -4.574580
 ---------------------------------------------------------------------
 Rotational constants (GHZ):           0.0732209           0.0521772           0.0422344
 General basis read from cards:  (5D, 7F)
 ======================================================================================================
                                       Pseudopotential Parameters
 ======================================================================================================
  Center     Atomic      Valence      Angular      Power
  Number     Number     Electrons     Momentum     of R      Exponent        Coefficient   SO-Coeffient
 ======================================================================================================
    1          6
                                   No pseudopotential on this center.
    2          6
                                   No pseudopotential on this center.
    3          6
                                   No pseudopotential on this center.
    4          6
                                   No pseudopotential on this center.
    5          6
                                   No pseudopotential on this center.
    6          6
                                   No pseudopotential on this center.
    7          6
                                   No pseudopotential on this center.
    8          6
                                   No pseudopotential on this center.
    9          6
                                   No pseudopotential on this center.
   10          6
                                   No pseudopotential on this center.
   11          1
                                   No pseudopotential on this center.
   12          1
                                   No pseudopotential on this center.
   13          1
                                   No pseudopotential on this center.
   14          1
                                   No pseudopotential on this center.
   15          1
                                   No pseudopotential on this center.
   16          1
                                   No pseudopotential on this center.
   17          7
                                   No pseudopotential on this center.
   18          7
                                   No pseudopotential on this center.
   19         77           17
                                      G and up 
                                                     1      823.5880147       -0.15780140    0.00000000
                                                     2      364.6613336    -1517.52704460    0.00000000
                                                     2       55.7082801     -316.53065290    0.00000000
                                                     2       12.0464544      -91.88809410    0.00000000
                                                     2        3.5120610       -9.22417730    0.00000000
                                      S - G
                                                     0      188.0490770        3.15780140    0.00000000
                                                     1      340.4194712       26.83225770    0.00000000
                                                     2      128.2373673      800.42500070    0.00000000
                                                     2       33.8644961      369.40506830    0.00000000
                                                     2        4.7560005      242.41718990    0.00000000
                                                     2        3.9649974     -118.21732820    0.00000000
                                      P - G
                                                     0      289.7291139        2.15780140    0.00000000
                                                     1       87.4633789       61.96786100    0.00000000
                                                     2       30.4363766      269.05819860    0.00000000
                                                     2        4.0553412      231.16547930    0.00000000
                                                     2        3.5525341     -133.69526670    0.00000000
                                      D - G
                                                     0      136.4017106        3.15780140    0.00000000
                                                     1       95.0776925       45.93498030    0.00000000
                                                     2       49.2258410      359.03446680    0.00000000
                                                     2       15.0874145      176.47401190    0.00000000
                                                     2        4.0405764       54.51552860    0.00000000
                                      F - G
                                                     0      127.3507908        3.95461970    0.00000000
                                                     1       66.2364374       52.97736550    0.00000000
                                                     2       34.4299229      274.86433830    0.00000000
                                                     2       10.1995721      137.20473380    0.00000000
                                                     2        2.5409702       14.86333050    0.00000000
   20          8
                                   No pseudopotential on this center.
   21          8
                                   No pseudopotential on this center.
   22          8
                                   No pseudopotential on this center.
   23          5
                                   No pseudopotential on this center.
   24          5
                                   No pseudopotential on this center.
   25          5
                                   No pseudopotential on this center.
   26          8
                                   No pseudopotential on this center.
   27          8
                                   No pseudopotential on this center.
   28          6
                                   No pseudopotential on this center.
   29          6
                                   No pseudopotential on this center.
   30          6
                                   No pseudopotential on this center.
   31          6
                                   No pseudopotential on this center.
   32          6
                                   No pseudopotential on this center.
   33          6
                                   No pseudopotential on this center.
   34          8
                                   No pseudopotential on this center.
   35          6
                                   No pseudopotential on this center.
   36          1
                                   No pseudopotential on this center.
   37          1
                                   No pseudopotential on this center.
   38          1
                                   No pseudopotential on this center.
   39          6
                                   No pseudopotential on this center.
   40          1
                                   No pseudopotential on this center.
   41          1
                                   No pseudopotential on this center.
   42          1
                                   No pseudopotential on this center.
   43          6
                                   No pseudopotential on this center.
   44          1
                                   No pseudopotential on this center.
   45          1
                                   No pseudopotential on this center.
   46          1
                                   No pseudopotential on this center.
   47          6
                                   No pseudopotential on this center.
   48          1
                                   No pseudopotential on this center.
   49          1
                                   No pseudopotential on this center.
   50          1
                                   No pseudopotential on this center.
   51          6
                                   No pseudopotential on this center.
   52          1
                                   No pseudopotential on this center.
   53          1
                                   No pseudopotential on this center.
   54          1
                                   No pseudopotential on this center.
   55          6
                                   No pseudopotential on this center.
   56          1
                                   No pseudopotential on this center.
   57          1
                                   No pseudopotential on this center.
   58          1
                                   No pseudopotential on this center.
   59          6
                                   No pseudopotential on this center.
   60          1
                                   No pseudopotential on this center.
   61          1
                                   No pseudopotential on this center.
   62          1
                                   No pseudopotential on this center.
   63          6
                                   No pseudopotential on this center.
   64          1
                                   No pseudopotential on this center.
   65          1
                                   No pseudopotential on this center.
   66          1
                                   No pseudopotential on this center.
   67          6
                                   No pseudopotential on this center.
   68          1
                                   No pseudopotential on this center.
   69          1
                                   No pseudopotential on this center.
   70          1
                                   No pseudopotential on this center.
   71          6
                                   No pseudopotential on this center.
   72          1
                                   No pseudopotential on this center.
   73          1
                                   No pseudopotential on this center.
   74          1
                                   No pseudopotential on this center.
   75          6
                                   No pseudopotential on this center.
   76          1
                                   No pseudopotential on this center.
   77          1
                                   No pseudopotential on this center.
   78          1
                                   No pseudopotential on this center.
   79          6
                                   No pseudopotential on this center.
   80          1
                                   No pseudopotential on this center.
   81          1
                                   No pseudopotential on this center.
   82          1
                                   No pseudopotential on this center.
   83          1
                                   No pseudopotential on this center.
   84          6
                                   No pseudopotential on this center.
   85          8
                                   No pseudopotential on this center.
   86          6
                                   No pseudopotential on this center.
   87          1
                                   No pseudopotential on this center.
   88          1
                                   No pseudopotential on this center.
   89          6
                                   No pseudopotential on this center.
   90          1
                                   No pseudopotential on this center.
   91          1
                                   No pseudopotential on this center.
   92          7
                                   No pseudopotential on this center.
   93          6
                                   No pseudopotential on this center.
   94          1
                                   No pseudopotential on this center.
   95          1
                                   No pseudopotential on this center.
   96          1
                                   No pseudopotential on this center.
   97          6
                                   No pseudopotential on this center.
   98          1
                                   No pseudopotential on this center.
   99          1
                                   No pseudopotential on this center.
  100          6
                                   No pseudopotential on this center.
  101          1
                                   No pseudopotential on this center.
  102          1
                                   No pseudopotential on this center.
  103          6
                                   No pseudopotential on this center.
  104          1
                                   No pseudopotential on this center.
  105          1
                                   No pseudopotential on this center.
  106          6
                                   No pseudopotential on this center.
  107          1
                                   No pseudopotential on this center.
  108          1
                                   No pseudopotential on this center.
  109          1
                                   No pseudopotential on this center.
  110          1
                                   No pseudopotential on this center.
  111          1
                                   No pseudopotential on this center.
 ======================================================================================================
 There are   881 symmetry adapted cartesian basis functions of A   symmetry.
 There are   830 symmetry adapted basis functions of A   symmetry.
   830 basis functions,  1659 primitive gaussians,   881 cartesian basis functions
   193 alpha electrons      193 beta electrons
       nuclear repulsion energy      8160.0775579521 Hartrees.
 NAtoms=  111 NActive=  111 NUniq=  111 SFac= 1.00D+00 NAtFMM=   60 NAOKFM=T Big=T
 Integral buffers will be    131072 words long.
 Raffenetti 2 integral format.
 Two-electron integral symmetry is turned on.
 One-electron integrals computed using PRISM.
   1 Symmetry operations used in ECPInt.
 ECPInt:  NShTT=   53301 NPrTT=  320676 LenC2=   40220 LenP2D=  123718.
 LDataN:  DoStor=T MaxTD1= 6 Len=  172
 NBasis=   830 RedAO= T EigKep=  5.55D-04  NBF=   830
 NBsUse=   830 1.00D-06 EigRej= -1.00D+00 NBFU=   830
 Defaulting to unpruned grid for atomic number  77.
 ExpMin= 2.90D-02 ExpMax= 5.48D+03 ExpMxC= 8.25D+02 IAcc=3 IRadAn=         5 AccDes= 0.00D+00
 Harris functional with IExCor= 1009 and IRadAn=       5 diagonalized for initial guess.
 HarFok:  IExCor= 1009 AccDes= 0.00D+00 IRadAn=         5 IDoV= 1 UseB2=F ITyADJ=14
 ICtDFT=  3500011 ScaDFX=  1.000000  1.000000  1.000000  1.000000
 Defaulting to unpruned grid for atomic number  77.
 FoFCou: FMM=F IPFlag=           0 FMFlag=      100000 FMFlg1=        2001
         NFxFlg=           0 DoJE=T BraDBF=F KetDBF=T FulRan=T
         wScrn=  0.000000 ICntrl=       500 IOpCl=  0 I1Cent=   200000004 NGrid=           0
         NMat0=    1 NMatS0=      1 NMatT0=    0 NMatD0=    1 NMtDS0=    0 NMtDT0=    0
 Petite list used in FoFCou.
 Requested convergence on RMS density matrix=1.00D-08 within 128 cycles.
 Requested convergence on MAX density matrix=1.00D-06.
 Requested convergence on             energy=1.00D-06.
 No special actions if energy rises.
 Defaulting to unpruned grid for atomic number  77.
 Defaulting to unpruned grid for atomic number  77.
 Defaulting to unpruned grid for atomic number  77.
 Defaulting to unpruned grid for atomic number  77.
 Defaulting to unpruned grid for atomic number  77.
 Defaulting to unpruned grid for atomic number  77.
 Defaulting to unpruned grid for atomic number  77.
 Defaulting to unpruned grid for atomic number  77.
 Defaulting to unpruned grid for atomic number  77.
 Defaulting to unpruned grid for atomic number  77.
 Defaulting to unpruned grid for atomic number  77.
 Defaulting to unpruned grid for atomic number  77.
 Defaulting to unpruned grid for atomic number  77.
 Defaulting to unpruned grid for atomic number  77.
 Defaulting to unpruned grid for atomic number  77.
 Defaulting to unpruned grid for atomic number  77.
 SCF Done:  E(RM06) =  -2277.50590557     A.U. after   15 cycles
            NFock= 15  Conv=0.69D-08     -V/T= 2.0390
 DoSCS=F DFT=T ScalE2(SS,OS)=  1.000000  1.000000
 Range of M.O.s used for correlation:     1   830
 NBasis=   830 NAE=   193 NBE=   193 NFC=     0 NFV=     0
 NROrb=    830 NOA=   193 NOB=   193 NVA=   637 NVB=   637
   1 Symmetry operations used in ECPInt.
 ECPInt:  NShTT=   53301 NPrTT=  320676 LenC2=   40220 LenP2D=  123718.
 LDataN:  DoStor=T MaxTD1= 7 Len=  274
 Number of processors reduced to   8 by ecpmxn.
 Symmetrizing basis deriv contribution to polar:
 IMax=3 JMax=2 DiffMx= 0.00D+00
 G2DrvN: will do   112 centers at a time, making    1 passes.
 Calling FoFCou, ICntrl=  3107 FMM=T I1Cent=   0 AccDes= 0.00D+00.
 Defaulting to unpruned grid for atomic number  77.
 Defaulting to unpruned grid for atomic number  77.
 Defaulting to unpruned grid for atomic number  77.
 Defaulting to unpruned grid for atomic number  77.
 Defaulting to unpruned grid for atomic number  77.
 Defaulting to unpruned grid for atomic number  77.
 Defaulting to unpruned grid for atomic number  77.
 Defaulting to unpruned grid for atomic number  77.
 Defaulting to unpruned grid for atomic number  77.
 Defaulting to unpruned grid for atomic number  77.
 Defaulting to unpruned grid for atomic number  77.
 Defaulting to unpruned grid for atomic number  77.
 Defaulting to unpruned grid for atomic number  77.
 Defaulting to unpruned grid for atomic number  77.
 Defaulting to unpruned grid for atomic number  77.
 Defaulting to unpruned grid for atomic number  77.
 End of G2Drv F.D. properties file   721 does not exist.
 End of G2Drv F.D. properties file   722 does not exist.
 End of G2Drv F.D. properties file   788 does not exist.
          IDoAtm=11111111111111111111111111111111111111111111111111
          IDoAtm=11111111111111111111111111111111111111111111111111
          IDoAtm=11111111111
          Differentiating once with respect to electric field.
                with respect to dipole field.
          Differentiating once with respect to nuclear coordinates.
 Defaulting to unpruned grid for atomic number  77.
 CalDSu exits because no D1Ps are significant.
 Defaulting to unpruned grid for atomic number  77.
 Defaulting to unpruned grid for atomic number  77.
 Defaulting to unpruned grid for atomic number  77.
 Defaulting to unpruned grid for atomic number  77.
 Defaulting to unpruned grid for atomic number  77.
 Defaulting to unpruned grid for atomic number  77.
 Defaulting to unpruned grid for atomic number  77.
 Defaulting to unpruned grid for atomic number  77.
 Defaulting to unpruned grid for atomic number  77.
 Defaulting to unpruned grid for atomic number  77.
 Defaulting to unpruned grid for atomic number  77.
 Defaulting to unpruned grid for atomic number  77.
 Defaulting to unpruned grid for atomic number  77.
 Defaulting to unpruned grid for atomic number  77.
 Defaulting to unpruned grid for atomic number  77.
 Defaulting to unpruned grid for atomic number  77.
          There are   336 degrees of freedom in the 1st order CPHF.  IDoFFX=6 NUNeed=     3.
    333 vectors produced by pass  0 Test12= 1.23D-13 1.00D-09 XBig12= 4.41D+02 9.51D+00.
 AX will form    72 AO Fock derivatives at one time.
    333 vectors produced by pass  1 Test12= 1.23D-13 1.00D-09 XBig12= 6.95D+01 1.30D+00.
    333 vectors produced by pass  2 Test12= 1.23D-13 1.00D-09 XBig12= 7.92D-01 7.14D-02.
    333 vectors produced by pass  3 Test12= 1.23D-13 1.00D-09 XBig12= 4.78D-03 5.30D-03.
    333 vectors produced by pass  4 Test12= 1.23D-13 1.00D-09 XBig12= 1.45D-05 3.63D-04.
    290 vectors produced by pass  5 Test12= 1.23D-13 1.00D-09 XBig12= 2.64D-08 1.25D-05.
     71 vectors produced by pass  6 Test12= 1.23D-13 1.00D-09 XBig12= 3.76D-11 3.45D-07.
      3 vectors produced by pass  7 Test12= 1.23D-13 1.00D-09 XBig12= 5.08D-14 1.60D-08.
 InvSVY:  IOpt=1 It=  1 EMax= 2.49D-14
 Solved reduced A of dimension  2029 with   336 vectors.
 Isotropic polarizability for W=    0.000000      490.49 Bohr**3.
 End of Minotr F.D. properties file   721 does not exist.
 End of Minotr F.D. properties file   722 does not exist.
 End of Minotr F.D. properties file   788 does not exist.
 Hyperfine terms turned off by default for NAtoms > 100.

 **********************************************************************

            Population analysis using the SCF Density.

 **********************************************************************

 Orbital symmetries:
       Occupied  (A) (A) (A) (A) (A) (A) (A) (A) (A) (A) (A) (A)
                 (A) (A) (A) (A) (A) (A) (A) (A) (A) (A) (A) (A)
                 (A) (A) (A) (A) (A) (A) (A) (A) (A) (A) (A) (A)
                 (A) (A) (A) (A) (A) (A) (A) (A) (A) (A) (A) (A)
                 (A) (A) (A) (A) (A) (A) (A) (A) (A) (A) (A) (A)
                 (A) (A) (A) (A) (A) (A) (A) (A) (A) (A) (A) (A)
                 (A) (A) (A) (A) (A) (A) (A) (A) (A) (A) (A) (A)
                 (A) (A) (A) (A) (A) (A) (A) (A) (A) (A) (A) (A)
                 (A) (A) (A) (A) (A) (A) (A) (A) (A) (A) (A) (A)
                 (A) (A) (A) (A) (A) (A) (A) (A) (A) (A) (A) (A)
                 (A) (A) (A) (A) (A) (A) (A) (A) (A) (A) (A) (A)
                 (A) (A) (A) (A) (A) (A) (A) (A) (A) (A) (A) (A)
                 (A) (A) (A) (A) (A) (A) (A) (A) (A) (A) (A) (A)
                 (A) (A) (A) (A) (A) (A) (A) (A) (A) (A) (A) (A)
                 (A) (A) (A) (A) (A) (A) (A) (A) (A) (A) (A) (A)
                 (A) (A) (A) (A) (A) (A) (A) (A) (A) (A) (A) (A)
                 (A)
       Virtual   (A) (A) (A) (A) (A) (A) (A) (A) (A) (A) (A) (A)
                 (A) (A) (A) (A) (A) (A) (A) (A) (A) (A) (A) (A)
                 (A) (A) (A) (A) (A) (A) (A) (A) (A) (A) (A) (A)
                 (A) (A) (A) (A) (A) (A) (A) (A) (A) (A) (A) (A)
                 (A) (A) (A) (A) (A) (A) (A) (A) (A) (A) (A) (A)
                 (A) (A) (A) (A) (A) (A) (A) (A) (A) (A) (A) (A)
                 (A) (A) (A) (A) (A) (A) (A) (A) (A) (A) (A) (A)
                 (A) (A) (A) (A) (A) (A) (A) (A) (A) (A) (A) (A)
                 (A) (A) (A) (A) (A) (A) (A) (A) (A) (A) (A) (A)
                 (A) (A) (A) (A) (A) (A) (A) (A) (A) (A) (A) (A)
                 (A) (A) (A) (A) (A) (A) (A) (A) (A) (A) (A) (A)
                 (A) (A) (A) (A) (A) (A) (A) (A) (A) (A) (A) (A)
                 (A) (A) (A) (A) (A) (A) (A) (A) (A) (A) (A) (A)
                 (A) (A) (A) (A) (A) (A) (A) (A) (A) (A) (A) (A)
                 (A) (A) (A) (A) (A) (A) (A) (A) (A) (A) (A) (A)
                 (A) (A) (A) (A) (A) (A) (A) (A) (A) (A) (A) (A)
                 (A) (A) (A) (A) (A) (A) (A) (A) (A) (A) (A) (A)
                 (A) (A) (A) (A) (A) (A) (A) (A) (A) (A) (A) (A)
                 (A) (A) (A) (A) (A) (A) (A) (A) (A) (A) (A) (A)
                 (A) (A) (A) (A) (A) (A) (A) (A) (A) (A) (A) (A)
                 (A) (A) (A) (A) (A) (A) (A) (A) (A) (A) (A) (A)
                 (A) (A) (A) (A) (A) (A) (A) (A) (A) (A) (A) (A)
                 (A) (A) (A) (A) (A) (A) (A) (A) (A) (A) (A) (A)
                 (A) (A) (A) (A) (A) (A) (A) (A) (A) (A) (A) (A)
                 (A) (A) (A) (A) (A) (A) (A) (A) (A) (A) (A) (A)
                 (A) (A) (A) (A) (A) (A) (A) (A) (A) (A) (A) (A)
                 (A) (A) (A) (A) (A) (A) (A) (A) (A) (A) (A) (A)
                 (A) (A) (A) (A) (A) (A) (A) (A) (A) (A) (A) (A)
                 (A) (A) (A) (A) (A) (A) (A) (A) (A) (A) (A) (A)
                 (A) (A) (A) (A) (A) (A) (A) (A) (A) (A) (A) (A)
                 (A) (A) (A) (A) (A) (A) (A) (A) (A) (A) (A) (A)
                 (A) (A) (A) (A) (A) (A) (A) (A) (A) (A) (A) (A)
                 (A) (A) (A) (A) (A) (A) (A) (A) (A) (A) (A) (A)
                 (A) (A) (A) (A) (A) (A) (A) (A) (A) (A) (A) (A)
                 (A) (A) (A) (A) (A) (A) (A) (A) (A) (A) (A) (A)
                 (A) (A) (A) (A) (A) (A) (A) (A) (A) (A) (A) (A)
                 (A) (A) (A) (A) (A) (A) (A) (A) (A) (A) (A) (A)
                 (A) (A) (A) (A) (A) (A) (A) (A) (A) (A) (A) (A)
                 (A) (A) (A) (A) (A) (A) (A) (A) (A) (A) (A) (A)
                 (A) (A) (A) (A) (A) (A) (A) (A) (A) (A) (A) (A)
                 (A) (A) (A) (A) (A) (A) (A) (A) (A) (A) (A) (A)
                 (A) (A) (A) (A) (A) (A) (A) (A) (A) (A) (A) (A)
                 (A) (A) (A) (A) (A) (A) (A) (A) (A) (A) (A) (A)
                 (A) (A) (A) (A) (A) (A) (A) (A) (A) (A) (A) (A)
                 (A) (A) (A) (A) (A) (A) (A) (A) (A) (A) (A) (A)
                 (A) (A) (A) (A) (A) (A) (A) (A) (A) (A) (A) (A)
                 (A) (A) (A) (A) (A) (A) (A) (A) (A) (A) (A) (A)
                 (A) (A) (A) (A) (A) (A) (A) (A) (A) (A) (A) (A)
                 (A) (A) (A) (A) (A) (A) (A) (A) (A) (A) (A) (A)
                 (A) (A) (A) (A) (A) (A) (A) (A) (A) (A) (A) (A)
                 (A) (A) (A) (A) (A) (A) (A) (A) (A) (A) (A) (A)
                 (A) (A) (A) (A) (A) (A) (A) (A) (A) (A) (A) (A)
                 (A) (A) (A) (A) (A) (A) (A) (A) (A) (A) (A) (A)
                 (A)
 The electronic state is 1-A.
 Alpha  occ. eigenvalues --  -19.20512 -19.20203 -19.19741 -19.19574 -19.19502
 Alpha  occ. eigenvalues --  -19.18190 -19.17049 -14.44453 -14.44355 -14.40937
 Alpha  occ. eigenvalues --  -10.32745 -10.31854 -10.31722 -10.30160 -10.29607
 Alpha  occ. eigenvalues --  -10.29583 -10.29301 -10.28891 -10.28858 -10.28819
 Alpha  occ. eigenvalues --  -10.28807 -10.28562 -10.28089 -10.28058 -10.27794
 Alpha  occ. eigenvalues --  -10.27476 -10.27365 -10.25809 -10.24449 -10.24239
 Alpha  occ. eigenvalues --  -10.23991 -10.23818 -10.23319 -10.23317 -10.23046
 Alpha  occ. eigenvalues --  -10.23018 -10.22919 -10.22393 -10.22392 -10.22356
 Alpha  occ. eigenvalues --  -10.22310 -10.22100 -10.21727 -10.21723 -10.21515
 Alpha  occ. eigenvalues --  -10.20322  -6.81832  -6.79838  -6.79792  -3.63019
 Alpha  occ. eigenvalues --   -2.05607  -2.04964  -2.04109  -1.06308  -1.05646
 Alpha  occ. eigenvalues --   -1.05007  -1.02952  -0.99648  -0.99353  -0.98792
 Alpha  occ. eigenvalues --   -0.98100  -0.97176  -0.92420  -0.84083  -0.83232
 Alpha  occ. eigenvalues --   -0.82446  -0.81486  -0.80579  -0.79978  -0.79626
 Alpha  occ. eigenvalues --   -0.77086  -0.77007  -0.75039  -0.74359  -0.73969
 Alpha  occ. eigenvalues --   -0.71159  -0.70650  -0.70130  -0.70010  -0.69553
 Alpha  occ. eigenvalues --   -0.68611  -0.67831  -0.67610  -0.67074  -0.66578
 Alpha  occ. eigenvalues --   -0.66398  -0.64229  -0.63227  -0.61793  -0.61311
 Alpha  occ. eigenvalues --   -0.60940  -0.60202  -0.58176  -0.57324  -0.54753
 Alpha  occ. eigenvalues --   -0.54242  -0.54044  -0.53781  -0.53284  -0.53052
 Alpha  occ. eigenvalues --   -0.52979  -0.52784  -0.51958  -0.50599  -0.49479
 Alpha  occ. eigenvalues --   -0.49447  -0.49084  -0.47871  -0.47243  -0.47132
 Alpha  occ. eigenvalues --   -0.46765  -0.46457  -0.46314  -0.46174  -0.45812
 Alpha  occ. eigenvalues --   -0.45783  -0.45517  -0.45365  -0.44858  -0.44446
 Alpha  occ. eigenvalues --   -0.43894  -0.43843  -0.43821  -0.43498  -0.43386
 Alpha  occ. eigenvalues --   -0.42818  -0.42652  -0.42585  -0.42041  -0.41181
 Alpha  occ. eigenvalues --   -0.41081  -0.40234  -0.40214  -0.40153  -0.39794
 Alpha  occ. eigenvalues --   -0.39728  -0.39641  -0.39482  -0.39429  -0.39371
 Alpha  occ. eigenvalues --   -0.39275  -0.39178  -0.38853  -0.38790  -0.38689
 Alpha  occ. eigenvalues --   -0.38559  -0.37983  -0.37717  -0.37608  -0.37236
 Alpha  occ. eigenvalues --   -0.36898  -0.36774  -0.36558  -0.36462  -0.36064
 Alpha  occ. eigenvalues --   -0.35937  -0.35803  -0.35644  -0.35531  -0.35376
 Alpha  occ. eigenvalues --   -0.35249  -0.34845  -0.34584  -0.34147  -0.33985
 Alpha  occ. eigenvalues --   -0.33766  -0.33647  -0.33360  -0.32897  -0.32634
 Alpha  occ. eigenvalues --   -0.32242  -0.31862  -0.31783  -0.31678  -0.31378
 Alpha  occ. eigenvalues --   -0.30968  -0.30712  -0.30312  -0.30162  -0.29679
 Alpha  occ. eigenvalues --   -0.29064  -0.28141  -0.27852  -0.26621  -0.26388
 Alpha  occ. eigenvalues --   -0.25819  -0.25685  -0.25328  -0.24410  -0.24158
 Alpha  occ. eigenvalues --   -0.22175  -0.21033  -0.19359
 Alpha virt. eigenvalues --   -0.06679  -0.03602  -0.02602   0.01872   0.02865
 Alpha virt. eigenvalues --    0.04396   0.05365   0.06210   0.06789   0.07199
 Alpha virt. eigenvalues --    0.07775   0.08354   0.08760   0.09849   0.10267
 Alpha virt. eigenvalues --    0.10889   0.11316   0.11614   0.11778   0.12086
 Alpha virt. eigenvalues --    0.12334   0.12614   0.12865   0.13001   0.13576
 Alpha virt. eigenvalues --    0.13748   0.13905   0.14093   0.14368   0.14491
 Alpha virt. eigenvalues --    0.14839   0.15079   0.15121   0.15488   0.15676
 Alpha virt. eigenvalues --    0.15971   0.16176   0.16391   0.16498   0.16525
 Alpha virt. eigenvalues --    0.16718   0.16898   0.17074   0.17202   0.17527
 Alpha virt. eigenvalues --    0.17664   0.17734   0.17852   0.18134   0.18363
 Alpha virt. eigenvalues --    0.18479   0.18628   0.18777   0.18829   0.19063
 Alpha virt. eigenvalues --    0.19154   0.19562   0.19617   0.19768   0.19998
 Alpha virt. eigenvalues --    0.20190   0.20257   0.20408   0.20768   0.20987
 Alpha virt. eigenvalues --    0.21084   0.21345   0.21430   0.21589   0.21801
 Alpha virt. eigenvalues --    0.22293   0.22447   0.22742   0.23136   0.23408
 Alpha virt. eigenvalues --    0.23469   0.23635   0.23935   0.24078   0.24241
 Alpha virt. eigenvalues --    0.24351   0.24670   0.25017   0.25275   0.25545
 Alpha virt. eigenvalues --    0.25960   0.26326   0.26614   0.26803   0.26955
 Alpha virt. eigenvalues --    0.27063   0.27483   0.27631   0.27793   0.28090
 Alpha virt. eigenvalues --    0.28294   0.28634   0.28900   0.29188   0.29553
 Alpha virt. eigenvalues --    0.29946   0.30285   0.30451   0.30948   0.31159
 Alpha virt. eigenvalues --    0.31727   0.33018   0.33145   0.33303   0.33746
 Alpha virt. eigenvalues --    0.35511   0.35751   0.36252   0.36570   0.36875
 Alpha virt. eigenvalues --    0.37634   0.38188   0.38970   0.39905   0.40547
 Alpha virt. eigenvalues --    0.41285   0.42543   0.43121   0.43578   0.44814
 Alpha virt. eigenvalues --    0.46418   0.46902   0.47884   0.48626   0.49202
 Alpha virt. eigenvalues --    0.49519   0.50084   0.50666   0.50775   0.51255
 Alpha virt. eigenvalues --    0.51815   0.51913   0.52422   0.52697   0.52948
 Alpha virt. eigenvalues --    0.53109   0.53496   0.54003   0.54979   0.55066
 Alpha virt. eigenvalues --    0.55403   0.55551   0.55648   0.56302   0.56677
 Alpha virt. eigenvalues --    0.56865   0.57184   0.57224   0.57559   0.57701
 Alpha virt. eigenvalues --    0.58296   0.58563   0.58918   0.59084   0.59269
 Alpha virt. eigenvalues --    0.59403   0.59778   0.59995   0.60451   0.60562
 Alpha virt. eigenvalues --    0.60762   0.60996   0.61331   0.61803   0.62046
 Alpha virt. eigenvalues --    0.62206   0.62342   0.62878   0.63027   0.63462
 Alpha virt. eigenvalues --    0.63734   0.64344   0.64590   0.65138   0.65604
 Alpha virt. eigenvalues --    0.66106   0.66212   0.66507   0.66913   0.67161
 Alpha virt. eigenvalues --    0.67337   0.67856   0.68295   0.68539   0.68821
 Alpha virt. eigenvalues --    0.69354   0.69523   0.69906   0.70348   0.70421
 Alpha virt. eigenvalues --    0.70677   0.71138   0.71355   0.71523   0.71721
 Alpha virt. eigenvalues --    0.72281   0.72515   0.73014   0.73141   0.73557
 Alpha virt. eigenvalues --    0.74141   0.74561   0.75028   0.75505   0.75860
 Alpha virt. eigenvalues --    0.76174   0.76411   0.76741   0.77191   0.77587
 Alpha virt. eigenvalues --    0.77776   0.78111   0.78412   0.78710   0.79239
 Alpha virt. eigenvalues --    0.79915   0.80314   0.80727   0.80831   0.81270
 Alpha virt. eigenvalues --    0.81394   0.81726   0.81909   0.82323   0.82693
 Alpha virt. eigenvalues --    0.82918   0.83102   0.83499   0.83887   0.84306
 Alpha virt. eigenvalues --    0.84501   0.84623   0.84712   0.84950   0.85364
 Alpha virt. eigenvalues --    0.85711   0.86021   0.86099   0.86401   0.86636
 Alpha virt. eigenvalues --    0.86894   0.87036   0.87312   0.87561   0.88099
 Alpha virt. eigenvalues --    0.88271   0.88328   0.88613   0.88930   0.89226
 Alpha virt. eigenvalues --    0.89404   0.89743   0.89911   0.89964   0.90085
 Alpha virt. eigenvalues --    0.90298   0.90574   0.90822   0.91120   0.91219
 Alpha virt. eigenvalues --    0.91385   0.91838   0.91976   0.92171   0.92227
 Alpha virt. eigenvalues --    0.92283   0.92806   0.93103   0.93412   0.93881
 Alpha virt. eigenvalues --    0.94069   0.94304   0.94633   0.94878   0.95302
 Alpha virt. eigenvalues --    0.95453   0.95737   0.96079   0.96461   0.96804
 Alpha virt. eigenvalues --    0.97273   0.97453   0.97605   0.98155   0.98279
 Alpha virt. eigenvalues --    0.98410   0.99205   0.99383   0.99413   0.99792
 Alpha virt. eigenvalues --    1.00128   1.00930   1.01331   1.01677   1.02001
 Alpha virt. eigenvalues --    1.02719   1.02975   1.03950   1.04130   1.04600
 Alpha virt. eigenvalues --    1.04862   1.06308   1.07142   1.07849   1.08309
 Alpha virt. eigenvalues --    1.08529   1.09833   1.10499   1.10828   1.11148
 Alpha virt. eigenvalues --    1.11914   1.12716   1.12914   1.13323   1.13546
 Alpha virt. eigenvalues --    1.14406   1.14971   1.15531   1.16861   1.17175
 Alpha virt. eigenvalues --    1.17533   1.18238   1.18727   1.19775   1.20306
 Alpha virt. eigenvalues --    1.20580   1.21515   1.21705   1.22241   1.23435
 Alpha virt. eigenvalues --    1.24120   1.24359   1.25287   1.25668   1.25809
 Alpha virt. eigenvalues --    1.27147   1.27433   1.27971   1.28553   1.29151
 Alpha virt. eigenvalues --    1.29543   1.30313   1.30949   1.31173   1.31604
 Alpha virt. eigenvalues --    1.32198   1.33121   1.34435   1.35432   1.35806
 Alpha virt. eigenvalues --    1.36315   1.36757   1.37573   1.38245   1.38789
 Alpha virt. eigenvalues --    1.39128   1.40390   1.40898   1.41007   1.42223
 Alpha virt. eigenvalues --    1.42701   1.43122   1.43786   1.44304   1.44919
 Alpha virt. eigenvalues --    1.45394   1.45441   1.45811   1.46257   1.46925
 Alpha virt. eigenvalues --    1.46942   1.47323   1.47605   1.48068   1.48544
 Alpha virt. eigenvalues --    1.49015   1.50066   1.50669   1.51686   1.52287
 Alpha virt. eigenvalues --    1.52684   1.52953   1.53843   1.54862   1.56590
 Alpha virt. eigenvalues --    1.58334   1.59070   1.59938   1.60732   1.61465
 Alpha virt. eigenvalues --    1.62253   1.62898   1.64265   1.64784   1.65703
 Alpha virt. eigenvalues --    1.65983   1.66162   1.66528   1.67280   1.67786
 Alpha virt. eigenvalues --    1.67981   1.68995   1.69634   1.69917   1.70701
 Alpha virt. eigenvalues --    1.71299   1.72145   1.72749   1.73345   1.73651
 Alpha virt. eigenvalues --    1.75243   1.75435   1.75999   1.76463   1.77243
 Alpha virt. eigenvalues --    1.77947   1.78168   1.79054   1.79369   1.80453
 Alpha virt. eigenvalues --    1.80503   1.81116   1.81356   1.81715   1.82225
 Alpha virt. eigenvalues --    1.82945   1.83249   1.83609   1.84568   1.85028
 Alpha virt. eigenvalues --    1.85237   1.85773   1.86010   1.86516   1.86829
 Alpha virt. eigenvalues --    1.87356   1.87657   1.88345   1.88776   1.88923
 Alpha virt. eigenvalues --    1.89946   1.90433   1.90692   1.91008   1.91323
 Alpha virt. eigenvalues --    1.91661   1.92173   1.92385   1.92557   1.92654
 Alpha virt. eigenvalues --    1.92799   1.93454   1.93515   1.93823   1.94192
 Alpha virt. eigenvalues --    1.94343   1.94727   1.94742   1.95117   1.95367
 Alpha virt. eigenvalues --    1.96061   1.96289   1.96905   1.97431   1.98206
 Alpha virt. eigenvalues --    1.98624   1.99507   2.00174   2.00466   2.00766
 Alpha virt. eigenvalues --    2.02476   2.02613   2.02745   2.03073   2.03983
 Alpha virt. eigenvalues --    2.04164   2.05157   2.05911   2.06251   2.06323
 Alpha virt. eigenvalues --    2.07180   2.07777   2.07983   2.08354   2.08921
 Alpha virt. eigenvalues --    2.09163   2.09545   2.09803   2.10195   2.10709
 Alpha virt. eigenvalues --    2.11017   2.11880   2.12598   2.13361   2.13560
 Alpha virt. eigenvalues --    2.13911   2.14602   2.14813   2.15313   2.15934
 Alpha virt. eigenvalues --    2.16204   2.16335   2.16545   2.17310   2.17594
 Alpha virt. eigenvalues --    2.17796   2.17987   2.18400   2.18775   2.18990
 Alpha virt. eigenvalues --    2.19097   2.19501   2.19948   2.20487   2.21132
 Alpha virt. eigenvalues --    2.21446   2.21751   2.22077   2.22362   2.22761
 Alpha virt. eigenvalues --    2.23299   2.23542   2.24095   2.24540   2.24970
 Alpha virt. eigenvalues --    2.25393   2.25998   2.26323   2.26398   2.26761
 Alpha virt. eigenvalues --    2.27467   2.27955   2.28580   2.29244   2.29390
 Alpha virt. eigenvalues --    2.29762   2.30126   2.31388   2.31754   2.32385
 Alpha virt. eigenvalues --    2.32838   2.33387   2.33579   2.34115   2.34577
 Alpha virt. eigenvalues --    2.34879   2.35777   2.36646   2.37052   2.37469
 Alpha virt. eigenvalues --    2.38222   2.38964   2.39653   2.40278   2.40751
 Alpha virt. eigenvalues --    2.41167   2.42785   2.43602   2.45748   2.46253
 Alpha virt. eigenvalues --    2.47442   2.48055   2.48486   2.49337   2.49780
 Alpha virt. eigenvalues --    2.50414   2.51499   2.51667   2.52049   2.53451
 Alpha virt. eigenvalues --    2.53804   2.55072   2.57231   2.57995   2.59286
 Alpha virt. eigenvalues --    2.60530   2.61084   2.61379   2.62262   2.62451
 Alpha virt. eigenvalues --    2.63149   2.63832   2.64103   2.65097   2.65613
 Alpha virt. eigenvalues --    2.66873   2.67886   2.69201   2.69446   2.70098
 Alpha virt. eigenvalues --    2.73072   2.73154   2.76740   2.77518   2.77855
 Alpha virt. eigenvalues --    2.78033   2.78461   2.79039   2.79599   2.79898
 Alpha virt. eigenvalues --    2.80257   2.81167   2.81239   2.82157   2.82982
 Alpha virt. eigenvalues --    2.83271   2.84028   2.84400   2.85671   2.87836
 Alpha virt. eigenvalues --    2.89316   2.91000   2.91826   2.94734   2.95287
 Alpha virt. eigenvalues --    2.95598   2.96893   2.99624   3.01221   3.02051
 Alpha virt. eigenvalues --    3.03998   3.04993   3.07987   3.08803   3.12160
 Alpha virt. eigenvalues --    3.13308   3.14728   3.22506   3.25513   3.30952
 Alpha virt. eigenvalues --    3.44984  12.54543
          Condensed to atoms (all electrons):
 Mulliken charges:
               1
     1  C    0.346280
     2  C    0.055745
     3  C   -0.162283
     4  C   -0.139680
     5  C   -0.172030
     6  C    0.290621
     7  C    0.059831
     8  C   -0.181719
     9  C   -0.137089
    10  C   -0.183805
    11  H    0.224598
    12  H    0.181378
    13  H    0.167985
    14  H    0.225822
    15  H    0.181244
    16  H    0.168031
    17  N   -0.499469
    18  N   -0.478287
    19  Ir  -0.212154
    20  O   -0.494986
    21  O   -0.524141
    22  O   -0.553159
    23  B    0.459782
    24  B    0.418332
    25  B    0.586038
    26  O   -0.518111
    27  O   -0.503698
    28  C    0.293440
    29  C    0.297676
    30  C    0.298668
    31  C    0.303091
    32  C    0.301381
    33  C    0.285037
    34  O   -0.520172
    35  C   -0.501767
    36  H    0.177895
    37  H    0.165567
    38  H    0.146244
    39  C   -0.508558
    40  H    0.163589
    41  H    0.172819
    42  H    0.148817
    43  C   -0.512697
    44  H    0.150750
    45  H    0.172378
    46  H    0.169800
    47  C   -0.499167
    48  H    0.151776
    49  H    0.151994
    50  H    0.170973
    51  C   -0.506624
    52  H    0.153788
    53  H    0.143532
    54  H    0.187814
    55  C   -0.506039
    56  H    0.175909
    57  H    0.147607
    58  H    0.156656
    59  C   -0.508653
    60  H    0.148672
    61  H    0.172183
    62  H    0.164494
    63  C   -0.513711
    64  H    0.179294
    65  H    0.168633
    66  H    0.146043
    67  C   -0.507442
    68  H    0.143965
    69  H    0.171370
    70  H    0.161666
    71  C   -0.517641
    72  H    0.199793
    73  H    0.171074
    74  H    0.133987
    75  C   -0.510532
    76  H    0.153061
    77  H    0.162270
    78  H    0.165386
    79  C   -0.508546
    80  H    0.164039
    81  H    0.159481
    82  H    0.154717
    83  H    0.211305
    84  C    0.592411
    85  O   -0.533619
    86  C   -0.408061
    87  H    0.147165
    88  H    0.169961
    89  C   -0.400309
    90  H    0.244677
    91  H    0.189154
    92  N   -0.360850
    93  C   -0.383924
    94  H    0.164782
    95  H    0.158552
    96  H    0.228027
    97  C   -0.252241
    98  H    0.163529
    99  H    0.129843
   100  C   -0.274144
   101  H    0.123580
   102  H    0.140218
   103  C   -0.280908
   104  H    0.152752
   105  H    0.139731
   106  C   -0.497417
   107  H    0.161129
   108  H    0.164825
   109  H    0.154498
   110  H    0.180506
   111  H    0.183978
 Sum of Mulliken charges =  -0.00000
 Mulliken charges with hydrogens summed into heavy atoms:
               1
     1  C    0.346280
     2  C    0.280342
     3  C    0.021695
     4  C    0.041698
     5  C   -0.004045
     6  C    0.290621
     7  C    0.285653
     8  C   -0.001213
     9  C    0.044155
    10  C   -0.015774
    17  N   -0.499469
    18  N   -0.478287
    19  Ir  -0.000849
    20  O   -0.494986
    21  O   -0.524141
    22  O   -0.553159
    23  B    0.459782
    24  B    0.418332
    25  B    0.586038
    26  O   -0.518111
    27  O   -0.503698
    28  C    0.293440
    29  C    0.297676
    30  C    0.298668
    31  C    0.303091
    32  C    0.301381
    33  C    0.285037
    34  O   -0.520172
    35  C   -0.012062
    39  C   -0.023334
    43  C   -0.019769
    47  C   -0.024424
    51  C   -0.021490
    55  C   -0.025866
    59  C   -0.023304
    63  C   -0.019741
    67  C   -0.030441
    71  C   -0.012787
    75  C   -0.029816
    79  C   -0.030309
    84  C    0.592411
    85  O   -0.533619
    86  C   -0.090935
    89  C    0.033521
    92  N   -0.360850
    93  C    0.167437
    97  C    0.041131
   100  C   -0.010346
   103  C    0.011574
   106  C   -0.016964
 APT charges:
               1
     1  C    0.207629
     2  C    0.091346
     3  C   -0.073340
     4  C    0.138176
     5  C   -0.179236
     6  C    0.221517
     7  C    0.047706
     8  C   -0.081879
     9  C    0.115183
    10  C   -0.181873
    11  H    0.073217
    12  H    0.031800
    13  H    0.040243
    14  H    0.142204
    15  H    0.033230
    16  H    0.046624
    17  N   -0.241324
    18  N   -0.165883
    19  Ir  -0.746692
    20  O   -0.931004
    21  O   -0.975466
    22  O   -1.086378
    23  B    1.271318
    24  B    1.220641
    25  B    1.599894
    26  O   -1.036178
    27  O   -0.941502
    28  C    0.455074
    29  C    0.461658
    30  C    0.523687
    31  C    0.538289
    32  C    0.513455
    33  C    0.479757
    34  O   -0.979402
    35  C   -0.024425
    36  H    0.003626
    37  H    0.012391
    38  H   -0.027322
    39  C    0.003896
    40  H   -0.014755
    41  H   -0.001172
    42  H   -0.016151
    43  C    0.000047
    44  H   -0.020140
    45  H    0.002919
    46  H    0.000599
    47  C   -0.019505
    48  H   -0.008260
    49  H   -0.022737
    50  H    0.000725
    51  C   -0.038953
    52  H   -0.008530
    53  H   -0.026652
    54  H    0.041729
    55  C   -0.009755
    56  H    0.002161
    57  H   -0.018168
    58  H   -0.006333
    59  C    0.001451
    60  H   -0.021913
    61  H    0.001266
    62  H   -0.009310
    63  C   -0.044301
    64  H    0.021980
    65  H    0.002701
    66  H   -0.027794
    67  C   -0.009928
    68  H   -0.021867
    69  H   -0.000779
    70  H   -0.003348
    71  C   -0.047406
    72  H    0.049935
    73  H   -0.000590
    74  H   -0.033260
    75  C   -0.007392
    76  H   -0.023274
    77  H   -0.001207
    78  H    0.000069
    79  C   -0.055072
    80  H    0.005169
    81  H    0.001051
    82  H   -0.027061
    83  H    0.025031
    84  C    0.897498
    85  O   -0.725932
    86  C   -0.018315
    87  H   -0.010252
    88  H   -0.023752
    89  C    0.032638
    90  H    0.051590
    91  H   -0.059621
    92  N   -0.738734
    93  C    0.237381
    94  H   -0.046998
    95  H   -0.009934
    96  H    0.072881
    97  C    0.108384
    98  H   -0.025967
    99  H   -0.027090
   100  C    0.104906
   101  H   -0.055728
   102  H   -0.052363
   103  C    0.119106
   104  H   -0.046729
   105  H   -0.052377
   106  C    0.060561
   107  H   -0.018695
   108  H   -0.038603
   109  H   -0.019823
   110  H    0.038340
   111  H    0.035752
 Sum of APT charges =  -0.00000
 APT charges with hydrogens summed into heavy atoms:
               1
     1  C    0.207629
     2  C    0.164563
     3  C   -0.037589
     4  C    0.169975
     5  C   -0.138993
     6  C    0.221517
     7  C    0.189909
     8  C   -0.043538
     9  C    0.148413
    10  C   -0.135250
    17  N   -0.241324
    18  N   -0.165883
    19  Ir  -0.721661
    20  O   -0.931004
    21  O   -0.975466
    22  O   -1.086378
    23  B    1.271318
    24  B    1.220641
    25  B    1.599894
    26  O   -1.036178
    27  O   -0.941502
    28  C    0.455074
    29  C    0.461658
    30  C    0.523687
    31  C    0.538289
    32  C    0.513455
    33  C    0.479757
    34  O   -0.979402
    35  C   -0.035730
    39  C   -0.028182
    43  C   -0.016575
    47  C   -0.049777
    51  C   -0.032405
    55  C   -0.032094
    59  C   -0.028506
    63  C   -0.047414
    67  C   -0.035923
    71  C   -0.031320
    75  C   -0.031804
    79  C   -0.075913
    84  C    0.897498
    85  O   -0.725932
    86  C   -0.052318
    89  C    0.024607
    92  N   -0.738734
    93  C    0.253329
    97  C    0.055327
   100  C   -0.003185
   103  C    0.020000
   106  C   -0.016560
 Electronic spatial extent (au):  <R**2>=          29552.8485
 Charge=             -0.0000 electrons
 Dipole moment (field-independent basis, Debye):
    X=              4.1181    Y=              2.7605    Z=              2.9937  Tot=              5.7915
 Quadrupole moment (field-independent basis, Debye-Ang):
   XX=           -302.4528   YY=           -294.4651   ZZ=           -305.9538
   XY=             11.6604   XZ=              1.6418   YZ=             -9.9992
 Traceless Quadrupole moment (field-independent basis, Debye-Ang):
   XX=             -1.4956   YY=              6.4922   ZZ=             -4.9966
   XY=             11.6604   XZ=              1.6418   YZ=             -9.9992
 Octapole moment (field-independent basis, Debye-Ang**2):
  XXX=            -41.8121  YYY=             24.8753  ZZZ=            -74.8632  XYY=            -12.7877
  XXY=             43.1904  XXZ=             16.2433  XZZ=              2.7852  YZZ=             38.3604
  YYZ=            -55.3318  XYZ=            -29.9908
 Hexadecapole moment (field-independent basis, Debye-Ang**3):
 XXXX=         -20451.1844 YYYY=         -12494.7714 ZZZZ=          -6193.3800 XXXY=            203.1712
 XXXZ=            -59.2692 YYYX=             -8.5761 YYYZ=             -8.8795 ZZZX=            -24.1259
 ZZZY=           -187.4437 XXYY=          -5347.9761 XXZZ=          -4424.1793 YYZZ=          -3188.1537
 XXYZ=            -43.0252 YYXZ=            -27.2486 ZZXY=            118.8303
 N-N= 8.160077557952D+03 E-N=-2.159778607863D+04  KE= 2.191920647962D+03
  Exact polarizability:     535.475      38.595     475.723       6.460     -26.017     460.284
 Approx polarizability:     715.051      72.472     660.294      14.255     -56.407     748.249
   1 Symmetry operations used in ECPInt.
 ECPInt:  NShTT=   53301 NPrTT=  320676 LenC2=   40220 LenP2D=  123718.
 LDataN:  DoStor=T MaxTD1= 8 Len=  415
 Calling FoFJK, ICntrl=    100127 FMM=F ISym2X=0 I1Cent= 0 IOpClX= 0 NMat=1 NMatS=1 NMatT=0.
 Defaulting to unpruned grid for atomic number  77.
 Defaulting to unpruned grid for atomic number  77.
 Defaulting to unpruned grid for atomic number  77.
 Defaulting to unpruned grid for atomic number  77.
 Defaulting to unpruned grid for atomic number  77.
 Defaulting to unpruned grid for atomic number  77.
 Defaulting to unpruned grid for atomic number  77.
 Defaulting to unpruned grid for atomic number  77.
 Defaulting to unpruned grid for atomic number  77.
 Defaulting to unpruned grid for atomic number  77.
 Defaulting to unpruned grid for atomic number  77.
 Defaulting to unpruned grid for atomic number  77.
 Defaulting to unpruned grid for atomic number  77.
 Defaulting to unpruned grid for atomic number  77.
 Defaulting to unpruned grid for atomic number  77.
 Defaulting to unpruned grid for atomic number  77.
 Full mass-weighted force constant matrix:
 Low frequencies ---  -52.9934  -10.7521   -3.2080    0.0005    0.0006    0.0008
 Low frequencies ---    2.7477    8.8831   17.4210
 ******    1 imaginary frequencies (negative Signs) ****** 
 Diagonal vibrational polarizability:
      409.6891220     109.0660195     104.5566750
 Harmonic frequencies (cm**-1), IR intensities (KM/Mole), Raman scattering
 activities (A**4/AMU), depolarization ratios for plane and unpolarized
 incident light, reduced masses (AMU), force constants (mDyne/A),
 and normal coordinates:
                      1                      2                      3
                      A                      A                      A
 Frequencies --    -52.9894                 8.6183                17.3661
 Red. masses --      6.5327                 4.3354                 4.1066
 Frc consts  --      0.0108                 0.0002                 0.0007
 IR Inten    --      7.0279                 0.6344                 0.5017
  Atom AN      X      Y      Z        X      Y      Z        X      Y      Z
     1   6     0.02   0.01  -0.05     0.02  -0.04   0.03    -0.01   0.01  -0.03
     2   6     0.01   0.01  -0.05     0.05  -0.04   0.02    -0.02  -0.02  -0.02
     3   6    -0.00   0.02  -0.05     0.07  -0.06   0.02    -0.02  -0.01  -0.03
     4   6    -0.00   0.02  -0.05     0.07  -0.07   0.04    -0.02  -0.01  -0.04
     5   6     0.01   0.02  -0.06     0.04  -0.06   0.04    -0.01   0.00  -0.04
     6   6     0.03   0.03  -0.05    -0.00  -0.03   0.04     0.00   0.01  -0.02
     7   6     0.02   0.07  -0.02    -0.02  -0.05   0.01     0.04  -0.02  -0.03
     8   6     0.02   0.07  -0.03    -0.03  -0.04   0.03     0.03   0.01  -0.03
     9   6     0.03   0.06  -0.04    -0.04  -0.02   0.06     0.01   0.05  -0.02
    10   6     0.03   0.03  -0.05    -0.02  -0.01   0.06    -0.01   0.05  -0.02
    11   1     0.00   0.00  -0.04     0.06  -0.03   0.01    -0.02  -0.02  -0.02
    12   1    -0.01   0.03  -0.06     0.08  -0.08   0.04    -0.03  -0.01  -0.05
    13   1     0.01   0.03  -0.06     0.04  -0.06   0.05    -0.01   0.01  -0.05
    14   1     0.01   0.08  -0.01    -0.02  -0.06  -0.00     0.06  -0.05  -0.03
    15   1     0.03   0.06  -0.05    -0.06  -0.00   0.08    -0.00   0.08  -0.02
    16   1     0.03   0.02  -0.06    -0.03   0.01   0.08    -0.03   0.08  -0.02
    17   7     0.02   0.00  -0.05     0.03  -0.03   0.02    -0.01  -0.01  -0.02
    18   7     0.02   0.04  -0.03    -0.00  -0.04   0.02     0.02  -0.02  -0.02
    19  77    -0.00   0.05   0.02     0.00  -0.01   0.00     0.01  -0.02  -0.01
    20   8     0.00   0.01  -0.01     0.05   0.00   0.00    -0.04  -0.03   0.00
    21   8     0.02  -0.08   0.01    -0.01  -0.01  -0.00     0.05  -0.02   0.01
    22   8     0.08  -0.05  -0.03    -0.00  -0.02   0.00    -0.03   0.01  -0.03
    23   5     0.02  -0.06   0.01    -0.00  -0.01  -0.00     0.03  -0.00   0.02
    24   5    -0.00   0.01  -0.01     0.03  -0.01   0.01     0.01  -0.01  -0.00
    25   5     0.22  -0.13  -0.06     0.01  -0.03  -0.00    -0.04   0.02  -0.01
    26   8     0.17  -0.09  -0.06    -0.01  -0.01   0.00    -0.04   0.03  -0.02
    27   8    -0.02  -0.01   0.00     0.03  -0.01   0.01     0.06   0.00  -0.01
    28   6    -0.01  -0.01   0.01     0.05  -0.01   0.02     0.03   0.00  -0.03
    29   6    -0.01   0.01   0.01     0.06   0.00   0.01    -0.03  -0.02   0.00
    30   6     0.02  -0.01  -0.03    -0.03  -0.00   0.00    -0.04   0.02  -0.04
    31   6     0.08   0.01  -0.04    -0.02   0.01   0.01    -0.05   0.04  -0.02
    32   6     0.01  -0.06   0.01    -0.01   0.01  -0.01     0.06  -0.04   0.02
    33   6     0.02  -0.03   0.01    -0.01   0.01  -0.01     0.05   0.00   0.06
    34   8     0.02  -0.04   0.02    -0.00  -0.00  -0.01     0.03   0.02   0.04
    35   6    -0.01  -0.00   0.00     0.06   0.02  -0.01    -0.02  -0.03   0.06
    36   1    -0.00   0.00  -0.00     0.07   0.03  -0.02    -0.06  -0.05   0.08
    37   1    -0.01  -0.01  -0.00     0.04   0.03  -0.02     0.01  -0.03   0.08
    38   1    -0.01  -0.01   0.01     0.07   0.03  -0.01    -0.01  -0.03   0.06
    39   6    -0.01   0.02   0.02     0.09   0.00   0.01    -0.07  -0.03  -0.03
    40   1    -0.01   0.02   0.02     0.09  -0.02   0.02    -0.08  -0.03  -0.07
    41   1    -0.01   0.03   0.02     0.10   0.01   0.01    -0.11  -0.05  -0.01
    42   1    -0.01   0.01   0.03     0.10   0.00   0.02    -0.07  -0.03  -0.04
    43   6    -0.02  -0.01   0.01     0.04  -0.01   0.01     0.06   0.01  -0.01
    44   1    -0.02  -0.01   0.02     0.06  -0.01   0.01     0.04   0.00  -0.02
    45   1    -0.02  -0.01   0.01     0.04   0.00  -0.00     0.08  -0.00   0.03
    46   1    -0.02  -0.01   0.01     0.03  -0.02   0.02     0.10   0.02  -0.04
    47   6    -0.01  -0.01   0.02     0.05  -0.03   0.03     0.02   0.01  -0.09
    48   1    -0.01  -0.00   0.01     0.06  -0.03   0.04    -0.01   0.01  -0.10
    49   1    -0.01  -0.01   0.02     0.07  -0.03   0.04    -0.00   0.01  -0.12
    50   1    -0.01  -0.01   0.02     0.04  -0.04   0.04     0.06   0.04  -0.11
    51   6    -0.02  -0.05   0.01    -0.03   0.01   0.01     0.06  -0.04  -0.02
    52   1    -0.02  -0.07   0.01    -0.04   0.01   0.01     0.06  -0.07  -0.04
    53   1    -0.02  -0.04   0.01    -0.04   0.02   0.00     0.06  -0.05  -0.01
    54   1    -0.03  -0.05   0.02    -0.03   0.00   0.01     0.04  -0.01  -0.03
    55   6     0.03  -0.05   0.01    -0.01   0.02  -0.01     0.09  -0.07   0.04
    56   1     0.05  -0.06   0.01     0.00   0.01  -0.02     0.10  -0.07   0.07
    57   1     0.03  -0.04   0.01    -0.01   0.03  -0.01     0.10  -0.08   0.06
    58   1     0.02  -0.07   0.01    -0.02   0.01  -0.00     0.10  -0.10   0.02
    59   6     0.01  -0.02   0.01    -0.01   0.02  -0.01     0.04   0.02   0.07
    60   1     0.01  -0.02   0.01    -0.02   0.04  -0.02     0.06   0.00   0.08
    61   1     0.02  -0.00   0.01    -0.01   0.03  -0.02     0.03   0.05   0.09
    62   1    -0.00  -0.02  -0.00    -0.02   0.02  -0.01     0.02   0.03   0.04
    63   6     0.04  -0.03   0.02     0.01   0.02  -0.02     0.08   0.00   0.10
    64   1     0.04  -0.04   0.03     0.01   0.01  -0.02     0.09  -0.01   0.09
    65   1     0.04  -0.02   0.02     0.02   0.02  -0.03     0.06   0.03   0.12
    66   1     0.04  -0.03   0.02     0.00   0.03  -0.03     0.11  -0.01   0.12
    67   6    -0.01  -0.00  -0.02    -0.04   0.01   0.01    -0.08   0.06  -0.03
    68   1    -0.07   0.06   0.00    -0.06   0.02   0.01    -0.08   0.07  -0.03
    69   1     0.04   0.01  -0.03    -0.04   0.01   0.01    -0.08   0.08  -0.02
    70   1    -0.04  -0.09  -0.02    -0.05  -0.01   0.00    -0.08   0.05  -0.05
    71   6     0.14   0.13  -0.05    -0.01   0.03   0.01    -0.04   0.06   0.01
    72   1     0.18   0.13  -0.06    -0.00   0.03   0.00    -0.02   0.05   0.02
    73   1     0.19   0.13  -0.06    -0.01   0.03   0.01    -0.04   0.07   0.02
    74   1     0.08   0.19  -0.05    -0.02   0.04   0.01    -0.04   0.07   0.00
    75   6    -0.03   0.06  -0.04    -0.03   0.02   0.01    -0.04   0.01  -0.04
    76   1    -0.06   0.09  -0.04    -0.05   0.03   0.01    -0.05   0.03  -0.04
    77   1    -0.07   0.04  -0.03    -0.04   0.01   0.01    -0.03  -0.01  -0.05
    78   1     0.02   0.11  -0.06    -0.02   0.03   0.01    -0.03   0.01  -0.01
    79   6    -0.05  -0.07  -0.01    -0.05  -0.02  -0.00    -0.05   0.02  -0.06
    80   1    -0.03  -0.12  -0.02    -0.05  -0.03  -0.01    -0.06   0.03  -0.07
    81   1    -0.07  -0.08  -0.01    -0.05  -0.03  -0.00    -0.04   0.01  -0.07
    82   1    -0.10  -0.05  -0.00    -0.07  -0.01   0.00    -0.06   0.03  -0.07
    83   1    -0.07  -0.01   0.07     0.00  -0.00   0.00    -0.00   0.00   0.00
    84   6    -0.09  -0.07   0.06    -0.03  -0.02  -0.05     0.00  -0.00   0.00
    85   8    -0.11  -0.12   0.03    -0.05  -0.04  -0.07     0.01   0.01   0.02
    86   6    -0.08  -0.02   0.06    -0.02   0.02  -0.05    -0.02  -0.01   0.02
    87   1    -0.07   0.02   0.06    -0.03  -0.00  -0.05    -0.05  -0.03   0.02
    88   1    -0.07  -0.01   0.10     0.04   0.03  -0.06    -0.00  -0.01   0.00
    89   6    -0.08  -0.16   0.05    -0.04  -0.05  -0.02     0.01   0.01  -0.03
    90   1    -0.09  -0.03   0.13    -0.05  -0.03  -0.02     0.02  -0.01  -0.03
    91   1     0.10  -0.17  -0.07    -0.03  -0.05  -0.02    -0.03   0.01  -0.01
    92   7    -0.09  -0.07   0.10    -0.02  -0.03  -0.03    -0.00  -0.02  -0.03
    93   6    -0.08  -0.03   0.13    -0.00  -0.03  -0.02    -0.02  -0.03  -0.04
    94   1    -0.11  -0.04   0.15    -0.00  -0.03  -0.03    -0.02  -0.02  -0.06
    95   1    -0.04  -0.02   0.10     0.02  -0.03  -0.04    -0.03  -0.04  -0.03
    96   1    -0.06  -0.01   0.17     0.00  -0.04  -0.00    -0.02  -0.03  -0.05
    97   6    -0.09  -0.03   0.02    -0.05   0.10  -0.05    -0.02   0.02   0.07
    98   1    -0.11  -0.05   0.02    -0.04   0.14  -0.06     0.01   0.05   0.07
    99   1    -0.09  -0.03   0.01    -0.11   0.09  -0.02    -0.03   0.03   0.09
   100   6    -0.06  -0.01   0.01    -0.03   0.12  -0.06    -0.05   0.01   0.09
   101   1    -0.05   0.00   0.01    -0.05   0.06  -0.04    -0.09  -0.04   0.10
   102   1    -0.06  -0.01   0.02     0.04   0.13  -0.11    -0.01   0.01   0.05
   103   6    -0.07  -0.01  -0.02    -0.08   0.23  -0.04    -0.06   0.08   0.16
   104   1    -0.09  -0.02  -0.03    -0.06   0.31  -0.07    -0.01   0.13   0.16
   105   1    -0.08  -0.01  -0.03    -0.16   0.23   0.01    -0.09   0.08   0.20
   106   6    -0.05   0.00  -0.04    -0.06   0.25  -0.06    -0.09   0.07   0.19
   107   1    -0.04   0.00  -0.04     0.02   0.26  -0.12    -0.05   0.06   0.14
   108   1    -0.06   0.00  -0.06    -0.09   0.34  -0.05    -0.10   0.11   0.24
   109   1    -0.03   0.01  -0.04    -0.08   0.18  -0.04    -0.13   0.01   0.20
   110   1     0.02   0.09  -0.02    -0.05  -0.04   0.03     0.05   0.01  -0.03
   111   1    -0.01   0.03  -0.05     0.09  -0.07   0.02    -0.03  -0.02  -0.03
                      4                      5                      6
                      A                      A                      A
 Frequencies --     21.1623                27.6750                36.3797
 Red. masses --      4.5961                 4.0208                 3.8636
 Frc consts  --      0.0012                 0.0018                 0.0030
 IR Inten    --      0.3304                 0.1432                 0.6366
  Atom AN      X      Y      Z        X      Y      Z        X      Y      Z
     1   6    -0.01  -0.03  -0.07    -0.02   0.04  -0.02    -0.01   0.00   0.00
     2   6    -0.05  -0.04  -0.05    -0.02   0.04  -0.02    -0.01   0.04   0.00
     3   6    -0.05  -0.08  -0.09    -0.04   0.10   0.00    -0.00   0.04   0.01
     4   6    -0.02  -0.10  -0.12    -0.06   0.12   0.02     0.00   0.02   0.02
     5   6    -0.00  -0.08  -0.12    -0.05   0.09   0.00    -0.00   0.00   0.01
     6   6    -0.00   0.01  -0.06    -0.01   0.01  -0.03    -0.01  -0.01  -0.00
     7   6    -0.01   0.10  -0.00     0.02  -0.06  -0.06    -0.02  -0.03  -0.02
     8   6    -0.01   0.14  -0.01     0.03  -0.07  -0.06    -0.02  -0.04  -0.01
     9   6    -0.00   0.11  -0.05     0.01  -0.03  -0.04    -0.01  -0.04  -0.00
    10   6     0.00   0.05  -0.07    -0.01   0.00  -0.03    -0.01  -0.03   0.00
    11   1    -0.07  -0.03  -0.02    -0.00   0.02  -0.03    -0.01   0.05   0.00
    12   1    -0.01  -0.14  -0.16    -0.08   0.17   0.03     0.01   0.02   0.03
    13   1     0.02  -0.09  -0.15    -0.06   0.11   0.02     0.00  -0.01   0.02
    14   1    -0.01   0.12   0.03     0.04  -0.09  -0.07    -0.02  -0.02  -0.02
    15   1     0.00   0.14  -0.06     0.01  -0.04  -0.04    -0.01  -0.06  -0.00
    16   1     0.00   0.03  -0.10    -0.02   0.03  -0.01    -0.01  -0.03   0.01
    17   7    -0.03  -0.02  -0.04    -0.01   0.02  -0.03    -0.01   0.02  -0.00
    18   7    -0.00   0.04  -0.03     0.01  -0.02  -0.04    -0.02  -0.01  -0.01
    19  77    -0.01  -0.01  -0.01     0.00   0.00  -0.03    -0.01   0.01  -0.01
    20   8     0.04   0.04   0.05     0.07   0.03  -0.01    -0.10   0.00   0.04
    21   8    -0.02  -0.02  -0.01     0.03   0.04  -0.02    -0.02   0.03  -0.01
    22   8    -0.02   0.00  -0.01     0.03  -0.01   0.02     0.04  -0.01   0.01
[...]
 -0.00002362,-0.00000024,-0.00000927,-0.00000696,-0.00000722,0.00002349
 ,-0.00004686,-0.00067521,-0.00078366,0.00070247,0.00533657,0.00782530,
 -0.01302632,0.00931299,0.10408609,-0.29974695,-0.00180768,0.00124783,-
 0.00375462,0.00045627,0.00224585,0.00204999,-0.00000347,0.00000217,-0.
 00000032,0.00000445,0.00000388,-0.00000808,-0.00003055,0.00000355,0.00
 002752,0.00047668,-0.00098761,0.00016682,0.00067836,-0.00105516,0.0001
 1955,-0.00022641,0.00004547,-0.00018671,-0.00004798,0.00005225,-0.0000
 9677,-0.00432597,0.00110376,-0.00084004,0.00044275,0.00009646,0.000315
 73,-0.00002808,0.00007887,0.00000708,-0.00007468,-0.00002395,0.0002726
 3,-0.00003513,-0.00012862,0.00007175,0.00024477,0.00003015,-0.00027977
 ,0.00007477,-0.00015271,-0.00003672,0.00003878,0.00033601,-0.00006539,
 -0.00007466,-0.00014786,-0.00002533,-0.00004243,0.00007910,0.00004763,
 0.00000695,-0.00002725,0.00000257,0.00001925,-0.00003496,-0.00001382,0
 .00001184,0.00002331,0.00000961,0.00005836,0.00003951,-0.00002245,0.00
 002824,0.00003674,-0.00006244,0.00000373,-0.00000068,-0.00005744,-0.00
 008192,-0.00001528,0.00011706,-0.00000232,0.00000508,-0.00000006,0.000
 00069,-0.00000164,-0.00000008,0.00000174,-0.00000093,-0.00000154,-0.00
 000370,0.00000467,0.00000149,0.00000028,0.00000443,0.00000117,-0.00000
 306,-0.00000216,0.00000156,-0.00000013,-0.00000143,-0.00000146,-0.0000
 0038,0.00000496,0.00000045,-0.00000301,0.00000145,-0.00000574,-0.00000
 076,0.00000268,0.00000352,-0.00000518,0.00000052,-0.00000002,0.0000043
 0,0.00000302,0.00000327,-0.00000458,0.00000164,-0.00000639,0.00000031,
 -0.00000335,0.00001079,-0.00000140,0.00000556,-0.00000033,0.00000631,-
 0.00000665,-0.00000656,-0.00003166,0.00001048,-0.00001694,0.00000973,-
 0.00001308,0.00001916,0.00000654,-0.00000947,0.00000635,0.00000559,0.0
 0000320,-0.00000357,-0.00001677,0.00000453,-0.00001792,-0.00000897,0.0
 0000618,-0.00000438,0.00001444,0.00000358,0.00001299,-0.00001981,-0.00
 001508,0.00002705,-0.00000116,-0.00000032,0.00001017,-0.00000725,-0.00
 000011,0.00000377,0.00000407,-0.00000250,0.00000115,-0.00000105,-0.000
 00147,-0.00000448,0.00000194,-0.00000233,0.00001560,0.00000109,0.00000
 128,-0.00000980,0.00000690,-0.00000239,0.00000299,-0.00000743,0.000003
 54,0.00000489,-0.00000886,-0.00000907,0.00000476,-0.00000464,-0.000005
 99,-0.00000380,0.00000242,0.00000096,0.00000188,0.00000204,0.00000180,
 -0.00000114,-0.00000545,-0.00000406,0.00000390,0.00000467,0.00000420,-
 0.00000362,0.00000452,0.00000077,0.00000436,-0.00000673,-0.00000434,-0
 .00000011,0.00000192,-0.00000325,-0.00000417,-0.00000258,-0.00000074,0
 .00000284,0.00000036,-0.00000635,0.00000647,-0.00000100,0.00000219,-0.
 00000269,-0.00000608,-0.00000371,-0.00001137,-0.00000325,0.00000406,-0
 .00000218,0.00000070,-0.00000587,0.00000926,0.00000302,-0.00000528,0.0
 0000073,-0.00016782,-0.00001913,-0.00010883,-0.00011881,0.00012396,-0.
 00005553,0.00004610,-0.00013133,0.00007953,0.00008631,-0.00007544,-0.0
 0008144,-0.00001174,0.00010590,-0.00003569,0.00001248,-0.00002268,-0.0
 0001166,-0.00006603,0.00000449,0.00002250,0.00000218,0.00000074,0.0000
 1944,0.00002518,-0.00001463,-0.00001392,0.00010155,-0.00014921,0.00004
 424,-0.00006434,0.00009383,-0.00019874,0.00002065,-0.00000921,0.000045
 17,0.00006688,-0.00004103,-0.00002810,-0.00003251,0.00000487,-0.000024
 87,-0.00000485,0.00005769,0.00002609,-0.00001267,-0.00001760,0.0000143
 3,-0.00001665,-0.00003319,0.00001437,0.00000247,-0.00002622,-0.0000418
 5,0.00000749,0.00003421,0.00000833,0.00001234,-0.00001659,0.00000002,0
 .00000576,0.00002356,0.00001173,-0.00000838,-0.00000461,0.00000597,-0.
 00000600,-0.00001535,0.00000412,-0.00000209,-0.00000632,-0.00000177,0.
 00000516,-0.00000434,-0.00000063,-0.00000525,-0.00000112,0.00000251,0.
 00000230,0.00000726,0.00000097,-0.00980691,-0.11348707,0.31474229,-0.0
 0186822,-0.00070597,-0.00035427,0.00777987,-0.00380096,0.02172142,-0.0
 5729304,0.00019872,-0.03491401,0.00208232,0.00837976,-0.02465352,-0.00
 238951,-0.00423932,-0.00297057,-0.00016803,0.00058311,0.00032107,0.000
 01128,0.00003327,-0.00002611,0.00001754,0.00002666,-0.00000391,0.00003
 591,0.00002529,0.00005532,-0.00006079,-0.00005403,-0.00004208,-0.00021
 264,0.00159927,-0.00000067,0.00014099,0.00173711,0.00115255,0.00005614
 ,0.00032631,-0.00124316,-0.00000925,-0.00000177,-0.00000506,-0.0000025
 5,0.00000283,0.00000097,0.00006729,-0.00001984,0.00002003,-0.00137395,
 -0.00601147,0.00246036,-0.00003802,-0.00006352,-0.00000780,0.00045924,
 0.00027784,-0.00008325,-0.00006420,0.00014479,-0.00007915,-0.00002436,
 0.00001178,0.00005510,-0.00004239,-0.00009326,-0.00001286,-0.00001558,
 -0.00011965,-0.00006201,0.00011944,-0.00016343,0.00001816,-0.00002526,
 0.00012522,0.00017284,-0.00003096,-0.00002196,-0.00006524,-0.00001862,
 0.00006895,-0.00002587,0.00001214,-0.00002890,0.00002679,-0.00001499,-
 0.00007608,0.00002392,0.00003068,0.00000988,0.00001906,0.00001822,0.00
 000486,0.00000082,0.00001197,0.00000563,-0.00000371,0.00000719,-0.0000
 0705,-0.00001982,-0.00007218,0.00002134,0.00005207,0.00000334,0.000026
 75,0.00000215,-0.00000842,-0.00000198,-0.00000157,0.00000795,0.0000014
 1,-0.00000516,-0.00000673,-0.00000023,0.00000002,-0.00000950,-0.000007
 89,0.00000310,0.00003841,0.00001992,0.00003741,-0.00004300,0.00001501,
 -0.00000620,0.00001297,-0.00000403,-0.00002640,-0.00000303,0.00000388,
 -0.00000449,-0.00000005,0.00000412,0.00000331,0.00000241,-0.00000094,0
 .00000119,-0.00000205,-0.00000064,-0.00000384,0.00001470,0.00000643,-0
 .00001632,-0.00001360,-0.00001696,-0.00000654,0.00000323,0.00000785,0.
 00000720,-0.00000624,0.00000305,-0.00000006,-0.00000404,0.00000085,-0.
 00000003,0.00000035,-0.00000005,-0.00000040,-0.00000079,-0.00000114,0.
 00000146,0.00000271,0.00000170,-0.00000139,-0.00000418,-0.00000244,0.0
 0000059,0.00000048,0.00000154,0.00000016,-0.00000015,0.00000090,0.0000
 0284,0.00000007,-0.00000018,0.00000075,-0.00000037,0.00000298,0.000005
 98,-0.00000278,-0.00000130,0.00000063,-0.00000161,0.00000020,-0.000001
 22,0.00000125,0.00000113,-0.00000008,-0.00000254,0.00000061,0.00000685
 ,0.00000236,-0.00000129,0.00000225,-0.00000436,-0.00000086,-0.00000213
 ,-0.00000112,0.00000449,0.00000037,-0.00000021,-0.00000243,0.00000360,
 -0.00000002,-0.00000031,-0.00000234,-0.00000324,0.,-0.00000379,-0.0000
 0024,-0.00000033,0.00000117,-0.00000100,-0.00000219,0.00000624,0.00000
 335,0.00000080,0.00000139,-0.00000252,0.00000024,-0.00000451,-0.000001
 97,0.00000069,-0.00000104,-0.00000132,-0.00000168,-0.00000401,-0.00000
 196,-0.00000227,0.00000089,0.00000019,0.00000066,-0.00000050,-0.000000
 13,0.00000096,0.00000133,-0.00000773,-0.00000565,-0.00000734,0.0000005
 0,0.00000054,0.00000115,-0.00000070,0.00000127,-0.00000037,0.00000172,
 -0.00000478,-0.00000085,0.00001822,0.00000907,-0.00003698,-0.00000745,
 -0.00000159,-0.00001402,0.00000929,0.00001213,0.00004355,0.00000013,0.
 00000276,0.00000367,0.00000142,-0.00000392,0.00000461,0.00000177,0.000
 00271,-0.00000008,0.00001906,0.00003857,-0.00005090,0.00002543,-0.0000
 2090,-0.00000386,-0.00000949,-0.00000343,0.00000757,0.00000664,0.00001
 874,-0.00000534,-0.00000300,-0.00000178,-0.00000686,0.00000045,-0.0000
 0052,0.00000177,0.00000377,-0.00000093,0.00000192,-0.00000358,0.000000
 87,-0.00000241,0.00000372,-0.00002201,-0.00000071,-0.00000407,0.000008
 39,0.00000169,0.00000427,0.00000263,-0.00000140,0.00000204,0.00000373,
 -0.00000149,-0.00000101,-0.00000040,0.00000534,-0.00000203,0.00000233,
 -0.00000148,0.00000295,-0.00000705,-0.00000248,-0.00000224,0.00000391,
 0.00000255,0.00000196,0.00000221,-0.00000172,0.00000009,0.00000153,0.0
 0000028,-0.00000021,0.00000081,-0.00000067,-0.00000132,-0.00000084,-0.
 00000065,0.00000002,0.00000004,0.00000219,0.00001776,-0.00001448,-0.00
 000718,0.05282932,-0.00089432,-0.00061413,-0.00055390,0.00555714,-0.00
 153651,0.01548497,0.00005071,-0.06312663,0.07965221,-0.00069707,0.0054
 2913,-0.00922058,-0.00415397,0.00484859,0.00065084,0.00064936,-0.00098
 777,-0.00028803,0.00001714,-0.00000710,-0.00006827,0.00004520,-0.00000
 524,0.00000650,0.00002894,-0.00004300,0.00002686,-0.00007435,0.0000284
 3,0.00000229,0.00129050,-0.00202695,-0.00116734,0.00191832,-0.00247706
 ,-0.00079184,-0.00013008,0.00030092,-0.00044473,-0.00000821,0.00000111
 ,0.00000109,0.00000456,-0.00000624,0.00000210,-0.00001217,0.00006695,0
 .00002553,-0.00572616,0.00366119,0.00384774,-0.00002530,0.00005471,0.0
 0009480,0.00039517,0.00022186,-0.00015511,0.00001234,-0.00005777,-0.00
 004902,-0.00002936,-0.00000716,0.00006359,-0.00003564,-0.00010708,-0.0
 0002562,0.00001838,-0.00005844,-0.00011527,0.00011561,-0.00005474,-0.0
 0000622,-0.00003176,0.00017014,0.00016183,-0.00002402,-0.00005071,-0.0
 0008109,-0.00001762,-0.00001251,0.00002262,0.00000350,-0.00001099,-0.0
 0001781,-0.00000250,0.00008884,-0.00002378,0.00002608,0.00002048,0.000
 02666,0.00001483,0.00001651,0.00000814,0.00001675,0.00001347,-0.000011
 63,0.00000697,0.00000551,-0.00001854,-0.00007834,0.00000092,0.00005480
 ,-0.00000039,-0.00002353,0.00001512,0.00000138,0.00000402,-0.00000228,
 -0.00000821,-0.00000292,0.00000384,0.00000390,-0.00000008,-0.00000271,
 0.00005439,-0.00002164,0.00001685,-0.00005458,0.00003283,-0.00002310,0
 .00001396,0.00000382,0.00000031,-0.00001048,0.00000003,0.00000709,0.00
 000032,0.00000195,-0.00000181,0.00000075,-0.00000156,-0.00000145,-0.00
 000208,-0.00000139,0.00000014,0.00000164,-0.00000054,0.00000225,-0.000
 00457,0.00001084,0.00000658,-0.00000908,0.00001307,0.00000157,0.000003
 18,-0.00001030,-0.00000988,-0.00000178,-0.00000153,0.00000771,-0.00000
 267,-0.00000095,0.00000164,0.00000142,-0.00000018,0.00000098,-0.000002
 14,-0.00000194,0.00000177,0.00000086,0.00000252,-0.00000107,-0.0000036
 1,-0.00000144,0.00000140,-0.00000007,-0.00000091,-0.00000145,-0.000001
 73,0.00000075,0.00000257,0.00000191,-0.00000053,0.00000105,-0.00000052
 ,0.00000181,0.00000395,-0.00000295,-0.00000132,0.00000119,-0.00000075,
 0.00000136,-0.00000071,0.00000045,-0.00000276,-0.00000017,-0.00000198,
 -0.00000256,0.00000662,-0.00000007,-0.00000024,-0.00000358,0.00000203,
 0.00000090,-0.00000017,-0.00000173,0.00000196,0.00000290,-0.00000269,-
 0.00000143,0.00000233,0.00000092,-0.00000069,-0.00000412,-0.00000728,0
 .00000214,-0.00000338,0.00000445,-0.00000553,0.00000303,-0.00000077,-0
 .00000441,0.00000242,0.00000525,0.00000268,0.00000033,-0.00000204,0.00
 000230,-0.00000114,-0.00000185,-0.00000084,-0.00000049,-0.00000243,-0.
 00000299,-0.00000434,-0.00000286,-0.00000321,0.,-0.00000003,0.00000161
 ,-0.00000017,0.00000285,0.00000005,0.00000061,-0.00000643,-0.00000895,
 -0.00000399,0.00000287,0.00000302,0.00000119,-0.00000028,0.00000156,-0
 .00000092,-0.00000041,-0.00000646,-0.00000097,0.00002082,0.00000948,-0
 .00003283,-0.00007431,-0.00003062,0.00003373,0.00005341,-0.00001518,-0
 .00010666,-0.00000324,0.00001125,0.00000406,0.00000273,0.00000103,-0.0
 0000424,0.00000107,0.00000011,-0.00000006,0.00001061,-0.00003346,-0.00
 008310,-0.00000856,-0.00001285,0.00006398,0.00000531,-0.00002396,0.000
 01192,0.00006165,-0.00001629,0.00001200,0.00000243,0.00001336,0.000006
 11,0.00000078,-0.00000351,-0.00000185,-0.00000344,-0.00000110,0.000002
 30,-0.00000046,0.00000271,-0.00000076,-0.00000237,-0.00000390,0.000007
 93,0.00000536,-0.00000465,-0.00000242,-0.00000207,-0.00000129,0.000003
 94,0.00000233,0.00000292,0.00000037,0.00000020,-0.00000138,-0.00000533
 ,-0.00000063,0.00000036,-0.00000034,-0.00000112,0.00000043,0.00000332,
 0.00000221,-0.00000192,-0.00000233,0.00000021,0.00000100,0.00000120,0.
 00000116,0.00000061,0.00000037,-0.00000044,0.00000005,-0.00000007,-0.0
 0000042,0.00000022,0.00000049,0.00000028,-0.00000042,-0.00000225,-0.00
 001383,0.00003582,0.00001571,0.00174361,0.05635411,0.00031617,-0.00022
 031,0.00084187,-0.00483001,0.00071594,-0.00872756,-0.03441921,0.080072
 77,-0.31621046,0.00112825,0.00489089,-0.00975152,-0.00329747,0.0003582
 4,0.00110980,0.00019435,-0.00036722,-0.00011061,-0.00000213,-0.0000149
 9,0.00000368,0.00000945,0.00000340,-0.00001654,0.00001191,-0.00001332,
 0.00001102,-0.00004184,0.00002578,-0.00005121,0.00048828,-0.00084491,0
 .00003151,0.00063815,-0.00108001,0.00031105,0.00014806,0.00031224,-0.0
 0045176,-0.00000667,0.00000145,-0.00000228,-0.00000286,-0.00000213,-0.
 00000773,0.00002346,0.00002687,0.00003459,0.00134378,0.00331801,0.0006
 0193,0.00002824,0.00008042,-0.00006261,-0.00026981,-0.00028600,0.00008
 826,0.00006415,-0.00023627,0.00011923,0.00007705,-0.00000596,-0.000093
 78,0.00007563,0.00014002,0.00000744,-0.00009414,0.00012344,0.00011944,
 -0.00016420,0.00028337,-0.00003868,-0.00004719,-0.00023748,-0.00018350
 ,0.00006526,0.00006766,0.00008470,0.00003941,-0.00013227,0.00003123,-0
 .00002352,0.00004066,-0.00004740,-0.00000279,0.00014106,-0.00004463,-0
 .00004429,-0.00003077,-0.00002898,-0.00004115,-0.00002639,0.00000038,-
 0.00003964,-0.00001496,0.00002188,-0.00002070,0.00001370,0.00003725,0.
 00012723,-0.00002192,-0.00007284,-0.00000220,-0.00004132,0.00001371,0.
 00000902,0.00000554,0.00000183,-0.00001643,-0.00000281,0.00000758,0.00
 000994,-0.00000320,-0.00000390,0.00004782,-0.00000456,0.00001846,-0.00
 002896,-0.00002855,-0.00008018,0.00004316,-0.00001086,0.00000932,-0.00
 002173,0.00000130,0.00002557,0.00000886,-0.00000204,0.00000495,0.00000
 121,-0.00000999,-0.00000395,-0.00000067,0.00000063,-0.00000303,0.00000
 140,0.00000241,0.00000646,-0.00000345,0.00000666,0.00003340,-0.0000160
 2,0.00002568,-0.00002312,0.00000364,-0.00002489,-0.00001653,0.00000095
 ,-0.00000006,0.00001786,0.00000684,0.00000099,-0.00000269,-0.00000075,
 -0.00000165,0.00000143,0.00000442,0.00000283,-0.00000351,-0.00000315,-
 0.00000297,0.00000218,0.00000654,0.00000383,-0.00000415,-0.00000233,-0
 .00000051,0.00000046,0.00000393,-0.00000085,-0.00000503,-0.00000166,-0
 .00000129,0.00000121,0.00000291,-0.00000448,-0.00000643,0.00000404,0.0
 0000176,-0.00000301,0.00000260,-0.00000018,0.00000300,-0.00000225,-0.0
 0000124,0.00000053,0.00000351,-0.00000269,-0.00000919,-0.00000404,0.00
 000363,-0.00000219,0.00000574,0.00000109,0.00000414,0.00000239,-0.0000
 0573,-0.00000289,0.00000466,0.00000296,-0.00000193,0.00000168,0.000003
 45,0.00000243,0.00000263,-0.00000184,0.00000400,-0.00000166,0.00000059
 ,-0.00000231,0.00000449,0.00000368,-0.00000455,-0.00000621,-0.00000061
 ,-0.00000148,0.00000041,-0.00000110,0.00000392,0.00000545,0.00000193,-
 0.00000003,0.00000196,0.00000428,0.00000385,0.00000397,0.00000407,0.00
 000029,-0.00000055,-0.00000096,-0.00000104,-0.00000106,-0.00000170,-0.
 00000127,0.00000878,0.00001141,0.00000929,-0.00000008,-0.00000380,-0.0
 0000367,-0.00000052,-0.00000267,0.00000007,0.00000079,0.00000845,0.000
 00192,-0.00000766,-0.00000123,0.00003379,0.00002756,-0.00000389,-0.000
 00899,-0.00002932,0.00003586,0.00002870,-0.00000209,-0.00000364,-0.000
 00732,-0.00000107,-0.00000377,0.00000082,0.,0.00000468,-0.00000044,-0.
 00000066,-0.00002817,0.00004830,-0.00001520,0.00000963,-0.00001664,-0.
 00000339,0.00001985,-0.00000511,-0.00002913,0.00000197,0.00001203,-0.0
 0000182,-0.00001527,0.00000976,-0.00000135,0.00000756,0.00000200,-0.00
 000106,-0.00000131,-0.00000156,-0.00000044,-0.00000276,0.00000368,0.00
 000558,-0.00001998,-0.00000296,-0.00000348,0.00000539,0.00000205,0.000
 00440,0.00000493,0.00000060,0.00000195,0.00000072,0.00000063,-0.000000
 56,-0.00000057,0.00000432,-0.00000271,0.00000395,-0.00000175,0.0000034
 2,-0.00000392,-0.00000349,-0.00000181,0.00000186,0.00000197,0.00000143
 ,0.00000286,-0.00000071,-0.00000056,-0.00000006,0.00000193,-0.00000002
 ,0.00000189,-0.00000112,-0.00000360,-0.00000136,-0.00000050,0.00000093
 ,0.00000010,0.00000055,-0.00000472,0.00001555,-0.00000221,0.03854417,-
 0.08704653,0.33235674\\0.00000234,0.00000182,-0.00000105,0.00000001,0.
 00000005,0.00000713,-0.00000231,0.00000116,-0.00000124,0.00000130,0.00
 000091,0.00000694,-0.00000559,-0.00000031,-0.00000468,-0.00000767,-0.0
 0000173,-0.00000339,-0.00000867,-0.00000483,-0.00000203,-0.00000126,0.
 00000014,0.00000034,0.00000815,0.00000446,-0.00000268,-0.00000101,-0.0
 0000349,0.00000759,-0.00000094,0.00000048,-0.00000010,-0.00000029,0.00
 000182,0.00000020,0.00000108,0.00000170,0.00000199,0.00000406,0.000001
 72,-0.00000079,-0.00000255,-0.00000104,-0.00000169,0.00000110,0.000002
 06,0.00000025,0.00000116,0.00000359,-0.00000365,0.00000519,0.00000194,
 0.00000194,-0.00000134,-0.00000340,-0.00000480,-0.00000164,-0.00000017
 ,0.00000173,0.00000207,-0.00000221,0.00000185,-0.00000039,-0.00000091,
 0.00000285,0.00000258,-0.00000061,0.00000087,0.00000019,0.00000377,-0.
 00000189,0.00000024,0.00000214,-0.00000187,-0.00000271,-0.00000278,0.0
 0000158,-0.00000174,0.00000363,0.00000155,0.00000464,-0.00000432,0.000
 00315,-0.00000132,-0.00000502,-0.00000015,0.00000376,0.00000355,-0.000
 00263,0.00000176,0.00000113,-0.00000476,-0.00000099,0.00000011,0.00000
 314,-0.00000557,0.00000006,-0.00000366,-0.00000231,-0.00000129,-0.0000
 0179,-0.00000086,-0.00000613,0.00000851,-0.00000260,-0.00000054,-0.000
 00290,0.00000136,0.00000231,-0.00000183,-0.00000197,0.00000312,0.00000
 230,-0.00000119,0.00000480,-0.00000091,-0.00000047,0.00000008,0.000002
 20,-0.00000085,0.00000047,0.00000321,-0.00000109,-0.00000089,0.0000012
 5,-0.00000318,0.00000275,0.00000253,-0.00000101,-0.00000331,0.00000263
 ,-0.00000011,-0.00000095,0.00000156,-0.00000070,-0.00000076,0.00000138
 ,-0.00000283,-0.00000064,0.00000281,-0.00000012,-0.00000054,-0.0000002
 7,-0.00000108,0.00000185,0.00000094,-0.00000032,-0.00000075,0.00000227
 ,0.00000355,-0.00000507,0.00000031,-0.00000100,-0.00000044,-0.00000116
 ,0.00000109,-0.00000079,-0.00000144,-0.00000065,0.00000038,0.00000070,
 -0.00000221,-0.00000579,0.00000194,0.00000026,-0.00000050,0.00000011,0
 .00000318,-0.00000173,-0.00000125,-0.00000059,-0.00000068,-0.00000086,
 0.00000081,0.00000515,0.00000053,0.00000030,-0.00000234,-0.00000077,0.
 00000211,-0.00000210,0.00000277,0.00000070,-0.00000529,-0.00000159,-0.
 00000248,-0.00000511,0.00000692,0.00000270,0.00000129,0.00000041,-0.00
 000172,-0.00000070,-0.00000052,0.00000120,-0.00000156,-0.00000246,-0.0
 0000134,0.00000471,-0.00000170,-0.00000038,-0.00000067,-0.00000084,0.0
 0000150,-0.00000037,0.00000071,0.00000249,-0.00000025,-0.00000179,-0.0
 0000024,-0.00000367,0.00000250,0.00000008,0.00000006,0.00000067,-0.000
 00014,0.00000156,-0.00000334,0.00000134,0.00000124,-0.00000067,-0.0000
 0085,0.00000170,0.00000520,-0.00000035,-0.00000245,-0.00000266,-0.0000
 0029,0.00000045,-0.00000388,0.00000296,-0.00000290,-0.00000149,-0.0000
 0140,-0.00000548,-0.00000723,-0.00000012,0.00000037,0.00000044,0.00000
 269,0.00000027,-0.00000022,0.00000275,0.00000372,0.00000002,0.00000114
 ,0.00000032,0.00000162,-0.00000028,0.00000546,-0.00000358,-0.00000016,
 -0.00000224,0.00000335,0.00000374,-0.00000295,-0.00000401,-0.00000066,
 0.00000052,0.00000098,-0.00000027,0.00000172,-0.00000014,0.00000015,-0
 .00000140,0.00000053,0.00000151,0.00000082,-0.00000025,0.00000166,0.00
 000207,-0.00000176,-0.00000278,0.00000186,-0.00000070,0.00000302,-0.00
 000058,-0.00000245,-0.00000086,-0.00000049,-0.00000176,-0.00000026,0.0
 0000149,0.00000025,0.00000149,-0.00000032,-0.00000014,-0.00000245,0.00
 000852,-0.00000360,-0.00000028,0.00000093,0.00000001,0.00000078,-0.000
 00245,-0.00000001,0.00000528,0.00000006,0.00000170,-0.00000036,0.00000
 095,-0.00000040,0.00000078,0.00000025,-0.00000146,-0.00000326,-0.00000
 185,-0.00000407,0.00000015,0.00000218,0.00000082,0.00000057,0.00000217
 ,-0.00000065,-0.00000158,0.00000322,0.00000202,0.00000153,0.00000008,-
 0.00000166,0.00000083,0.00000093,-0.00000076,0.00000061,0.00000029,-0.
 00000131,0.00000033,-0.00000172,0.00000176,-0.00000065,0.00000216,0.00
 000037\\\@
 The archive entry for this job was punched.


 A great many people think they are thinking when they
 are merely rearranging their prejudices.
                               -- William James
 Job cpu time:       1 days 20 hours 10 minutes 38.8 seconds.
 Elapsed time:       0 days  2 hours 48 minutes 44.8 seconds.
 File lengths (MBytes):  RWF=   8594 Int=      0 D2E=      0 Chk=     49 Scr=      1
 Normal termination of Gaussian 16 at Sun Dec  8 00:23:10 2024.
