/mnt/lustre/scratch/nvme/SLURM/9663746/usccqdma.dwlVjIAKaO
OMP_STACKSIZE=0m
GAUSS_PDEF=16
GAUSS_MDEF=65536MB
GAUSS_RDEF=SCF=Direct
 Entering Gaussian System, Link 0=g16.exe
 Initial command:
 /opt/cesga/2020/software/Core/g16/c1/l1.exe "/mnt/lustre/scratch/nvme/SLURM/9663746/usccqdma.dwlVjIAKaO/Gau-2413562.inp" -scrdir="/mnt/lustre/scratch/nvme/SLURM/9663746/usccqdma.dwlVjIAKaO/"
 Default is to use a total of  16 processors:
                               16 via shared-memory
                                1 via Linda
 Entering Link 1 = /opt/cesga/2020/software/Core/g16/c1/l1.exe PID=   2413593.
  
 Copyright (c) 1988-2019, Gaussian, Inc.  All Rights Reserved.
  
 This is part of the Gaussian(R) 16 program.  It is based on
 the Gaussian(R) 09 system (copyright 2009, Gaussian, Inc.),
 the Gaussian(R) 03 system (copyright 2003, Gaussian, Inc.),
 the Gaussian(R) 98 system (copyright 1998, Gaussian, Inc.),
 the Gaussian(R) 94 system (copyright 1995, Gaussian, Inc.),
 the Gaussian 92(TM) system (copyright 1992, Gaussian, Inc.),
 the Gaussian 90(TM) system (copyright 1990, Gaussian, Inc.),
 the Gaussian 88(TM) system (copyright 1988, Gaussian, Inc.),
 the Gaussian 86(TM) system (copyright 1986, Carnegie Mellon
 University), and the Gaussian 82(TM) system (copyright 1983,
 Carnegie Mellon University). Gaussian is a federally registered
 trademark of Gaussian, Inc.
  
 This software contains proprietary and confidential information,
 including trade secrets, belonging to Gaussian, Inc.
  
 This software is provided under written license and may be
 used, copied, transmitted, or stored only in accord with that
 written license.
  
 The following legend is applicable only to US Government
 contracts under FAR:
  
                    RESTRICTED RIGHTS LEGEND
  
 Use, reproduction and disclosure by the US Government is
 subject to restrictions as set forth in subparagraphs (a)
 and (c) of the Commercial Computer Software - Restricted
 Rights clause in FAR 52.227-19.
  
 Gaussian, Inc.
 340 Quinnipiac St., Bldg. 40, Wallingford CT 06492
  
  
 ---------------------------------------------------------------
 Warning -- This program may not be used in any manner that
 competes with the business of Gaussian, Inc. or will provide
 assistance to any competitor of Gaussian, Inc.  The licensee
 of this program is prohibited from giving any competitor of
 Gaussian, Inc. access to this program.  By using this program,
 the user acknowledges that Gaussian, Inc. is engaged in the
 business of creating and licensing software in the field of
 computational chemistry and represents and warrants to the
 licensee that it is not a competitor of Gaussian, Inc. and that
 it will not use this program in any manner prohibited above.
 ---------------------------------------------------------------
  

 Cite this work as:
 Gaussian 16, Revision C.01,
 M. J. Frisch, G. W. Trucks, H. B. Schlegel, G. E. Scuseria, 
 M. A. Robb, J. R. Cheeseman, G. Scalmani, V. Barone, 
 G. A. Petersson, H. Nakatsuji, X. Li, M. Caricato, A. V. Marenich, 
 J. Bloino, B. G. Janesko, R. Gomperts, B. Mennucci, H. P. Hratchian, 
 J. V. Ortiz, A. F. Izmaylov, J. L. Sonnenberg, D. Williams-Young, 
 F. Ding, F. Lipparini, F. Egidi, J. Goings, B. Peng, A. Petrone, 
 T. Henderson, D. Ranasinghe, V. G. Zakrzewski, J. Gao, N. Rega, 
 G. Zheng, W. Liang, M. Hada, M. Ehara, K. Toyota, R. Fukuda, 
 J. Hasegawa, M. Ishida, T. Nakajima, Y. Honda, O. Kitao, H. Nakai, 
 T. Vreven, K. Throssell, J. A. Montgomery, Jr., J. E. Peralta, 
 F. Ogliaro, M. J. Bearpark, J. J. Heyd, E. N. Brothers, K. N. Kudin, 
 V. N. Staroverov, T. A. Keith, R. Kobayashi, J. Normand, 
 K. Raghavachari, A. P. Rendell, J. C. Burant, S. S. Iyengar, 
 J. Tomasi, M. Cossi, J. M. Millam, M. Klene, C. Adamo, R. Cammi, 
 J. W. Ochterski, R. L. Martin, K. Morokuma, O. Farkas, 
 J. B. Foresman, and D. J. Fox, Gaussian, Inc., Wallingford CT, 2019.
 
 ******************************************
 Gaussian 16:  ES64L-G16RevC.01  3-Jul-2019
                 7-Dec-2024 
 ******************************************
 Default route: SCF=Direct
 ----------------------------------------------------
 # m06/genecp scf=tight int=ultrafine 5d freq=noraman
 ----------------------------------------------------
 1/10=4,30=1,38=1/1,3;
 2/12=2,17=6,18=5,40=1/2;
 3/5=7,8=1,11=2,16=1,17=8,25=1,30=1,71=2,74=-54,75=-5,140=1/1,2,3;
 4//1;
 5/5=2,32=2,38=5,98=1/2;
 8/6=4,10=90,11=11/1;
 11/6=1,8=1,9=11,15=111,16=1/1,2,10;
 10/6=1/2;
 6/7=2,8=2,9=2,10=2,28=1/1;
 7/8=1,10=1,25=1/1,2,3,16;
 1/10=4,30=1/3;
 99//99;
 ------
 OPT-TS
 ------
 Symbolic Z-matrix:
 Charge =  0 Multiplicity = 1
 C                     2.76527  -1.99073   0.78973 
 C                     2.49065  -0.02104   1.98846 
 C                     3.46979  -0.38159   2.89958 
 C                     4.11225  -1.60507   2.74222 
 C                     3.7508   -2.41879   1.68171 
 C                     2.30896  -2.82683  -0.33599 
 C                     0.669    -3.17316  -1.938 
 C                     1.30081  -4.31229  -2.41421 
 C                     2.49667  -4.705    -1.82249 
 C                     3.00516  -3.95667  -0.77243 
 H                     1.92666   0.90921   2.07808 
 H                     4.87578  -1.92908   3.4466 
 H                     4.21171  -3.39597   1.5627 
 H                    -0.27871  -2.81861  -2.34298 
 H                     3.03115  -5.58412  -2.17689 
 H                     3.94815  -4.23773  -0.31024 
 N                     2.15313  -0.797     0.94725 
 N                     1.16037  -2.44409  -0.92994 
 Ir                    0.40801  -0.36601  -0.36379 
 O                    -0.43488   2.5521   -0.63212 
 O                    -2.05668  -0.3393    1.55762 
 O                    -2.08441  -1.71445  -1.4173 
 B                    -0.75074  -0.75723   1.32586 
 B                    -0.02722   1.53068   0.20199 
 B                    -1.50831  -0.47785  -1.11096 
 O                    -2.35075   0.54934  -1.48824 
 O                     0.11936   2.01619   1.50954 
 C                    -0.07595   3.44325   1.48175 
 C                    -0.90915   3.6291    0.18305 
 C                    -3.21295  -1.46373  -2.27008 
 C                    -3.60891  -0.01063  -1.87826 
 C                    -2.50916  -0.92956   2.78401 
 C                    -1.17173  -1.20036   3.5287 
 O                    -0.26251  -1.43219   2.43984 
 C                    -2.39964   3.39287   0.39961 
 H                    -2.87013   4.21854   0.95163 
 H                    -2.87976   3.30486  -0.58347 
 H                    -2.57724   2.44881   0.93622 
 C                    -0.67345   4.93375  -0.55177 
 H                     0.35927   5.00829  -0.91342 
 H                    -1.3353    4.983    -1.42635 
 H                    -0.89878   5.79712   0.09152 
 C                    -0.77403   3.86118   2.76006 
 H                    -1.68939   3.28044   2.92667 
 H                    -0.10805   3.70003   3.61893 
 H                    -1.03685   4.92851   2.73199 
 C                     1.29683   4.09357   1.39637 
 H                     1.92962   3.70228   2.20567 
 H                     1.77888   3.88074   0.434 
 H                     1.23646   5.18465   1.50818 
 C                    -3.44333   0.04548   3.47139 
 H                    -3.75839  -0.33235   4.45498 
 H                    -2.96949   1.02498   3.60591 
 H                    -4.34299   0.19029   2.85815 
 C                    -3.2537   -2.20931   2.42241 
 H                    -2.59767  -2.90664   1.88461 
 H                    -3.66128  -2.71383   3.30891 
 H                    -4.09349  -1.96213   1.75973 
 C                    -0.65147   0.01509   4.28578 
 H                    -1.25633   0.23723   5.17563 
 H                     0.37615  -0.19422   4.61346 
 H                    -0.62264   0.89969   3.63494 
 C                    -1.17837  -2.41421   4.4356 
 H                    -1.38849  -3.33478   3.88017 
 H                    -0.19541  -2.52483   4.91156 
 H                    -1.92918  -2.30405   5.2317 
 C                    -4.18025   0.82205  -3.00972 
 H                    -3.46348   0.9383   -3.83041 
 H                    -5.10224   0.37127  -3.40507 
 H                    -4.42646   1.82508  -2.63796 
 C                    -4.5355    0.05353  -0.67224 
 H                    -5.54901  -0.29418  -0.91481 
 H                    -4.13138  -0.53745   0.15744 
 H                    -4.59755   1.09589  -0.33271 
 C                    -4.2751   -2.51151  -2.00812 
 H                    -5.18604  -2.30009  -2.58664 
 H                    -3.90552  -3.50094  -2.30768 
 H                    -4.53719  -2.55829  -0.94521 
 C                    -2.71297  -1.57326  -3.70638 
 H                    -1.91749  -0.83925  -3.90332 
 H                    -2.29711  -2.57785  -3.86385 
 H                    -3.51606  -1.42287  -4.43997 
 H                     0.20115   0.17574  -1.89533 
 C                     2.60441   2.63495  -1.8481 
 O                     2.47652   3.83457  -2.0705 
 C                     3.64885   2.15884  -0.8558 
 H                     3.86025   3.02119  -0.21218 
 H                     3.26794   1.35415  -0.21253 
 C                     1.83143   0.28998  -2.14776 
 H                     1.7234   -0.32335  -3.05552 
 H                     2.75735  -0.02922  -1.66088 
 N                     1.88988   1.67765  -2.52175 
 C                     0.85724   2.10973  -3.44122 
 H                    -0.13793   1.91563  -3.01016 
 H                     0.96494   3.18398  -3.60535 
 H                     0.95715   1.572    -4.39517 
 C                     4.92933   1.73413  -1.56972 
 H                     4.76649   0.86695  -2.22352 
 H                     5.30117   2.55528  -2.19588 
 H                     0.86264  -4.87452  -3.23499 
 H                     3.71153   0.28532   3.72331 
 H                     5.71627   1.47352  -0.8513 
 

 GradGradGradGradGradGradGradGradGradGradGradGradGradGradGradGradGradGrad
 Berny optimization.
 Initialization pass.
 Trust Radius=3.00D-01 FncErr=1.00D-07 GrdErr=1.00D-07 EigMax=2.50D+02 EigMin=1.00D-04
 Number of steps in this run=      2 maximum allowed number of steps=      2.
 GradGradGradGradGradGradGradGradGradGradGradGradGradGradGradGradGradGrad

 Stoichiometry    C33H55B3IrN3O7
 Framework group  C1[X(C33H55B3IrN3O7)]
 Deg. of freedom   300
 Full point group                 C1      NOp   1
 Largest Abelian subgroup         C1      NOp   1
 Largest concise Abelian subgroup C1      NOp   1
                         Standard orientation:                         
 ---------------------------------------------------------------------
 Center     Atomic      Atomic             Coordinates (Angstroms)
 Number     Number       Type             X           Y           Z
 ---------------------------------------------------------------------
      1          6           0        2.765271   -1.990730    0.789730
      2          6           0        2.490650   -0.021040    1.988460
      3          6           0        3.469790   -0.381590    2.899580
      4          6           0        4.112250   -1.605069    2.742220
      5          6           0        3.750801   -2.418789    1.681710
      6          6           0        2.308961   -2.826830   -0.335990
      7          6           0        0.669001   -3.173161   -1.938000
      8          6           0        1.300811   -4.312290   -2.414210
      9          6           0        2.496672   -4.705000   -1.822490
     10          6           0        3.005161   -3.956670   -0.772430
     11          1           0        1.926659    0.909210    2.078080
     12          1           0        4.875781   -1.929079    3.446600
     13          1           0        4.211711   -3.395969    1.562700
     14          1           0       -0.278709   -2.818611   -2.342980
     15          1           0        3.031152   -5.584120   -2.176890
     16          1           0        3.948151   -4.237729   -0.310240
     17          7           0        2.153130   -0.797000    0.947250
     18          7           0        1.160371   -2.444091   -0.929940
     19         77           0        0.408010   -0.366011   -0.363790
     20          8           0       -0.434881    2.552099   -0.632120
     21          8           0       -2.056680   -0.339302    1.557620
     22          8           0       -2.084410   -1.714452   -1.417300
     23          5           0       -0.750740   -0.757231    1.325860
     24          5           0       -0.027221    1.530679    0.201990
     25          5           0       -1.508310   -0.477852   -1.110960
     26          8           0       -2.350750    0.549338   -1.488240
     27          8           0        0.119359    2.016189    1.509540
     28          6           0       -0.075952    3.443249    1.481750
     29          6           0       -0.909152    3.629099    0.183050
     30          6           0       -3.212950   -1.463732   -2.270080
     31          6           0       -3.608910   -0.010632   -1.878260
     32          6           0       -2.509160   -0.929562    2.784010
     33          6           0       -1.171730   -1.200361    3.528700
     34          8           0       -0.262510   -1.432191    2.439840
     35          6           0       -2.399642    3.392868    0.399610
     36          1           0       -2.870132    4.218538    0.951630
     37          1           0       -2.879762    3.304858   -0.583470
     38          1           0       -2.577241    2.448808    0.936220
     39          6           0       -0.673452    4.933749   -0.551770
     40          1           0        0.359268    5.008289   -0.913420
     41          1           0       -1.335302    4.982998   -1.426350
     42          1           0       -0.898783    5.797119    0.091520
     43          6           0       -0.774032    3.861179    2.760060
     44          1           0       -1.689392    3.280438    2.926670
     45          1           0       -0.108052    3.700029    3.618930
     46          1           0       -1.036852    4.928509    2.731990
     47          6           0        1.296828    4.093570    1.396370
     48          1           0        1.929618    3.702280    2.205670
     49          1           0        1.778878    3.880740    0.434000
     50          1           0        1.236458    5.184650    1.508180
     51          6           0       -3.443330    0.045478    3.471390
     52          1           0       -3.758390   -0.332352    4.454980
     53          1           0       -2.969491    1.024978    3.605910
     54          1           0       -4.342990    0.190287    2.858150
     55          6           0       -3.253699   -2.209312    2.422410
     56          1           0       -2.597669   -2.906642    1.884610
     57          1           0       -3.661279   -2.713832    3.308910
     58          1           0       -4.093489   -1.962133    1.759730
     59          6           0       -0.651470    0.015089    4.285780
     60          1           0       -1.256330    0.237229    5.175630
     61          1           0        0.376150   -0.194221    4.613460
     62          1           0       -0.622641    0.899689    3.634940
     63          6           0       -1.178369   -2.414211    4.435600
     64          1           0       -1.388489   -3.334782    3.880170
     65          1           0       -0.195409   -2.524831    4.911560
     66          1           0       -1.929179   -2.304052    5.231700
     67          6           0       -4.180251    0.822047   -3.009720
     68          1           0       -3.463481    0.938298   -3.830410
     69          1           0       -5.102240    0.371267   -3.405070
     70          1           0       -4.426461    1.825077   -2.637960
     71          6           0       -4.535500    0.053527   -0.672240
     72          1           0       -5.549010   -0.294183   -0.914810
     73          1           0       -4.131380   -0.537453    0.157440
     74          1           0       -4.597551    1.095887   -0.332710
     75          6           0       -4.275099   -2.511513   -2.008120
     76          1           0       -5.186039   -2.300093   -2.586640
     77          1           0       -3.905519   -3.500943   -2.307680
     78          1           0       -4.537189   -2.558293   -0.945210
     79          6           0       -2.712970   -1.573262   -3.706380
     80          1           0       -1.917490   -0.839252   -3.903320
     81          1           0       -2.297109   -2.577852   -3.863850
     82          1           0       -3.516060   -1.422872   -4.439970
     83          1           0        0.201150    0.175739   -1.895330
     84          6           0        2.604409    2.634950   -1.848100
     85          8           0        2.476518    3.834570   -2.070500
     86          6           0        3.648849    2.158840   -0.855800
     87          1           0        3.860249    3.021191   -0.212180
     88          1           0        3.267939    1.354150   -0.212530
     89          6           0        1.831430    0.289980   -2.147760
     90          1           0        1.723400   -0.323350   -3.055520
     91          1           0        2.757350   -0.029220   -1.660880
     92          7           0        1.889879    1.677650   -2.521750
     93          6           0        0.857239    2.109729   -3.441220
     94          1           0       -0.137931    1.915629   -3.010160
     95          1           0        0.964938    3.183979   -3.605350
     96          1           0        0.957149    1.571999   -4.395170
     97          6           0        4.929329    1.734131   -1.569720
     98          1           0        4.766489    0.866951   -2.223520
     99          1           0        5.301169    2.555281   -2.195880
    100          1           0        0.862642   -4.874521   -3.234990
    101          1           0        3.711530    0.285321    3.723310
    102          1           0        5.716269    1.473521   -0.851300
 ---------------------------------------------------------------------
 Rotational constants (GHZ):           0.0727161           0.0692845           0.0635650
 General basis read from cards:  (5D, 7F)
 ======================================================================================================
                                       Pseudopotential Parameters
 ======================================================================================================
  Center     Atomic      Valence      Angular      Power
  Number     Number     Electrons     Momentum     of R      Exponent        Coefficient   SO-Coeffient
 ======================================================================================================
    1          6
                                   No pseudopotential on this center.
    2          6
                                   No pseudopotential on this center.
    3          6
                                   No pseudopotential on this center.
    4          6
                                   No pseudopotential on this center.
    5          6
                                   No pseudopotential on this center.
    6          6
                                   No pseudopotential on this center.
    7          6
                                   No pseudopotential on this center.
    8          6
                                   No pseudopotential on this center.
    9          6
                                   No pseudopotential on this center.
   10          6
                                   No pseudopotential on this center.
   11          1
                                   No pseudopotential on this center.
   12          1
                                   No pseudopotential on this center.
   13          1
                                   No pseudopotential on this center.
   14          1
                                   No pseudopotential on this center.
   15          1
                                   No pseudopotential on this center.
   16          1
                                   No pseudopotential on this center.
   17          7
                                   No pseudopotential on this center.
   18          7
                                   No pseudopotential on this center.
   19         77           17
                                      G and up 
                                                     1      823.5880147       -0.15780140    0.00000000
                                                     2      364.6613336    -1517.52704460    0.00000000
                                                     2       55.7082801     -316.53065290    0.00000000
                                                     2       12.0464544      -91.88809410    0.00000000
                                                     2        3.5120610       -9.22417730    0.00000000
                                      S - G
                                                     0      188.0490770        3.15780140    0.00000000
                                                     1      340.4194712       26.83225770    0.00000000
                                                     2      128.2373673      800.42500070    0.00000000
                                                     2       33.8644961      369.40506830    0.00000000
                                                     2        4.7560005      242.41718990    0.00000000
                                                     2        3.9649974     -118.21732820    0.00000000
                                      P - G
                                                     0      289.7291139        2.15780140    0.00000000
                                                     1       87.4633789       61.96786100    0.00000000
                                                     2       30.4363766      269.05819860    0.00000000
                                                     2        4.0553412      231.16547930    0.00000000
                                                     2        3.5525341     -133.69526670    0.00000000
                                      D - G
                                                     0      136.4017106        3.15780140    0.00000000
                                                     1       95.0776925       45.93498030    0.00000000
                                                     2       49.2258410      359.03446680    0.00000000
                                                     2       15.0874145      176.47401190    0.00000000
                                                     2        4.0405764       54.51552860    0.00000000
                                      F - G
                                                     0      127.3507908        3.95461970    0.00000000
                                                     1       66.2364374       52.97736550    0.00000000
                                                     2       34.4299229      274.86433830    0.00000000
                                                     2       10.1995721      137.20473380    0.00000000
                                                     2        2.5409702       14.86333050    0.00000000
   20          8
                                   No pseudopotential on this center.
   21          8
                                   No pseudopotential on this center.
   22          8
                                   No pseudopotential on this center.
   23          5
                                   No pseudopotential on this center.
   24          5
                                   No pseudopotential on this center.
   25          5
                                   No pseudopotential on this center.
   26          8
                                   No pseudopotential on this center.
   27          8
                                   No pseudopotential on this center.
   28          6
                                   No pseudopotential on this center.
   29          6
                                   No pseudopotential on this center.
   30          6
                                   No pseudopotential on this center.
   31          6
                                   No pseudopotential on this center.
   32          6
                                   No pseudopotential on this center.
   33          6
                                   No pseudopotential on this center.
   34          8
                                   No pseudopotential on this center.
   35          6
                                   No pseudopotential on this center.
   36          1
                                   No pseudopotential on this center.
   37          1
                                   No pseudopotential on this center.
   38          1
                                   No pseudopotential on this center.
   39          6
                                   No pseudopotential on this center.
   40          1
                                   No pseudopotential on this center.
   41          1
                                   No pseudopotential on this center.
   42          1
                                   No pseudopotential on this center.
   43          6
                                   No pseudopotential on this center.
   44          1
                                   No pseudopotential on this center.
   45          1
                                   No pseudopotential on this center.
   46          1
                                   No pseudopotential on this center.
   47          6
                                   No pseudopotential on this center.
   48          1
                                   No pseudopotential on this center.
   49          1
                                   No pseudopotential on this center.
   50          1
                                   No pseudopotential on this center.
   51          6
                                   No pseudopotential on this center.
   52          1
                                   No pseudopotential on this center.
   53          1
                                   No pseudopotential on this center.
   54          1
                                   No pseudopotential on this center.
   55          6
                                   No pseudopotential on this center.
   56          1
                                   No pseudopotential on this center.
   57          1
                                   No pseudopotential on this center.
   58          1
                                   No pseudopotential on this center.
   59          6
                                   No pseudopotential on this center.
   60          1
                                   No pseudopotential on this center.
   61          1
                                   No pseudopotential on this center.
   62          1
                                   No pseudopotential on this center.
   63          6
                                   No pseudopotential on this center.
   64          1
                                   No pseudopotential on this center.
   65          1
                                   No pseudopotential on this center.
   66          1
                                   No pseudopotential on this center.
   67          6
                                   No pseudopotential on this center.
   68          1
                                   No pseudopotential on this center.
   69          1
                                   No pseudopotential on this center.
   70          1
                                   No pseudopotential on this center.
   71          6
                                   No pseudopotential on this center.
   72          1
                                   No pseudopotential on this center.
   73          1
                                   No pseudopotential on this center.
   74          1
                                   No pseudopotential on this center.
   75          6
                                   No pseudopotential on this center.
   76          1
                                   No pseudopotential on this center.
   77          1
                                   No pseudopotential on this center.
   78          1
                                   No pseudopotential on this center.
   79          6
                                   No pseudopotential on this center.
   80          1
                                   No pseudopotential on this center.
   81          1
                                   No pseudopotential on this center.
   82          1
                                   No pseudopotential on this center.
   83          1
                                   No pseudopotential on this center.
   84          6
                                   No pseudopotential on this center.
   85          8
                                   No pseudopotential on this center.
   86          6
                                   No pseudopotential on this center.
   87          1
                                   No pseudopotential on this center.
   88          1
                                   No pseudopotential on this center.
   89          6
                                   No pseudopotential on this center.
   90          1
                                   No pseudopotential on this center.
   91          1
                                   No pseudopotential on this center.
   92          7
                                   No pseudopotential on this center.
   93          6
                                   No pseudopotential on this center.
   94          1
                                   No pseudopotential on this center.
   95          1
                                   No pseudopotential on this center.
   96          1
                                   No pseudopotential on this center.
   97          6
                                   No pseudopotential on this center.
   98          1
                                   No pseudopotential on this center.
   99          1
                                   No pseudopotential on this center.
  100          1
                                   No pseudopotential on this center.
  101          1
                                   No pseudopotential on this center.
  102          1
                                   No pseudopotential on this center.
 ======================================================================================================
 There are   824 symmetry adapted cartesian basis functions of A   symmetry.
 There are   776 symmetry adapted basis functions of A   symmetry.
   776 basis functions,  1551 primitive gaussians,   824 cartesian basis functions
   181 alpha electrons      181 beta electrons
       nuclear repulsion energy      7512.8011394419 Hartrees.
 NAtoms=  102 NActive=  102 NUniq=  102 SFac= 1.00D+00 NAtFMM=   60 NAOKFM=T Big=T
 Integral buffers will be    131072 words long.
 Raffenetti 2 integral format.
 Two-electron integral symmetry is turned on.
 One-electron integrals computed using PRISM.
   1 Symmetry operations used in ECPInt.
 ECPInt:  NShTT=   45753 NPrTT=  276657 LenC2=   36873 LenP2D=  115461.
 LDataN:  DoStor=T MaxTD1= 6 Len=  172
 NBasis=   776 RedAO= T EigKep=  5.49D-04  NBF=   776
 NBsUse=   776 1.00D-06 EigRej= -1.00D+00 NBFU=   776
 Defaulting to unpruned grid for atomic number  77.
 ExpMin= 2.90D-02 ExpMax= 5.48D+03 ExpMxC= 8.25D+02 IAcc=3 IRadAn=         5 AccDes= 0.00D+00
 Harris functional with IExCor= 1009 and IRadAn=       5 diagonalized for initial guess.
 HarFok:  IExCor= 1009 AccDes= 0.00D+00 IRadAn=         5 IDoV= 1 UseB2=F ITyADJ=14
 ICtDFT=  3500011 ScaDFX=  1.000000  1.000000  1.000000  1.000000
 Defaulting to unpruned grid for atomic number  77.
 FoFCou: FMM=F IPFlag=           0 FMFlag=      100000 FMFlg1=        2001
         NFxFlg=           0 DoJE=T BraDBF=F KetDBF=T FulRan=T
         wScrn=  0.000000 ICntrl=       500 IOpCl=  0 I1Cent=   200000004 NGrid=           0
         NMat0=    1 NMatS0=      1 NMatT0=    0 NMatD0=    1 NMtDS0=    0 NMtDT0=    0
 Petite list used in FoFCou.
 Requested convergence on RMS density matrix=1.00D-08 within 128 cycles.
 Requested convergence on MAX density matrix=1.00D-06.
 Requested convergence on             energy=1.00D-06.
 No special actions if energy rises.
 Defaulting to unpruned grid for atomic number  77.
 Defaulting to unpruned grid for atomic number  77.
 Defaulting to unpruned grid for atomic number  77.
 Defaulting to unpruned grid for atomic number  77.
 Defaulting to unpruned grid for atomic number  77.
 Defaulting to unpruned grid for atomic number  77.
 Defaulting to unpruned grid for atomic number  77.
 Defaulting to unpruned grid for atomic number  77.
 Defaulting to unpruned grid for atomic number  77.
 Defaulting to unpruned grid for atomic number  77.
 Defaulting to unpruned grid for atomic number  77.
 Defaulting to unpruned grid for atomic number  77.
 Defaulting to unpruned grid for atomic number  77.
 Defaulting to unpruned grid for atomic number  77.
 Defaulting to unpruned grid for atomic number  77.
 Defaulting to unpruned grid for atomic number  77.
 SCF Done:  E(RM06) =  -2159.66273768     A.U. after   15 cycles
            NFock= 15  Conv=0.55D-08     -V/T= 2.0409
 DoSCS=F DFT=T ScalE2(SS,OS)=  1.000000  1.000000
 Range of M.O.s used for correlation:     1   776
 NBasis=   776 NAE=   181 NBE=   181 NFC=     0 NFV=     0
 NROrb=    776 NOA=   181 NOB=   181 NVA=   595 NVB=   595

 **** Warning!!: The largest alpha MO coefficient is  0.16618284D+02

   1 Symmetry operations used in ECPInt.
 ECPInt:  NShTT=   45753 NPrTT=  276657 LenC2=   36873 LenP2D=  115461.
 LDataN:  DoStor=T MaxTD1= 7 Len=  274
 Number of processors reduced to   8 by ecpmxn.
 Symmetrizing basis deriv contribution to polar:
 IMax=3 JMax=2 DiffMx= 0.00D+00
 G2DrvN: will do   103 centers at a time, making    1 passes.
 Calling FoFCou, ICntrl=  3107 FMM=T I1Cent=   0 AccDes= 0.00D+00.
 Defaulting to unpruned grid for atomic number  77.
 Defaulting to unpruned grid for atomic number  77.
 Defaulting to unpruned grid for atomic number  77.
 Defaulting to unpruned grid for atomic number  77.
 Defaulting to unpruned grid for atomic number  77.
 Defaulting to unpruned grid for atomic number  77.
 Defaulting to unpruned grid for atomic number  77.
 Defaulting to unpruned grid for atomic number  77.
 Defaulting to unpruned grid for atomic number  77.
 Defaulting to unpruned grid for atomic number  77.
 Defaulting to unpruned grid for atomic number  77.
 Defaulting to unpruned grid for atomic number  77.
 Defaulting to unpruned grid for atomic number  77.
 Defaulting to unpruned grid for atomic number  77.
 Defaulting to unpruned grid for atomic number  77.
 Defaulting to unpruned grid for atomic number  77.
 End of G2Drv F.D. properties file   721 does not exist.
 End of G2Drv F.D. properties file   722 does not exist.
 End of G2Drv F.D. properties file   788 does not exist.
          IDoAtm=11111111111111111111111111111111111111111111111111
          IDoAtm=11111111111111111111111111111111111111111111111111
          IDoAtm=11
          Differentiating once with respect to electric field.
                with respect to dipole field.
          Differentiating once with respect to nuclear coordinates.
 Defaulting to unpruned grid for atomic number  77.
 CalDSu exits because no D1Ps are significant.
 Defaulting to unpruned grid for atomic number  77.
 Defaulting to unpruned grid for atomic number  77.
 Defaulting to unpruned grid for atomic number  77.
 Defaulting to unpruned grid for atomic number  77.
 Defaulting to unpruned grid for atomic number  77.
 Defaulting to unpruned grid for atomic number  77.
 Defaulting to unpruned grid for atomic number  77.
 Defaulting to unpruned grid for atomic number  77.
 Defaulting to unpruned grid for atomic number  77.
 Defaulting to unpruned grid for atomic number  77.
 Defaulting to unpruned grid for atomic number  77.
 Defaulting to unpruned grid for atomic number  77.
 Defaulting to unpruned grid for atomic number  77.
 Defaulting to unpruned grid for atomic number  77.
 Defaulting to unpruned grid for atomic number  77.
 Defaulting to unpruned grid for atomic number  77.
          There are   309 degrees of freedom in the 1st order CPHF.  IDoFFX=6 NUNeed=     3.
    306 vectors produced by pass  0 Test12= 1.08D-13 1.00D-09 XBig12= 4.78D+02 8.30D+00.
 AX will form    72 AO Fock derivatives at one time.
    306 vectors produced by pass  1 Test12= 1.08D-13 1.00D-09 XBig12= 6.36D+01 1.01D+00.
    306 vectors produced by pass  2 Test12= 1.08D-13 1.00D-09 XBig12= 7.01D-01 6.84D-02.
    306 vectors produced by pass  3 Test12= 1.08D-13 1.00D-09 XBig12= 3.86D-03 6.14D-03.
    306 vectors produced by pass  4 Test12= 1.08D-13 1.00D-09 XBig12= 1.13D-05 3.07D-04.
    265 vectors produced by pass  5 Test12= 1.08D-13 1.00D-09 XBig12= 2.12D-08 9.08D-06.
     71 vectors produced by pass  6 Test12= 1.08D-13 1.00D-09 XBig12= 3.03D-11 2.99D-07.
      3 vectors produced by pass  7 Test12= 1.08D-13 1.00D-09 XBig12= 4.24D-14 1.17D-08.
 InvSVY:  IOpt=1 It=  1 EMax= 2.13D-14
 Solved reduced A of dimension  1869 with   309 vectors.
 Isotropic polarizability for W=    0.000000      469.62 Bohr**3.
 End of Minotr F.D. properties file   721 does not exist.
 End of Minotr F.D. properties file   722 does not exist.
 End of Minotr F.D. properties file   788 does not exist.
 Hyperfine terms turned off by default for NAtoms > 100.

 **********************************************************************

            Population analysis using the SCF Density.

 **********************************************************************

 Orbital symmetries:
       Occupied  (A) (A) (A) (A) (A) (A) (A) (A) (A) (A) (A) (A)
                 (A) (A) (A) (A) (A) (A) (A) (A) (A) (A) (A) (A)
                 (A) (A) (A) (A) (A) (A) (A) (A) (A) (A) (A) (A)
                 (A) (A) (A) (A) (A) (A) (A) (A) (A) (A) (A) (A)
                 (A) (A) (A) (A) (A) (A) (A) (A) (A) (A) (A) (A)
                 (A) (A) (A) (A) (A) (A) (A) (A) (A) (A) (A) (A)
                 (A) (A) (A) (A) (A) (A) (A) (A) (A) (A) (A) (A)
                 (A) (A) (A) (A) (A) (A) (A) (A) (A) (A) (A) (A)
                 (A) (A) (A) (A) (A) (A) (A) (A) (A) (A) (A) (A)
                 (A) (A) (A) (A) (A) (A) (A) (A) (A) (A) (A) (A)
                 (A) (A) (A) (A) (A) (A) (A) (A) (A) (A) (A) (A)
                 (A) (A) (A) (A) (A) (A) (A) (A) (A) (A) (A) (A)
                 (A) (A) (A) (A) (A) (A) (A) (A) (A) (A) (A) (A)
                 (A) (A) (A) (A) (A) (A) (A) (A) (A) (A) (A) (A)
                 (A) (A) (A) (A) (A) (A) (A) (A) (A) (A) (A) (A)
                 (A)
       Virtual   (A) (A) (A) (A) (A) (A) (A) (A) (A) (A) (A) (A)
                 (A) (A) (A) (A) (A) (A) (A) (A) (A) (A) (A) (A)
                 (A) (A) (A) (A) (A) (A) (A) (A) (A) (A) (A) (A)
                 (A) (A) (A) (A) (A) (A) (A) (A) (A) (A) (A) (A)
                 (A) (A) (A) (A) (A) (A) (A) (A) (A) (A) (A) (A)
                 (A) (A) (A) (A) (A) (A) (A) (A) (A) (A) (A) (A)
                 (A) (A) (A) (A) (A) (A) (A) (A) (A) (A) (A) (A)
                 (A) (A) (A) (A) (A) (A) (A) (A) (A) (A) (A) (A)
                 (A) (A) (A) (A) (A) (A) (A) (A) (A) (A) (A) (A)
                 (A) (A) (A) (A) (A) (A) (A) (A) (A) (A) (A) (A)
                 (A) (A) (A) (A) (A) (A) (A) (A) (A) (A) (A) (A)
                 (A) (A) (A) (A) (A) (A) (A) (A) (A) (A) (A) (A)
                 (A) (A) (A) (A) (A) (A) (A) (A) (A) (A) (A) (A)
                 (A) (A) (A) (A) (A) (A) (A) (A) (A) (A) (A) (A)
                 (A) (A) (A) (A) (A) (A) (A) (A) (A) (A) (A) (A)
                 (A) (A) (A) (A) (A) (A) (A) (A) (A) (A) (A) (A)
                 (A) (A) (A) (A) (A) (A) (A) (A) (A) (A) (A) (A)
                 (A) (A) (A) (A) (A) (A) (A) (A) (A) (A) (A) (A)
                 (A) (A) (A) (A) (A) (A) (A) (A) (A) (A) (A) (A)
                 (A) (A) (A) (A) (A) (A) (A) (A) (A) (A) (A) (A)
                 (A) (A) (A) (A) (A) (A) (A) (A) (A) (A) (A) (A)
                 (A) (A) (A) (A) (A) (A) (A) (A) (A) (A) (A) (A)
                 (A) (A) (A) (A) (A) (A) (A) (A) (A) (A) (A) (A)
                 (A) (A) (A) (A) (A) (A) (A) (A) (A) (A) (A) (A)
                 (A) (A) (A) (A) (A) (A) (A) (A) (A) (A) (A) (A)
                 (A) (A) (A) (A) (A) (A) (A) (A) (A) (A) (A) (A)
                 (A) (A) (A) (A) (A) (A) (A) (A) (A) (A) (A) (A)
                 (A) (A) (A) (A) (A) (A) (A) (A) (A) (A) (A) (A)
                 (A) (A) (A) (A) (A) (A) (A) (A) (A) (A) (A) (A)
                 (A) (A) (A) (A) (A) (A) (A) (A) (A) (A) (A) (A)
                 (A) (A) (A) (A) (A) (A) (A) (A) (A) (A) (A) (A)
                 (A) (A) (A) (A) (A) (A) (A) (A) (A) (A) (A) (A)
                 (A) (A) (A) (A) (A) (A) (A) (A) (A) (A) (A) (A)
                 (A) (A) (A) (A) (A) (A) (A) (A) (A) (A) (A) (A)
                 (A) (A) (A) (A) (A) (A) (A) (A) (A) (A) (A) (A)
                 (A) (A) (A) (A) (A) (A) (A) (A) (A) (A) (A) (A)
                 (A) (A) (A) (A) (A) (A) (A) (A) (A) (A) (A) (A)
                 (A) (A) (A) (A) (A) (A) (A) (A) (A) (A) (A) (A)
                 (A) (A) (A) (A) (A) (A) (A) (A) (A) (A) (A) (A)
                 (A) (A) (A) (A) (A) (A) (A) (A) (A) (A) (A) (A)
                 (A) (A) (A) (A) (A) (A) (A) (A) (A) (A) (A) (A)
                 (A) (A) (A) (A) (A) (A) (A) (A) (A) (A) (A) (A)
                 (A) (A) (A) (A) (A) (A) (A) (A) (A) (A) (A) (A)
                 (A) (A) (A) (A) (A) (A) (A) (A) (A) (A) (A) (A)
                 (A) (A) (A) (A) (A) (A) (A) (A) (A) (A) (A) (A)
                 (A) (A) (A) (A) (A) (A) (A) (A) (A) (A) (A) (A)
                 (A) (A) (A) (A) (A) (A) (A) (A) (A) (A) (A) (A)
                 (A) (A) (A) (A) (A) (A) (A) (A) (A) (A) (A) (A)
                 (A) (A) (A) (A) (A) (A) (A) (A) (A) (A) (A) (A)
                 (A) (A) (A) (A) (A) (A) (A)
 The electronic state is 1-A.
 Alpha  occ. eigenvalues --  -19.20296 -19.20035 -19.20012 -19.19849 -19.19619
 Alpha  occ. eigenvalues --  -19.18667 -19.16555 -14.45101 -14.44651 -14.40707
 Alpha  occ. eigenvalues --  -10.32273 -10.32137 -10.32094 -10.30282 -10.30046
 Alpha  occ. eigenvalues --  -10.29403 -10.29109 -10.29068 -10.29057 -10.28920
 Alpha  occ. eigenvalues --  -10.28899 -10.28494 -10.28447 -10.28291 -10.27937
 Alpha  occ. eigenvalues --  -10.27933 -10.27627 -10.26826 -10.23885 -10.23293
 Alpha  occ. eigenvalues --  -10.23193 -10.23039 -10.22871 -10.22716 -10.22615
 Alpha  occ. eigenvalues --  -10.22406 -10.22326 -10.22255 -10.21857 -10.21521
 Alpha  occ. eigenvalues --  -10.21424 -10.20833 -10.20745  -6.80478  -6.79426
 Alpha  occ. eigenvalues --   -6.78606  -3.63221  -2.05720  -2.05356  -2.04345
 Alpha  occ. eigenvalues --   -1.06101  -1.05893  -1.05240  -1.02369  -1.00019
 Alpha  occ. eigenvalues --   -0.99084  -0.98995  -0.98262  -0.97484  -0.92267
 Alpha  occ. eigenvalues --   -0.84428  -0.83620  -0.82865  -0.80318  -0.80165
 Alpha  occ. eigenvalues --   -0.79287  -0.77523  -0.77424  -0.74734  -0.74646
 Alpha  occ. eigenvalues --   -0.73616  -0.70387  -0.70208  -0.69608  -0.69266
 Alpha  occ. eigenvalues --   -0.69003  -0.67989  -0.67552  -0.67477  -0.67447
 Alpha  occ. eigenvalues --   -0.66336  -0.64647  -0.63595  -0.62504  -0.61723
 Alpha  occ. eigenvalues --   -0.61164  -0.60404  -0.57626  -0.54559  -0.54516
 Alpha  occ. eigenvalues --   -0.53721  -0.53584  -0.53392  -0.53294  -0.52949
 Alpha  occ. eigenvalues --   -0.52447  -0.52281  -0.50926  -0.49905  -0.48801
 Alpha  occ. eigenvalues --   -0.47862  -0.47291  -0.46920  -0.46704  -0.46504
 Alpha  occ. eigenvalues --   -0.46208  -0.46093  -0.46078  -0.45752  -0.45630
 Alpha  occ. eigenvalues --   -0.45200  -0.45048  -0.44325  -0.44222  -0.44147
 Alpha  occ. eigenvalues --   -0.43433  -0.43238  -0.42998  -0.42610  -0.42525
 Alpha  occ. eigenvalues --   -0.42380  -0.41621  -0.40759  -0.40619  -0.40170
 Alpha  occ. eigenvalues --   -0.40007  -0.39938  -0.39859  -0.39615  -0.39477
 Alpha  occ. eigenvalues --   -0.39323  -0.39120  -0.38973  -0.38854  -0.38691
 Alpha  occ. eigenvalues --   -0.38475  -0.38192  -0.37865  -0.37476  -0.37405
 Alpha  occ. eigenvalues --   -0.37210  -0.36576  -0.36426  -0.36349  -0.36253
 Alpha  occ. eigenvalues --   -0.35979  -0.35868  -0.35743  -0.35455  -0.35361
 Alpha  occ. eigenvalues --   -0.35201  -0.34947  -0.34668  -0.34590  -0.34187
 Alpha  occ. eigenvalues --   -0.33846  -0.33369  -0.33186  -0.33040  -0.32543
 Alpha  occ. eigenvalues --   -0.31996  -0.31941  -0.31607  -0.31283  -0.30741
 Alpha  occ. eigenvalues --   -0.30655  -0.30196  -0.29676  -0.29052  -0.28071
 Alpha  occ. eigenvalues --   -0.27131  -0.26912  -0.26650  -0.25863  -0.25806
 Alpha  occ. eigenvalues --   -0.25655  -0.24694  -0.23443  -0.22611  -0.22236
 Alpha  occ. eigenvalues --   -0.18384
 Alpha virt. eigenvalues --   -0.07044  -0.03866  -0.03309   0.01417   0.02297
 Alpha virt. eigenvalues --    0.03581   0.04186   0.05465   0.05690   0.07411
 Alpha virt. eigenvalues --    0.07750   0.08842   0.09798   0.09989   0.10107
 Alpha virt. eigenvalues --    0.10343   0.11086   0.11462   0.11812   0.11952
 Alpha virt. eigenvalues --    0.12075   0.12503   0.13225   0.13438   0.13877
 Alpha virt. eigenvalues --    0.14125   0.14351   0.14801   0.15027   0.15349
 Alpha virt. eigenvalues --    0.15495   0.15667   0.15815   0.15915   0.16016
 Alpha virt. eigenvalues --    0.16231   0.16366   0.16562   0.16766   0.17066
 Alpha virt. eigenvalues --    0.17365   0.17510   0.17919   0.18062   0.18263
 Alpha virt. eigenvalues --    0.18332   0.18449   0.18737   0.18861   0.19218
 Alpha virt. eigenvalues --    0.19263   0.19558   0.19625   0.19763   0.20022
 Alpha virt. eigenvalues --    0.20196   0.20491   0.20618   0.20753   0.20913
 Alpha virt. eigenvalues --    0.21096   0.21257   0.21300   0.21857   0.22193
 Alpha virt. eigenvalues --    0.22322   0.22842   0.23084   0.23307   0.23414
 Alpha virt. eigenvalues --    0.23971   0.24252   0.24345   0.24542   0.25021
 Alpha virt. eigenvalues --    0.25145   0.25539   0.25601   0.25995   0.26239
 Alpha virt. eigenvalues --    0.26532   0.26609   0.26799   0.27078   0.27491
 Alpha virt. eigenvalues --    0.27942   0.28161   0.28496   0.28579   0.28596
 Alpha virt. eigenvalues --    0.29177   0.29426   0.29650   0.29905   0.30203
 Alpha virt. eigenvalues --    0.30592   0.31771   0.32193   0.32673   0.33191
 Alpha virt. eigenvalues --    0.34064   0.34509   0.34576   0.35040   0.36304
 Alpha virt. eigenvalues --    0.36696   0.37101   0.37864   0.39490   0.39826
 Alpha virt. eigenvalues --    0.40026   0.41594   0.42945   0.44103   0.45263
 Alpha virt. eigenvalues --    0.46581   0.47360   0.47699   0.48849   0.49386
 Alpha virt. eigenvalues --    0.49885   0.50576   0.50788   0.50918   0.51215
 Alpha virt. eigenvalues --    0.51569   0.51831   0.52340   0.52594   0.53046
 Alpha virt. eigenvalues --    0.53788   0.53968   0.54525   0.55358   0.55546
 Alpha virt. eigenvalues --    0.55666   0.56082   0.56819   0.56902   0.57031
 Alpha virt. eigenvalues --    0.57295   0.57841   0.58094   0.58252   0.58432
 Alpha virt. eigenvalues --    0.58533   0.58856   0.58883   0.59123   0.59525
 Alpha virt. eigenvalues --    0.59591   0.59760   0.60288   0.60323   0.60680
 Alpha virt. eigenvalues --    0.61141   0.61261   0.61518   0.61629   0.62110
 Alpha virt. eigenvalues --    0.62642   0.62788   0.63189   0.63327   0.63735
 Alpha virt. eigenvalues --    0.64731   0.64934   0.65236   0.65689   0.66191
 Alpha virt. eigenvalues --    0.66236   0.66581   0.67314   0.67408   0.67632
 Alpha virt. eigenvalues --    0.67963   0.68468   0.68854   0.69019   0.69682
 Alpha virt. eigenvalues --    0.69964   0.70259   0.70935   0.71466   0.71753
 Alpha virt. eigenvalues --    0.72084   0.72289   0.72991   0.73291   0.73628
 Alpha virt. eigenvalues --    0.74040   0.74136   0.74693   0.74875   0.75110
 Alpha virt. eigenvalues --    0.75760   0.76036   0.76299   0.76640   0.76977
 Alpha virt. eigenvalues --    0.77523   0.78083   0.78135   0.78368   0.78466
 Alpha virt. eigenvalues --    0.79032   0.79585   0.79996   0.80562   0.80852
 Alpha virt. eigenvalues --    0.81004   0.81902   0.82465   0.82578   0.83013
 Alpha virt. eigenvalues --    0.83118   0.83429   0.83818   0.84033   0.84422
 Alpha virt. eigenvalues --    0.84627   0.85006   0.85351   0.85669   0.85769
 Alpha virt. eigenvalues --    0.85952   0.86371   0.86552   0.86783   0.86842
 Alpha virt. eigenvalues --    0.87088   0.87602   0.87693   0.87839   0.88251
 Alpha virt. eigenvalues --    0.88589   0.89046   0.89259   0.89714   0.89832
 Alpha virt. eigenvalues --    0.89894   0.90175   0.90424   0.90587   0.90744
 Alpha virt. eigenvalues --    0.91371   0.91567   0.91850   0.92113   0.92552
 Alpha virt. eigenvalues --    0.92752   0.93052   0.93661   0.93777   0.94031
 Alpha virt. eigenvalues --    0.94481   0.94682   0.94902   0.95437   0.95669
 Alpha virt. eigenvalues --    0.95982   0.96437   0.96682   0.97116   0.97263
 Alpha virt. eigenvalues --    0.97311   0.98070   0.98391   0.98655   0.99036
 Alpha virt. eigenvalues --    0.99409   0.99599   0.99913   1.00276   1.01434
 Alpha virt. eigenvalues --    1.02043   1.02322   1.02903   1.03458   1.03897
 Alpha virt. eigenvalues --    1.04662   1.05025   1.05737   1.05977   1.06446
 Alpha virt. eigenvalues --    1.06959   1.07715   1.08217   1.08456   1.08823
 Alpha virt. eigenvalues --    1.09811   1.10408   1.11261   1.11459   1.12789
 Alpha virt. eigenvalues --    1.13451   1.13596   1.14019   1.14634   1.15522
 Alpha virt. eigenvalues --    1.16138   1.16846   1.17387   1.18305   1.18611
 Alpha virt. eigenvalues --    1.18981   1.19878   1.20337   1.20494   1.20752
 Alpha virt. eigenvalues --    1.21797   1.22728   1.23457   1.24130   1.24585
 Alpha virt. eigenvalues --    1.24849   1.25573   1.26513   1.27580   1.27720
 Alpha virt. eigenvalues --    1.28375   1.28981   1.30155   1.30378   1.30772
 Alpha virt. eigenvalues --    1.31567   1.32359   1.33357   1.34134   1.34474
 Alpha virt. eigenvalues --    1.35140   1.35438   1.36475   1.36820   1.38156
 Alpha virt. eigenvalues --    1.39337   1.39682   1.40245   1.40927   1.42007
 Alpha virt. eigenvalues --    1.42412   1.42571   1.42928   1.44333   1.44521
 Alpha virt. eigenvalues --    1.45021   1.45138   1.45804   1.46107   1.46776
 Alpha virt. eigenvalues --    1.46987   1.47514   1.48399   1.48825   1.49474
 Alpha virt. eigenvalues --    1.49959   1.50446   1.51041   1.52095   1.52449
 Alpha virt. eigenvalues --    1.53275   1.54298   1.56705   1.57360   1.57946
 Alpha virt. eigenvalues --    1.58711   1.59309   1.60289   1.60594   1.61282
 Alpha virt. eigenvalues --    1.61971   1.63836   1.64714   1.65426   1.65819
 Alpha virt. eigenvalues --    1.66338   1.66838   1.67215   1.67783   1.69094
 Alpha virt. eigenvalues --    1.69556   1.69899   1.70858   1.71497   1.71707
 Alpha virt. eigenvalues --    1.72267   1.72950   1.74734   1.75302   1.76514
 Alpha virt. eigenvalues --    1.76988   1.77328   1.77549   1.77998   1.78496
 Alpha virt. eigenvalues --    1.79145   1.80026   1.81063   1.81456   1.81805
 Alpha virt. eigenvalues --    1.81931   1.82789   1.83705   1.84187   1.84360
 Alpha virt. eigenvalues --    1.84936   1.85131   1.85545   1.85977   1.86957
 Alpha virt. eigenvalues --    1.87394   1.87502   1.88123   1.88549   1.88892
 Alpha virt. eigenvalues --    1.89709   1.90502   1.91198   1.91673   1.91714
 Alpha virt. eigenvalues --    1.92033   1.92559   1.92587   1.92842   1.93279
 Alpha virt. eigenvalues --    1.93505   1.93747   1.93954   1.94329   1.94815
 Alpha virt. eigenvalues --    1.95331   1.95868   1.95909   1.96466   1.96738
 Alpha virt. eigenvalues --    1.98140   1.98469   1.98618   1.99591   2.00395
 Alpha virt. eigenvalues --    2.01055   2.02014   2.02239   2.02620   2.03272
 Alpha virt. eigenvalues --    2.03483   2.03968   2.04523   2.04846   2.05806
 Alpha virt. eigenvalues --    2.06649   2.07399   2.07523   2.07736   2.08359
 Alpha virt. eigenvalues --    2.08566   2.08730   2.09063   2.09668   2.10335
 Alpha virt. eigenvalues --    2.10554   2.10985   2.11622   2.11774   2.12451
 Alpha virt. eigenvalues --    2.12869   2.13474   2.14170   2.14707   2.14916
 Alpha virt. eigenvalues --    2.15163   2.15736   2.16378   2.16559   2.16627
 Alpha virt. eigenvalues --    2.17133   2.17732   2.17852   2.18386   2.19059
 Alpha virt. eigenvalues --    2.19139   2.19370   2.19454   2.19805   2.20729
 Alpha virt. eigenvalues --    2.21098   2.21600   2.22000   2.22262   2.22503
 Alpha virt. eigenvalues --    2.23028   2.23506   2.23972   2.24306   2.24702
 Alpha virt. eigenvalues --    2.25247   2.25718   2.25901   2.26365   2.26888
 Alpha virt. eigenvalues --    2.27418   2.27847   2.28021   2.28169   2.28896
 Alpha virt. eigenvalues --    2.29042   2.29423   2.30971   2.31421   2.32060
 Alpha virt. eigenvalues --    2.32427   2.33558   2.33681   2.34000   2.35099
 Alpha virt. eigenvalues --    2.35595   2.36621   2.37350   2.38495   2.38555
 Alpha virt. eigenvalues --    2.39430   2.39610   2.40714   2.40994   2.44709
 Alpha virt. eigenvalues --    2.45001   2.45196   2.45992   2.47969   2.48103
 Alpha virt. eigenvalues --    2.49115   2.49663   2.49847   2.50226   2.50942
 Alpha virt. eigenvalues --    2.52894   2.54296   2.55530   2.56359   2.58850
 Alpha virt. eigenvalues --    2.59695   2.60162   2.60406   2.60516   2.61754
 Alpha virt. eigenvalues --    2.62061   2.63521   2.64354   2.65188   2.65597
 Alpha virt. eigenvalues --    2.66195   2.66750   2.68309   2.69261   2.70470
 Alpha virt. eigenvalues --    2.71152   2.71654   2.76952   2.78117   2.78285
 Alpha virt. eigenvalues --    2.78508   2.78818   2.79608   2.80181   2.80885
 Alpha virt. eigenvalues --    2.81408   2.81713   2.82239   2.82701   2.83438
 Alpha virt. eigenvalues --    2.83815   2.85230   2.85958   2.87491   2.91234
 Alpha virt. eigenvalues --    2.92431   2.94789   2.95452   2.95918   2.97234
 Alpha virt. eigenvalues --    2.97598   2.98497   2.99300   3.05399   3.06304
 Alpha virt. eigenvalues --    3.07516   3.08014   3.12240   3.13041   3.14610
 Alpha virt. eigenvalues --    3.20202   3.23821   3.29960   3.43742  14.87251
          Condensed to atoms (all electrons):
 Mulliken charges:
               1
     1  C    0.310849
     2  C    0.061617
     3  C   -0.173958
     4  C   -0.140969
     5  C   -0.180902
     6  C    0.276250
     7  C    0.059976
     8  C   -0.172690
     9  C   -0.142435
    10  C   -0.182926
    11  H    0.219577
    12  H    0.181628
    13  H    0.169448
    14  H    0.201865
    15  H    0.181987
    16  H    0.171270
    17  N   -0.501908
    18  N   -0.467428
    19  Ir  -0.303665
    20  O   -0.510067
    21  O   -0.528176
    22  O   -0.529854
    23  B    0.526003
    24  B    0.509845
    25  B    0.552687
    26  O   -0.494316
    27  O   -0.542202
    28  C    0.305072
    29  C    0.288763
    30  C    0.295277
    31  C    0.293336
    32  C    0.294929
    33  C    0.293011
    34  O   -0.521789
    35  C   -0.495326
    36  H    0.138998
    37  H    0.167280
    38  H    0.172837
    39  C   -0.522974
    40  H    0.201692
    41  H    0.164386
    42  H    0.139678
    43  C   -0.508632
    44  H    0.165461
    45  H    0.158744
    46  H    0.154009
    47  C   -0.517254
    48  H    0.146247
    49  H    0.186728
    50  H    0.156069
    51  C   -0.504892
    52  H    0.149360
    53  H    0.168380
    54  H    0.165604
    55  C   -0.509355
    56  H    0.184855
    57  H    0.150054
    58  H    0.159005
    59  C   -0.511085
    60  H    0.145996
    61  H    0.152830
    62  H    0.188520
    63  C   -0.511661
    64  H    0.171331
    65  H    0.164982
    66  H    0.149007
    67  C   -0.508735
    68  H    0.168106
    69  H    0.146401
    70  H    0.171262
    71  C   -0.496801
    72  H    0.141499
    73  H    0.173966
    74  H    0.165105
    75  C   -0.506265
    76  H    0.150849
    77  H    0.163205
    78  H    0.172479
    79  C   -0.509277
    80  H    0.170984
    81  H    0.156038
    82  H    0.158058
    83  H    0.162666
    84  C    0.577439
    85  O   -0.520863
    86  C   -0.380640
    87  H    0.178838
    88  H    0.163746
    89  C   -0.305334
    90  H    0.181525
    91  H    0.175864
    92  N   -0.341861
    93  C   -0.384599
    94  H    0.215734
    95  H    0.210050
    96  H    0.153667
    97  C   -0.508937
    98  H    0.168617
    99  H    0.184352
   100  H    0.181765
   101  H    0.183002
   102  H    0.167117
 Sum of Mulliken charges =  -0.00000
 Mulliken charges with hydrogens summed into heavy atoms:
               1
     1  C    0.310849
     2  C    0.281194
     3  C    0.009044
     4  C    0.040659
     5  C   -0.011454
     6  C    0.276250
     7  C    0.261841
     8  C    0.009075
     9  C    0.039551
    10  C   -0.011656
    17  N   -0.501908
    18  N   -0.467428
    19  Ir  -0.141000
    20  O   -0.510067
    21  O   -0.528176
    22  O   -0.529854
    23  B    0.526003
    24  B    0.509845
    25  B    0.552687
    26  O   -0.494316
    27  O   -0.542202
    28  C    0.305072
    29  C    0.288763
    30  C    0.295277
    31  C    0.293336
    32  C    0.294929
    33  C    0.293011
    34  O   -0.521789
    35  C   -0.016211
    39  C   -0.017218
    43  C   -0.030418
    47  C   -0.028210
    51  C   -0.021547
    55  C   -0.015440
    59  C   -0.023738
    63  C   -0.026341
    67  C   -0.022966
    71  C   -0.016230
    75  C   -0.019732
    79  C   -0.024197
    84  C    0.577439
    85  O   -0.520863
    86  C   -0.038056
    89  C    0.052055
    92  N   -0.341861
    93  C    0.194851
    97  C    0.011148
 APT charges:
               1
     1  C    0.144944
     2  C    0.028552
     3  C   -0.023514
     4  C    0.073786
     5  C   -0.168205
     6  C    0.173165
     7  C    0.038989
     8  C   -0.023439
     9  C    0.073587
    10  C   -0.168562
    11  H    0.120471
    12  H    0.029141
    13  H    0.037251
    14  H    0.095859
    15  H    0.029106
    16  H    0.040343
    17  N   -0.058549
    18  N   -0.122255
    19  Ir  -1.145316
    20  O   -0.926839
    21  O   -0.961458
    22  O   -0.981950
    23  B    1.255267
    24  B    1.180451
    25  B    1.314378
    26  O   -0.954677
    27  O   -0.970542
    28  C    0.477193
    29  C    0.476095
    30  C    0.492647
    31  C    0.492812
    32  C    0.470293
    33  C    0.462422
    34  O   -0.930610
    35  C   -0.016466
    36  H   -0.032277
    37  H   -0.006774
    38  H    0.011168
    39  C   -0.017872
    40  H    0.040727
    41  H   -0.003006
    42  H   -0.021146
    43  C   -0.002135
    44  H   -0.002278
    45  H   -0.002955
    46  H   -0.018264
    47  C   -0.037430
    48  H   -0.007780
    49  H    0.018545
    50  H   -0.019727
    51  C    0.002274
    52  H   -0.020633
    53  H   -0.000252
    54  H    0.001797
    55  C   -0.026386
    56  H    0.004359
    57  H   -0.027103
    58  H   -0.002403
    59  C   -0.035267
    60  H   -0.023218
    61  H   -0.012323
    62  H    0.029040
    63  C   -0.008041
    64  H    0.000412
    65  H   -0.004590
    66  H   -0.016659
    67  C   -0.005851
    68  H   -0.000127
    69  H   -0.019764
    70  H    0.007627
    71  C   -0.033821
    72  H   -0.030416
    73  H    0.023009
    74  H    0.000707
    75  C   -0.007418
    76  H   -0.017304
    77  H   -0.005427
    78  H    0.007726
    79  C   -0.032235
    80  H   -0.000441
    81  H   -0.007412
    82  H   -0.017594
    83  H    0.277416
    84  C    0.979719
    85  O   -0.854301
    86  C   -0.011815
    87  H   -0.003680
    88  H   -0.018211
    89  C    0.517611
    90  H   -0.067672
    91  H   -0.053219
    92  N   -0.843799
    93  C    0.255377
    94  H    0.004727
    95  H    0.062007
    96  H   -0.038246
    97  C    0.064641
    98  H   -0.001253
    99  H   -0.003099
   100  H    0.036320
   101  H    0.043407
   102  H   -0.021360
 Sum of APT charges =   0.00000
 APT charges with hydrogens summed into heavy atoms:
               1
     1  C    0.144944
     2  C    0.149023
     3  C    0.019893
     4  C    0.102927
     5  C   -0.130955
     6  C    0.173165
     7  C    0.134848
     8  C    0.012881
     9  C    0.102693
    10  C   -0.128219
    17  N   -0.058549
    18  N   -0.122255
    19  Ir  -0.867901
    20  O   -0.926839
    21  O   -0.961458
    22  O   -0.981950
    23  B    1.255267
    24  B    1.180451
    25  B    1.314378
    26  O   -0.954677
    27  O   -0.970542
    28  C    0.477193
    29  C    0.476095
    30  C    0.492647
    31  C    0.492812
    32  C    0.470293
    33  C    0.462422
    34  O   -0.930610
    35  C   -0.044349
    39  C   -0.001297
    43  C   -0.025632
    47  C   -0.046392
    51  C   -0.016814
    55  C   -0.051534
    59  C   -0.041768
    63  C   -0.028877
    67  C   -0.018115
    71  C   -0.040522
    75  C   -0.022424
    79  C   -0.057683
    84  C    0.979719
    85  O   -0.854301
    86  C   -0.033706
    89  C    0.396720
    92  N   -0.843799
    93  C    0.283867
    97  C    0.038929
 Electronic spatial extent (au):  <R**2>=          22843.2679
 Charge=             -0.0000 electrons
 Dipole moment (field-independent basis, Debye):
    X=              2.6239    Y=             -7.4577    Z=              1.9468  Tot=              8.1420
 Quadrupole moment (field-independent basis, Debye-Ang):
   XX=           -273.2169   YY=           -291.7292   ZZ=           -281.8872
   XY=            -22.9954   XZ=             13.5765   YZ=             18.6396
 Traceless Quadrupole moment (field-independent basis, Debye-Ang):
   XX=              9.0608   YY=             -9.4514   ZZ=              0.3906
   XY=            -22.9954   XZ=             13.5765   YZ=             18.6396
 Octapole moment (field-independent basis, Debye-Ang**2):
  XXX=             83.4658  YYY=           -171.7216  ZZZ=            -26.9394  XYY=             31.9593
  XXY=            -95.5029  XXZ=             32.1634  XZZ=             11.4628  YZZ=            -58.3329
  YYZ=             -9.9275  XYZ=             24.2048
 Hexadecapole moment (field-independent basis, Debye-Ang**3):
 XXXX=         -11128.3128 YYYY=         -10153.4394 ZZZZ=          -8666.3586 XXXY=           -213.2713
 XXXZ=            281.5348 YYYX=           -550.3415 YYYZ=            459.0223 ZZZX=            101.9767
 ZZZY=             34.2216 XXYY=          -3520.3184 XXZZ=          -3188.5395 YYZZ=          -3152.9047
 XXYZ=             -0.3628 YYXZ=             44.8966 ZZXY=            -52.4275
 N-N= 7.512801139442D+03 E-N=-2.003070542184D+04  KE= 2.074829858794D+03
  Exact polarizability:     464.451     -31.116     489.289      35.834      23.104     455.122
 Approx polarizability:     647.974     -46.958     721.436      72.507      42.494     686.807
   1 Symmetry operations used in ECPInt.
 ECPInt:  NShTT=   45753 NPrTT=  276657 LenC2=   36873 LenP2D=  115461.
 LDataN:  DoStor=T MaxTD1= 8 Len=  415
 Calling FoFJK, ICntrl=    100127 FMM=F ISym2X=0 I1Cent= 0 IOpClX= 0 NMat=1 NMatS=1 NMatT=0.
 Defaulting to unpruned grid for atomic number  77.
 Defaulting to unpruned grid for atomic number  77.
 Defaulting to unpruned grid for atomic number  77.
 Defaulting to unpruned grid for atomic number  77.
 Defaulting to unpruned grid for atomic number  77.
 Defaulting to unpruned grid for atomic number  77.
 Defaulting to unpruned grid for atomic number  77.
 Defaulting to unpruned grid for atomic number  77.
 Defaulting to unpruned grid for atomic number  77.
 Defaulting to unpruned grid for atomic number  77.
 Defaulting to unpruned grid for atomic number  77.
 Defaulting to unpruned grid for atomic number  77.
 Defaulting to unpruned grid for atomic number  77.
 Defaulting to unpruned grid for atomic number  77.
 Defaulting to unpruned grid for atomic number  77.
 Defaulting to unpruned grid for atomic number  77.
 Full mass-weighted force constant matrix:
 Low frequencies --- -791.0604   -5.2838    0.0004    0.0006    0.0008    2.8127
 Low frequencies ---    7.2591   21.2866   27.0506
 ******    1 imaginary frequencies (negative Signs) ****** 
 Diagonal vibrational polarizability:
      116.1117361      85.7927136      98.0365462
 Harmonic frequencies (cm**-1), IR intensities (KM/Mole), Raman scattering
 activities (A**4/AMU), depolarization ratios for plane and unpolarized
 incident light, reduced masses (AMU), force constants (mDyne/A),
 and normal coordinates:
                      1                      2                      3
                      A                      A                      A
 Frequencies --   -791.0593                20.9671                26.9971
 Red. masses --      1.1223                 4.9354                 4.6807
 Frc consts  --      0.4138                 0.0013                 0.0020
 IR Inten    --    315.6087                 1.0214                 0.5357
  Atom AN      X      Y      Z        X      Y      Z        X      Y      Z
     1   6     0.00   0.00   0.00    -0.06  -0.03   0.07    -0.05  -0.04   0.02
     2   6     0.00  -0.00   0.00     0.03   0.05  -0.03    -0.03  -0.03   0.02
     3   6     0.00  -0.00   0.00    -0.03   0.02   0.02    -0.10  -0.09   0.08
     4   6     0.00   0.00   0.00    -0.11  -0.03   0.11    -0.17  -0.13   0.11
     5   6     0.00  -0.00   0.00    -0.12  -0.05   0.13    -0.14  -0.10   0.08
     6   6     0.00  -0.00  -0.00    -0.06  -0.05   0.08    -0.02  -0.01  -0.02
     7   6    -0.00  -0.00   0.00    -0.01  -0.01   0.02     0.03   0.06  -0.09
     8   6     0.00  -0.00  -0.00    -0.06  -0.07   0.10     0.05   0.07  -0.10
     9   6    -0.00   0.00  -0.00    -0.11  -0.12   0.17     0.02   0.04  -0.07
    10   6     0.00   0.00   0.00    -0.11  -0.11   0.16    -0.01   0.00  -0.03
    11   1     0.00   0.00  -0.01     0.08   0.08  -0.09     0.02  -0.01  -0.01
    12   1     0.00   0.00  -0.00    -0.16  -0.05   0.16    -0.23  -0.18   0.17
    13   1     0.00  -0.00   0.01    -0.18  -0.09   0.19    -0.19  -0.13   0.11
    14   1    -0.01  -0.00   0.01     0.03   0.03  -0.03     0.05   0.07  -0.11
    15   1    -0.00  -0.00  -0.00    -0.14  -0.17   0.23     0.03   0.05  -0.08
    16   1    -0.00  -0.00   0.00    -0.15  -0.14   0.22    -0.03  -0.01  -0.00
    17   7     0.02   0.00  -0.00     0.01   0.02  -0.01    -0.01  -0.01  -0.01
    18   7     0.00  -0.00   0.00    -0.01  -0.00   0.02     0.00   0.02  -0.05
    19  77    -0.01  -0.00   0.01     0.02   0.02  -0.02     0.01   0.02  -0.03
    20   8     0.00   0.00  -0.00    -0.00   0.02  -0.00    -0.01   0.01  -0.02
    21   8     0.00  -0.00  -0.00     0.04  -0.02   0.00     0.02  -0.00  -0.01
    22   8    -0.00   0.00  -0.00     0.02   0.02  -0.03     0.01  -0.02   0.04
    23   5     0.01   0.01  -0.01     0.03  -0.02  -0.02     0.02   0.02  -0.01
    24   5    -0.01  -0.01  -0.00     0.01   0.01  -0.01     0.01   0.02  -0.02
    25   5     0.02   0.01  -0.01     0.02   0.02  -0.01     0.00  -0.01  -0.00
    26   8     0.00   0.00  -0.00     0.01   0.02   0.01    -0.01  -0.02  -0.02
    27   8    -0.00   0.00   0.00     0.01   0.00  -0.01     0.01   0.02  -0.02
    28   6    -0.00  -0.00  -0.00    -0.00   0.00   0.00    -0.01   0.01  -0.02
    29   6     0.00   0.00  -0.00    -0.01   0.01   0.01    -0.01   0.01  -0.02
    30   6     0.00  -0.00   0.00     0.02   0.03  -0.02    -0.03  -0.06   0.08
    31   6     0.00   0.00  -0.00     0.01   0.02   0.00    -0.02  -0.04   0.03
    32   6     0.00   0.00  -0.00     0.05  -0.04  -0.01     0.03   0.00  -0.00
    33   6     0.00  -0.00  -0.00     0.05  -0.07  -0.03     0.04   0.03  -0.01
    34   8     0.00  -0.00  -0.00     0.04  -0.05  -0.04     0.04   0.04  -0.01
    35   6     0.00   0.00  -0.00    -0.01  -0.01   0.02    -0.01  -0.00  -0.02
    36   1    -0.00   0.00   0.00    -0.01  -0.02   0.03    -0.01  -0.01  -0.02
    37   1     0.00  -0.00  -0.00    -0.01  -0.01   0.02    -0.01  -0.01  -0.02
    38   1     0.00  -0.00  -0.00     0.00  -0.02   0.01     0.00  -0.00  -0.02
    39   6    -0.00   0.00   0.00    -0.03   0.01   0.02    -0.02   0.01  -0.02
    40   1    -0.00   0.00   0.00    -0.03   0.03   0.01    -0.02   0.02  -0.02
    41   1     0.00   0.00  -0.00    -0.04   0.01   0.02    -0.02   0.01  -0.02
    42   1    -0.00   0.00  -0.00    -0.03   0.01   0.03    -0.03   0.01  -0.02
    43   6     0.00   0.00   0.00    -0.00  -0.01   0.01    -0.01   0.00  -0.02
    44   1     0.00   0.00  -0.00     0.00  -0.02   0.01    -0.00  -0.01  -0.02
    45   1    -0.00  -0.00   0.00     0.00  -0.02   0.01    -0.01   0.01  -0.02
    46   1    -0.00   0.00   0.00    -0.01  -0.02   0.02    -0.02  -0.00  -0.02
    47   6    -0.00   0.00   0.00    -0.01   0.02   0.00    -0.01   0.03  -0.02
    48   1    -0.00  -0.00   0.00    -0.00   0.02  -0.00    -0.01   0.03  -0.02
    49   1    -0.00  -0.00   0.00    -0.01   0.03  -0.00    -0.01   0.04  -0.02
    50   1     0.00   0.00  -0.00    -0.02   0.02   0.01    -0.03   0.03  -0.01
    51   6     0.00  -0.00  -0.00     0.06  -0.05   0.02     0.01  -0.01  -0.01
    52   1     0.00  -0.00  -0.00     0.07  -0.07   0.02     0.02  -0.01  -0.01
    53   1     0.00   0.00  -0.00     0.07  -0.06   0.04    -0.01   0.00  -0.02
    54   1     0.00  -0.00  -0.00     0.05  -0.04   0.04     0.01  -0.03  -0.01
    55   6     0.00   0.00  -0.00     0.03  -0.03  -0.02     0.05  -0.01   0.01
    56   1    -0.00  -0.00  -0.00     0.02  -0.02  -0.05     0.06  -0.01   0.02
    57   1     0.00   0.00   0.00     0.04  -0.05  -0.03     0.06  -0.01   0.02
    58   1     0.00   0.00  -0.00     0.03  -0.01  -0.01     0.05  -0.04   0.00
    59   6     0.00   0.00  -0.00     0.07  -0.09  -0.00     0.01   0.05  -0.01
    60   1    -0.00  -0.00  -0.00     0.07  -0.10  -0.00     0.00   0.05  -0.02
    61   1     0.00   0.00   0.00     0.06  -0.11  -0.01     0.01   0.07  -0.00
    62   1     0.00  -0.00  -0.00     0.08  -0.08   0.01     0.00   0.04  -0.02
    63   6     0.00   0.00  -0.00     0.06  -0.09  -0.05     0.06   0.04   0.00
    64   1    -0.00   0.00   0.00     0.04  -0.08  -0.07     0.07   0.03   0.01
    65   1     0.00   0.00   0.00     0.06  -0.11  -0.07     0.07   0.06  -0.00
    66   1    -0.00   0.00  -0.00     0.07  -0.10  -0.04     0.06   0.03   0.01
    67   6    -0.00  -0.00  -0.00    -0.00   0.03   0.02    -0.05  -0.09   0.02
    68   1    -0.00  -0.00  -0.00    -0.00   0.05   0.02    -0.08  -0.12  -0.01
    69   1    -0.00   0.00  -0.00     0.00   0.03   0.01    -0.06  -0.10   0.06
    70   1     0.00   0.00  -0.00    -0.01   0.02   0.04    -0.04  -0.07  -0.02
    71   6     0.00   0.00  -0.00     0.01  -0.01   0.01     0.01   0.00   0.05
    72   1    -0.00   0.00   0.00     0.02  -0.01   0.01     0.00  -0.02   0.09
    73   1     0.00  -0.00  -0.00     0.02  -0.02  -0.00     0.03   0.04   0.07
    74   1     0.00   0.00   0.00     0.01  -0.01   0.03     0.01   0.02   0.01
    75   6    -0.00   0.00  -0.00     0.03   0.02  -0.04    -0.01  -0.05   0.17
    76   1    -0.00  -0.00  -0.00     0.02   0.02  -0.03    -0.04  -0.08   0.19
    77   1    -0.00  -0.00   0.00     0.03   0.02  -0.06    -0.02  -0.06   0.20
    78   1    -0.00   0.00  -0.00     0.03  -0.00  -0.04     0.03  -0.01   0.18
    79   6    -0.00  -0.00  -0.00     0.02   0.06  -0.02    -0.09  -0.12   0.06
    80   1    -0.00   0.00   0.00     0.01   0.07  -0.01    -0.10  -0.13  -0.00
    81   1     0.00  -0.00   0.00     0.03   0.06  -0.04    -0.10  -0.13   0.09
    82   1    -0.00  -0.00  -0.00     0.02   0.06  -0.02    -0.12  -0.15   0.09
    83   1     0.92   0.02  -0.24     0.00   0.00  -0.02     0.02   0.03  -0.02
    84   6     0.00   0.00   0.00    -0.03   0.04  -0.03     0.04   0.01   0.04
    85   8     0.00  -0.00   0.00    -0.06   0.04  -0.02     0.07   0.02   0.05
    86   6     0.00  -0.00   0.00     0.00   0.05  -0.06     0.02  -0.02   0.05
    87   1    -0.00  -0.00   0.00    -0.01   0.04  -0.05     0.00  -0.04   0.08
    88   1     0.00   0.00   0.01     0.05   0.02  -0.07     0.00  -0.04   0.02
    89   6    -0.05   0.01  -0.06     0.00   0.02  -0.03     0.02   0.03  -0.01
    90   1     0.18   0.01  -0.09     0.00   0.03  -0.03     0.01   0.05  -0.03
    91   1    -0.17  -0.01   0.15     0.01   0.04  -0.04     0.01   0.00  -0.01
    92   7     0.00   0.01  -0.01    -0.03   0.03  -0.03     0.04   0.03   0.01
    93   6    -0.00   0.01  -0.01    -0.05   0.01  -0.01     0.06   0.06  -0.00
    94   1     0.00   0.01   0.00    -0.04  -0.00   0.00     0.05   0.06  -0.03
    95   1    -0.00   0.01  -0.01    -0.06   0.02  -0.01     0.07   0.06   0.03
    96   1    -0.00   0.01  -0.01    -0.05   0.02  -0.01     0.08   0.08  -0.01
    97   6    -0.00  -0.00  -0.00    -0.00   0.11  -0.11     0.03   0.00   0.06
    98   1     0.00  -0.00  -0.00     0.01   0.12  -0.12     0.04   0.02   0.03
    99   1    -0.00  -0.00  -0.00    -0.05   0.14  -0.11     0.04   0.02   0.09
   100   1     0.00  -0.00  -0.00    -0.05  -0.08   0.10     0.07   0.10  -0.14
   101   1     0.00  -0.00   0.01    -0.02   0.05   0.00    -0.12  -0.11   0.10
   102   1    -0.00  -0.00  -0.00     0.03   0.13  -0.14     0.02  -0.02   0.07
                      4                      5                      6
                      A                      A                      A
 Frequencies --     28.4139                35.9557                38.2400
 Red. masses --      3.9897                 4.2564                 3.9924
 Frc consts  --      0.0019                 0.0032                 0.0034
 IR Inten    --      0.0746                 0.0837                 0.1754
  Atom AN      X      Y      Z        X      Y      Z        X      Y      Z
     1   6     0.02   0.03  -0.01     0.01   0.00  -0.03     0.00  -0.02  -0.01
     2   6     0.01   0.04  -0.02     0.02   0.01  -0.04     0.03  -0.01  -0.02
     3   6     0.04   0.07  -0.05     0.05   0.04  -0.06     0.04  -0.02  -0.03
     4   6     0.07   0.09  -0.06     0.07   0.05  -0.08     0.04  -0.02  -0.04
     5   6     0.05   0.07  -0.04     0.05   0.03  -0.06     0.01  -0.02  -0.03
     6   6     0.00   0.01   0.01    -0.02  -0.02  -0.00    -0.02  -0.02  -0.00
     7   6    -0.02  -0.01   0.03    -0.05  -0.03   0.03    -0.02  -0.00  -0.00
     8   6    -0.04  -0.03   0.06    -0.09  -0.08   0.07    -0.05  -0.03   0.02
     9   6    -0.03  -0.03   0.06    -0.10  -0.09   0.08    -0.07  -0.05   0.02
    10   6    -0.02  -0.01   0.03    -0.06  -0.06   0.04    -0.05  -0.05   0.01
    11   1    -0.01   0.03  -0.02     0.00   0.00  -0.03     0.04  -0.01  -0.01
    12   1     0.10   0.11  -0.08     0.10   0.07  -0.10     0.05  -0.02  -0.05
    13   1     0.08   0.08  -0.04     0.07   0.04  -0.06     0.01  -0.02  -0.03
    14   1    -0.02  -0.02   0.03    -0.04  -0.02   0.03    -0.01   0.01  -0.01
    15   1    -0.05  -0.05   0.08    -0.13  -0.12   0.11    -0.09  -0.07   0.04
    16   1    -0.02  -0.01   0.03    -0.07  -0.08   0.04    -0.06  -0.07   0.02
    17   7    -0.00   0.02  -0.01     0.01  -0.00  -0.03     0.01  -0.02  -0.01
    18   7    -0.00   0.01   0.01    -0.02  -0.01  -0.00    -0.01  -0.00  -0.01
    19  77    -0.00   0.01  -0.01     0.00   0.00  -0.02     0.01   0.00  -0.00
    20   8     0.00   0.01  -0.01     0.00   0.01  -0.02    -0.03   0.01   0.06
    21   8     0.01   0.02   0.00    -0.00  -0.04  -0.03    -0.01   0.02  -0.04
    22   8    -0.02  -0.01   0.05    -0.00   0.01  -0.02     0.01  -0.02   0.03
    23   5    -0.01  -0.02  -0.03     0.02   0.01  -0.01    -0.00   0.03  -0.01
    24   5    -0.01   0.01  -0.01    -0.00   0.00  -0.03     0.02  -0.00   0.02
    25   5    -0.00   0.00  -0.01    -0.00   0.00  -0.01     0.01  -0.01  -0.01
    26   8     0.01  -0.01  -0.06    -0.02   0.00   0.02     0.02  -0.02  -0.07
    27   8    -0.03   0.00  -0.00    -0.01  -0.01  -0.02     0.07  -0.02   0.02
    28   6    -0.02   0.00  -0.00    -0.04  -0.01  -0.01     0.05  -0.02   0.06
    29   6     0.00   0.01  -0.01    -0.02  -0.00  -0.02    -0.01  -0.01   0.09
    30   6    -0.04  -0.04   0.06    -0.02   0.02  -0.00     0.02  -0.05   0.01
    31   6    -0.01  -0.01  -0.02    -0.02   0.00   0.04     0.02  -0.03  -0.06
    32   6    -0.00   0.00  -0.01     0.02  -0.04  -0.02    -0.03   0.03  -0.04
    33   6    -0.01  -0.09  -0.04     0.02   0.06  -0.00    -0.04   0.07  -0.01
    34   8    -0.03  -0.09  -0.06     0.04   0.07   0.01    -0.02   0.06   0.02
    35   6    -0.00   0.02  -0.03    -0.02  -0.02  -0.05     0.00  -0.04   0.15
    36   1    -0.01   0.03  -0.04    -0.03  -0.03  -0.03     0.01  -0.05   0.16
    37   1     0.01   0.02  -0.04    -0.01   0.01  -0.05    -0.03  -0.07   0.17
    38   1    -0.02   0.03  -0.03    -0.02  -0.03  -0.08     0.05  -0.04   0.18
    39   6     0.02   0.01  -0.00    -0.01   0.01  -0.00    -0.07   0.00   0.11
    40   1     0.03   0.01   0.01    -0.01   0.02   0.02    -0.08   0.02   0.05
    41   1     0.03   0.02  -0.01     0.00   0.01  -0.01    -0.11   0.01   0.14
    42   1     0.02   0.01  -0.00    -0.03  -0.00   0.00    -0.04  -0.01   0.13
    43   6    -0.03   0.01  -0.01    -0.07  -0.04  -0.01     0.10  -0.05   0.09
    44   1    -0.04   0.03  -0.03    -0.06  -0.07  -0.04     0.12  -0.08   0.13
    45   1    -0.04  -0.01   0.00    -0.08  -0.04  -0.00     0.15  -0.04   0.06
    46   1    -0.00   0.02  -0.01    -0.10  -0.05  -0.00     0.07  -0.06   0.12
    47   6    -0.01  -0.01   0.02    -0.05   0.01   0.03     0.04  -0.00   0.00
    48   1    -0.02  -0.01   0.03    -0.06   0.01   0.04     0.08  -0.01  -0.04
    49   1     0.00  -0.02   0.03    -0.02   0.04   0.04    -0.01   0.03  -0.02
    50   1     0.00  -0.01   0.01    -0.07   0.01   0.05     0.03  -0.00   0.03
    51   6     0.06   0.03   0.03    -0.06  -0.09  -0.05    -0.07   0.01  -0.07
    52   1     0.06   0.02   0.03    -0.04  -0.08  -0.05    -0.10  -0.01  -0.09
    53   1     0.11  -0.00   0.05    -0.12  -0.05  -0.08    -0.10   0.02  -0.04
    54   1     0.05   0.09   0.05    -0.06  -0.17  -0.06    -0.05  -0.00  -0.10
    55   6    -0.08   0.05  -0.04     0.10  -0.10  -0.00     0.01   0.01  -0.05
    56   1    -0.12   0.03  -0.06     0.16  -0.07   0.03     0.04   0.01  -0.01
    57   1    -0.09   0.05  -0.04     0.11  -0.10   0.00    -0.02   0.02  -0.05
    58   1    -0.07   0.11  -0.02     0.10  -0.17  -0.03     0.03  -0.02  -0.09
    59   6     0.06  -0.14  -0.00    -0.05   0.11  -0.04    -0.08   0.09  -0.02
    60   1     0.09  -0.14   0.01    -0.07   0.10  -0.04    -0.10   0.09  -0.03
    61   1     0.06  -0.21  -0.02    -0.04   0.19  -0.03    -0.08   0.12  -0.01
    62   1     0.10  -0.12   0.03    -0.11   0.09  -0.06    -0.09   0.08  -0.04
    63   6    -0.05  -0.12  -0.08     0.09   0.09   0.04    -0.05   0.09   0.02
    64   1    -0.10  -0.09  -0.11     0.15   0.06   0.07    -0.02   0.07   0.03
    65   1    -0.05  -0.19  -0.10     0.09   0.16   0.05    -0.05   0.11   0.04
    66   1    -0.03  -0.12  -0.07     0.07   0.07   0.03    -0.07   0.09  -0.00
    67   6     0.00  -0.06  -0.06    -0.05   0.02   0.07     0.05  -0.08  -0.11
    68   1    -0.01  -0.13  -0.08    -0.07   0.05   0.05     0.06  -0.13  -0.11
    69   1    -0.01  -0.06  -0.02    -0.05   0.02   0.08     0.05  -0.09  -0.10
    70   1     0.03  -0.03  -0.12    -0.05   0.01   0.09     0.05  -0.06  -0.17
    71   6     0.00   0.08  -0.02    -0.00  -0.03   0.06     0.01   0.04  -0.08
    72   1     0.00   0.07   0.02    -0.00  -0.02   0.06     0.01   0.02  -0.08
    73   1     0.01   0.14   0.02     0.01  -0.05   0.03    -0.00   0.08  -0.04
    74   1     0.01   0.10  -0.09     0.00  -0.04   0.08    -0.00   0.05  -0.14
    75   6    -0.05  -0.01   0.15    -0.01   0.00  -0.01     0.01  -0.03   0.06
[...]
 00357,0.00000899,0.00000339,0.00000376,-0.00019119,0.00005500,-0.00006
 933,0.00003516,0.00000290,0.00001720,0.00003622,-0.00003519,0.00002809
 ,0.00003360,-0.00000319,0.00000455,-0.00003649,0.00000844,-0.00001052,
 0.00001257,0.00000699,0.00000487,0.00001240,-0.00002083,0.00000926,0.0
 0000268,-0.00000345,0.00000621,-0.00000334,0.00000131,0.00000063,0.000
 00034,-0.00000038,0.00000237,-0.00000175,-0.00000115,-0.00000123,0.000
 00141,0.00000098,0.00000007,-0.00000490,0.00000322,-0.00000018,-0.0000
 0250,-0.00000130,0.00000044,0.00000082,-0.00000167,-0.00000118,0.00000
 132,0.00000096,-0.00000022,-0.00000064,-0.00000091,-0.00000288,-0.0000
 0197,-0.00000031,-0.00000038,0.00000087,-0.00000028,0.00000019,-0.0000
 0093,0.,0.00000117,-0.00000164,-0.00000031,-0.00000175,-0.00000139,-0.
 00000206,0.00000096,0.00000147,0.00000173,0.00000120,-0.00000223,0.000
 00064,-0.00000129,0.00003834,-0.00001141,0.00006474,-0.00003593,-0.000
 05816,-0.00004218,0.00000833,0.00003609,-0.00000463,0.00000710,0.00002
 723,0.00000673,-0.00000303,-0.00001489,0.00000933,0.00000145,0.0000075
 5,0.00000637,0.00000060,-0.00010330,0.00010587,0.00001605,-0.00000340,
 -0.00000693,0.00000780,0.00001153,-0.00004695,0.00003148,0.00010197,-0
 .00001005,0.00001209,-0.00000404,0.00002346,-0.00000348,0.00000245,-0.
 00000379,-0.00000029,0.00000277,0.00000102,-0.00000043,-0.00000333,-0.
 00000493,-0.00000978,-0.00001007,0.00000106,-0.00000110,-0.00000182,-0
 .00000174,-0.00000192,0.00000309,0.00000075,0.00000331,0.00001126,-0.0
 0001657,0.03260586,0.16404951,-0.00024582,0.00109920,0.00014391,-0.000
 60629,-0.01385984,-0.01108566,-0.05739396,-0.13750795,-0.21416851,-0.0
 0116031,0.00052753,0.00151736,-0.00204309,-0.00145156,0.00348839,0.000
 57293,0.00031706,-0.00043511,0.00002196,-0.00005555,-0.00003813,-0.000
 05924,0.00004925,-0.00002565,0.00009121,0.00001595,0.00005076,-0.00007
 599,-0.00009796,-0.00010182,0.00150333,0.00104394,-0.00065798,0.001739
 63,0.00086506,-0.00082735,-0.00017418,0.00010212,0.00005317,0.00000132
 ,-0.00000204,-0.00000044,0.00000355,-0.00000397,-0.00000802,-0.0000206
 5,-0.00002031,0.00003742,-0.00624900,-0.00046106,0.00072610,-0.0000463
 0,0.00002820,0.00003193,0.00047938,-0.00016866,0.00002219,-0.00001036,
 0.00013748,0.00004647,-0.00004422,0.00001502,0.00004472,-0.00008923,-0
 .00002167,-0.00003363,0.00020399,-0.00001227,-0.00013305,0.00006260,-0
 .00031108,-0.00014058,0.00011366,0.00005048,0.00000674,-0.00013313,0.0
 0002609,-0.00004272,0.00001015,0.00019640,0.00015504,-0.00006859,-0.00
 010772,0.00002027,0.00001260,-0.00002913,-0.00005765,0.00002552,-0.000
 00603,0.00002843,0.00002933,0.00001228,0.00000489,0.00000616,0.0000084
 3,-0.00001858,0.00000525,-0.00003317,-0.00003631,-0.00002858,0.0000335
 7,0.00012021,0.00000252,0.00000558,0.00002064,-0.00000464,0.00000402,0
 .00000131,0.00000934,-0.00000293,0.00000521,0.00000121,-0.00000142,-0.
 00000696,0.00000063,0.00000687,0.00001019,0.00000188,-0.00000023,-0.00
 001042,0.00000659,-0.00000080,0.00000379,-0.00000480,0.00000791,-0.000
 00042,-0.00000048,0.00001906,-0.00001439,0.00001450,0.00000054,-0.0000
 0367,-0.00000438,0.00000025,0.00001990,-0.00000032,0.00000246,0.000007
 56,-0.00002905,0.00002842,-0.00008561,0.00000218,0.00001163,0.00005607
 ,0.00000024,-0.00000216,-0.00001578,0.00002428,-0.00000496,0.00001655,
 -0.00000421,-0.00000571,0.00000099,-0.00000101,0.00000107,0.00000216,0
 .00000035,0.00000374,0.00000091,-0.00000013,0.00000099,-0.00000059,0.0
 0000068,-0.00000299,0.00000528,0.00000010,0.00000351,0.00000079,-0.000
 00081,-0.00000156,0.00000159,0.00000134,0.00000139,-0.00000112,-0.0000
 2357,-0.00001016,0.00000789,0.00001532,0.00000451,0.00000188,-0.000104
 36,-0.00003859,0.00004860,-0.00002472,0.00000246,-0.00001092,0.0000024
 3,0.00000712,0.00001396,0.00000189,0.00000612,-0.00000270,-0.00000121,
 -0.00000236,-0.00000034,-0.00000149,-0.00000148,0.00000349,-0.00000626
 ,-0.00000390,0.00000043,0.00000124,-0.00000162,0.00000003,-0.00000318,
 0.00000119,-0.00000329,-0.00000201,0.00000323,0.00000031,-0.00000672,-
 0.00000483,-0.00000397,-0.00000512,-0.00000047,0.00000241,0.00000226,-
 0.00000032,-0.00000167,-0.00000082,0.00000284,0.00000067,-0.00000410,0
 .00000121,-0.00000550,-0.00000479,-0.00000112,-0.00000161,0.00000112,-
 0.00000030,0.00000098,0.00000089,-0.00000007,0.00000074,-0.00000299,0.
 00000090,-0.00000569,-0.00000107,-0.00000243,0.00000398,0.00000129,0.0
 0000147,0.00000190,-0.00000402,-0.00000022,-0.00000380,-0.00016143,-0.
 00000515,-0.00001755,-0.00013658,-0.00010381,-0.00010851,0.00003479,0.
 00008283,0.00004427,0.00002043,-0.00007122,0.00001758,0.00000564,0.000
 07531,-0.00002617,-0.00003000,-0.00005224,-0.00002179,0.00002431,-0.00
 008601,0.00003363,0.00000398,0.00001523,-0.00000894,0.00000777,-0.0000
 1401,0.00003211,0.00008282,0.00008129,0.00006763,-0.00001041,0.0000299
 8,-0.00000378,0.00001426,-0.00000544,0.00000040,-0.00000220,-0.0000006
 8,-0.00000797,0.00000369,-0.00000223,0.00000558,-0.00001438,0.00002308
 ,-0.00001863,-0.00000274,0.00000872,0.00002747,0.00000758,0.00000049,0
 .00000487,-0.00001327,-0.00001631,0.00001116,0.06385067,0.14964339,0.2
 2123157,-0.00006819,-0.00011301,-0.00012540,0.00001061,0.00005004,0.00
 013538,-0.00005579,0.00012758,-0.00001863,0.00010721,-0.00013953,-0.00
 002254,0.00009619,-0.00000199,0.00008519,0.00002945,0.00000759,0.00000
 654,-0.00000094,-0.00001795,-0.00002521,-0.00001781,0.00003019,0.00000
 539,0.00004454,-0.00002417,0.00001571,0.00000122,-0.00001221,-0.000019
 07,-0.00004850,0.00003275,-0.00001518,-0.00000083,-0.00001516,0.000017
 54,-0.00000565,-0.00001485,0.00000862,-0.00000062,0.00000854,0.0000029
 5,0.00000030,-0.00000183,0.00000018,0.00000953,-0.00002355,0.00000568,
 -0.00010342,0.00004370,-0.00018962,-0.00002615,0.00010237,0.00005857,-
 0.00013575,-0.00024513,0.00020336,-0.00007231,-0.00004171,0.00014000,-
 0.00002854,-0.00002767,0.00006456,-0.00002881,-0.00004929,-0.00001399,
 0.00000689,0.00008683,-0.00007227,0.00002763,0.00011201,-0.00021182,0.
 00007543,0.00007875,0.00001156,-0.00004954,-0.00003912,0.00001477,0.00
 003129,-0.00001476,0.00011340,0.00001419,0.00001010,-0.00000090,0.0000
 4382,-0.00005268,-0.00006396,0.00000945,0.00000086,-0.00000271,0.00004
 063,0.00001724,0.00000605,0.00000828,0.00001604,-0.00002767,0.00000151
 ,-0.00000742,-0.00000965,0.00000588,-0.00003628,0.00010090,-0.00000461
 ,0.00000039,0.00001167,-0.00000784,0.00000621,0.00000461,0.00000632,-0
 .00000028,-0.00000094,-0.00000305,-0.00000485,0.00000126,0.00002881,0.
 00001580,0.00000101,0.00001187,-0.00003300,-0.00002121,0.00000379,-0.0
 0000676,0.00000096,-0.00001487,0.00000728,0.00001430,-0.00000731,-0.00
 001212,-0.00000043,-0.00000739,-0.00000020,0.00000318,0.00000465,-0.00
 000041,0.00001004,-0.00000017,0.00000066,-0.00000231,0.00002023,0.0000
 0246,-0.00007475,-0.00000469,-0.00000734,0.00004835,-0.00000010,-0.000
 01925,-0.00006460,-0.00000566,0.00000573,0.00001441,0.00000041,-0.0000
 0036,0.00000419,-0.00000264,-0.00000167,0.00000436,-0.00000063,0.00000
 047,-0.00000381,0.00000283,0.00000121,-0.00000130,-0.00000121,-0.00000
 343,0.00000529,0.00000032,0.00000180,-0.00000234,-0.00000301,-0.000003
 20,0.00000366,0.00000352,0.00000094,-0.00000079,-0.00000939,0.00000543
 ,-0.00000307,0.00000059,0.00000169,0.00000339,0.00000615,-0.00000438,0
 .00000535,-0.00000146,-0.00000009,-0.00000566,-0.00000397,0.00000222,0
 .00000152,-0.00000125,-0.00000011,-0.00000113,0.00000451,-0.00000104,0
 .00000347,-0.00000098,-0.00000208,0.00000264,0.00000019,-0.00000099,-0
 .00000733,0.00000259,0.00000336,0.00000734,-0.00000583,-0.00000356,-0.
 00000020,0.00000455,-0.00000043,-0.00000005,-0.00000445,-0.00000077,0.
 00000123,-0.00000538,-0.00000189,-0.00000011,0.00000138,-0.00000040,0.
 00000094,0.00000315,0.00000010,-0.00000073,0.00000011,-0.00000030,0.00
 000265,-0.00000148,0.00000052,-0.00000089,0.00000108,-0.00000351,-0.00
 000160,-0.00000145,0.00000028,0.00000227,0.00000555,0.00001161,-0.0000
 0100,-0.00000078,0.00000090,0.00000311,0.00000005,-0.00000541,0.000000
 45,-0.00000252,-0.00000038,-0.00000103,0.00012106,0.00006207,-0.000128
 77,-0.00163232,0.00021396,0.00686943,-0.00024038,0.00112811,-0.0016485
 3,-0.02108808,0.00673027,-0.01795734,0.00122116,0.00002247,-0.00013196
 ,0.00109167,-0.00076660,-0.00034053,-0.00001852,0.00089831,-0.00024171
 ,-0.00010603,-0.00013076,-0.00001992,-0.00009342,0.00002070,0.00003679
 ,-0.00076284,-0.00050469,-0.00114735,0.00033498,-0.00033193,-0.0001038
 0,-0.00006933,-0.00003806,-0.00000812,0.00005575,0.00003678,0.00005068
 ,-0.00012670,0.00003977,-0.00016017,-0.18056734,0.04399227,-0.12751690
 ,-0.00331517,0.00122660,-0.00207889,0.00867121,-0.00227012,0.00818708,
 0.00000051,-0.00000005,0.00000050,-0.00001572,0.00000197,0.00003544,0.
 19660779,0.00000383,-0.00003378,-0.00003941,-0.00002572,0.00000660,0.0
 0005725,0.00000123,0.00002451,0.00003967,0.00004091,0.00002729,-0.0000
 0881,0.00003785,0.00000699,-0.00003302,-0.00001185,-0.00001279,-0.0000
 1539,-0.00000352,0.00000509,0.00000325,0.00000569,-0.00000489,0.000002
 82,-0.00000017,-0.00000672,-0.00000861,-0.00000265,0.00001235,-0.00000
 073,0.00000457,0.00000865,0.00000393,-0.00000221,0.00000433,0.00000327
 ,-0.00000660,-0.00001094,0.00000608,0.00000019,0.00000070,-0.00000001,
 -0.00000208,0.00000075,0.00000043,0.00000037,-0.00001368,0.00000551,0.
 00000558,0.00003618,-0.00002350,-0.00000091,0.00001014,0.00000504,0.00
 002563,0.00001891,0.00001895,0.00003319,-0.00001802,-0.00004039,0.0000
 3490,0.00000149,-0.00003113,0.00003438,0.00001068,0.00001398,-0.000047
 05,-0.00000723,0.00003459,-0.00003328,0.00001651,0.00006258,-0.0000530
 3,-0.00000419,-0.00001117,0.00003877,0.00000056,0.00000766,0.00000749,
 -0.00005024,-0.00004434,0.00000581,0.00004463,0.00000227,-0.00002079,0
 .00001958,0.00003300,-0.00001514,-0.00000011,-0.00001118,-0.00001959,-
 0.00000557,-0.00000330,-0.00000850,-0.00000764,0.00001399,-0.00001383,
 0.00000629,0.00002203,0.00002738,0.00000542,-0.00004044,0.00000100,0.0
 0000041,-0.00000789,0.00000372,-0.00000363,-0.00000205,-0.00000332,0.0
 0000065,0.,0.00000045,0.00000191,0.00000053,-0.00001497,-0.00000835,-0
 .00000039,-0.00000608,0.00001770,0.00001217,-0.00000163,0.00000149,-0.
 00000035,0.00000877,-0.00000449,-0.00000660,0.00000019,-0.00000188,-0.
 00000017,-0.00000110,0.00000021,0.00000012,-0.00000082,0.00000328,-0.0
 0000477,0.00000223,-0.00000312,0.00000059,-0.00002920,-0.00001276,0.00
 003099,0.00000757,0.00001203,-0.00002713,0.00001867,0.00000671,0.00003
 049,0.00000729,-0.00000865,-0.00000551,0.00000180,0.00000080,-0.000000
 49,0.00000100,0.00000064,-0.00000241,-0.00000083,-0.00000030,0.0000009
 9,0.00000049,-0.00000078,0.00000102,0.00000060,0.00000181,-0.00000128,
 -0.00000025,-0.00000211,0.00000077,0.00000126,0.00000168,-0.00000209,-
 0.00000010,-0.00000059,0.00000116,-0.00000051,-0.00000232,-0.00000425,
 0.00000332,-0.00000064,-0.00000328,-0.00000086,0.00000100,0.00000350,-
 0.00000075,0.00000148,0.00000273,0.00000072,-0.00000063,-0.00000282,-0
 .00000085,-0.00000052,0.00000071,-0.00000132,0.00000057,0.00000138,0.0
 0000249,0.00000039,-0.00000236,0.00000126,-0.00000013,0.00000125,-0.00
 000107,-0.00000064,-0.00000183,0.00000248,0.00000123,0.00000083,-0.000
 00111,-0.00000097,-0.00000007,0.00000244,0.00000094,0.00000002,0.00000
 309,0.00000093,0.00000006,-0.00000149,-0.00000034,0.00000005,-0.000001
 10,-0.00000064,-0.00000017,0.00000070,0.00000105,0.00000096,0.00000201
 ,-0.00000013,0.00000097,-0.00000097,0.00000070,-0.00000055,-0.00000060
 ,0.00000002,-0.00000086,0.00000016,-0.00000137,0.00000276,0.00000089,0
 .00000010,-0.00000213,-0.00000076,0.00000036,-0.00000138,0.00000231,-0
 .00000037,0.00000181,0.00003011,0.00000007,-0.00000496,0.00086189,-0.0
 0030621,-0.00213323,0.00009815,0.00021796,0.00022899,0.00653335,-0.002
 78590,0.00565089,-0.00022323,-0.00004321,0.00043720,-0.00049440,0.0003
 4805,-0.00032162,-0.00000358,-0.00006031,0.00000572,0.00001945,0.00004
 508,-0.00000815,-0.00004082,0.00007104,-0.00019366,0.00006597,0.000062
 39,0.00063642,-0.00006588,0.00012422,0.00011510,0.00000523,0.00002281,
 -0.00002020,-0.00004964,-0.00001626,-0.00003004,0.00005969,-0.00001723
 ,0.00004207,0.04382039,-0.06244538,0.04187120,-0.01896007,0.00753659,-
 0.01690885,0.01841362,-0.00478072,0.01531987,0.00000259,0.00000155,0.0
 0000183,0.00000736,0.00000209,-0.00001917,-0.05012823,0.06192882,-0.00
 001629,-0.00001971,-0.00001706,0.00000818,0.00000732,0.00000463,-0.000
 01936,-0.00002126,0.00000452,-0.00002904,-0.00001070,0.00002679,0.0000
 0851,-0.00000543,0.00001784,0.00000883,0.00002624,0.00002027,0.0000066
 0,-0.00001177,-0.00000529,-0.00001205,0.00000728,-0.00000169,0.0000124
 7,-0.00000029,0.00000990,-0.00000934,-0.00000926,-0.00002701,0.0000123
 9,-0.00000410,-0.00000505,0.00000057,-0.00000227,0.00000883,-0.0000060
 9,-0.00001807,0.00000501,0.00000191,0.00000219,-0.00000079,-0.00000075
 ,-0.00000406,-0.00000232,0.00000068,-0.00000862,0.00001021,-0.00001444
 ,0.00001090,-0.00001992,-0.00001041,0.00002541,0.00001107,-0.00012830,
 -0.00005007,0.00010201,-0.00000666,0.00002229,0.00000517,-0.00002539,-
 0.00000497,0.00002706,-0.00002853,-0.00001540,-0.00001211,0.00003960,0
 .00001282,-0.00003473,0.00001206,-0.00003704,0.00000368,0.00006083,0.0
 0001242,0.00001232,-0.00003281,-0.00000180,-0.00000484,-0.00001521,0.0
 0000821,0.00000696,0.00001191,0.00000452,0.00000146,0.00000597,-0.0000
 0422,0.00000113,0.00001106,-0.00000019,0.00000444,0.00001596,0.0000058
 4,0.00000231,0.00000714,0.00000754,-0.00001183,0.00000833,-0.00000141,
 -0.00001248,-0.00001653,-0.00001298,0.00004349,-0.00000155,-0.00000196
 ,-0.00000303,-0.00000037,0.00000182,0.00000136,-0.00000053,-0.00000036
 ,-0.00000074,0.00000113,-0.00000074,0.00000019,-0.00000075,0.00000027,
 -0.00000071,-0.00000219,-0.00000216,-0.00000166,0.00000084,-0.00000066
 ,-0.00000149,0.00000050,0.00000091,0.00000192,-0.00000446,-0.00000264,
 -0.00000056,-0.00000291,-0.00000095,0.00000158,0.00000181,-0.00000058,
 -0.00000031,-0.00000045,0.00000174,-0.00000033,-0.00001846,0.00000241,
 0.00000147,0.00000531,-0.00000438,-0.00001866,0.00000952,0.00000647,0.
 00003742,-0.00000769,0.00000529,-0.00000094,-0.00000076,-0.00000012,0.
 00000072,-0.00000090,-0.00000062,0.00000223,0.00000045,-0.00000033,-0.
 00000104,-0.00000021,0.00000055,-0.00000095,-0.00000099,-0.00000136,0.
 00000105,0.00000072,0.00000170,-0.00000045,-0.00000130,-0.00000151,0.0
 0000210,0.00000031,0.00000046,-0.00000090,-0.00000190,0.00000053,0.000
 00131,-0.00000169,0.00000077,0.00000249,0.00000137,0.00000036,-0.00000
 198,0.00000136,-0.00000109,-0.00000154,-0.00000141,0.00000011,0.000001
 73,-0.00000013,-0.00000048,-0.00000100,0.00000159,0.00000022,-0.000000
 12,-0.00000158,-0.00000054,0.00000201,-0.00000059,-0.00000028,-0.00000
 140,0.00000053,0.00000042,0.00000161,-0.00000215,-0.00000103,-0.000000
 82,0.00000092,0.00000064,0.00000020,-0.00000188,-0.00000063,0.00000025
 ,-0.00000282,-0.00000081,-0.00000022,0.00000117,0.00000016,0.00000008,
 0.00000081,0.00000036,0.,-0.00000085,-0.00000006,0.00000046,-0.0000015
 1,0.00000003,-0.00000080,0.00000071,-0.00000105,-0.00000052,-0.0000004
 4,0.00000015,0.00000108,-0.00000001,0.00000384,-0.00000064,-0.00000104
 ,-0.00000171,0.00000127,0.00000085,-0.00000031,0.00000027,-0.00000158,
 0.00000004,-0.00000139,0.00007808,0.00001782,-0.00004844,0.00234296,-0
 .00028046,-0.00316845,-0.00014450,-0.00094535,0.00106211,0.01477421,-0
 .00483123,0.01201780,-0.00091526,0.00025280,0.00066661,-0.00097402,0.0
 0034482,0.00071851,0.00010503,0.00006050,-0.00006765,0.00000088,0.0000
 4183,-0.00000321,-0.00009981,0.00008674,-0.00012665,0.00002188,0.00009
 420,0.00099048,-0.00005307,0.00011352,0.00013254,-0.00001702,0.0000112
 9,-0.00001817,-0.00001683,-0.00003009,-0.00003507,0.00007580,-0.000009
 32,0.00006348,-0.12697230,0.04185715,-0.16559057,-0.01160773,0.0060952
 9,-0.01159889,-0.01259050,0.00191401,-0.01122294,0.00000048,0.00000070
 ,-0.00000071,0.00000314,0.00000284,-0.00001144,0.13615998,-0.04470935,
 0.17604611\\0.00000074,0.00000857,0.00000861,-0.00000750,0.00000934,-0
 .00000351,0.00000005,0.00000757,0.00000976,-0.00000013,0.00000726,0.00
 000549,0.00000314,0.00000394,0.00000489,0.00000446,0.00000312,0.000003
 41,0.00000499,0.00000199,0.00000632,0.00001445,-0.00000038,0.00000915,
 0.00000521,0.00000442,0.00000637,0.00000772,0.00000106,0.00000771,0.00
 000132,-0.00000019,-0.00000004,-0.00000027,0.00000428,0.00000289,0.000
 00079,0.00000453,0.00000444,0.00000412,-0.00000218,0.00000120,0.000004
 80,0.00000091,0.00000433,0.00000359,0.00000243,0.00000369,0.00000004,0
 .00000538,0.00000571,0.00000609,-0.00000191,0.00000361,0.00000489,0.00
 000255,0.00000104,-0.00000562,0.00000073,-0.00000401,0.00000590,-0.000
 00130,-0.00000403,0.00000659,-0.00000543,0.00000221,-0.00000787,0.0000
 0158,0.00000232,-0.00000298,0.00000327,0.00000206,0.00000242,-0.000001
 52,-0.00000068,0.00000371,-0.00000852,-0.00000219,-0.00000511,-0.00000
 005,-0.00000509,-0.00001032,-0.00000052,0.00000082,-0.00000087,-0.0000
 0072,-0.00000607,0.00000490,-0.00000471,-0.00000454,-0.00000201,-0.000
 00342,-0.00000763,-0.00000403,-0.00000383,0.00000357,-0.00000460,0.000
 00175,-0.00000473,0.00000254,0.00000232,0.00000347,-0.00000753,-0.0000
 0437,-0.00000875,-0.00000274,-0.00000061,-0.00000339,-0.00000077,-0.00
 000043,0.00000109,-0.00000234,-0.00000064,-0.00000235,-0.00000364,-0.0
 0000288,-0.00000637,-0.00000557,0.00000005,-0.00000046,-0.00000206,-0.
 00000128,-0.00000205,-0.00000353,-0.00000058,-0.00000310,-0.00000303,0
 .00000858,-0.00000637,-0.00000654,-0.00000223,-0.00000136,-0.00000496,
 0.00000159,-0.00000297,-0.00000356,-0.00000276,-0.00000181,-0.00000395
 ,0.00000285,-0.00000022,-0.00000467,0.00000324,-0.00000151,-0.00000087
 ,0.00000096,-0.00000327,-0.00000358,0.00000189,-0.00000128,-0.00000528
 ,0.00000236,-0.00000578,-0.00000112,-0.00000064,-0.00000127,-0.0000027
 8,-0.00000138,-0.00000132,0.00000015,-0.00000198,-0.00000093,0.0000055
 8,-0.00000485,-0.00000164,-0.00000066,0.00000109,0.00000075,0.00000088
 ,0.00000001,-0.00000096,-0.00000125,-0.00000124,-0.00000169,-0.0000062
 6,0.00000401,0.00000448,0.00000031,0.00000048,-0.00000463,-0.00000232,
 0.00000332,0.00000029,-0.00000264,0.00000021,-0.00000072,-0.00000455,0
 .00000149,-0.00000140,0.00000066,0.00000183,0.00000083,0.00000270,0.00
 000146,0.00000310,-0.00000141,0.00000148,0.00000134,0.00000241,-0.0000
 1464,-0.00000264,0.00000115,-0.00000287,-0.00000120,0.00000219,-0.0000
 0348,-0.00000221,0.00000087,-0.00000290,-0.00000294,0.00000556,-0.0000
 0649,-0.00000609,-0.00000285,-0.00000423,-0.00000330,0.00000056,-0.000
 00272,-0.00000003,-0.00000068,-0.00000294,-0.00000191,0.00001131,-0.00
 001365,0.00000142,-0.00000102,-0.00000345,-0.00000360,0.00000106,0.000
 00012,0.00000105,0.00000213,-0.00000323,-0.00000287,0.00000457,-0.0000
 0410,-0.00000208,0.00000150,-0.00000430,0.00000042,0.00000484,-0.00000
 475,-0.00000022,0.00000335,-0.00000392,-0.00000049,0.00000010,-0.00000
 019,0.00000094,-0.00000399,0.00001192,-0.00000450,-0.00000219,-0.00000
 463,0.00000262,-0.00000014,0.00001137,0.00000500,-0.00000250,-0.000000
 38,-0.00000213,-0.00000194,-0.00000122,0.00000300,-0.00000351,0.000006
 96,-0.00000175,0.00000231,-0.00000017,0.00000135,0.00000523,-0.0000008
 4,0.00000337,0.00000278,-0.00000838,0.00000435,0.00000037,-0.00000545,
 -0.00000474,0.00000048,-0.00000094,-0.00000054,-0.00000023,0.00000197,
 -0.00000108,0.00000055,0.00000016,0.00000244,0.00000343,0.00000777,0.0
 0000829,0.00000020,-0.00000143,-0.00000081,-0.00000065,0.00000203,0.00
 000163,0.00000281,-0.00000247,0.00000034,-0.00000128,0.00000417,0.0000
 0195,-0.00000267,0.00000397,0.00000016\\\@
 The archive entry for this job was punched.


 CONFIDENCE IS WHAT YOU FEEL BEFORE YOU FULLY
 COMPREHEND THE SITUATION.
 Job cpu time:       1 days 16 hours 48 minutes 38.3 seconds.
 Elapsed time:       0 days  2 hours 35 minutes 47.5 seconds.
 File lengths (MBytes):  RWF=   6947 Int=      0 D2E=      0 Chk=     43 Scr=      1
 Normal termination of Gaussian 16 at Sun Dec  8 00:34:42 2024.
