/mnt/lustre/scratch/nvme/SLURM/9663727/usccqdma.CBdbmPftfy
OMP_STACKSIZE=0m
GAUSS_PDEF=16
GAUSS_MDEF=65536MB
GAUSS_RDEF=SCF=Direct
 Entering Gaussian System, Link 0=g16.exe
 Initial command:
 /opt/cesga/2020/software/Core/g16/c1/l1.exe "/mnt/lustre/scratch/nvme/SLURM/9663727/usccqdma.CBdbmPftfy/Gau-667094.inp" -scrdir="/mnt/lustre/scratch/nvme/SLURM/9663727/usccqdma.CBdbmPftfy/"
 Default is to use a total of  16 processors:
                               16 via shared-memory
                                1 via Linda
 Entering Link 1 = /opt/cesga/2020/software/Core/g16/c1/l1.exe PID=    667120.
  
 Copyright (c) 1988-2019, Gaussian, Inc.  All Rights Reserved.
  
 This is part of the Gaussian(R) 16 program.  It is based on
 the Gaussian(R) 09 system (copyright 2009, Gaussian, Inc.),
 the Gaussian(R) 03 system (copyright 2003, Gaussian, Inc.),
 the Gaussian(R) 98 system (copyright 1998, Gaussian, Inc.),
 the Gaussian(R) 94 system (copyright 1995, Gaussian, Inc.),
 the Gaussian 92(TM) system (copyright 1992, Gaussian, Inc.),
 the Gaussian 90(TM) system (copyright 1990, Gaussian, Inc.),
 the Gaussian 88(TM) system (copyright 1988, Gaussian, Inc.),
 the Gaussian 86(TM) system (copyright 1986, Carnegie Mellon
 University), and the Gaussian 82(TM) system (copyright 1983,
 Carnegie Mellon University). Gaussian is a federally registered
 trademark of Gaussian, Inc.
  
 This software contains proprietary and confidential information,
 including trade secrets, belonging to Gaussian, Inc.
  
 This software is provided under written license and may be
 used, copied, transmitted, or stored only in accord with that
 written license.
  
 The following legend is applicable only to US Government
 contracts under FAR:
  
                    RESTRICTED RIGHTS LEGEND
  
 Use, reproduction and disclosure by the US Government is
 subject to restrictions as set forth in subparagraphs (a)
 and (c) of the Commercial Computer Software - Restricted
 Rights clause in FAR 52.227-19.
  
 Gaussian, Inc.
 340 Quinnipiac St., Bldg. 40, Wallingford CT 06492
  
  
 ---------------------------------------------------------------
 Warning -- This program may not be used in any manner that
 competes with the business of Gaussian, Inc. or will provide
 assistance to any competitor of Gaussian, Inc.  The licensee
 of this program is prohibited from giving any competitor of
 Gaussian, Inc. access to this program.  By using this program,
 the user acknowledges that Gaussian, Inc. is engaged in the
 business of creating and licensing software in the field of
 computational chemistry and represents and warrants to the
 licensee that it is not a competitor of Gaussian, Inc. and that
 it will not use this program in any manner prohibited above.
 ---------------------------------------------------------------
  

 Cite this work as:
 Gaussian 16, Revision C.01,
 M. J. Frisch, G. W. Trucks, H. B. Schlegel, G. E. Scuseria, 
 M. A. Robb, J. R. Cheeseman, G. Scalmani, V. Barone, 
 G. A. Petersson, H. Nakatsuji, X. Li, M. Caricato, A. V. Marenich, 
 J. Bloino, B. G. Janesko, R. Gomperts, B. Mennucci, H. P. Hratchian, 
 J. V. Ortiz, A. F. Izmaylov, J. L. Sonnenberg, D. Williams-Young, 
 F. Ding, F. Lipparini, F. Egidi, J. Goings, B. Peng, A. Petrone, 
 T. Henderson, D. Ranasinghe, V. G. Zakrzewski, J. Gao, N. Rega, 
 G. Zheng, W. Liang, M. Hada, M. Ehara, K. Toyota, R. Fukuda, 
 J. Hasegawa, M. Ishida, T. Nakajima, Y. Honda, O. Kitao, H. Nakai, 
 T. Vreven, K. Throssell, J. A. Montgomery, Jr., J. E. Peralta, 
 F. Ogliaro, M. J. Bearpark, J. J. Heyd, E. N. Brothers, K. N. Kudin, 
 V. N. Staroverov, T. A. Keith, R. Kobayashi, J. Normand, 
 K. Raghavachari, A. P. Rendell, J. C. Burant, S. S. Iyengar, 
 J. Tomasi, M. Cossi, J. M. Millam, M. Klene, C. Adamo, R. Cammi, 
 J. W. Ochterski, R. L. Martin, K. Morokuma, O. Farkas, 
 J. B. Foresman, and D. J. Fox, Gaussian, Inc., Wallingford CT, 2019.
 
 ******************************************
 Gaussian 16:  ES64L-G16RevC.01  3-Jul-2019
                 7-Dec-2024 
 ******************************************
 Default route: SCF=Direct
 ----------------------------------------------------
 # m06/genecp scf=tight int=ultrafine 5d freq=noraman
 ----------------------------------------------------
 1/10=4,30=1,38=1/1,3;
 2/12=2,17=6,18=5,40=1/2;
 3/5=7,8=1,11=2,16=1,17=8,25=1,30=1,71=2,74=-54,75=-5,140=1/1,2,3;
 4//1;
 5/5=2,32=2,38=5,98=1/2;
 8/6=4,10=90,11=11/1;
 11/6=1,8=1,9=11,15=111,16=1/1,2,10;
 10/6=1/2;
 6/7=2,8=2,9=2,10=2,28=1/1;
 7/8=1,10=1,25=1/1,2,3,16;
 1/10=4,30=1/3;
 99//99;
 ------
 OPT-TS
 ------
 Symbolic Z-matrix:
 Charge =  0 Multiplicity = 1
 C                     2.60552   0.97035   0.98877 
 C                     2.3317    2.47234  -0.73554 
 C                     3.28482   3.33699  -0.20898 
 C                     3.89562   2.99422   0.99126 
 C                     3.54912   1.7987    1.60362 
 C                     2.22812  -0.33554   1.56572 
 C                     0.69849  -2.08183   1.69471 
 C                     1.45043  -2.7373    2.65684 
 C                     2.6532   -2.17724   3.06165 
 C                     3.0333   -0.96075   2.51853 
 H                     1.78842   2.70877  -1.64798 
 H                     4.63095   3.65202   1.4512 
 H                     3.99264   1.52828   2.55876 
 H                    -0.25386  -2.47996   1.34686 
 H                     3.29055  -2.6784    3.78672 
 H                     3.97979  -0.50948   2.8045 
 N                     1.99846   1.31896  -0.15418 
 N                     1.08499  -0.91956   1.13387 
 Ir                   -0.09922  -0.13622  -0.51902 
 O                    -2.41068   1.9607   -0.73118 
 O                    -2.07926  -0.18996   1.73708 
 O                    -1.66446  -2.73094  -0.07771 
 B                    -1.11732   0.57383   1.10441 
 B                    -1.09118   1.60927  -1.0027 
 B                    -1.20513  -1.82971  -1.06536 
 O                    -2.16112  -1.78453  -2.10902 
 O                    -0.45034   2.63885  -1.68534 
 C                    -1.4626    3.55114  -2.13775 
 C                    -2.5802    3.34567  -1.07729 
 C                    -2.95947  -3.21332  -0.45441 
 C                    -3.4058   -2.1953   -1.55107 
 C                    -2.53351   0.52796   2.89471 
 C                    -1.33782   1.48635   3.18422 
 O                    -0.75588   1.66521   1.88148 
 C                    -2.35498   4.17898   0.17708 
 H                    -2.47785   5.2513   -0.02482 
 H                    -3.09786   3.89581   0.93447 
 H                    -1.35847   4.00038   0.60141 
 C                    -3.99431   3.54431  -1.58422 
 H                    -4.23117   2.85917  -2.40536 
 H                    -4.70565   3.34928  -0.7708 
 H                    -4.1469    4.57706  -1.92957 
 C                    -0.87131   4.94508  -2.19312 
 H                    -0.40193   5.22014  -1.24169 
 H                    -0.10275   4.98933  -2.97618 
 H                    -1.64173   5.69083  -2.43562 
 C                    -1.88125   3.10332  -3.53248 
 H                    -0.99183   3.06485  -4.17369 
 H                    -2.32481   2.09844  -3.512 
 H                    -2.60329   3.79601  -3.98528 
 C                    -3.8131    1.24658   2.49092 
 H                    -4.54251   0.49732   2.15474 
 H                    -4.25495   1.80816   3.32507 
 H                    -3.6305    1.92492   1.64747 
 C                    -2.82597  -0.4683    3.99988 
 H                    -3.67881  -1.09771   3.71505 
 H                    -1.97091  -1.12898   4.18457 
 H                    -3.08391   0.0471    4.93647 
 C                    -1.72737   2.83726   3.74869 
 H                    -2.40123   3.3792    3.07617 
 H                    -2.22308   2.72447   4.72373 
 H                    -0.82897   3.45123   3.89368 
 C                    -0.25981   0.85612   4.05869 
 H                     0.62718   1.50385   4.04115 
 H                    -0.58567   0.74567   5.10157 
 H                     0.03663  -0.13207   3.67954 
 C                    -4.26371  -2.79125  -2.65221 
 H                    -5.19829  -3.20332  -2.24435 
 H                    -4.52753  -2.00699  -3.37339 
 H                    -3.73773  -3.58353  -3.19629 
 C                    -4.10319  -0.96312  -0.98053 
 H                    -5.11109  -1.20072  -0.61055 
 H                    -3.52391  -0.50326  -0.17023 
 H                    -4.19624  -0.21659  -1.78133 
 C                    -3.83931  -3.23424   0.78172 
 H                    -4.87671  -3.4945    0.5256 
 H                    -3.46774  -3.98707   1.49018 
 H                    -3.82338  -2.25917   1.28308 
 C                    -2.78369  -4.62564  -0.99672 
 H                    -3.746    -5.09082  -1.25046 
 H                    -2.14803  -4.62838  -1.89259 
 H                    -2.29816  -5.24735  -0.23256 
 H                    -1.00087   0.28027  -1.82338 
 C                     2.71801  -2.87214  -0.91786 
 O                     3.42669  -3.67282  -0.31488 
 C                     3.30819  -1.58794  -1.46803 
 H                     3.35802  -1.67292  -2.56805 
 H                     2.64608  -0.7305   -1.27605 
 C                     0.46314  -2.18658  -1.79716 
 H                     1.02173  -1.41992  -2.35354 
 H                    -0.06078  -2.72822  -2.60004 
 N                     1.38238  -3.1024   -1.14037 
 C                     0.86079  -4.41717  -0.81451 
 H                     1.65656  -4.98968  -0.33329 
 H                    -0.00875  -4.33803  -0.15402 
 H                     0.54331  -4.93447  -1.73448 
 C                     4.6858   -1.29572  -0.89917 
 H                     4.61587  -1.27301   0.20206 
 H                     5.36978  -2.12606  -1.1256 
 C                     5.25338   0.02212  -1.40111 
 H                     5.41453  -0.02969  -2.49229 
 H                     4.51233   0.82806  -1.25004 
 C                     6.55173   0.41484  -0.71329 
 H                     6.37668   0.46157   0.37569 
 H                     7.30194  -0.37854  -0.86201 
 C                     7.09274   1.74672  -1.20489 
 H                     7.29713   1.71559  -2.28429 
 H                     6.36079   2.55071  -1.03594 
 H                     8.0242    2.02887  -0.69799 
 H                     1.09638  -3.68364   3.05691 
 H                     3.52991   4.26134  -0.72696 
 

 GradGradGradGradGradGradGradGradGradGradGradGradGradGradGradGradGradGrad
 Berny optimization.
 Initialization pass.
 Trust Radius=3.00D-01 FncErr=1.00D-07 GrdErr=1.00D-07 EigMax=2.50D+02 EigMin=1.00D-04
 Number of steps in this run=      2 maximum allowed number of steps=      2.
 GradGradGradGradGradGradGradGradGradGradGradGradGradGradGradGradGradGrad

 Stoichiometry    C36H61B3IrN3O7
 Framework group  C1[X(C36H61B3IrN3O7)]
 Deg. of freedom   327
 Full point group                 C1      NOp   1
 Largest Abelian subgroup         C1      NOp   1
 Largest concise Abelian subgroup C1      NOp   1
                         Standard orientation:                         
 ---------------------------------------------------------------------
 Center     Atomic      Atomic             Coordinates (Angstroms)
 Number     Number       Type             X           Y           Z
 ---------------------------------------------------------------------
      1          6           0        2.605520    0.970351    0.988770
      2          6           0        2.331699    2.472341   -0.735540
      3          6           0        3.284819    3.336991   -0.208980
      4          6           0        3.895619    2.994221    0.991260
      5          6           0        3.549119    1.798701    1.603620
      6          6           0        2.228120   -0.335540    1.565720
      7          6           0        0.698491   -2.081830    1.694710
      8          6           0        1.450431   -2.737300    2.656840
      9          6           0        2.653201   -2.177239    3.061650
     10          6           0        3.033300   -0.960749    2.518530
     11          1           0        1.788419    2.708770   -1.647980
     12          1           0        4.630949    3.652021    1.451200
     13          1           0        3.992639    1.528281    2.558760
     14          1           0       -0.253859   -2.479960    1.346860
     15          1           0        3.290551   -2.678399    3.786720
     16          1           0        3.979790   -0.509479    2.804500
     17          7           0        1.998459    1.318960   -0.154180
     18          7           0        1.084990   -0.919560    1.133870
     19         77           0       -0.099220   -0.136220   -0.519020
     20          8           0       -2.410681    1.960699   -0.731180
     21          8           0       -2.079260   -0.189961    1.737080
     22          8           0       -1.664459   -2.730941   -0.077710
     23          5           0       -1.117320    0.573829    1.104410
     24          5           0       -1.091181    1.609269   -1.002700
     25          5           0       -1.205130   -1.829711   -1.065360
     26          8           0       -2.161120   -1.784531   -2.109020
     27          8           0       -0.450341    2.638850   -1.685340
     28          6           0       -1.462601    3.551139   -2.137750
     29          6           0       -2.580201    3.345669   -1.077290
     30          6           0       -2.959469   -3.213321   -0.454410
     31          6           0       -3.405799   -2.195301   -1.551070
     32          6           0       -2.533510    0.527959    2.894710
     33          6           0       -1.337821    1.486349    3.184220
     34          8           0       -0.755881    1.665209    1.881480
     35          6           0       -2.354982    4.178979    0.177080
     36          1           0       -2.477852    5.251299   -0.024820
     37          1           0       -3.097861    3.895809    0.934470
     38          1           0       -1.358472    4.000379    0.601410
     39          6           0       -3.994311    3.544308   -1.584220
     40          1           0       -4.231171    2.859168   -2.405360
     41          1           0       -4.705651    3.349278   -0.770800
     42          1           0       -4.146902    4.577058   -1.929570
     43          6           0       -0.871312    4.945079   -2.193120
     44          1           0       -0.401932    5.220140   -1.241690
     45          1           0       -0.102752    4.989330   -2.976180
     46          1           0       -1.641732    5.690829   -2.435620
     47          6           0       -1.881251    3.103319   -3.532480
     48          1           0       -0.991831    3.064849   -4.173690
     49          1           0       -2.324811    2.098439   -3.512000
     50          1           0       -2.603291    3.796009   -3.985280
     51          6           0       -3.813101    1.246578    2.490920
     52          1           0       -4.542510    0.497318    2.154740
     53          1           0       -4.254951    1.808158    3.325070
     54          1           0       -3.630501    1.924918    1.647470
     55          6           0       -2.825970   -0.468301    3.999880
     56          1           0       -3.678810   -1.097712    3.715050
     57          1           0       -1.970910   -1.128981    4.184570
     58          1           0       -3.083910    0.047099    4.936470
     59          6           0       -1.727371    2.837259    3.748690
     60          1           0       -2.401231    3.379199    3.076170
     61          1           0       -2.223081    2.724469    4.723730
     62          1           0       -0.828971    3.451229    3.893680
     63          6           0       -0.259810    0.856120    4.058690
     64          1           0        0.627179    1.503850    4.041150
     65          1           0       -0.585670    0.745670    5.101570
     66          1           0        0.036630   -0.132070    3.679540
     67          6           0       -4.263709   -2.791252   -2.652210
     68          1           0       -5.198289   -3.203322   -2.244350
     69          1           0       -4.527529   -2.006992   -3.373390
     70          1           0       -3.737729   -3.583532   -3.196290
     71          6           0       -4.103190   -0.963122   -0.980530
     72          1           0       -5.111090   -1.200722   -0.610550
     73          1           0       -3.523910   -0.503261   -0.170230
     74          1           0       -4.196240   -0.216592   -1.781330
     75          6           0       -3.839309   -3.234242    0.781720
     76          1           0       -4.876709   -3.494502    0.525600
     77          1           0       -3.467739   -3.987071    1.490180
     78          1           0       -3.823379   -2.259172    1.283080
     79          6           0       -2.783689   -4.625641   -0.996720
     80          1           0       -3.745998   -5.090822   -1.250460
     81          1           0       -2.148029   -4.628381   -1.892590
     82          1           0       -2.298158   -5.247351   -0.232560
     83          1           0       -1.000870    0.280269   -1.823380
     84          6           0        2.718011   -2.872139   -0.917860
     85          8           0        3.426691   -3.672819   -0.314880
     86          6           0        3.308190   -1.587939   -1.468030
     87          1           0        3.358020   -1.672919   -2.568050
     88          1           0        2.646080   -0.730499   -1.276050
     89          6           0        0.463141   -2.186580   -1.797160
     90          1           0        1.021730   -1.419920   -2.353540
     91          1           0       -0.060779   -2.728220   -2.600040
     92          7           0        1.382381   -3.102400   -1.140370
     93          6           0        0.860791   -4.417170   -0.814510
     94          1           0        1.656562   -4.989680   -0.333290
     95          1           0       -0.008749   -4.338030   -0.154020
     96          1           0        0.543312   -4.934470   -1.734480
     97          6           0        4.685800   -1.295719   -0.899170
     98          1           0        4.615870   -1.273009    0.202060
     99          1           0        5.369781   -2.126058   -1.125600
    100          6           0        5.253380    0.022122   -1.401110
    101          1           0        5.414530   -0.029688   -2.492290
    102          1           0        4.512330    0.828061   -1.250040
    103          6           0        6.551730    0.414842   -0.713290
    104          1           0        6.376680    0.461572    0.375690
    105          1           0        7.301940   -0.378538   -0.862010
    106          6           0        7.092739    1.746722   -1.204890
    107          1           0        7.297129    1.715592   -2.284290
    108          1           0        6.360789    2.550712   -1.035940
    109          1           0        8.024199    2.028872   -0.697990
    110          1           0        1.096381   -3.683640    3.056910
    111          1           0        3.529908    4.261341   -0.726960
 ---------------------------------------------------------------------
 Rotational constants (GHZ):           0.0728964           0.0584809           0.0485660
 General basis read from cards:  (5D, 7F)
 ======================================================================================================
                                       Pseudopotential Parameters
 ======================================================================================================
  Center     Atomic      Valence      Angular      Power
  Number     Number     Electrons     Momentum     of R      Exponent        Coefficient   SO-Coeffient
 ======================================================================================================
    1          6
                                   No pseudopotential on this center.
    2          6
                                   No pseudopotential on this center.
    3          6
                                   No pseudopotential on this center.
    4          6
                                   No pseudopotential on this center.
    5          6
                                   No pseudopotential on this center.
    6          6
                                   No pseudopotential on this center.
    7          6
                                   No pseudopotential on this center.
    8          6
                                   No pseudopotential on this center.
    9          6
                                   No pseudopotential on this center.
   10          6
                                   No pseudopotential on this center.
   11          1
                                   No pseudopotential on this center.
   12          1
                                   No pseudopotential on this center.
   13          1
                                   No pseudopotential on this center.
   14          1
                                   No pseudopotential on this center.
   15          1
                                   No pseudopotential on this center.
   16          1
                                   No pseudopotential on this center.
   17          7
                                   No pseudopotential on this center.
   18          7
                                   No pseudopotential on this center.
   19         77           17
                                      G and up 
                                                     1      823.5880147       -0.15780140    0.00000000
                                                     2      364.6613336    -1517.52704460    0.00000000
                                                     2       55.7082801     -316.53065290    0.00000000
                                                     2       12.0464544      -91.88809410    0.00000000
                                                     2        3.5120610       -9.22417730    0.00000000
                                      S - G
                                                     0      188.0490770        3.15780140    0.00000000
                                                     1      340.4194712       26.83225770    0.00000000
                                                     2      128.2373673      800.42500070    0.00000000
                                                     2       33.8644961      369.40506830    0.00000000
                                                     2        4.7560005      242.41718990    0.00000000
                                                     2        3.9649974     -118.21732820    0.00000000
                                      P - G
                                                     0      289.7291139        2.15780140    0.00000000
                                                     1       87.4633789       61.96786100    0.00000000
                                                     2       30.4363766      269.05819860    0.00000000
                                                     2        4.0553412      231.16547930    0.00000000
                                                     2        3.5525341     -133.69526670    0.00000000
                                      D - G
                                                     0      136.4017106        3.15780140    0.00000000
                                                     1       95.0776925       45.93498030    0.00000000
                                                     2       49.2258410      359.03446680    0.00000000
                                                     2       15.0874145      176.47401190    0.00000000
                                                     2        4.0405764       54.51552860    0.00000000
                                      F - G
                                                     0      127.3507908        3.95461970    0.00000000
                                                     1       66.2364374       52.97736550    0.00000000
                                                     2       34.4299229      274.86433830    0.00000000
                                                     2       10.1995721      137.20473380    0.00000000
                                                     2        2.5409702       14.86333050    0.00000000
   20          8
                                   No pseudopotential on this center.
   21          8
                                   No pseudopotential on this center.
   22          8
                                   No pseudopotential on this center.
   23          5
                                   No pseudopotential on this center.
   24          5
                                   No pseudopotential on this center.
   25          5
                                   No pseudopotential on this center.
   26          8
                                   No pseudopotential on this center.
   27          8
                                   No pseudopotential on this center.
   28          6
                                   No pseudopotential on this center.
   29          6
                                   No pseudopotential on this center.
   30          6
                                   No pseudopotential on this center.
   31          6
                                   No pseudopotential on this center.
   32          6
                                   No pseudopotential on this center.
   33          6
                                   No pseudopotential on this center.
   34          8
                                   No pseudopotential on this center.
   35          6
                                   No pseudopotential on this center.
   36          1
                                   No pseudopotential on this center.
   37          1
                                   No pseudopotential on this center.
   38          1
                                   No pseudopotential on this center.
   39          6
                                   No pseudopotential on this center.
   40          1
                                   No pseudopotential on this center.
   41          1
                                   No pseudopotential on this center.
   42          1
                                   No pseudopotential on this center.
   43          6
                                   No pseudopotential on this center.
   44          1
                                   No pseudopotential on this center.
   45          1
                                   No pseudopotential on this center.
   46          1
                                   No pseudopotential on this center.
   47          6
                                   No pseudopotential on this center.
   48          1
                                   No pseudopotential on this center.
   49          1
                                   No pseudopotential on this center.
   50          1
                                   No pseudopotential on this center.
   51          6
                                   No pseudopotential on this center.
   52          1
                                   No pseudopotential on this center.
   53          1
                                   No pseudopotential on this center.
   54          1
                                   No pseudopotential on this center.
   55          6
                                   No pseudopotential on this center.
   56          1
                                   No pseudopotential on this center.
   57          1
                                   No pseudopotential on this center.
   58          1
                                   No pseudopotential on this center.
   59          6
                                   No pseudopotential on this center.
   60          1
                                   No pseudopotential on this center.
   61          1
                                   No pseudopotential on this center.
   62          1
                                   No pseudopotential on this center.
   63          6
                                   No pseudopotential on this center.
   64          1
                                   No pseudopotential on this center.
   65          1
                                   No pseudopotential on this center.
   66          1
                                   No pseudopotential on this center.
   67          6
                                   No pseudopotential on this center.
   68          1
                                   No pseudopotential on this center.
   69          1
                                   No pseudopotential on this center.
   70          1
                                   No pseudopotential on this center.
   71          6
                                   No pseudopotential on this center.
   72          1
                                   No pseudopotential on this center.
   73          1
                                   No pseudopotential on this center.
   74          1
                                   No pseudopotential on this center.
   75          6
                                   No pseudopotential on this center.
   76          1
                                   No pseudopotential on this center.
   77          1
                                   No pseudopotential on this center.
   78          1
                                   No pseudopotential on this center.
   79          6
                                   No pseudopotential on this center.
   80          1
                                   No pseudopotential on this center.
   81          1
                                   No pseudopotential on this center.
   82          1
                                   No pseudopotential on this center.
   83          1
                                   No pseudopotential on this center.
   84          6
                                   No pseudopotential on this center.
   85          8
                                   No pseudopotential on this center.
   86          6
                                   No pseudopotential on this center.
   87          1
                                   No pseudopotential on this center.
   88          1
                                   No pseudopotential on this center.
   89          6
                                   No pseudopotential on this center.
   90          1
                                   No pseudopotential on this center.
   91          1
                                   No pseudopotential on this center.
   92          7
                                   No pseudopotential on this center.
   93          6
                                   No pseudopotential on this center.
   94          1
                                   No pseudopotential on this center.
   95          1
                                   No pseudopotential on this center.
   96          1
                                   No pseudopotential on this center.
   97          6
                                   No pseudopotential on this center.
   98          1
                                   No pseudopotential on this center.
   99          1
                                   No pseudopotential on this center.
  100          6
                                   No pseudopotential on this center.
  101          1
                                   No pseudopotential on this center.
  102          1
                                   No pseudopotential on this center.
  103          6
                                   No pseudopotential on this center.
  104          1
                                   No pseudopotential on this center.
  105          1
                                   No pseudopotential on this center.
  106          6
                                   No pseudopotential on this center.
  107          1
                                   No pseudopotential on this center.
  108          1
                                   No pseudopotential on this center.
  109          1
                                   No pseudopotential on this center.
  110          1
                                   No pseudopotential on this center.
  111          1
                                   No pseudopotential on this center.
 ======================================================================================================
 There are   881 symmetry adapted cartesian basis functions of A   symmetry.
 There are   830 symmetry adapted basis functions of A   symmetry.
   830 basis functions,  1659 primitive gaussians,   881 cartesian basis functions
   193 alpha electrons      193 beta electrons
       nuclear repulsion energy      8295.3358870704 Hartrees.
 NAtoms=  111 NActive=  111 NUniq=  111 SFac= 1.00D+00 NAtFMM=   60 NAOKFM=T Big=T
 Integral buffers will be    131072 words long.
 Raffenetti 2 integral format.
 Two-electron integral symmetry is turned on.
 One-electron integrals computed using PRISM.
   1 Symmetry operations used in ECPInt.
 ECPInt:  NShTT=   53301 NPrTT=  320676 LenC2=   41651 LenP2D=  128835.
 LDataN:  DoStor=T MaxTD1= 6 Len=  172
 NBasis=   830 RedAO= T EigKep=  6.01D-04  NBF=   830
 NBsUse=   830 1.00D-06 EigRej= -1.00D+00 NBFU=   830
 Defaulting to unpruned grid for atomic number  77.
 ExpMin= 2.90D-02 ExpMax= 5.48D+03 ExpMxC= 8.25D+02 IAcc=3 IRadAn=         5 AccDes= 0.00D+00
 Harris functional with IExCor= 1009 and IRadAn=       5 diagonalized for initial guess.
 HarFok:  IExCor= 1009 AccDes= 0.00D+00 IRadAn=         5 IDoV= 1 UseB2=F ITyADJ=14
 ICtDFT=  3500011 ScaDFX=  1.000000  1.000000  1.000000  1.000000
 Defaulting to unpruned grid for atomic number  77.
 FoFCou: FMM=F IPFlag=           0 FMFlag=      100000 FMFlg1=        2001
         NFxFlg=           0 DoJE=T BraDBF=F KetDBF=T FulRan=T
         wScrn=  0.000000 ICntrl=       500 IOpCl=  0 I1Cent=   200000004 NGrid=           0
         NMat0=    1 NMatS0=      1 NMatT0=    0 NMatD0=    1 NMtDS0=    0 NMtDT0=    0
 Petite list used in FoFCou.
 Requested convergence on RMS density matrix=1.00D-08 within 128 cycles.
 Requested convergence on MAX density matrix=1.00D-06.
 Requested convergence on             energy=1.00D-06.
 No special actions if energy rises.
 Defaulting to unpruned grid for atomic number  77.
 Defaulting to unpruned grid for atomic number  77.
 Defaulting to unpruned grid for atomic number  77.
 Defaulting to unpruned grid for atomic number  77.
 Defaulting to unpruned grid for atomic number  77.
 Defaulting to unpruned grid for atomic number  77.
 Defaulting to unpruned grid for atomic number  77.
 Defaulting to unpruned grid for atomic number  77.
 Defaulting to unpruned grid for atomic number  77.
 Defaulting to unpruned grid for atomic number  77.
 Defaulting to unpruned grid for atomic number  77.
 Defaulting to unpruned grid for atomic number  77.
 Defaulting to unpruned grid for atomic number  77.
 Defaulting to unpruned grid for atomic number  77.
 Defaulting to unpruned grid for atomic number  77.
 Defaulting to unpruned grid for atomic number  77.
 SCF Done:  E(RM06) =  -2277.49207917     A.U. after   16 cycles
            NFock= 16  Conv=0.71D-08     -V/T= 2.0390
 DoSCS=F DFT=T ScalE2(SS,OS)=  1.000000  1.000000
 Range of M.O.s used for correlation:     1   830
 NBasis=   830 NAE=   193 NBE=   193 NFC=     0 NFV=     0
 NROrb=    830 NOA=   193 NOB=   193 NVA=   637 NVB=   637
   1 Symmetry operations used in ECPInt.
 ECPInt:  NShTT=   53301 NPrTT=  320676 LenC2=   41651 LenP2D=  128835.
 LDataN:  DoStor=T MaxTD1= 7 Len=  274
 Number of processors reduced to   8 by ecpmxn.
 Symmetrizing basis deriv contribution to polar:
 IMax=3 JMax=2 DiffMx= 0.00D+00
 G2DrvN: will do   112 centers at a time, making    1 passes.
 Calling FoFCou, ICntrl=  3107 FMM=T I1Cent=   0 AccDes= 0.00D+00.
 Defaulting to unpruned grid for atomic number  77.
 Defaulting to unpruned grid for atomic number  77.
 Defaulting to unpruned grid for atomic number  77.
 Defaulting to unpruned grid for atomic number  77.
 Defaulting to unpruned grid for atomic number  77.
 Defaulting to unpruned grid for atomic number  77.
 Defaulting to unpruned grid for atomic number  77.
 Defaulting to unpruned grid for atomic number  77.
 Defaulting to unpruned grid for atomic number  77.
 Defaulting to unpruned grid for atomic number  77.
 Defaulting to unpruned grid for atomic number  77.
 Defaulting to unpruned grid for atomic number  77.
 Defaulting to unpruned grid for atomic number  77.
 Defaulting to unpruned grid for atomic number  77.
 Defaulting to unpruned grid for atomic number  77.
 Defaulting to unpruned grid for atomic number  77.
 End of G2Drv F.D. properties file   721 does not exist.
 End of G2Drv F.D. properties file   722 does not exist.
 End of G2Drv F.D. properties file   788 does not exist.
          IDoAtm=11111111111111111111111111111111111111111111111111
          IDoAtm=11111111111111111111111111111111111111111111111111
          IDoAtm=11111111111
          Differentiating once with respect to electric field.
                with respect to dipole field.
          Differentiating once with respect to nuclear coordinates.
 Defaulting to unpruned grid for atomic number  77.
 CalDSu exits because no D1Ps are significant.
 Defaulting to unpruned grid for atomic number  77.
 Defaulting to unpruned grid for atomic number  77.
 Defaulting to unpruned grid for atomic number  77.
 Defaulting to unpruned grid for atomic number  77.
 Defaulting to unpruned grid for atomic number  77.
 Defaulting to unpruned grid for atomic number  77.
 Defaulting to unpruned grid for atomic number  77.
 Defaulting to unpruned grid for atomic number  77.
 Defaulting to unpruned grid for atomic number  77.
 Defaulting to unpruned grid for atomic number  77.
 Defaulting to unpruned grid for atomic number  77.
 Defaulting to unpruned grid for atomic number  77.
 Defaulting to unpruned grid for atomic number  77.
 Defaulting to unpruned grid for atomic number  77.
 Defaulting to unpruned grid for atomic number  77.
 Defaulting to unpruned grid for atomic number  77.
          There are   336 degrees of freedom in the 1st order CPHF.  IDoFFX=6 NUNeed=     3.
    333 vectors produced by pass  0 Test12= 1.23D-13 1.00D-09 XBig12= 4.90D+02 8.89D+00.
 AX will form    72 AO Fock derivatives at one time.
    333 vectors produced by pass  1 Test12= 1.23D-13 1.00D-09 XBig12= 7.22D+01 9.22D-01.
    333 vectors produced by pass  2 Test12= 1.23D-13 1.00D-09 XBig12= 7.60D-01 8.53D-02.
    333 vectors produced by pass  3 Test12= 1.23D-13 1.00D-09 XBig12= 4.76D-03 5.42D-03.
    333 vectors produced by pass  4 Test12= 1.23D-13 1.00D-09 XBig12= 1.37D-05 2.00D-04.
    287 vectors produced by pass  5 Test12= 1.23D-13 1.00D-09 XBig12= 2.46D-08 1.33D-05.
     68 vectors produced by pass  6 Test12= 1.23D-13 1.00D-09 XBig12= 3.36D-11 3.63D-07.
      3 vectors produced by pass  7 Test12= 1.23D-13 1.00D-09 XBig12= 4.51D-14 1.42D-08.
 InvSVY:  IOpt=1 It=  1 EMax= 2.13D-14
 Solved reduced A of dimension  2023 with   336 vectors.
 Isotropic polarizability for W=    0.000000      492.12 Bohr**3.
 End of Minotr F.D. properties file   721 does not exist.
 End of Minotr F.D. properties file   722 does not exist.
 End of Minotr F.D. properties file   788 does not exist.
 Hyperfine terms turned off by default for NAtoms > 100.

 **********************************************************************

            Population analysis using the SCF Density.

 **********************************************************************

 Orbital symmetries:
       Occupied  (A) (A) (A) (A) (A) (A) (A) (A) (A) (A) (A) (A)
                 (A) (A) (A) (A) (A) (A) (A) (A) (A) (A) (A) (A)
                 (A) (A) (A) (A) (A) (A) (A) (A) (A) (A) (A) (A)
                 (A) (A) (A) (A) (A) (A) (A) (A) (A) (A) (A) (A)
                 (A) (A) (A) (A) (A) (A) (A) (A) (A) (A) (A) (A)
                 (A) (A) (A) (A) (A) (A) (A) (A) (A) (A) (A) (A)
                 (A) (A) (A) (A) (A) (A) (A) (A) (A) (A) (A) (A)
                 (A) (A) (A) (A) (A) (A) (A) (A) (A) (A) (A) (A)
                 (A) (A) (A) (A) (A) (A) (A) (A) (A) (A) (A) (A)
                 (A) (A) (A) (A) (A) (A) (A) (A) (A) (A) (A) (A)
                 (A) (A) (A) (A) (A) (A) (A) (A) (A) (A) (A) (A)
                 (A) (A) (A) (A) (A) (A) (A) (A) (A) (A) (A) (A)
                 (A) (A) (A) (A) (A) (A) (A) (A) (A) (A) (A) (A)
                 (A) (A) (A) (A) (A) (A) (A) (A) (A) (A) (A) (A)
                 (A) (A) (A) (A) (A) (A) (A) (A) (A) (A) (A) (A)
                 (A) (A) (A) (A) (A) (A) (A) (A) (A) (A) (A) (A)
                 (A)
       Virtual   (A) (A) (A) (A) (A) (A) (A) (A) (A) (A) (A) (A)
                 (A) (A) (A) (A) (A) (A) (A) (A) (A) (A) (A) (A)
                 (A) (A) (A) (A) (A) (A) (A) (A) (A) (A) (A) (A)
                 (A) (A) (A) (A) (A) (A) (A) (A) (A) (A) (A) (A)
                 (A) (A) (A) (A) (A) (A) (A) (A) (A) (A) (A) (A)
                 (A) (A) (A) (A) (A) (A) (A) (A) (A) (A) (A) (A)
                 (A) (A) (A) (A) (A) (A) (A) (A) (A) (A) (A) (A)
                 (A) (A) (A) (A) (A) (A) (A) (A) (A) (A) (A) (A)
                 (A) (A) (A) (A) (A) (A) (A) (A) (A) (A) (A) (A)
                 (A) (A) (A) (A) (A) (A) (A) (A) (A) (A) (A) (A)
                 (A) (A) (A) (A) (A) (A) (A) (A) (A) (A) (A) (A)
                 (A) (A) (A) (A) (A) (A) (A) (A) (A) (A) (A) (A)
                 (A) (A) (A) (A) (A) (A) (A) (A) (A) (A) (A) (A)
                 (A) (A) (A) (A) (A) (A) (A) (A) (A) (A) (A) (A)
                 (A) (A) (A) (A) (A) (A) (A) (A) (A) (A) (A) (A)
                 (A) (A) (A) (A) (A) (A) (A) (A) (A) (A) (A) (A)
                 (A) (A) (A) (A) (A) (A) (A) (A) (A) (A) (A) (A)
                 (A) (A) (A) (A) (A) (A) (A) (A) (A) (A) (A) (A)
                 (A) (A) (A) (A) (A) (A) (A) (A) (A) (A) (A) (A)
                 (A) (A) (A) (A) (A) (A) (A) (A) (A) (A) (A) (A)
                 (A) (A) (A) (A) (A) (A) (A) (A) (A) (A) (A) (A)
                 (A) (A) (A) (A) (A) (A) (A) (A) (A) (A) (A) (A)
                 (A) (A) (A) (A) (A) (A) (A) (A) (A) (A) (A) (A)
                 (A) (A) (A) (A) (A) (A) (A) (A) (A) (A) (A) (A)
                 (A) (A) (A) (A) (A) (A) (A) (A) (A) (A) (A) (A)
                 (A) (A) (A) (A) (A) (A) (A) (A) (A) (A) (A) (A)
                 (A) (A) (A) (A) (A) (A) (A) (A) (A) (A) (A) (A)
                 (A) (A) (A) (A) (A) (A) (A) (A) (A) (A) (A) (A)
                 (A) (A) (A) (A) (A) (A) (A) (A) (A) (A) (A) (A)
                 (A) (A) (A) (A) (A) (A) (A) (A) (A) (A) (A) (A)
                 (A) (A) (A) (A) (A) (A) (A) (A) (A) (A) (A) (A)
                 (A) (A) (A) (A) (A) (A) (A) (A) (A) (A) (A) (A)
                 (A) (A) (A) (A) (A) (A) (A) (A) (A) (A) (A) (A)
                 (A) (A) (A) (A) (A) (A) (A) (A) (A) (A) (A) (A)
                 (A) (A) (A) (A) (A) (A) (A) (A) (A) (A) (A) (A)
                 (A) (A) (A) (A) (A) (A) (A) (A) (A) (A) (A) (A)
                 (A) (A) (A) (A) (A) (A) (A) (A) (A) (A) (A) (A)
                 (A) (A) (A) (A) (A) (A) (A) (A) (A) (A) (A) (A)
                 (A) (A) (A) (A) (A) (A) (A) (A) (A) (A) (A) (A)
                 (A) (A) (A) (A) (A) (A) (A) (A) (A) (A) (A) (A)
                 (A) (A) (A) (A) (A) (A) (A) (A) (A) (A) (A) (A)
                 (A) (A) (A) (A) (A) (A) (A) (A) (A) (A) (A) (A)
                 (A) (A) (A) (A) (A) (A) (A) (A) (A) (A) (A) (A)
                 (A) (A) (A) (A) (A) (A) (A) (A) (A) (A) (A) (A)
                 (A) (A) (A) (A) (A) (A) (A) (A) (A) (A) (A) (A)
                 (A) (A) (A) (A) (A) (A) (A) (A) (A) (A) (A) (A)
                 (A) (A) (A) (A) (A) (A) (A) (A) (A) (A) (A) (A)
                 (A) (A) (A) (A) (A) (A) (A) (A) (A) (A) (A) (A)
                 (A) (A) (A) (A) (A) (A) (A) (A) (A) (A) (A) (A)
                 (A) (A) (A) (A) (A) (A) (A) (A) (A) (A) (A) (A)
                 (A) (A) (A) (A) (A) (A) (A) (A) (A) (A) (A) (A)
                 (A) (A) (A) (A) (A) (A) (A) (A) (A) (A) (A) (A)
                 (A) (A) (A) (A) (A) (A) (A) (A) (A) (A) (A) (A)
                 (A)
 The electronic state is 1-A.
 Alpha  occ. eigenvalues --  -19.21210 -19.21132 -19.21112 -19.20974 -19.18965
 Alpha  occ. eigenvalues --  -19.17955 -19.16589 -14.45993 -14.42736 -14.40812
 Alpha  occ. eigenvalues --  -10.32396 -10.32174 -10.31464 -10.30199 -10.30164
 Alpha  occ. eigenvalues --  -10.30092 -10.29924 -10.29868 -10.29504 -10.28726
 Alpha  occ. eigenvalues --  -10.28569 -10.28390 -10.28026 -10.27908 -10.27868
 Alpha  occ. eigenvalues --  -10.27398 -10.27334 -10.25516 -10.24208 -10.23640
 Alpha  occ. eigenvalues --  -10.23526 -10.23440 -10.23378 -10.23276 -10.23232
 Alpha  occ. eigenvalues --  -10.23180 -10.23014 -10.22999 -10.22934 -10.22832
 Alpha  occ. eigenvalues --  -10.22617 -10.22589 -10.21837 -10.21671 -10.21576
 Alpha  occ. eigenvalues --  -10.20122  -6.82675  -6.81584  -6.80226  -3.62996
 Alpha  occ. eigenvalues --   -2.06519  -2.05558  -2.03100  -1.07283  -1.06927
 Alpha  occ. eigenvalues --   -1.04563  -1.02508  -1.00293  -1.00130  -0.99662
 Alpha  occ. eigenvalues --   -0.97798  -0.97005  -0.91991  -0.84133  -0.83146
 Alpha  occ. eigenvalues --   -0.82449  -0.81249  -0.81045  -0.80825  -0.79141
 Alpha  occ. eigenvalues --   -0.76950  -0.76492  -0.75595  -0.75517  -0.73524
 Alpha  occ. eigenvalues --   -0.71138  -0.71048  -0.70944  -0.69314  -0.69179
 Alpha  occ. eigenvalues --   -0.68518  -0.68274  -0.68203  -0.67546  -0.66265
 Alpha  occ. eigenvalues --   -0.66192  -0.64218  -0.63175  -0.62714  -0.61989
 Alpha  occ. eigenvalues --   -0.60572  -0.60039  -0.57567  -0.57253  -0.55697
 Alpha  occ. eigenvalues --   -0.55429  -0.54927  -0.54074  -0.53741  -0.53032
 Alpha  occ. eigenvalues --   -0.52885  -0.52805  -0.51515  -0.50508  -0.49690
 Alpha  occ. eigenvalues --   -0.49073  -0.48679  -0.48582  -0.48042  -0.47479
 Alpha  occ. eigenvalues --   -0.47142  -0.46934  -0.46577  -0.46280  -0.46049
 Alpha  occ. eigenvalues --   -0.45772  -0.45339  -0.45189  -0.45031  -0.44684
 Alpha  occ. eigenvalues --   -0.44434  -0.44266  -0.43949  -0.43333  -0.43089
 Alpha  occ. eigenvalues --   -0.43078  -0.42651  -0.42622  -0.42144  -0.42082
 Alpha  occ. eigenvalues --   -0.41121  -0.40768  -0.40687  -0.40643  -0.40292
 Alpha  occ. eigenvalues --   -0.40209  -0.40111  -0.39903  -0.39757  -0.39546
 Alpha  occ. eigenvalues --   -0.39281  -0.39054  -0.38931  -0.38784  -0.38654
 Alpha  occ. eigenvalues --   -0.38413  -0.38358  -0.38135  -0.38081  -0.37808
 Alpha  occ. eigenvalues --   -0.37353  -0.37167  -0.36826  -0.36612  -0.36548
 Alpha  occ. eigenvalues --   -0.36225  -0.35702  -0.35597  -0.35432  -0.35274
 Alpha  occ. eigenvalues --   -0.35167  -0.35019  -0.34755  -0.34406  -0.34142
 Alpha  occ. eigenvalues --   -0.33543  -0.33358  -0.33116  -0.32899  -0.32713
 Alpha  occ. eigenvalues --   -0.32652  -0.32400  -0.32188  -0.32066  -0.31625
 Alpha  occ. eigenvalues --   -0.31372  -0.31194  -0.30630  -0.30429  -0.30344
 Alpha  occ. eigenvalues --   -0.30138  -0.29117  -0.28610  -0.27429  -0.27126
 Alpha  occ. eigenvalues --   -0.26698  -0.26385  -0.24974  -0.24107  -0.23702
 Alpha  occ. eigenvalues --   -0.22308  -0.20145  -0.17857
 Alpha virt. eigenvalues --   -0.06784  -0.03581  -0.02815   0.00935   0.01769
 Alpha virt. eigenvalues --    0.03262   0.05076   0.05659   0.06050   0.06489
 Alpha virt. eigenvalues --    0.07699   0.08345   0.09149   0.09478   0.10072
 Alpha virt. eigenvalues --    0.10450   0.10472   0.11141   0.11493   0.11995
 Alpha virt. eigenvalues --    0.12273   0.12340   0.12749   0.12868   0.13359
 Alpha virt. eigenvalues --    0.13514   0.13724   0.13806   0.14194   0.14505
 Alpha virt. eigenvalues --    0.14663   0.14916   0.15233   0.15418   0.15496
 Alpha virt. eigenvalues --    0.15612   0.15852   0.15918   0.16204   0.16404
 Alpha virt. eigenvalues --    0.16605   0.16832   0.16898   0.17276   0.17623
 Alpha virt. eigenvalues --    0.17731   0.17865   0.18087   0.18172   0.18250
 Alpha virt. eigenvalues --    0.18535   0.18642   0.18897   0.19109   0.19213
 Alpha virt. eigenvalues --    0.19253   0.19764   0.19847   0.19946   0.20043
 Alpha virt. eigenvalues --    0.20119   0.20394   0.20474   0.20831   0.20842
 Alpha virt. eigenvalues --    0.20921   0.21288   0.21467   0.21609   0.21757
 Alpha virt. eigenvalues --    0.22095   0.22482   0.22762   0.22930   0.23248
 Alpha virt. eigenvalues --    0.23484   0.23612   0.23923   0.24306   0.24387
 Alpha virt. eigenvalues --    0.24533   0.24588   0.24857   0.24982   0.25364
 Alpha virt. eigenvalues --    0.25757   0.25966   0.26208   0.26486   0.26591
 Alpha virt. eigenvalues --    0.26899   0.27441   0.27583   0.27928   0.28035
 Alpha virt. eigenvalues --    0.28267   0.28729   0.28819   0.28941   0.29211
 Alpha virt. eigenvalues --    0.29622   0.29759   0.30150   0.30568   0.31023
 Alpha virt. eigenvalues --    0.31335   0.32383   0.32705   0.33488   0.33657
 Alpha virt. eigenvalues --    0.34253   0.35008   0.35279   0.35745   0.36587
 Alpha virt. eigenvalues --    0.36950   0.38144   0.38544   0.39016   0.39486
 Alpha virt. eigenvalues --    0.40900   0.41828   0.43174   0.43295   0.45989
 Alpha virt. eigenvalues --    0.46429   0.46694   0.47466   0.47966   0.48630
 Alpha virt. eigenvalues --    0.49472   0.50002   0.50394   0.50547   0.51215
 Alpha virt. eigenvalues --    0.51303   0.51957   0.52318   0.52464   0.53009
 Alpha virt. eigenvalues --    0.53332   0.53699   0.54062   0.54346   0.54554
 Alpha virt. eigenvalues --    0.54895   0.55063   0.55548   0.55979   0.56294
 Alpha virt. eigenvalues --    0.56516   0.56693   0.57301   0.57561   0.57842
 Alpha virt. eigenvalues --    0.57976   0.58064   0.58357   0.58634   0.58952
 Alpha virt. eigenvalues --    0.59097   0.59516   0.59848   0.60280   0.60581
 Alpha virt. eigenvalues --    0.60903   0.61165   0.61456   0.61566   0.61807
 Alpha virt. eigenvalues --    0.62029   0.62423   0.62850   0.63131   0.63572
 Alpha virt. eigenvalues --    0.63920   0.64160   0.64625   0.65341   0.65423
 Alpha virt. eigenvalues --    0.65621   0.65942   0.66267   0.66453   0.66805
 Alpha virt. eigenvalues --    0.67200   0.67243   0.67963   0.68508   0.68681
 Alpha virt. eigenvalues --    0.69362   0.69390   0.70038   0.70184   0.70505
 Alpha virt. eigenvalues --    0.70640   0.70960   0.71389   0.71764   0.71984
 Alpha virt. eigenvalues --    0.72239   0.72774   0.72984   0.73140   0.73499
 Alpha virt. eigenvalues --    0.73664   0.73801   0.74403   0.74908   0.75410
 Alpha virt. eigenvalues --    0.75888   0.76182   0.76689   0.77261   0.77654
 Alpha virt. eigenvalues --    0.77734   0.78276   0.78598   0.78826   0.79258
 Alpha virt. eigenvalues --    0.79478   0.79641   0.80097   0.81028   0.81332
 Alpha virt. eigenvalues --    0.81561   0.82086   0.82255   0.82394   0.82686
 Alpha virt. eigenvalues --    0.83047   0.83162   0.83454   0.83611   0.83711
 Alpha virt. eigenvalues --    0.84009   0.84423   0.84519   0.84713   0.84987
 Alpha virt. eigenvalues --    0.85377   0.85468   0.85546   0.85893   0.86372
 Alpha virt. eigenvalues --    0.86534   0.86766   0.87024   0.87353   0.87599
 Alpha virt. eigenvalues --    0.87968   0.88063   0.88595   0.88717   0.88786
 Alpha virt. eigenvalues --    0.88963   0.89271   0.89401   0.89707   0.89780
 Alpha virt. eigenvalues --    0.90062   0.90378   0.90496   0.90906   0.91014
 Alpha virt. eigenvalues --    0.91298   0.91660   0.92051   0.92243   0.92454
 Alpha virt. eigenvalues --    0.92680   0.92870   0.93166   0.93549   0.93653
 Alpha virt. eigenvalues --    0.94230   0.94537   0.94777   0.95025   0.95235
 Alpha virt. eigenvalues --    0.95426   0.95858   0.96089   0.96179   0.96650
 Alpha virt. eigenvalues --    0.96950   0.97129   0.97704   0.97981   0.98481
 Alpha virt. eigenvalues --    0.98588   0.99222   0.99657   0.99916   1.00384
 Alpha virt. eigenvalues --    1.01078   1.01493   1.01757   1.02324   1.02474
 Alpha virt. eigenvalues --    1.02954   1.03256   1.03963   1.04417   1.04716
 Alpha virt. eigenvalues --    1.05139   1.06113   1.06377   1.06840   1.07441
 Alpha virt. eigenvalues --    1.07606   1.08785   1.09074   1.09148   1.09958
 Alpha virt. eigenvalues --    1.10242   1.11441   1.11934   1.12485   1.13527
 Alpha virt. eigenvalues --    1.13780   1.15159   1.15477   1.15773   1.16112
 Alpha virt. eigenvalues --    1.17085   1.18026   1.18214   1.19106   1.20113
 Alpha virt. eigenvalues --    1.20389   1.20903   1.21177   1.22210   1.22579
 Alpha virt. eigenvalues --    1.22751   1.23579   1.24488   1.25045   1.25400
 Alpha virt. eigenvalues --    1.25644   1.26900   1.27717   1.27870   1.28652
 Alpha virt. eigenvalues --    1.29328   1.30268   1.30480   1.31121   1.32193
 Alpha virt. eigenvalues --    1.32329   1.32715   1.33752   1.34395   1.34629
 Alpha virt. eigenvalues --    1.35444   1.35774   1.36651   1.37992   1.38777
 Alpha virt. eigenvalues --    1.38997   1.39872   1.40951   1.41339   1.41636
 Alpha virt. eigenvalues --    1.41838   1.42379   1.43241   1.43749   1.43858
 Alpha virt. eigenvalues --    1.44960   1.45417   1.45759   1.46067   1.46710
 Alpha virt. eigenvalues --    1.46977   1.47497   1.47909   1.48410   1.48665
 Alpha virt. eigenvalues --    1.49173   1.49886   1.50385   1.51531   1.52260
 Alpha virt. eigenvalues --    1.52884   1.53685   1.54599   1.55194   1.56498
 Alpha virt. eigenvalues --    1.57468   1.57698   1.58280   1.59612   1.60348
 Alpha virt. eigenvalues --    1.62078   1.62838   1.63192   1.63528   1.63877
 Alpha virt. eigenvalues --    1.64634   1.65351   1.65892   1.66308   1.67032
 Alpha virt. eigenvalues --    1.67348   1.67477   1.68112   1.69024   1.70006
 Alpha virt. eigenvalues --    1.70466   1.71519   1.72748   1.73419   1.74063
 Alpha virt. eigenvalues --    1.74987   1.75449   1.75926   1.76422   1.76688
 Alpha virt. eigenvalues --    1.77591   1.77877   1.78580   1.78660   1.79854
 Alpha virt. eigenvalues --    1.80050   1.80440   1.80680   1.81179   1.82275
 Alpha virt. eigenvalues --    1.82665   1.82889   1.83377   1.83906   1.84262
 Alpha virt. eigenvalues --    1.85058   1.85263   1.85965   1.86007   1.86427
 Alpha virt. eigenvalues --    1.86669   1.87084   1.87753   1.88236   1.88674
 Alpha virt. eigenvalues --    1.89461   1.89803   1.90639   1.90850   1.91121
 Alpha virt. eigenvalues --    1.91279   1.91508   1.91737   1.92029   1.92090
 Alpha virt. eigenvalues --    1.92423   1.92663   1.92986   1.93155   1.93476
 Alpha virt. eigenvalues --    1.93661   1.93799   1.94159   1.94781   1.94832
 Alpha virt. eigenvalues --    1.95589   1.96622   1.97039   1.98303   1.98853
 Alpha virt. eigenvalues --    1.99288   1.99793   2.00088   2.00467   2.01068
 Alpha virt. eigenvalues --    2.01582   2.01779   2.02687   2.03062   2.03544
 Alpha virt. eigenvalues --    2.04000   2.04375   2.05249   2.05895   2.06302
 Alpha virt. eigenvalues --    2.06719   2.07105   2.07206   2.08051   2.08085
 Alpha virt. eigenvalues --    2.08661   2.09267   2.09467   2.10211   2.10547
 Alpha virt. eigenvalues --    2.10799   2.11001   2.11522   2.11856   2.12744
 Alpha virt. eigenvalues --    2.13165   2.13456   2.13744   2.14152   2.14855
 Alpha virt. eigenvalues --    2.15226   2.15549   2.15808   2.16104   2.16490
 Alpha virt. eigenvalues --    2.17240   2.17468   2.18098   2.18430   2.18696
 Alpha virt. eigenvalues --    2.18902   2.19305   2.19608   2.20188   2.20354
 Alpha virt. eigenvalues --    2.20688   2.21051   2.21752   2.22354   2.22554
 Alpha virt. eigenvalues --    2.22737   2.22994   2.24043   2.24633   2.24739
 Alpha virt. eigenvalues --    2.24976   2.25712   2.26038   2.26146   2.26668
 Alpha virt. eigenvalues --    2.26784   2.26910   2.27206   2.28109   2.29265
 Alpha virt. eigenvalues --    2.29436   2.29598   2.30121   2.31281   2.31321
 Alpha virt. eigenvalues --    2.31761   2.32119   2.32711   2.33099   2.33570
 Alpha virt. eigenvalues --    2.34678   2.34941   2.36695   2.37091   2.37979
 Alpha virt. eigenvalues --    2.38474   2.38660   2.38786   2.39281   2.40259
 Alpha virt. eigenvalues --    2.41829   2.42368   2.43143   2.43974   2.45716
 Alpha virt. eigenvalues --    2.46259   2.46797   2.48022   2.48177   2.48733
 Alpha virt. eigenvalues --    2.49234   2.49611   2.50344   2.52055   2.52916
 Alpha virt. eigenvalues --    2.54389   2.55856   2.56910   2.58063   2.58405
 Alpha virt. eigenvalues --    2.59437   2.60814   2.60877   2.61496   2.62522
 Alpha virt. eigenvalues --    2.62949   2.63703   2.64454   2.64935   2.65659
 Alpha virt. eigenvalues --    2.66803   2.68093   2.68309   2.69231   2.70553
 Alpha virt. eigenvalues --    2.71906   2.72451   2.76598   2.77498   2.77815
 Alpha virt. eigenvalues --    2.78552   2.78864   2.79230   2.79473   2.79912
 Alpha virt. eigenvalues --    2.80683   2.80833   2.81050   2.81777   2.82464
 Alpha virt. eigenvalues --    2.82917   2.84136   2.84257   2.85145   2.86287
 Alpha virt. eigenvalues --    2.87326   2.88493   2.91523   2.92866   2.94685
 Alpha virt. eigenvalues --    2.95351   2.96710   2.98240   2.99829   3.01669
 Alpha virt. eigenvalues --    3.02886   3.04792   3.06968   3.07506   3.10870
 Alpha virt. eigenvalues --    3.12666   3.14825   3.21760   3.24234   3.31061
 Alpha virt. eigenvalues --    3.44077  13.15394
          Condensed to atoms (all electrons):
 Mulliken charges:
               1
     1  C    0.257907
     2  C    0.033124
     3  C   -0.163654
     4  C   -0.141432
     5  C   -0.178164
     6  C    0.286877
     7  C    0.045360
     8  C   -0.153077
     9  C   -0.127597
    10  C   -0.170896
    11  H    0.205046
    12  H    0.179982
    13  H    0.169156
    14  H    0.253519
    15  H    0.187501
    16  H    0.168038
    17  N   -0.397293
    18  N   -0.551425
    19  Ir  -0.108805
    20  O   -0.512983
    21  O   -0.494350
    22  O   -0.561474
    23  B    0.475797
    24  B    0.333476
    25  B    0.659251
    26  O   -0.546488
    27  O   -0.515563
    28  C    0.295843
    29  C    0.295976
    30  C    0.322126
    31  C    0.290918
    32  C    0.287035
    33  C    0.289419
    34  O   -0.518775
    35  C   -0.507147
    36  H    0.150984
    37  H    0.153407
    38  H    0.193507
    39  C   -0.507560
    40  H    0.175909
    41  H    0.169979
    42  H    0.150861
    43  C   -0.516798
    44  H    0.172199
    45  H    0.166166
    46  H    0.155472
    47  C   -0.516768
    48  H    0.175034
    49  H    0.186647
    50  H    0.153701
    51  C   -0.500612
    52  H    0.167127
    53  H    0.148260
    54  H    0.173673
    55  C   -0.504604
    56  H    0.171864
    57  H    0.164594
    58  H    0.150641
    59  C   -0.506638
    60  H    0.167388
    61  H    0.151887
    62  H    0.169098
    63  C   -0.494384
    64  H    0.161410
    65  H    0.153970
    66  H    0.153019
    67  C   -0.509814
    68  H    0.143612
    69  H    0.167090
    70  H    0.162884
    71  C   -0.502446
    72  H    0.131721
    73  H    0.204963
    74  H    0.158006
    75  C   -0.504251
    76  H    0.143808
    77  H    0.154221
    78  H    0.175824
    79  C   -0.503801
    80  H    0.151697
    81  H    0.160610
    82  H    0.155618
    83  H    0.150920
    84  C    0.581176
    85  O   -0.525701
    86  C   -0.442049
    87  H    0.184624
    88  H    0.193444
    89  C   -0.416577
    90  H    0.223765
    91  H    0.214878
    92  N   -0.373687
    93  C   -0.380834
    94  H    0.206221
    95  H    0.179742
    96  H    0.157028
    97  C   -0.256067
    98  H    0.125958
    99  H    0.168392
   100  C   -0.270617
   101  H    0.141560
   102  H    0.123812
   103  C   -0.270896
   104  H    0.126517
   105  H    0.151777
   106  C   -0.492176
   107  H    0.161445
   108  H    0.144266
   109  H    0.160890
   110  H    0.187453
   111  H    0.178329
 Sum of Mulliken charges =  -0.00000
 Mulliken charges with hydrogens summed into heavy atoms:
               1
     1  C    0.257907
     2  C    0.238170
     3  C    0.014676
     4  C    0.038550
     5  C   -0.009008
     6  C    0.286877
     7  C    0.298880
     8  C    0.034375
     9  C    0.059904
    10  C   -0.002858
    17  N   -0.397293
    18  N   -0.551425
    19  Ir  -0.108805
    20  O   -0.512983
    21  O   -0.494350
    22  O   -0.561474
    23  B    0.475797
    24  B    0.484396
    25  B    0.659251
    26  O   -0.546488
    27  O   -0.515563
    28  C    0.295843
    29  C    0.295976
    30  C    0.322126
    31  C    0.290918
    32  C    0.287035
    33  C    0.289419
    34  O   -0.518775
    35  C   -0.009249
    39  C   -0.010812
    43  C   -0.022961
    47  C   -0.001385
    51  C   -0.011551
    55  C   -0.017505
    59  C   -0.018264
    63  C   -0.025985
    67  C   -0.036228
    71  C   -0.007756
    75  C   -0.030398
    79  C   -0.035876
    84  C    0.581176
    85  O   -0.525701
    86  C   -0.063981
    89  C    0.022066
    92  N   -0.373687
    93  C    0.162158
    97  C    0.038283
   100  C   -0.005246
   103  C    0.007399
   106  C   -0.025574
 APT charges:
               1
     1  C    0.191984
     2  C    0.076121
     3  C   -0.058733
     4  C    0.105282
     5  C   -0.174109
     6  C    0.173493
     7  C    0.037959
     8  C   -0.069307
     9  C    0.133896
    10  C   -0.170749
    11  H    0.086581
    12  H    0.031126
    13  H    0.045767
    14  H    0.159469
    15  H    0.036130
    16  H    0.046600
    17  N   -0.279906
    18  N   -0.161301
    19  Ir  -0.561376
    20  O   -1.023869
    21  O   -0.916183
    22  O   -1.082370
    23  B    1.208730
    24  B    1.322006
    25  B    1.508971
    26  O   -1.040649
    27  O   -1.011907
    28  C    0.533935
    29  C    0.518434
    30  C    0.559422
    31  C    0.509269
    32  C    0.461539
    33  C    0.438481
    34  O   -0.898082
    35  C   -0.050311
    36  H   -0.021091
    37  H   -0.001890
    38  H    0.024699
    39  C   -0.012992
    40  H    0.005757
    41  H    0.001777
    42  H   -0.017348
    43  C   -0.015139
    44  H    0.005359
    45  H   -0.001963
    46  H   -0.012382
    47  C   -0.044424
    48  H    0.002797
    49  H    0.013501
    50  H   -0.019211
    51  C   -0.023667
    52  H    0.005883
    53  H   -0.022985
    54  H    0.018865
    55  C   -0.009906
    56  H    0.009091
    57  H    0.000506
    58  H   -0.013423
    59  C   -0.002155
    60  H    0.006359
    61  H   -0.016408
    62  H    0.000091
    63  C   -0.024182
    64  H   -0.003613
    65  H   -0.015894
    66  H   -0.001893
    67  C   -0.001399
    68  H   -0.022100
    69  H   -0.004133
    70  H   -0.005318
    71  C   -0.041294
    72  H   -0.030834
    73  H    0.032968
    74  H   -0.004700
    75  C   -0.013469
    76  H   -0.023072
    77  H   -0.007779
    78  H    0.010362
    79  C   -0.049158
    80  H   -0.031457
    81  H    0.005430
    82  H   -0.001996
    83  H   -0.044547
    84  C    0.875302
    85  O   -0.748055
    86  C   -0.028838
    87  H   -0.013368
    88  H    0.021210
    89  C   -0.085374
    90  H    0.041927
    91  H   -0.025353
    92  N   -0.718107
    93  C    0.231470
    94  H    0.064824
    95  H    0.029936
    96  H   -0.032687
    97  C    0.088957
    98  H   -0.030643
    99  H   -0.020301
   100  C    0.097450
   101  H   -0.049471
   102  H   -0.049316
   103  C    0.117068
   104  H   -0.050441
   105  H   -0.046614
   106  C    0.059843
   107  H   -0.017289
   108  H   -0.021010
   109  H   -0.036966
   110  H    0.044599
   111  H    0.033278
 Sum of APT charges =  -0.00000
 APT charges with hydrogens summed into heavy atoms:
               1
     1  C    0.191984
     2  C    0.162702
     3  C   -0.025454
     4  C    0.136408
     5  C   -0.128342
     6  C    0.173493
     7  C    0.197428
     8  C   -0.024708
     9  C    0.170027
    10  C   -0.124150
    17  N   -0.279906
    18  N   -0.161301
    19  Ir  -0.561376
    20  O   -1.023869
    21  O   -0.916183
    22  O   -1.082370
    23  B    1.208730
    24  B    1.277459
    25  B    1.508971
    26  O   -1.040649
    27  O   -1.011907
    28  C    0.533935
    29  C    0.518434
    30  C    0.559422
    31  C    0.509269
    32  C    0.461539
    33  C    0.438481
    34  O   -0.898082
    35  C   -0.048594
    39  C   -0.022806
    43  C   -0.024125
    47  C   -0.047337
    51  C   -0.021903
    55  C   -0.013733
    59  C   -0.012112
    63  C   -0.045583
    67  C   -0.032951
    71  C   -0.043859
    75  C   -0.033958
    79  C   -0.077181
    84  C    0.875302
    85  O   -0.748055
    86  C   -0.020996
    89  C   -0.068800
    92  N   -0.718107
    93  C    0.293543
    97  C    0.038014
   100  C   -0.001336
   103  C    0.020014
   106  C   -0.015421
 Electronic spatial extent (au):  <R**2>=          26909.0398
 Charge=             -0.0000 electrons
 Dipole moment (field-independent basis, Debye):
    X=              1.1096    Y=              4.7544    Z=              4.0078  Tot=              6.3164
 Quadrupole moment (field-independent basis, Debye-Ang):
   XX=           -310.8663   YY=           -308.7819   ZZ=           -299.6049
   XY=             14.0074   XZ=              7.1775   YZ=             -8.2267
 Traceless Quadrupole moment (field-independent basis, Debye-Ang):
   XX=             -4.4486   YY=             -2.3642   ZZ=              6.8128
   XY=             14.0074   XZ=              7.1775   YZ=             -8.2267
 Octapole moment (field-independent basis, Debye-Ang**2):
  XXX=            -45.1970  YYY=             65.9426  ZZZ=             -7.2697  XYY=            -59.7031
  XXY=             81.6742  XXZ=             24.2823  XZZ=             22.1616  YZZ=            -13.3394
  YYZ=            -22.1998  XYZ=              1.4223
 Hexadecapole moment (field-independent basis, Debye-Ang**3):
 XXXX=         -16974.4086 YYYY=         -11832.8800 ZZZZ=          -7192.3559 XXXY=            275.9583
 XXXZ=            162.9296 YYYX=            236.6225 YYYZ=           -161.9795 ZZZX=             17.2308
 ZZZY=            -67.6465 XXYY=          -4849.0908 XXZZ=          -3854.9837 YYZZ=          -3071.9606
 XXYZ=             17.6613 YYXZ=            116.7715 ZZXY=           -140.1858
 N-N= 8.295335887070D+03 E-N=-2.186762446079D+04  KE= 2.192024896311D+03
  Exact polarizability:     523.885      33.523     518.282      31.495     -21.731     434.184
 Approx polarizability:     719.308      53.892     773.691      66.270     -54.294     683.141
   1 Symmetry operations used in ECPInt.
 ECPInt:  NShTT=   53301 NPrTT=  320676 LenC2=   41651 LenP2D=  128835.
 LDataN:  DoStor=T MaxTD1= 8 Len=  415
 Calling FoFJK, ICntrl=    100127 FMM=F ISym2X=0 I1Cent= 0 IOpClX= 0 NMat=1 NMatS=1 NMatT=0.
 Defaulting to unpruned grid for atomic number  77.
 Defaulting to unpruned grid for atomic number  77.
 Defaulting to unpruned grid for atomic number  77.
 Defaulting to unpruned grid for atomic number  77.
 Defaulting to unpruned grid for atomic number  77.
 Defaulting to unpruned grid for atomic number  77.
 Defaulting to unpruned grid for atomic number  77.
 Defaulting to unpruned grid for atomic number  77.
 Defaulting to unpruned grid for atomic number  77.
 Defaulting to unpruned grid for atomic number  77.
 Defaulting to unpruned grid for atomic number  77.
 Defaulting to unpruned grid for atomic number  77.
 Defaulting to unpruned grid for atomic number  77.
 Defaulting to unpruned grid for atomic number  77.
 Defaulting to unpruned grid for atomic number  77.
 Defaulting to unpruned grid for atomic number  77.
 Full mass-weighted force constant matrix:
 Low frequencies --- -135.6832   -6.0620   -2.8930   -0.0002    0.0004    0.0009
 Low frequencies ---    2.6766   13.0582   21.6998
 ******    1 imaginary frequencies (negative Signs) ****** 
 Diagonal vibrational polarizability:
      151.4777813      94.0245236      94.2253724
 Harmonic frequencies (cm**-1), IR intensities (KM/Mole), Raman scattering
 activities (A**4/AMU), depolarization ratios for plane and unpolarized
 incident light, reduced masses (AMU), force constants (mDyne/A),
 and normal coordinates:
                      1                      2                      3
                      A                      A                      A
 Frequencies --   -135.6830                12.7868                21.3940
 Red. masses --      5.3457                 4.3870                 4.1712
 Frc consts  --      0.0580                 0.0004                 0.0011
 IR Inten    --     16.7044                 0.1872                 0.6912
  Atom AN      X      Y      Z        X      Y      Z        X      Y      Z
     1   6    -0.04  -0.03  -0.01    -0.02   0.05  -0.03    -0.03   0.00   0.03
     2   6    -0.05  -0.04  -0.02    -0.02   0.02  -0.06    -0.04   0.03   0.05
     3   6    -0.03  -0.04  -0.03    -0.06   0.05  -0.05    -0.08   0.05   0.10
     4   6    -0.03  -0.03  -0.03    -0.07   0.08  -0.03    -0.09   0.04   0.10
     5   6    -0.03  -0.03  -0.03    -0.05   0.08  -0.02    -0.07   0.02   0.07
     6   6    -0.03  -0.02   0.00     0.01   0.04  -0.03    -0.01  -0.01   0.00
     7   6    -0.02  -0.02   0.02     0.06  -0.01  -0.05     0.02  -0.04  -0.02
     8   6    -0.01  -0.01   0.02     0.08   0.00  -0.07     0.03  -0.04  -0.03
     9   6    -0.01  -0.01   0.00     0.06   0.04  -0.06     0.02  -0.03  -0.02
    10   6    -0.02  -0.01  -0.00     0.02   0.06  -0.04     0.00  -0.01  -0.01
    11   1    -0.05  -0.04  -0.01    -0.01  -0.01  -0.07    -0.02   0.03   0.04
    12   1    -0.02  -0.03  -0.04    -0.10   0.11  -0.02    -0.13   0.06   0.14
    13   1    -0.02  -0.03  -0.03    -0.07   0.10  -0.01    -0.09   0.01   0.08
    14   1    -0.02  -0.03   0.03     0.07  -0.02  -0.05     0.03  -0.05  -0.03
    15   1     0.00  -0.01  -0.00     0.08   0.05  -0.06     0.03  -0.03  -0.03
    16   1    -0.01  -0.01  -0.02     0.01   0.08  -0.03    -0.00  -0.00  -0.00
    17   7    -0.06  -0.03  -0.00    -0.00   0.02  -0.05    -0.02   0.01   0.02
    18   7    -0.03  -0.02   0.01     0.03   0.01  -0.04     0.00  -0.03  -0.01
    19  77     0.03  -0.04  -0.03     0.00   0.00  -0.03    -0.00  -0.03  -0.00
    20   8    -0.02  -0.01   0.01    -0.01  -0.00   0.01     0.04   0.03   0.01
    21   8     0.01   0.05  -0.04     0.03  -0.00  -0.00    -0.02   0.03  -0.01
    22   8    -0.07   0.09   0.03     0.01   0.01  -0.00    -0.01  -0.01   0.02
    23   5     0.02   0.06  -0.02     0.02   0.00  -0.01     0.02  -0.00  -0.00
    24   5     0.00   0.00   0.07    -0.01   0.00  -0.01     0.02  -0.02  -0.02
    25   5    -0.19   0.24   0.15    -0.01   0.01  -0.01    -0.02  -0.01   0.01
    26   8    -0.08   0.12   0.07    -0.02   0.00   0.00    -0.02  -0.02   0.01
    27   8    -0.00   0.01   0.06    -0.03   0.00  -0.02     0.02  -0.06  -0.08
    28   6    -0.00  -0.01   0.02    -0.04   0.00  -0.00     0.04  -0.03  -0.05
    29   6    -0.02  -0.01   0.00    -0.02  -0.00   0.02     0.08   0.03   0.00
    30   6    -0.04   0.01   0.00     0.00   0.00   0.02    -0.02  -0.00   0.03
    31   6    -0.07   0.01   0.02    -0.01   0.00   0.02    -0.02  -0.01   0.02
    32   6     0.01   0.01  -0.02     0.04  -0.01   0.01    -0.00   0.05  -0.02
    33   6     0.01   0.01   0.00     0.05  -0.01  -0.00     0.03  -0.01   0.00
    34   8     0.02   0.03   0.01     0.03  -0.00  -0.01     0.06  -0.02   0.01
    35   6    -0.03  -0.01   0.00    -0.00  -0.00   0.01     0.16   0.04  -0.02
    36   1    -0.03  -0.01  -0.00    -0.01  -0.00   0.02     0.20   0.04  -0.03
    37   1    -0.03  -0.01  -0.00     0.01  -0.01   0.03     0.18   0.08   0.02
    38   1    -0.03  -0.00   0.01     0.01  -0.00  -0.00     0.17   0.00  -0.06
    39   6    -0.01  -0.01  -0.01    -0.03  -0.01   0.04     0.06   0.08   0.06
    40   1    -0.00  -0.01  -0.02    -0.04  -0.01   0.04     0.00   0.08   0.08
    41   1    -0.02  -0.01  -0.02    -0.01  -0.01   0.05     0.09   0.12   0.09
    42   1    -0.01  -0.01  -0.01    -0.04  -0.01   0.05     0.09   0.08   0.05
    43   6    -0.02  -0.01   0.01    -0.04   0.00  -0.01     0.09  -0.05  -0.09
    44   1    -0.03   0.01   0.01    -0.03   0.00  -0.02     0.15  -0.06  -0.12
    45   1    -0.01  -0.01   0.02    -0.06   0.01  -0.02     0.06  -0.10  -0.13
    46   1    -0.02  -0.02  -0.01    -0.05   0.00   0.00     0.12  -0.02  -0.07
    47   6     0.03  -0.03   0.02    -0.06   0.00   0.01    -0.04  -0.03  -0.02
    48   1     0.04  -0.04   0.04    -0.07   0.00  -0.01    -0.06  -0.08  -0.06
    49   1     0.03  -0.03   0.03    -0.05  -0.00   0.01    -0.07  -0.02   0.01
    50   1     0.03  -0.04   0.00    -0.07  -0.00   0.02    -0.03  -0.01  -0.00
    51   6     0.00   0.02   0.00     0.04  -0.00   0.03     0.03   0.10  -0.03
    52   1     0.00   0.02  -0.00     0.03  -0.00   0.03     0.00   0.13  -0.04
    53   1     0.01   0.00   0.01     0.05  -0.01   0.04     0.04   0.12  -0.03
    54   1    -0.01   0.03   0.01     0.03   0.00   0.03     0.07   0.10  -0.02
    55   6     0.02  -0.01  -0.04     0.06  -0.01   0.01    -0.06   0.06  -0.02
    56   1     0.02  -0.00  -0.04     0.05  -0.01   0.02    -0.09   0.10  -0.03
    57   1     0.02  -0.01  -0.05     0.06  -0.01  -0.01    -0.10   0.01  -0.02
    58   1     0.02  -0.03  -0.03     0.07  -0.02   0.01    -0.05   0.07  -0.02
    59   6     0.00   0.01   0.02     0.06  -0.01   0.01     0.09   0.01   0.01
    60   1     0.01   0.01   0.02     0.05  -0.01   0.02     0.12   0.04   0.00
    61   1    -0.01  -0.01   0.01     0.07  -0.02   0.01     0.07   0.02   0.00
    62   1    -0.00   0.01   0.03     0.06  -0.01   0.00     0.11  -0.03   0.02
    63   6     0.00   0.00   0.00     0.06  -0.02  -0.02    -0.00  -0.06   0.01
    64   1     0.00   0.00   0.02     0.06  -0.02  -0.02     0.02  -0.10   0.03
    65   1    -0.00  -0.01  -0.00     0.07  -0.02  -0.02    -0.02  -0.06   0.00
    66   1     0.01   0.01  -0.01     0.05  -0.01  -0.03    -0.04  -0.07   0.00
    67   6    -0.01  -0.00  -0.02    -0.03  -0.00   0.03    -0.02  -0.02   0.02
    68   1    -0.00  -0.05  -0.05    -0.02  -0.00   0.04    -0.02  -0.01   0.03
    69   1    -0.03   0.00  -0.01    -0.04  -0.00   0.03    -0.02  -0.03   0.02
    70   1     0.04   0.03  -0.02    -0.03  -0.00   0.03    -0.02  -0.03   0.03
    71   6    -0.13  -0.02   0.03    -0.01   0.00   0.03    -0.01  -0.00   0.01
    72   1    -0.13  -0.06   0.02    -0.00  -0.00   0.04    -0.01   0.01   0.01
    73   1    -0.15  -0.01   0.04     0.00   0.00   0.02    -0.01   0.00   0.00
    74   1    -0.15  -0.02   0.04    -0.02  -0.00   0.03    -0.01  -0.01  -0.00
    75   6    -0.05  -0.04  -0.00     0.02   0.01   0.03    -0.02   0.02   0.03
    76   1    -0.04  -0.07  -0.01     0.02   0.00   0.05    -0.02   0.01   0.03
    77   1    -0.02  -0.03  -0.01     0.03   0.01   0.03    -0.02   0.02   0.04
    78   1    -0.08  -0.04   0.01     0.03   0.01   0.03    -0.01   0.02   0.02
    79   6     0.03   0.03  -0.01    -0.01   0.00   0.02    -0.03  -0.01   0.04
    80   1     0.05  -0.01  -0.02    -0.01   0.00   0.04    -0.03  -0.01   0.04
    81   1     0.03   0.06  -0.01    -0.02   0.00   0.01    -0.03  -0.02   0.04
    82   1     0.05   0.04  -0.01     0.01   0.01   0.01    -0.03  -0.01   0.05
    83   1     0.25   0.04  -0.15    -0.01   0.00  -0.02    -0.01  -0.03   0.00
    84   6     0.07   0.01   0.02    -0.03  -0.03   0.01     0.01   0.01  -0.04
    85   8     0.05  -0.01   0.01    -0.06  -0.04   0.03     0.03   0.00  -0.06
    86   6     0.06   0.00   0.02     0.00  -0.04   0.03    -0.01   0.02  -0.03
    87   1     0.07   0.00   0.02     0.03  -0.03   0.03    -0.02   0.04  -0.03
    88   1     0.04  -0.01   0.01     0.01  -0.03   0.01    -0.03   0.01  -0.01
    89   6     0.15   0.15   0.04    -0.01   0.01  -0.02    -0.00  -0.01  -0.01
    90   1     0.16  -0.15  -0.34     0.01   0.00  -0.02    -0.02  -0.02  -0.04
    91   1    -0.25   0.05   0.38    -0.02   0.03  -0.03    -0.03  -0.03   0.02
    92   7     0.07   0.05  -0.01    -0.03  -0.02  -0.03     0.01  -0.00  -0.02
    93   6     0.01   0.08  -0.01    -0.05  -0.02  -0.06     0.03  -0.01  -0.02
    94   1    -0.03   0.07   0.05    -0.03  -0.06  -0.14     0.00   0.03   0.08
    95   1    -0.02   0.12  -0.05    -0.00  -0.03  -0.00    -0.04  -0.01  -0.11
    96   1     0.04   0.06  -0.01    -0.12   0.04  -0.07     0.14  -0.06  -0.03
    97   6     0.05   0.01   0.02    -0.01  -0.06   0.06    -0.01   0.04  -0.03
    98   1     0.06   0.01   0.02    -0.04  -0.10   0.06    -0.01   0.01  -0.03
    99   1     0.06   0.02   0.02    -0.01  -0.06   0.05     0.00   0.06  -0.05
   100   6     0.03   0.02   0.02     0.02  -0.05   0.13    -0.05   0.07  -0.01
   101   1     0.03   0.02   0.02     0.08  -0.02   0.13    -0.04   0.09  -0.00
   102   1     0.03   0.01   0.02     0.01  -0.05   0.11    -0.07   0.04   0.00
   103   6     0.03   0.03   0.01    -0.02  -0.08   0.21    -0.06   0.09   0.01
   104   1     0.04   0.03   0.01    -0.09  -0.09   0.20    -0.08   0.07   0.01
   105   1     0.04   0.03   0.01    -0.02  -0.08   0.25    -0.04   0.12   0.01
   106   6     0.02   0.03  -0.00     0.03  -0.07   0.27    -0.10   0.12   0.04
   107   1     0.01   0.03  -0.00     0.10  -0.06   0.28    -0.09   0.14   0.04
   108   1     0.01   0.02  -0.00     0.02  -0.07   0.22    -0.13   0.09   0.04
   109   1     0.02   0.04  -0.01    -0.01  -0.09   0.34    -0.11   0.14   0.05
   110   1    -0.00  -0.02   0.02     0.11  -0.02  -0.08     0.05  -0.05  -0.04
   111   1    -0.03  -0.05  -0.05    -0.07   0.05  -0.06    -0.10   0.07   0.12
                      4                      5                      6
                      A                      A                      A
 Frequencies --     26.8300                38.6412                39.1036
 Red. masses --      4.4339                 4.0794                 4.5509
 Frc consts  --      0.0019                 0.0036                 0.0041
 IR Inten    --      0.2907                 0.0364                 0.2705
  Atom AN      X      Y      Z        X      Y      Z        X      Y      Z
     1   6     0.01  -0.03   0.04    -0.03   0.03   0.01    -0.01  -0.00   0.03
     2   6    -0.01   0.03   0.10     0.02   0.00  -0.02    -0.02   0.02   0.05
     3   6    -0.01   0.01   0.13    -0.04   0.04   0.02    -0.02   0.01   0.05
     4   6     0.00  -0.03   0.11    -0.09   0.07   0.06    -0.01   0.00   0.05
     5   6     0.01  -0.06   0.07    -0.09   0.06   0.05    -0.01  -0.00   0.04
     6   6     0.01  -0.05   0.00    -0.01   0.02   0.00    -0.02  -0.00   0.03
     7   6    -0.01  -0.03  -0.01     0.03  -0.02  -0.03    -0.01  -0.01  -0.01
     8   6    -0.01  -0.06  -0.03     0.03  -0.01  -0.02    -0.03  -0.01   0.01
     9   6     0.01  -0.09  -0.04     0.01   0.02  -0.00    -0.05   0.00   0.04
    10   6     0.02  -0.08  -0.02    -0.01   0.04   0.01    -0.04   0.01   0.05
    11   1    -0.01   0.06   0.11     0.06  -0.02  -0.05    -0.02   0.02   0.05
    12   1     0.01  -0.05   0.13    -0.14   0.10   0.09    -0.01  -0.00   0.05
    13   1     0.02  -0.09   0.05    -0.13   0.09   0.08    -0.00  -0.01   0.03
    14   1    -0.02  -0.02  -0.01     0.04  -0.03  -0.04    -0.00  -0.01  -0.03
    15   1     0.01  -0.11  -0.06     0.01   0.04   0.00    -0.07   0.01   0.06
    16   1     0.03  -0.10  -0.03    -0.03   0.06   0.03    -0.05   0.01   0.09
    17   7     0.00   0.00   0.06     0.02  -0.00  -0.02    -0.01   0.01   0.04
    18   7    -0.00  -0.03   0.01     0.01  -0.00  -0.02    -0.00  -0.01  -0.00
    19  77     0.01  -0.00   0.01     0.01  -0.02  -0.02     0.02  -0.00  -0.01
    20   8    -0.02  -0.04  -0.05     0.01  -0.01  -0.05     0.01  -0.02   0.02
    21   8     0.06   0.01   0.05     0.03  -0.02  -0.00     0.05   0.00   0.01
    22   8     0.01  -0.01  -0.01    -0.00  -0.00   0.00    -0.01  -0.00  -0.05
[...]
 02668857,0.09964264,-0.08444456,-0.00343873,-0.00980380,0.00708311,-0.
 00423905,0.00154161,0.00351604,-0.00000237,0.00000049,-0.00000766,0.00
 000482,-0.00000236,-0.00000405,-0.00004077,0.00001907,0.00003064,0.001
 43654,-0.00155647,-0.00142101,0.00176479,-0.00121161,-0.00176207,-0.00
 020156,-0.00042626,0.00028236,-0.00001673,0.00021684,-0.00008981,-0.00
 556346,0.00467767,0.00116863,0.00040555,-0.00002045,0.00033700,-0.0000
 4215,0.00004541,0.00000555,-0.00000605,-0.00009498,0.00001118,-0.00016
 409,-0.00027010,0.00013181,0.00022093,-0.00003665,-0.00000564,0.000007
 02,-0.00017645,-0.00010450,0.00016780,0.00034337,0.00002816,-0.0000303
 2,-0.00009932,0.00000882,0.00001037,0.00006284,-0.00000544,0.00001674,
 -0.00001432,0.00001349,0.00000466,-0.00001764,0.00001701,-0.00000128,0
 .00003200,-0.00001467,0.00001245,0.00002426,-0.00002634,-0.00002000,0.
 00001490,0.00005856,0.00001711,0.00000283,-0.00000473,-0.00005331,0.00
 002683,-0.00000765,-0.00000213,0.00000591,-0.00000409,-0.00000016,0.00
 000301,0.00000094,0.00000180,-0.00000077,0.00000026,-0.00000287,-0.000
 00128,0.00000143,-0.00000007,0.00000167,0.00000071,0.00000042,-0.00000
 095,-0.00000178,0.00000008,0.00000051,0.00000106,-0.00000139,0.0000009
 6,-0.00000064,-0.00000296,0.00000123,-0.00000181,-0.00000142,-0.000000
 08,0.00000035,0.00000125,0.00000016,-0.00000139,-0.00000009,0.00000213
 ,-0.00000017,-0.00000358,-0.00000057,-0.00000185,0.00000141,0.00000035
 ,-0.00000023,0.00000267,0.00000004,0.00000327,-0.00000101,0.00000190,-
 0.00000128,0.00000786,0.00000356,-0.00001277,-0.00000511,-0.00000098,0
 .00000233,0.00000209,-0.00000309,-0.00000057,-0.00000169,0.00000362,-0
 .00000132,0.00002582,-0.00000659,-0.00000793,-0.00001299,0.00000420,0.
 00000266,0.00000337,0.00000679,0.00001112,0.00000227,-0.00000648,-0.00
 000340,-0.00000929,-0.00000243,-0.00000022,-0.00000173,0.00000314,-0.0
 0000139,0.00000182,0.00000046,0.00000066,0.00000090,-0.00000212,0.0000
 0039,-0.00001108,-0.00000166,-0.00001241,-0.00000290,0.00000822,0.0000
 0018,0.00001049,-0.00001425,-0.00001073,-0.00001266,0.00000237,0.00005
 627,-0.00000356,-0.00000549,0.00000687,-0.00000394,0.00000059,-0.00000
 203,0.00000343,-0.00000449,0.00000462,0.00000054,-0.00000207,-0.000008
 12,-0.00000075,-0.00000578,0.00001065,-0.00000217,-0.00000120,-0.00000
 096,0.00000299,0.00000284,-0.00000508,0.00000550,-0.00000538,0.0000048
 4,0.00000163,0.00001480,-0.00002480,0.00000744,-0.00000525,0.00001082,
 -0.00001460,-0.00001381,0.00002050,0.00000418,-0.00000385,-0.00000192,
 -0.00002371,0.00002764,-0.00003376,0.00001555,-0.00001512,0.00000559,-
 0.00000336,0.00000232,-0.00000850,-0.00001021,-0.00003163,0.00001970,-
 0.00011529,0.00009658,-0.00013294,-0.00011476,0.00023850,-0.00010641,-
 0.00002220,-0.00023604,0.00026304,-0.00002081,-0.00004617,0.00000435,-
 0.00000298,-0.00000498,-0.00000205,-0.00001942,-0.00002172,0.00001900,
 -0.00017432,-0.00000143,-0.00009152,0.00000423,-0.00002086,0.00002964,
 0.00004092,-0.00001614,-0.00002826,0.00011678,-0.00017754,-0.00003600,
 0.00019563,0.00027734,-0.00001616,0.00016868,-0.00009408,-0.00011794,-
 0.00026542,0.00006747,-0.00003124,-0.00004883,-0.00006444,0.00013016,0
 .00000478,-0.00001331,0.00002157,-0.00000963,0.00000162,-0.00000985,0.
 00001223,0.00000312,-0.00000626,-0.00000807,0.00000879,-0.00000838,0.0
 0000056,-0.00000105,0.00000047,0.,-0.00000721,0.00000230,0.00000202,-0
 .00000531,0.00000657,0.00000082,0.00000127,-0.00000443,0.00000151,-0.0
 0000019,-0.00000044,-0.00000324,0.00000224,-0.00000291,0.00000066,-0.0
 0000014,0.00000045,0.00000157,-0.00000211,0.00000058,-0.00000300,-0.00
 000258,-0.00000027,-0.02622370,-0.10963975,0.08103991,-0.00104184,0.00
 050095,-0.00149673,-0.00035504,-0.01613744,0.01350075,-0.06033265,-0.0
 6233297,0.02172612,0.00654808,0.01342969,-0.00627995,0.00289722,-0.001
 71641,-0.00519584,-0.00076557,0.00039382,0.00082379,-0.00001450,0.0001
 7260,-0.00010539,0.00015204,0.00000593,0.00012171,-0.00010514,-0.00015
 383,0.00002932,0.00001915,0.00018369,-0.00011121,-0.00103539,0.0015332
 1,0.00134205,-0.00162029,0.00119556,0.00200688,0.00037530,0.00058986,-
 0.00043927,-0.00001202,-0.00000601,-0.00001508,-0.00000609,0.00000316,
 0.00000666,0.00003377,-0.00003444,-0.00003055,0.00079623,-0.00622689,-
 0.00417342,-0.00004101,-0.00020036,-0.00000686,0.00021883,0.00023267,0
 .00000116,-0.00004328,0.00019051,-0.00005875,-0.00003786,0.00004369,0.
 00009569,-0.00009039,-0.00012832,0.00004558,-0.00004898,-0.00014494,-0
 .00012926,0.00009961,-0.00034458,0.00014762,0.00010635,0.00032977,0.00
 016769,-0.00012807,-0.00006902,-0.00009645,-0.00007687,0.00033064,-0.0
 0016040,0.00001506,-0.00022064,0.00003638,-0.00003903,-0.00009073,0.00
 003139,0.00006657,0.00000225,0.00000903,0.00007057,0.00000840,-0.00002
 878,0.00001719,-0.00003405,-0.00001864,0.00000355,-0.00001215,-0.00001
 754,-0.00001173,0.00007310,0.00005045,-0.00000593,0.00001733,-0.000011
 97,-0.00001727,0.00001772,0.00000317,0.00002127,0.00000466,-0.00000390
 ,-0.00000403,-0.00002831,0.00002251,0.00000210,0.00001538,-0.00000051,
 0.00000250,0.00000113,0.00000764,0.00000615,-0.00000099,-0.00000598,-0
 .00001095,0.00000709,-0.00000284,0.00000719,-0.00003523,-0.00006633,-0
 .00005770,0.00003876,0.00011402,-0.00000256,0.00000249,-0.00009388,0.0
 0006096,0.00002591,0.00001980,-0.00000854,0.00005807,-0.00001118,-0.00
 000003,-0.00001053,-0.00000991,0.00001623,0.00001795,0.00001642,-0.000
 00491,-0.00000435,-0.00001050,-0.00000300,-0.00000007,0.00000896,0.000
 00326,0.00000227,-0.00000209,-0.00000429,0.00000199,0.00000217,-0.0000
 0004,-0.00000272,-0.00000327,-0.00000483,0.00000795,0.00000622,0.00000
 299,-0.00000048,-0.00000101,-0.00000189,0.00000070,-0.00000231,-0.0000
 0201,-0.00000145,0.00000517,-0.00000035,-0.00000604,0.00000198,-0.0000
 0819,-0.00000080,0.00000062,0.00000103,0.00000631,-0.00000168,0.000006
 61,0.00000207,0.00000833,-0.00001180,-0.00000334,0.00000652,0.00000848
 ,0.00000260,-0.00000284,0.00000169,-0.00000030,0.00000147,-0.00000067,
 0.00000448,-0.00000171,-0.00000685,-0.00000086,0.00000570,-0.00000485,
 -0.00000225,-0.00000166,-0.00000095,0.00000179,-0.00000355,0.00000143,
 0.00000156,0.00000200,-0.00000557,0.00000196,0.00001596,-0.00000684,0.
 00000150,0.00000059,0.00000302,-0.00000604,-0.00000268,-0.00000236,-0.
 00000033,-0.00000729,-0.00000273,-0.00000299,-0.00000221,-0.00000450,-
 0.00000172,0.00000168,0.00000035,-0.00000085,0.00000126,0.00000070,0.0
 0000153,0.00000029,-0.00001804,-0.00000249,-0.00000565,-0.00000360,-0.
 00000785,-0.00000249,0.00000063,0.00000305,0.00000270,0.00000131,0.000
 00159,0.00000037,-0.00004764,-0.00002696,-0.00001263,0.00001420,0.0000
 3940,-0.00004994,0.00000128,-0.00003516,0.00004517,-0.00000872,-0.0000
 5123,-0.00000798,0.00000764,-0.00001128,-0.00000291,-0.00000869,0.0000
 2517,0.00002897,0.00003516,0.00002507,-0.00003088,0.00001943,-0.000025
 40,-0.00001069,-0.00000281,0.00000024,-0.00000063,0.00001053,-0.000010
 23,0.00000946,0.00000500,0.00001418,0.00000009,0.00000456,-0.00000010,
 -0.00000170,-0.00000671,-0.00000143,-0.00000195,-0.00000291,-0.0000025
 6,-0.00000061,-0.00001966,0.00001291,-0.00003375,0.00000446,-0.0000032
 3,0.00000882,0.00000382,0.00000184,0.00000756,0.00001802,-0.00004562,0
 .00003974,-0.00000838,0.00001343,0.00000585,0.00002239,-0.00000979,-0.
 00003604,0.00007532,0.00000944,-0.00005226,-0.00000617,-0.00001082,0.0
 0002059,-0.00001504,-0.00004314,0.00001364,-0.00012259,0.00013290,0.00
 004730,0.00001338,-0.00002151,-0.00000327,0.00008133,-0.00007370,-0.00
 007089,0.00002091,-0.00003160,-0.00000215,0.00002059,-0.00001659,-0.00
 002034,0.05433492,-0.00034115,0.00048102,-0.00111415,-0.00002293,-0.01
 131601,0.01108878,-0.06239551,-0.25728765,0.11965468,-0.00234914,-0.00
 199529,0.00068391,-0.00149846,0.00298856,0.00235130,0.00060809,-0.0003
 2624,-0.00042204,0.00003949,-0.00008049,0.00007030,-0.00009192,-0.0000
 2096,-0.00007343,0.00009731,0.00008666,-0.00000316,-0.00006995,-0.0001
 7171,0.00008947,0.00108034,-0.00025304,-0.00101382,0.00158077,-0.00041
 937,-0.00091204,-0.00025879,-0.00006780,-0.00006195,0.00000319,0.00000
 739,0.00001541,0.00000566,-0.00001266,0.00000127,-0.00002080,0.0000410
 0,0.00002289,-0.00537096,-0.00011921,0.00014140,-0.00006314,0.00004739
 ,0.00005512,0.00048082,0.00030950,0.00001645,-0.00003805,0.00013240,-0
 .00004964,-0.00006215,0.00002324,0.00008333,-0.00009090,-0.00011905,-0
 .00000149,0.00004944,-0.00011591,-0.00012167,0.00009324,-0.00034714,0.
 00013096,-0.00004337,0.00024191,0.00016349,-0.00010078,-0.00007636,-0.
 00008405,0.00007155,0.00021518,-0.00007942,0.00000441,-0.00004927,0.00
 001621,-0.00001028,-0.00005498,0.00002796,0.00005694,0.00001301,0.0000
 1071,0.00005526,0.00000875,-0.00001769,0.00001821,-0.00002504,-0.00002
 361,0.00001601,-0.00000626,-0.00002730,-0.00003663,0.00003562,0.000043
 26,0.00000134,0.00001188,-0.00000911,-0.00000406,0.00000918,0.00000235
 ,0.00000869,-0.00000117,-0.00000266,-0.00000267,-0.00001054,0.00000862
 ,0.00000119,0.00000893,-0.00000539,-0.00000067,-0.00000244,0.00000208,
 0.00000432,-0.00000176,-0.00000199,-0.00000548,0.00000565,-0.00000123,
 -0.00002165,-0.00002362,0.00000938,-0.00004249,0.00000822,0.00001083,-
 0.00001168,0.00000982,-0.00003337,0.00002028,0.00000728,0.00000144,-0.
 00001405,0.00000802,0.00000368,0.00000329,-0.00000403,-0.00000828,0.00
 000795,0.00000502,0.00000426,-0.00000170,0.00000091,-0.00000421,-0.000
 00408,-0.00000020,0.00000570,-0.00000039,-0.00000097,-0.00000199,-0.00
 000372,0.00000358,0.00000268,0.00000155,-0.00000092,-0.00000067,-0.000
 00346,0.00000298,0.00000451,-0.00000149,-0.00000193,-0.00000154,0.0000
 0054,0.00000211,-0.00000351,-0.00000095,0.00000045,0.00000484,0.000000
 47,-0.00000003,0.00000178,-0.00000422,0.00000157,-0.00000088,-0.000001
 79,0.00000188,0.00000260,0.00000263,-0.00000076,0.00000072,0.00000311,
 0.00000261,0.00000092,-0.00000125,-0.00000650,-0.00000458,-0.00000437,
 -0.00000006,0.00000483,0.00000131,0.00000547,-0.00000291,-0.00000557,-
 0.00000121,0.00000281,-0.00000479,-0.00000217,-0.00000083,-0.00000086,
 0.00000285,-0.00000240,0.00000172,-0.00000182,0.00000010,-0.00000256,0
 .00000386,0.00001443,-0.00000711,-0.00000203,-0.00000070,0.00000429,-0
 .00000507,-0.00000667,0.00000056,0.00000103,-0.00000399,-0.00000288,-0
 .00000213,-0.00000058,-0.00000551,-0.00000145,-0.00000017,0.00000167,0
 .00000044,0.00000155,0.00000425,0.00000028,-0.00000084,-0.00001205,-0.
 00000468,-0.00000273,-0.00000482,-0.00000685,-0.00000274,0.00000131,0.
 00000249,0.00000021,0.00000142,0.00000118,0.00000129,-0.00003332,-0.00
 000093,-0.00001218,-0.00005729,-0.00001055,-0.00000471,0.00005113,-0.0
 0001208,0.00000389,-0.00003476,0.00004834,-0.00000864,0.00000535,-0.00
 001661,-0.00001200,-0.00000353,0.00001378,0.00002745,0.00002506,-0.000
 00651,-0.00002405,0.00000141,-0.00000297,0.00001562,-0.00000278,-0.000
 00903,0.00000861,0.00005482,-0.00000653,-0.00002484,0.00000699,0.00000
 902,0.00000725,-0.00000115,-0.00000007,0.00000341,0.00000163,0.0000061
 6,-0.00000097,-0.00000209,-0.00000013,-0.00000641,-0.00002196,-0.00002
 140,0.00003004,-0.00000527,0.00001719,-0.00002243,0.00001687,0.0000040
 9,-0.00000803,0.00001988,0.00003140,-0.00004032,0.00003273,-0.00004039
 ,-0.00003453,-0.00005938,-0.00003768,0.00007891,-0.00006596,-0.0000229
 4,0.00005543,0.00000386,0.00001536,-0.00003978,0.00001354,0.00004989,-
 0.00001739,0.00007840,-0.00012588,-0.00005220,0.00001378,0.00000465,-0
 .00001450,0.00007632,-0.00003524,0.00010363,-0.00004413,0.00005605,-0.
 00000980,-0.00001268,0.00000500,0.00001887,0.06865118,0.26829544,-0.00
 101429,-0.00062902,-0.00103767,-0.00160323,-0.01147612,0.00910506,0.02
 182000,0.11957711,-0.11590079,0.00816556,0.02293211,-0.00737709,-0.005
 35187,0.00188947,-0.00194817,0.00068737,-0.00040991,-0.00037557,0.0000
 5103,-0.00008263,0.00006023,-0.00006260,-0.00000033,-0.00008076,0.0001
 1378,0.00005097,0.00004288,-0.00013356,-0.00007111,0.00003638,0.001336
 93,-0.00034321,-0.00073400,0.00172024,-0.00136405,-0.00001113,0.000313
 68,0.00119898,-0.00031877,-0.00000645,0.00000719,0.00000272,0.00000275
 ,-0.00000421,-0.00000541,0.00005966,-0.00001536,0.00005406,-0.00479867
 ,-0.00090333,0.00215684,-0.00003421,0.00017077,0.00001906,0.00041247,0
 .00013099,0.00003118,0.00005660,-0.00003854,-0.00001714,0.00001579,-0.
 00001328,-0.00002464,0.00004164,0.00001993,-0.00002094,-0.00002934,0.0
 0000317,0.00003988,-0.00004939,-0.00002544,0.00003100,-0.00018595,-0.0
 0007326,0.00000350,0.00004484,0.00000098,0.00001234,0.00013541,-0.0000
 3059,-0.00000620,-0.00001904,0.00007420,-0.00002845,-0.00000446,0.0000
 4256,0.00002619,-0.00002699,-0.00000857,-0.00000397,-0.00002182,-0.000
 00556,0.00000859,-0.00000528,0.00000716,0.00001270,-0.00001616,0.00001
 888,0.00000443,0.00001626,-0.00004252,-0.00003338,0.00001399,-0.000008
 34,-0.00000411,0.00000709,-0.00000616,0.00000459,-0.00000602,-0.000000
 28,-0.00000512,0.00000402,0.00001819,-0.00000418,0.00000351,-0.0000065
 9,-0.00001257,-0.00000505,-0.00000182,-0.00000338,0.00000437,0.0000013
 1,-0.00000039,0.00000142,-0.00000176,0.00000291,-0.00000569,0.00000152
 ,0.00008477,0.00003768,-0.00000310,-0.00000377,0.00000779,0.00000511,-
 0.00002993,0.00000943,-0.00000445,-0.00001405,-0.00000390,-0.00001681,
 0.00001043,0.00000153,-0.00000012,-0.00000878,-0.00000103,-0.00000248,
 -0.00000574,0.00000463,-0.00000116,0.00000364,0.00000116,-0.00000045,-
 0.00000063,-0.00000082,-0.00000140,0.00000096,0.00000264,-0.00000082,-
 0.00000294,-0.00000012,0.00000186,0.00000292,-0.00000114,0.00000072,-0
 .00000165,-0.00000051,-0.00000003,0.00000110,0.00000101,-0.00000176,0.
 00000161,0.00000082,-0.00000053,-0.00000223,0.00001061,0.00000200,0.00
 000411,0.00000653,-0.00000072,0.00000191,-0.00000144,-0.00000354,-0.00
 000044,-0.00000805,0.00000215,-0.00000676,0.00000172,-0.00000765,-0.00
 000331,-0.00000657,0.00001078,0.00000489,0.00000417,0.00000176,-0.0000
 0250,-0.00000335,-0.00000746,0.00000050,0.00000218,-0.00000082,-0.0000
 0052,0.00000189,0.00000112,-0.00000044,-0.00000043,-0.00000050,0.00000
 116,-0.00000072,-0.00000089,-0.00000081,0.00000344,0.00000114,0.000000
 40,0.00000259,-0.00000077,-0.00000220,-0.00000118,0.00000031,-0.000001
 13,-0.00000054,-0.00000003,0.00000095,0.00000186,0.00000152,-0.0000000
 4,0.00000247,0.00000067,-0.00000029,-0.00000068,0.00000009,-0.00000056
 ,-0.00000059,-0.00000051,-0.00000007,0.00000480,0.00000133,0.00000221,
 0.00000230,0.00000208,0.00000069,-0.00000031,-0.00000122,-0.00000192,-
 0.00000118,-0.00000109,-0.00000004,0.00000436,0.00000294,0.00000993,0.
 00002842,-0.00000007,0.00000628,-0.00001026,0.00001777,-0.00000873,-0.
 00000765,0.00001185,0.00000990,0.00000240,-0.00000220,-0.00000112,-0.0
 0000647,0.00001025,0.00000027,0.00004796,-0.00000839,0.00000486,-0.000
 00781,0.00000465,0.00001474,-0.00001481,0.00000176,0.00001689,-0.00004
 083,0.00001272,-0.00001101,-0.00000824,-0.00001580,-0.00000038,-0.0000
 0203,-0.00000037,-0.00000045,0.00000179,-0.00000002,-0.00000166,0.0000
 0210,0.00000086,0.00000242,-0.00000577,-0.00000651,-0.00001415,0.00000
 030,-0.00000179,0.00000118,0.00000276,0.00000314,0.00000240,0.00003322
 ,-0.00001490,0.00000145,0.00000679,-0.00000871,-0.00000546,-0.00004683
 ,0.00003926,0.00002427,0.00000919,-0.00000062,-0.00002953,0.00000838,-
 0.00000043,0.00000407,-0.00000545,-0.00000162,0.00000452,-0.00001619,-
 0.00000230,-0.00000605,0.00001733,-0.00002223,-0.00000899,-0.00002808,
 0.00006583,0.00004981,-0.00002194,0.00001219,-0.00000657,-0.00000487,0
 .00001426,0.00001984,-0.02166486,-0.13066938,0.11618905\\-0.00000151,0
 .00000471,-0.00000690,-0.00000305,0.00000369,-0.00001155,0.00000158,0.
 00000004,0.00000038,0.00000112,0.00001030,-0.00000829,0.00000083,-0.00
 000321,0.00000246,0.00000090,0.00000088,0.00000089,-0.00000312,0.00000
 401,-0.00000203,0.00000617,0.00001128,0.00000702,0.00000043,0.00000208
 ,0.00000236,-0.00000509,0.00000467,-0.00000501,-0.00000008,-0.00000154
 ,0.00000029,-0.00000142,0.00000018,-0.00000350,-0.00000016,0.00000258,
 -0.00000221,0.00000177,0.00000048,0.00000178,0.00000185,0.00000171,0.0
 0000201,0.00000587,0.00000480,0.00000129,-0.00000197,-0.00000531,0.000
 00107,0.00000242,-0.00000025,0.00000296,-0.00000146,0.00000035,-0.0000
 0391,-0.00000478,0.00000102,-0.00000269,-0.00000102,0.00000016,0.00000
 197,-0.00000170,-0.00000169,0.00000235,-0.00000013,0.00000401,0.000004
 12,0.00000364,0.00000049,-0.00000299,0.00000094,-0.00000271,0.00000498
 ,-0.00000192,-0.00000495,0.00000296,-0.00000591,-0.00000430,-0.0000024
 3,-0.00000386,-0.00000850,-0.00000297,0.00000163,-0.00000456,-0.000001
 33,0.00000524,-0.00000007,0.00000896,0.00000357,-0.00000190,0.00000375
 ,0.00000427,0.00000341,-0.00000286,0.00000095,0.00000526,0.00000421,0.
 00000179,-0.00000023,-0.00000646,-0.00000329,-0.00000087,-0.00000694,-
 0.00000031,0.00000015,-0.00000187,-0.00000019,-0.00000062,-0.00000068,
 -0.00000124,0.00000020,-0.00000178,0.00000010,-0.00000193,0.00000459,-
 0.00000183,-0.00000428,-0.00000436,-0.00000023,-0.00000062,-0.00000221
 ,-0.00000178,-0.00000158,-0.00000226,-0.00000142,-0.00000068,-0.000009
 12,-0.00000074,-0.00000032,-0.00000102,-0.00000270,-0.00000183,-0.0000
 0151,-0.00000082,-0.00000208,-0.00000226,0.00000490,-0.00000023,-0.000
 00567,-0.00000390,-0.00000228,0.00000093,-0.00000347,-0.00000594,0.000
 00020,-0.00000255,-0.00000243,-0.00000144,-0.00000112,-0.00000065,0.00
 000043,0.00000001,0.00000047,0.00000001,0.00000044,0.00000198,0.000000
 71,0.00000012,0.00000098,-0.00000134,0.00000581,0.00000577,0.00000567,
 -0.00000151,0.00000015,0.00000069,-0.00000022,0.00000263,0.00000050,0.
 00000069,0.00000041,-0.00000162,-0.00000204,0.00000160,-0.00000328,0.0
 0000171,0.00000089,-0.00000039,0.00000164,0.00000248,-0.00000185,-0.00
 000012,0.00000165,-0.00000142,-0.00000325,0.00000794,0.00000185,0.0000
 0177,0.00000323,-0.00000147,0.00000143,0.00000179,-0.00000264,0.000001
 35,-0.00000118,-0.00000041,-0.00000019,-0.00000905,0.00000494,-0.00000
 047,-0.00000135,0.00000220,-0.00000103,-0.00000100,0.00000096,-0.00000
 005,-0.00000100,0.00000329,-0.00000346,-0.00000538,-0.00000122,-0.0000
 0078,-0.00000096,0.00000234,0.00000243,0.00000158,0.00000450,0.0000004
 2,-0.00000234,0.00000198,0.00000251,0.00000282,0.00000367,-0.00000083,
 -0.00000093,0.00000310,0.00000140,-0.00000147,0.00000379,0.00000030,-0
 .00000152,0.00000062,-0.00000119,-0.00000275,0.00001022,0.00000177,-0.
 00000176,0.00000302,0.00000137,-0.00000108,0.00000115,0.00000003,0.000
 00016,0.00000170,0.00000084,-0.00000115,0.00000202,0.00000685,-0.00000
 574,0.00000712,-0.00000204,0.00000653,-0.00000472,0.00000177,-0.000003
 18,0.00000033,-0.00000057,-0.00000020,0.00000127,-0.00000117,0.0000016
 6,-0.00000021,0.00000342,0.00000168,0.00000353,-0.00000209,-0.00000246
 ,0.00000145,-0.00000144,-0.00000289,-0.00000076,-0.00000076,-0.0000057
 0,0.00000510,0.00000001,-0.00000307,0.00000137,0.00000071,0.00000153,0
 .00000193,0.00000081,0.00000048,0.00000265,0.00000207,0.00000153,0.000
 00527,0.00000272,-0.00000165,-0.00000169,-0.00000038,0.00000062,0.0000
 0043,-0.00000165,0.00000204,0.00000050,0.00000457,-0.00000166,-0.00000
 426,-0.00000048,-0.00000078,0.00000055,-0.00000329,0.00000339,0.000000
 14,-0.00000564,-0.00000247,-0.00000149,0.00000050,0.00000162,-0.000003
 24,0.00000022,0.00000022,-0.00000125,0.00000317,0.00000318,-0.00000101
 ,-0.00000032,-0.00000025,-0.00000610,-0.00000226,0.00000211,-0.0000022
 3,-0.00000157,0.00000084,-0.00000300,-0.00000070,-0.00000342,0.0000033
 9,-0.00000058,0.00000149,-0.00000406\\\@
 The archive entry for this job was punched.


 EVANS BOLDLY PUT 50 ATM. OF ETHYLENE IN A CELL WITH 25 ATM. OF OXYGEN.
 THE APPARATUS SUBSEQUENTLY BLEW UP, BUT LUCKILY NOT BEFORE HE
 OBTAINED THE SPECTRA SHOWN IN FIGURE 8.
 A.J.MERER AND R.S.MULLIKEN, CHEM.REV. 69, 645 (1969)
 Job cpu time:       2 days  1 hours  2 minutes 51.2 seconds.
 Elapsed time:       0 days  3 hours  7 minutes 28.3 seconds.
 File lengths (MBytes):  RWF=   8594 Int=      0 D2E=      0 Chk=     49 Scr=      1
 Normal termination of Gaussian 16 at Sun Dec  8 00:55:03 2024.
