/mnt/lustre/scratch/nvme/SLURM/9663711/usccqdma.7QU7joWyxx
OMP_STACKSIZE=0m
GAUSS_PDEF=16
GAUSS_MDEF=65536MB
GAUSS_RDEF=SCF=Direct
 Entering Gaussian System, Link 0=g16.exe
 Initial command:
 /opt/cesga/2020/software/Core/g16/c1/l1.exe "/mnt/lustre/scratch/nvme/SLURM/9663711/usccqdma.7QU7joWyxx/Gau-1178213.inp" -scrdir="/mnt/lustre/scratch/nvme/SLURM/9663711/usccqdma.7QU7joWyxx/"
 Default is to use a total of  16 processors:
                               16 via shared-memory
                                1 via Linda
 Entering Link 1 = /opt/cesga/2020/software/Core/g16/c1/l1.exe PID=   1178241.
  
 Copyright (c) 1988-2019, Gaussian, Inc.  All Rights Reserved.
  
 This is part of the Gaussian(R) 16 program.  It is based on
 the Gaussian(R) 09 system (copyright 2009, Gaussian, Inc.),
 the Gaussian(R) 03 system (copyright 2003, Gaussian, Inc.),
 the Gaussian(R) 98 system (copyright 1998, Gaussian, Inc.),
 the Gaussian(R) 94 system (copyright 1995, Gaussian, Inc.),
 the Gaussian 92(TM) system (copyright 1992, Gaussian, Inc.),
 the Gaussian 90(TM) system (copyright 1990, Gaussian, Inc.),
 the Gaussian 88(TM) system (copyright 1988, Gaussian, Inc.),
 the Gaussian 86(TM) system (copyright 1986, Carnegie Mellon
 University), and the Gaussian 82(TM) system (copyright 1983,
 Carnegie Mellon University). Gaussian is a federally registered
 trademark of Gaussian, Inc.
  
 This software contains proprietary and confidential information,
 including trade secrets, belonging to Gaussian, Inc.
  
 This software is provided under written license and may be
 used, copied, transmitted, or stored only in accord with that
 written license.
  
 The following legend is applicable only to US Government
 contracts under FAR:
  
                    RESTRICTED RIGHTS LEGEND
  
 Use, reproduction and disclosure by the US Government is
 subject to restrictions as set forth in subparagraphs (a)
 and (c) of the Commercial Computer Software - Restricted
 Rights clause in FAR 52.227-19.
  
 Gaussian, Inc.
 340 Quinnipiac St., Bldg. 40, Wallingford CT 06492
  
  
 ---------------------------------------------------------------
 Warning -- This program may not be used in any manner that
 competes with the business of Gaussian, Inc. or will provide
 assistance to any competitor of Gaussian, Inc.  The licensee
 of this program is prohibited from giving any competitor of
 Gaussian, Inc. access to this program.  By using this program,
 the user acknowledges that Gaussian, Inc. is engaged in the
 business of creating and licensing software in the field of
 computational chemistry and represents and warrants to the
 licensee that it is not a competitor of Gaussian, Inc. and that
 it will not use this program in any manner prohibited above.
 ---------------------------------------------------------------
  

 Cite this work as:
 Gaussian 16, Revision C.01,
 M. J. Frisch, G. W. Trucks, H. B. Schlegel, G. E. Scuseria, 
 M. A. Robb, J. R. Cheeseman, G. Scalmani, V. Barone, 
 G. A. Petersson, H. Nakatsuji, X. Li, M. Caricato, A. V. Marenich, 
 J. Bloino, B. G. Janesko, R. Gomperts, B. Mennucci, H. P. Hratchian, 
 J. V. Ortiz, A. F. Izmaylov, J. L. Sonnenberg, D. Williams-Young, 
 F. Ding, F. Lipparini, F. Egidi, J. Goings, B. Peng, A. Petrone, 
 T. Henderson, D. Ranasinghe, V. G. Zakrzewski, J. Gao, N. Rega, 
 G. Zheng, W. Liang, M. Hada, M. Ehara, K. Toyota, R. Fukuda, 
 J. Hasegawa, M. Ishida, T. Nakajima, Y. Honda, O. Kitao, H. Nakai, 
 T. Vreven, K. Throssell, J. A. Montgomery, Jr., J. E. Peralta, 
 F. Ogliaro, M. J. Bearpark, J. J. Heyd, E. N. Brothers, K. N. Kudin, 
 V. N. Staroverov, T. A. Keith, R. Kobayashi, J. Normand, 
 K. Raghavachari, A. P. Rendell, J. C. Burant, S. S. Iyengar, 
 J. Tomasi, M. Cossi, J. M. Millam, M. Klene, C. Adamo, R. Cammi, 
 J. W. Ochterski, R. L. Martin, K. Morokuma, O. Farkas, 
 J. B. Foresman, and D. J. Fox, Gaussian, Inc., Wallingford CT, 2019.
 
 ******************************************
 Gaussian 16:  ES64L-G16RevC.01  3-Jul-2019
                 7-Dec-2024 
 ******************************************
 Default route: SCF=Direct
 ----------------------------------------------------
 # m06/genecp scf=tight int=ultrafine 5d freq=noraman
 ----------------------------------------------------
 1/10=4,30=1,38=1/1,3;
 2/12=2,17=6,18=5,40=1/2;
 3/5=7,8=1,11=2,16=1,17=8,25=1,30=1,71=2,74=-54,75=-5,140=1/1,2,3;
 4//1;
 5/5=2,32=2,38=5,98=1/2;
 8/6=4,10=90,11=11/1;
 11/6=1,8=1,9=11,15=111,16=1/1,2,10;
 10/6=1/2;
 6/7=2,8=2,9=2,10=2,28=1/1;
 7/8=1,10=1,25=1/1,2,3,16;
 1/10=4,30=1/3;
 99//99;
 ------
 OPT-TS
 ------
 Symbolic Z-matrix:
 Charge =  0 Multiplicity = 1
 C                     2.15103  -1.53618  -0.36795 
 C                     0.90697  -2.08081   1.52181 
 C                     1.86387  -2.98502   1.95068 
 C                     3.00972  -3.15798   1.18497 
 C                     3.15448  -2.42601   0.01839 
 C                     2.22638  -0.74416  -1.6081 
 C                     1.1471    0.77263  -2.99505 
 C                     2.17238   0.73315  -3.92737 
 C                     3.27565  -0.07409  -3.66468 
 C                     3.30319  -0.82124  -2.49853 
 H                     0.00374  -1.88008   2.09483 
 H                     3.78859  -3.85161   1.49519 
 H                     4.04955  -2.54382  -0.58699 
 H                     0.27225   1.41037  -3.12124 
 H                     4.10637  -0.12619  -4.36587 
 H                     4.15571  -1.46122  -2.28542 
 N                     1.03882  -1.3829    0.38586 
 N                     1.17615   0.06035  -1.86311 
 Ir                   -0.42927   0.09656  -0.25927 
 O                    -3.21098  -0.02473   0.99818 
 O                    -1.85438  -1.93135  -2.23784 
 O                    -2.02713   2.66244   0.36845 
 B                    -1.4325   -1.62654  -0.9572 
 B                    -1.83468  -0.04816   1.19257 
 B                    -1.23981   1.97558  -0.53902 
 O                    -1.03567   2.75053  -1.68147 
 O                    -1.53569  -0.23346   2.53855 
 C                    -2.74183   0.00427   3.2812 
 C                    -3.84084  -0.3576    2.24127 
 C                    -2.65179   3.74448  -0.33363 
 C                    -1.60498   4.05178  -1.44036 
 C                    -2.59533  -3.1633   -2.16834 
 C                    -1.98659  -3.83422  -0.90843 
 O                    -1.65728  -2.69474  -0.09822 
 C                    -4.15301  -1.84827   2.20295 
 H                    -3.23325  -2.43676   2.0835 
 H                    -4.68505  -2.18352   3.1037 
 H                    -4.79366  -2.04923   1.33299 
 C                    -5.12201   0.44149   2.37228 
 H                    -4.93446   1.51569   2.25939 
 H                    -5.82923   0.13728   1.58954 
 H                    -5.59836   0.26798   3.34834 
 C                    -2.73398  -0.85187   4.53101 
 H                    -1.92214  -0.52878   5.19516 
 H                    -3.68158  -0.75128   5.07994 
 H                    -2.57778  -1.91086   4.29606 
 C                    -2.73601   1.48129   3.6563 
 H                    -2.73265   2.11225   2.75682 
 H                    -3.59526   1.75028   4.28603 
 H                    -1.81638   1.6938    4.21647 
 C                    -4.05915  -2.78444  -1.98751 
 H                    -4.20275  -2.2182   -1.05679 
 H                    -4.36046  -2.13843  -2.82148 
 H                    -4.7155   -3.66518  -1.97827 
 C                    -2.40507  -3.93343  -3.45818 
 H                    -1.34425  -4.07655  -3.69177 
 H                    -2.88832  -4.91946  -3.39864 
 H                    -2.86168  -3.38253  -4.2902 
 C                    -2.92931  -4.73885  -0.1424 
 H                    -3.2617   -5.5784   -0.77003 
 H                    -2.41434  -5.15463   0.73371 
 H                    -3.81206  -4.19585   0.21376 
 C                    -0.67552  -4.5583   -1.19155 
 H                     0.01221  -3.91634  -1.75985 
 H                    -0.19491  -4.80124  -0.23445 
 H                    -0.82774  -5.49221  -1.74935 
 C                    -2.18417   4.58419  -2.73502 
 H                    -2.71609   5.5309   -2.56265 
 H                    -1.3775    4.77733  -3.45412 
 H                    -2.87912   3.87046  -3.19035 
 C                    -0.48529   4.9623   -0.95702 
 H                     0.3221    4.96197  -1.70131 
 H                    -0.83015   5.9969   -0.82726 
 H                    -0.06978   4.61103  -0.00299 
 C                    -2.91755   4.87568   0.63767 
 H                    -3.66457   4.55555   1.3764 
 H                    -2.01156   5.16462   1.18161 
 H                    -3.31439   5.75836   0.11586 
 C                    -3.96736   3.20889  -0.88528 
 H                    -4.56357   3.99413  -1.36956 
 H                    -3.79769   2.39719  -1.60545 
 H                    -4.54722   2.78952  -0.05341 
 H                    -1.67439   0.35264  -1.27048 
 C                     3.21379   0.92151   1.26842 
 O                     3.05104   0.14566   2.20584 
 C                     4.60854   1.17208   0.7085 
 H                     4.62404   0.90707  -0.36444 
 H                     4.84523   2.24869   0.74334 
 C                     0.80699   1.36515   1.10449 
 H                     0.84299   0.8019    2.04051 
 H                     0.36476   2.34469   1.33727 
 N                     2.17988   1.57107   0.65568 
 C                     2.37636   2.60397  -0.33607 
 H                     1.45578   2.69539  -0.92539 
 H                     2.58315   3.58529   0.12451 
 H                     3.19502   2.36922  -1.0275 
 C                     5.67425   0.38079   1.44426 
 H                     5.64582   0.63809   2.51353 
 H                     5.42349  -0.69118   1.4019 
 C                     7.06696   0.61621   0.88323 
 H                     7.08648   0.3549   -0.19049 
 H                     7.31013   1.69261   0.92869 
 C                     8.14572  -0.17218   1.61068 
 H                     8.12535   0.09177   2.68027 
 H                     7.90202  -1.24624   1.56403 
 C                     9.53416   0.06971   1.043 
 H                     10.30314  -0.50373   1.57551 
 H                     9.58194  -0.21408  -0.01797 
 H                     9.80667   1.13247   1.10823 
 H                     2.10785   1.32979  -4.83372 
 H                     1.71467  -3.52573   2.88123 
 

 GradGradGradGradGradGradGradGradGradGradGradGradGradGradGradGradGradGrad
 Berny optimization.
 Initialization pass.
 Trust Radius=3.00D-01 FncErr=1.00D-07 GrdErr=1.00D-07 EigMax=2.50D+02 EigMin=1.00D-04
 Number of steps in this run=      2 maximum allowed number of steps=      2.
 GradGradGradGradGradGradGradGradGradGradGradGradGradGradGradGradGradGrad

 Stoichiometry    C36H61B3IrN3O7
 Framework group  C1[X(C36H61B3IrN3O7)]
 Deg. of freedom   327
 Full point group                 C1      NOp   1
 Largest Abelian subgroup         C1      NOp   1
 Largest concise Abelian subgroup C1      NOp   1
                         Standard orientation:                         
 ---------------------------------------------------------------------
 Center     Atomic      Atomic             Coordinates (Angstroms)
 Number     Number       Type             X           Y           Z
 ---------------------------------------------------------------------
      1          6           0        2.151028   -1.536182   -0.367949
      2          6           0        0.906968   -2.080811    1.521811
      3          6           0        1.863868   -2.985022    1.950681
      4          6           0        3.009718   -3.157982    1.184971
      5          6           0        3.154478   -2.426012    0.018391
      6          6           0        2.226379   -0.744162   -1.608099
      7          6           0        1.147099    0.772629   -2.995049
      8          6           0        2.172379    0.733148   -3.927369
      9          6           0        3.275649   -0.074092   -3.664679
     10          6           0        3.303189   -0.821242   -2.498529
     11          1           0        0.003738   -1.880081    2.094831
     12          1           0        3.788588   -3.851612    1.495191
     13          1           0        4.049548   -2.543822   -0.586989
     14          1           0        0.272249    1.410369   -3.121239
     15          1           0        4.106369   -0.126192   -4.365869
     16          1           0        4.155708   -1.461222   -2.285419
     17          7           0        1.038819   -1.382901    0.385861
     18          7           0        1.176149    0.060349   -1.863109
     19         77           0       -0.429271    0.096559   -0.259269
     20          8           0       -3.210981   -0.024730    0.998181
     21          8           0       -1.854382   -1.931351   -2.237839
     22          8           0       -2.027130    2.662439    0.368451
     23          5           0       -1.432502   -1.626541   -0.957199
     24          5           0       -1.834681   -0.048161    1.192571
     25          5           0       -1.239811    1.975579   -0.539019
     26          8           0       -1.035670    2.750529   -1.681469
     27          8           0       -1.535691   -0.233461    2.538551
     28          6           0       -2.741831    0.004270    3.281201
     29          6           0       -3.840841   -0.357600    2.241271
     30          6           0       -2.651790    3.744480   -0.333629
     31          6           0       -1.604980    4.051779   -1.440359
     32          6           0       -2.595332   -3.163300   -2.168339
     33          6           0       -1.986592   -3.834221   -0.908429
     34          8           0       -1.657282   -2.694741   -0.098219
     35          6           0       -4.153012   -1.848270    2.202951
     36          1           0       -3.233252   -2.436760    2.083501
     37          1           0       -4.685052   -2.183520    3.103701
     38          1           0       -4.793662   -2.049230    1.332991
     39          6           0       -5.122011    0.441490    2.372281
     40          1           0       -4.934461    1.515690    2.259391
     41          1           0       -5.829231    0.137280    1.589541
     42          1           0       -5.598361    0.267980    3.348341
     43          6           0       -2.733981   -0.851870    4.531011
     44          1           0       -1.922141   -0.528781    5.195161
     45          1           0       -3.681581   -0.751280    5.079941
     46          1           0       -2.577782   -1.910860    4.296061
     47          6           0       -2.736011    1.481290    3.656301
     48          1           0       -2.732651    2.112250    2.756821
     49          1           0       -3.595261    1.750280    4.286031
     50          1           0       -1.816381    1.693799    4.216471
     51          6           0       -4.059152   -2.784440   -1.987509
     52          1           0       -4.202752   -2.218200   -1.056789
     53          1           0       -4.360462   -2.138430   -2.821479
     54          1           0       -4.715502   -3.665180   -1.978269
     55          6           0       -2.405072   -3.933430   -3.458179
     56          1           0       -1.344252   -4.076551   -3.691769
     57          1           0       -2.888322   -4.919460   -3.398639
     58          1           0       -2.861682   -3.382530   -4.290199
     59          6           0       -2.929312   -4.738850   -0.142399
     60          1           0       -3.261703   -5.578400   -0.770029
     61          1           0       -2.414342   -5.154630    0.733711
     62          1           0       -3.812062   -4.195850    0.213761
     63          6           0       -0.675522   -4.558301   -1.191549
     64          1           0        0.012208   -3.916341   -1.759849
     65          1           0       -0.194912   -4.801241   -0.234449
     66          1           0       -0.827743   -5.492211   -1.749349
     67          6           0       -2.184170    4.584189   -2.735019
     68          1           0       -2.716090    5.530900   -2.562649
     69          1           0       -1.377500    4.777329   -3.454119
     70          1           0       -2.879120    3.870460   -3.190349
     71          6           0       -0.485290    4.962299   -0.957019
     72          1           0        0.322100    4.961969   -1.701309
     73          1           0       -0.830150    5.996899   -0.827259
     74          1           0       -0.069780    4.611029   -0.002989
     75          6           0       -2.917550    4.875680    0.637671
     76          1           0       -3.664570    4.555550    1.376401
     77          1           0       -2.011560    5.164619    1.181611
     78          1           0       -3.314390    5.758360    0.115861
     79          6           0       -3.967360    3.208890   -0.885279
     80          1           0       -4.563570    3.994130   -1.369559
     81          1           0       -3.797690    2.397190   -1.605449
     82          1           0       -4.547220    2.789520   -0.053409
     83          1           0       -1.674391    0.352639   -1.270479
     84          6           0        3.213789    0.921508    1.268421
     85          8           0        3.051039    0.145658    2.205841
     86          6           0        4.608539    1.172078    0.708501
     87          1           0        4.624039    0.907068   -0.364439
     88          1           0        4.845229    2.248688    0.743341
     89          6           0        0.806989    1.365149    1.104491
     90          1           0        0.842989    0.801899    2.040511
     91          1           0        0.364759    2.344689    1.337271
     92          7           0        2.179879    1.571068    0.655681
     93          6           0        2.376360    2.603968   -0.336069
     94          1           0        1.455780    2.695389   -0.925389
     95          1           0        2.583150    3.585288    0.124511
     96          1           0        3.195019    2.369218   -1.027499
     97          6           0        5.674249    0.380787    1.444261
     98          1           0        5.645819    0.638087    2.513531
     99          1           0        5.423489   -0.691182    1.401901
    100          6           0        7.066959    0.616207    0.883231
    101          1           0        7.086479    0.354897   -0.190489
    102          1           0        7.310129    1.692607    0.928691
    103          6           0        8.145719   -0.172183    1.610681
    104          1           0        8.125349    0.091767    2.680271
    105          1           0        7.902019   -1.246243    1.564031
    106          6           0        9.534159    0.069706    1.043001
    107          1           0       10.303139   -0.503734    1.575511
    108          1           0        9.581939   -0.214084   -0.017969
    109          1           0        9.806669    1.132466    1.108231
    110          1           0        2.107849    1.329788   -4.833719
    111          1           0        1.714668   -3.525732    2.881231
 ---------------------------------------------------------------------
 Rotational constants (GHZ):           0.0734192           0.0477988           0.0418748
 General basis read from cards:  (5D, 7F)
 ======================================================================================================
                                       Pseudopotential Parameters
 ======================================================================================================
  Center     Atomic      Valence      Angular      Power
  Number     Number     Electrons     Momentum     of R      Exponent        Coefficient   SO-Coeffient
 ======================================================================================================
    1          6
                                   No pseudopotential on this center.
    2          6
                                   No pseudopotential on this center.
    3          6
                                   No pseudopotential on this center.
    4          6
                                   No pseudopotential on this center.
    5          6
                                   No pseudopotential on this center.
    6          6
                                   No pseudopotential on this center.
    7          6
                                   No pseudopotential on this center.
    8          6
                                   No pseudopotential on this center.
    9          6
                                   No pseudopotential on this center.
   10          6
                                   No pseudopotential on this center.
   11          1
                                   No pseudopotential on this center.
   12          1
                                   No pseudopotential on this center.
   13          1
                                   No pseudopotential on this center.
   14          1
                                   No pseudopotential on this center.
   15          1
                                   No pseudopotential on this center.
   16          1
                                   No pseudopotential on this center.
   17          7
                                   No pseudopotential on this center.
   18          7
                                   No pseudopotential on this center.
   19         77           17
                                      G and up 
                                                     1      823.5880147       -0.15780140    0.00000000
                                                     2      364.6613336    -1517.52704460    0.00000000
                                                     2       55.7082801     -316.53065290    0.00000000
                                                     2       12.0464544      -91.88809410    0.00000000
                                                     2        3.5120610       -9.22417730    0.00000000
                                      S - G
                                                     0      188.0490770        3.15780140    0.00000000
                                                     1      340.4194712       26.83225770    0.00000000
                                                     2      128.2373673      800.42500070    0.00000000
                                                     2       33.8644961      369.40506830    0.00000000
                                                     2        4.7560005      242.41718990    0.00000000
                                                     2        3.9649974     -118.21732820    0.00000000
                                      P - G
                                                     0      289.7291139        2.15780140    0.00000000
                                                     1       87.4633789       61.96786100    0.00000000
                                                     2       30.4363766      269.05819860    0.00000000
                                                     2        4.0553412      231.16547930    0.00000000
                                                     2        3.5525341     -133.69526670    0.00000000
                                      D - G
                                                     0      136.4017106        3.15780140    0.00000000
                                                     1       95.0776925       45.93498030    0.00000000
                                                     2       49.2258410      359.03446680    0.00000000
                                                     2       15.0874145      176.47401190    0.00000000
                                                     2        4.0405764       54.51552860    0.00000000
                                      F - G
                                                     0      127.3507908        3.95461970    0.00000000
                                                     1       66.2364374       52.97736550    0.00000000
                                                     2       34.4299229      274.86433830    0.00000000
                                                     2       10.1995721      137.20473380    0.00000000
                                                     2        2.5409702       14.86333050    0.00000000
   20          8
                                   No pseudopotential on this center.
   21          8
                                   No pseudopotential on this center.
   22          8
                                   No pseudopotential on this center.
   23          5
                                   No pseudopotential on this center.
   24          5
                                   No pseudopotential on this center.
   25          5
                                   No pseudopotential on this center.
   26          8
                                   No pseudopotential on this center.
   27          8
                                   No pseudopotential on this center.
   28          6
                                   No pseudopotential on this center.
   29          6
                                   No pseudopotential on this center.
   30          6
                                   No pseudopotential on this center.
   31          6
                                   No pseudopotential on this center.
   32          6
                                   No pseudopotential on this center.
   33          6
                                   No pseudopotential on this center.
   34          8
                                   No pseudopotential on this center.
   35          6
                                   No pseudopotential on this center.
   36          1
                                   No pseudopotential on this center.
   37          1
                                   No pseudopotential on this center.
   38          1
                                   No pseudopotential on this center.
   39          6
                                   No pseudopotential on this center.
   40          1
                                   No pseudopotential on this center.
   41          1
                                   No pseudopotential on this center.
   42          1
                                   No pseudopotential on this center.
   43          6
                                   No pseudopotential on this center.
   44          1
                                   No pseudopotential on this center.
   45          1
                                   No pseudopotential on this center.
   46          1
                                   No pseudopotential on this center.
   47          6
                                   No pseudopotential on this center.
   48          1
                                   No pseudopotential on this center.
   49          1
                                   No pseudopotential on this center.
   50          1
                                   No pseudopotential on this center.
   51          6
                                   No pseudopotential on this center.
   52          1
                                   No pseudopotential on this center.
   53          1
                                   No pseudopotential on this center.
   54          1
                                   No pseudopotential on this center.
   55          6
                                   No pseudopotential on this center.
   56          1
                                   No pseudopotential on this center.
   57          1
                                   No pseudopotential on this center.
   58          1
                                   No pseudopotential on this center.
   59          6
                                   No pseudopotential on this center.
   60          1
                                   No pseudopotential on this center.
   61          1
                                   No pseudopotential on this center.
   62          1
                                   No pseudopotential on this center.
   63          6
                                   No pseudopotential on this center.
   64          1
                                   No pseudopotential on this center.
   65          1
                                   No pseudopotential on this center.
   66          1
                                   No pseudopotential on this center.
   67          6
                                   No pseudopotential on this center.
   68          1
                                   No pseudopotential on this center.
   69          1
                                   No pseudopotential on this center.
   70          1
                                   No pseudopotential on this center.
   71          6
                                   No pseudopotential on this center.
   72          1
                                   No pseudopotential on this center.
   73          1
                                   No pseudopotential on this center.
   74          1
                                   No pseudopotential on this center.
   75          6
                                   No pseudopotential on this center.
   76          1
                                   No pseudopotential on this center.
   77          1
                                   No pseudopotential on this center.
   78          1
                                   No pseudopotential on this center.
   79          6
                                   No pseudopotential on this center.
   80          1
                                   No pseudopotential on this center.
   81          1
                                   No pseudopotential on this center.
   82          1
                                   No pseudopotential on this center.
   83          1
                                   No pseudopotential on this center.
   84          6
                                   No pseudopotential on this center.
   85          8
                                   No pseudopotential on this center.
   86          6
                                   No pseudopotential on this center.
   87          1
                                   No pseudopotential on this center.
   88          1
                                   No pseudopotential on this center.
   89          6
                                   No pseudopotential on this center.
   90          1
                                   No pseudopotential on this center.
   91          1
                                   No pseudopotential on this center.
   92          7
                                   No pseudopotential on this center.
   93          6
                                   No pseudopotential on this center.
   94          1
                                   No pseudopotential on this center.
   95          1
                                   No pseudopotential on this center.
   96          1
                                   No pseudopotential on this center.
   97          6
                                   No pseudopotential on this center.
   98          1
                                   No pseudopotential on this center.
   99          1
                                   No pseudopotential on this center.
  100          6
                                   No pseudopotential on this center.
  101          1
                                   No pseudopotential on this center.
  102          1
                                   No pseudopotential on this center.
  103          6
                                   No pseudopotential on this center.
  104          1
                                   No pseudopotential on this center.
  105          1
                                   No pseudopotential on this center.
  106          6
                                   No pseudopotential on this center.
  107          1
                                   No pseudopotential on this center.
  108          1
                                   No pseudopotential on this center.
  109          1
                                   No pseudopotential on this center.
  110          1
                                   No pseudopotential on this center.
  111          1
                                   No pseudopotential on this center.
 ======================================================================================================
 There are   881 symmetry adapted cartesian basis functions of A   symmetry.
 There are   830 symmetry adapted basis functions of A   symmetry.
   830 basis functions,  1659 primitive gaussians,   881 cartesian basis functions
   193 alpha electrons      193 beta electrons
       nuclear repulsion energy      8070.8448677377 Hartrees.
 NAtoms=  111 NActive=  111 NUniq=  111 SFac= 1.00D+00 NAtFMM=   60 NAOKFM=T Big=T
 Integral buffers will be    131072 words long.
 Raffenetti 2 integral format.
 Two-electron integral symmetry is turned on.
 One-electron integrals computed using PRISM.
   1 Symmetry operations used in ECPInt.
 ECPInt:  NShTT=   53301 NPrTT=  320676 LenC2=   39576 LenP2D=  121591.
 LDataN:  DoStor=T MaxTD1= 6 Len=  172
 NBasis=   830 RedAO= T EigKep=  5.09D-04  NBF=   830
 NBsUse=   830 1.00D-06 EigRej= -1.00D+00 NBFU=   830
 Defaulting to unpruned grid for atomic number  77.
 ExpMin= 2.90D-02 ExpMax= 5.48D+03 ExpMxC= 8.25D+02 IAcc=3 IRadAn=         5 AccDes= 0.00D+00
 Harris functional with IExCor= 1009 and IRadAn=       5 diagonalized for initial guess.
 HarFok:  IExCor= 1009 AccDes= 0.00D+00 IRadAn=         5 IDoV= 1 UseB2=F ITyADJ=14
 ICtDFT=  3500011 ScaDFX=  1.000000  1.000000  1.000000  1.000000
 Defaulting to unpruned grid for atomic number  77.
 FoFCou: FMM=F IPFlag=           0 FMFlag=      100000 FMFlg1=        2001
         NFxFlg=           0 DoJE=T BraDBF=F KetDBF=T FulRan=T
         wScrn=  0.000000 ICntrl=       500 IOpCl=  0 I1Cent=   200000004 NGrid=           0
         NMat0=    1 NMatS0=      1 NMatT0=    0 NMatD0=    1 NMtDS0=    0 NMtDT0=    0
 Petite list used in FoFCou.
 Requested convergence on RMS density matrix=1.00D-08 within 128 cycles.
 Requested convergence on MAX density matrix=1.00D-06.
 Requested convergence on             energy=1.00D-06.
 No special actions if energy rises.
 Defaulting to unpruned grid for atomic number  77.
 Defaulting to unpruned grid for atomic number  77.
 Defaulting to unpruned grid for atomic number  77.
 Defaulting to unpruned grid for atomic number  77.
 Defaulting to unpruned grid for atomic number  77.
 Defaulting to unpruned grid for atomic number  77.
 Defaulting to unpruned grid for atomic number  77.
 Defaulting to unpruned grid for atomic number  77.
 Defaulting to unpruned grid for atomic number  77.
 Defaulting to unpruned grid for atomic number  77.
 Defaulting to unpruned grid for atomic number  77.
 Defaulting to unpruned grid for atomic number  77.
 Defaulting to unpruned grid for atomic number  77.
 Defaulting to unpruned grid for atomic number  77.
 Defaulting to unpruned grid for atomic number  77.
 Defaulting to unpruned grid for atomic number  77.
 SCF Done:  E(RM06) =  -2277.51441426     A.U. after   15 cycles
            NFock= 15  Conv=0.76D-08     -V/T= 2.0391
 DoSCS=F DFT=T ScalE2(SS,OS)=  1.000000  1.000000
 Range of M.O.s used for correlation:     1   830
 NBasis=   830 NAE=   193 NBE=   193 NFC=     0 NFV=     0
 NROrb=    830 NOA=   193 NOB=   193 NVA=   637 NVB=   637

 **** Warning!!: The largest alpha MO coefficient is  0.14050566D+02

   1 Symmetry operations used in ECPInt.
 ECPInt:  NShTT=   53301 NPrTT=  320676 LenC2=   39576 LenP2D=  121591.
 LDataN:  DoStor=T MaxTD1= 7 Len=  274
 Number of processors reduced to   8 by ecpmxn.
 Symmetrizing basis deriv contribution to polar:
 IMax=3 JMax=2 DiffMx= 0.00D+00
 G2DrvN: will do   112 centers at a time, making    1 passes.
 Calling FoFCou, ICntrl=  3107 FMM=T I1Cent=   0 AccDes= 0.00D+00.
 Defaulting to unpruned grid for atomic number  77.
 Defaulting to unpruned grid for atomic number  77.
 Defaulting to unpruned grid for atomic number  77.
 Defaulting to unpruned grid for atomic number  77.
 Defaulting to unpruned grid for atomic number  77.
 Defaulting to unpruned grid for atomic number  77.
 Defaulting to unpruned grid for atomic number  77.
 Defaulting to unpruned grid for atomic number  77.
 Defaulting to unpruned grid for atomic number  77.
 Defaulting to unpruned grid for atomic number  77.
 Defaulting to unpruned grid for atomic number  77.
 Defaulting to unpruned grid for atomic number  77.
 Defaulting to unpruned grid for atomic number  77.
 Defaulting to unpruned grid for atomic number  77.
 Defaulting to unpruned grid for atomic number  77.
 Defaulting to unpruned grid for atomic number  77.
 End of G2Drv F.D. properties file   721 does not exist.
 End of G2Drv F.D. properties file   722 does not exist.
 End of G2Drv F.D. properties file   788 does not exist.
          IDoAtm=11111111111111111111111111111111111111111111111111
          IDoAtm=11111111111111111111111111111111111111111111111111
          IDoAtm=11111111111
          Differentiating once with respect to electric field.
                with respect to dipole field.
          Differentiating once with respect to nuclear coordinates.
 Defaulting to unpruned grid for atomic number  77.
 CalDSu exits because no D1Ps are significant.
 Defaulting to unpruned grid for atomic number  77.
 Defaulting to unpruned grid for atomic number  77.
 Defaulting to unpruned grid for atomic number  77.
 Defaulting to unpruned grid for atomic number  77.
 Defaulting to unpruned grid for atomic number  77.
 Defaulting to unpruned grid for atomic number  77.
 Defaulting to unpruned grid for atomic number  77.
 Defaulting to unpruned grid for atomic number  77.
 Defaulting to unpruned grid for atomic number  77.
 Defaulting to unpruned grid for atomic number  77.
 Defaulting to unpruned grid for atomic number  77.
 Defaulting to unpruned grid for atomic number  77.
 Defaulting to unpruned grid for atomic number  77.
 Defaulting to unpruned grid for atomic number  77.
 Defaulting to unpruned grid for atomic number  77.
 Defaulting to unpruned grid for atomic number  77.
          There are   336 degrees of freedom in the 1st order CPHF.  IDoFFX=6 NUNeed=     3.
    333 vectors produced by pass  0 Test12= 1.23D-13 1.00D-09 XBig12= 4.35D+02 8.03D+00.
 AX will form    72 AO Fock derivatives at one time.
    333 vectors produced by pass  1 Test12= 1.23D-13 1.00D-09 XBig12= 7.17D+01 1.32D+00.
    333 vectors produced by pass  2 Test12= 1.23D-13 1.00D-09 XBig12= 8.31D-01 7.56D-02.
    333 vectors produced by pass  3 Test12= 1.23D-13 1.00D-09 XBig12= 4.64D-03 4.72D-03.
    333 vectors produced by pass  4 Test12= 1.23D-13 1.00D-09 XBig12= 1.44D-05 3.22D-04.
    286 vectors produced by pass  5 Test12= 1.23D-13 1.00D-09 XBig12= 2.67D-08 9.68D-06.
     69 vectors produced by pass  6 Test12= 1.23D-13 1.00D-09 XBig12= 3.68D-11 3.42D-07.
      3 vectors produced by pass  7 Test12= 1.23D-13 1.00D-09 XBig12= 4.77D-14 1.26D-08.
 InvSVY:  IOpt=1 It=  1 EMax= 3.55D-14
 Solved reduced A of dimension  2023 with   336 vectors.
 Isotropic polarizability for W=    0.000000      495.11 Bohr**3.
 End of Minotr F.D. properties file   721 does not exist.
 End of Minotr F.D. properties file   722 does not exist.
 End of Minotr F.D. properties file   788 does not exist.
 Hyperfine terms turned off by default for NAtoms > 100.

 **********************************************************************

            Population analysis using the SCF Density.

 **********************************************************************

 Orbital symmetries:
       Occupied  (A) (A) (A) (A) (A) (A) (A) (A) (A) (A) (A) (A)
                 (A) (A) (A) (A) (A) (A) (A) (A) (A) (A) (A) (A)
                 (A) (A) (A) (A) (A) (A) (A) (A) (A) (A) (A) (A)
                 (A) (A) (A) (A) (A) (A) (A) (A) (A) (A) (A) (A)
                 (A) (A) (A) (A) (A) (A) (A) (A) (A) (A) (A) (A)
                 (A) (A) (A) (A) (A) (A) (A) (A) (A) (A) (A) (A)
                 (A) (A) (A) (A) (A) (A) (A) (A) (A) (A) (A) (A)
                 (A) (A) (A) (A) (A) (A) (A) (A) (A) (A) (A) (A)
                 (A) (A) (A) (A) (A) (A) (A) (A) (A) (A) (A) (A)
                 (A) (A) (A) (A) (A) (A) (A) (A) (A) (A) (A) (A)
                 (A) (A) (A) (A) (A) (A) (A) (A) (A) (A) (A) (A)
                 (A) (A) (A) (A) (A) (A) (A) (A) (A) (A) (A) (A)
                 (A) (A) (A) (A) (A) (A) (A) (A) (A) (A) (A) (A)
                 (A) (A) (A) (A) (A) (A) (A) (A) (A) (A) (A) (A)
                 (A) (A) (A) (A) (A) (A) (A) (A) (A) (A) (A) (A)
                 (A) (A) (A) (A) (A) (A) (A) (A) (A) (A) (A) (A)
                 (A)
       Virtual   (A) (A) (A) (A) (A) (A) (A) (A) (A) (A) (A) (A)
                 (A) (A) (A) (A) (A) (A) (A) (A) (A) (A) (A) (A)
                 (A) (A) (A) (A) (A) (A) (A) (A) (A) (A) (A) (A)
                 (A) (A) (A) (A) (A) (A) (A) (A) (A) (A) (A) (A)
                 (A) (A) (A) (A) (A) (A) (A) (A) (A) (A) (A) (A)
                 (A) (A) (A) (A) (A) (A) (A) (A) (A) (A) (A) (A)
                 (A) (A) (A) (A) (A) (A) (A) (A) (A) (A) (A) (A)
                 (A) (A) (A) (A) (A) (A) (A) (A) (A) (A) (A) (A)
                 (A) (A) (A) (A) (A) (A) (A) (A) (A) (A) (A) (A)
                 (A) (A) (A) (A) (A) (A) (A) (A) (A) (A) (A) (A)
                 (A) (A) (A) (A) (A) (A) (A) (A) (A) (A) (A) (A)
                 (A) (A) (A) (A) (A) (A) (A) (A) (A) (A) (A) (A)
                 (A) (A) (A) (A) (A) (A) (A) (A) (A) (A) (A) (A)
                 (A) (A) (A) (A) (A) (A) (A) (A) (A) (A) (A) (A)
                 (A) (A) (A) (A) (A) (A) (A) (A) (A) (A) (A) (A)
                 (A) (A) (A) (A) (A) (A) (A) (A) (A) (A) (A) (A)
                 (A) (A) (A) (A) (A) (A) (A) (A) (A) (A) (A) (A)
                 (A) (A) (A) (A) (A) (A) (A) (A) (A) (A) (A) (A)
                 (A) (A) (A) (A) (A) (A) (A) (A) (A) (A) (A) (A)
                 (A) (A) (A) (A) (A) (A) (A) (A) (A) (A) (A) (A)
                 (A) (A) (A) (A) (A) (A) (A) (A) (A) (A) (A) (A)
                 (A) (A) (A) (A) (A) (A) (A) (A) (A) (A) (A) (A)
                 (A) (A) (A) (A) (A) (A) (A) (A) (A) (A) (A) (A)
                 (A) (A) (A) (A) (A) (A) (A) (A) (A) (A) (A) (A)
                 (A) (A) (A) (A) (A) (A) (A) (A) (A) (A) (A) (A)
                 (A) (A) (A) (A) (A) (A) (A) (A) (A) (A) (A) (A)
                 (A) (A) (A) (A) (A) (A) (A) (A) (A) (A) (A) (A)
                 (A) (A) (A) (A) (A) (A) (A) (A) (A) (A) (A) (A)
                 (A) (A) (A) (A) (A) (A) (A) (A) (A) (A) (A) (A)
                 (A) (A) (A) (A) (A) (A) (A) (A) (A) (A) (A) (A)
                 (A) (A) (A) (A) (A) (A) (A) (A) (A) (A) (A) (A)
                 (A) (A) (A) (A) (A) (A) (A) (A) (A) (A) (A) (A)
                 (A) (A) (A) (A) (A) (A) (A) (A) (A) (A) (A) (A)
                 (A) (A) (A) (A) (A) (A) (A) (A) (A) (A) (A) (A)
                 (A) (A) (A) (A) (A) (A) (A) (A) (A) (A) (A) (A)
                 (A) (A) (A) (A) (A) (A) (A) (A) (A) (A) (A) (A)
                 (A) (A) (A) (A) (A) (A) (A) (A) (A) (A) (A) (A)
                 (A) (A) (A) (A) (A) (A) (A) (A) (A) (A) (A) (A)
                 (A) (A) (A) (A) (A) (A) (A) (A) (A) (A) (A) (A)
                 (A) (A) (A) (A) (A) (A) (A) (A) (A) (A) (A) (A)
                 (A) (A) (A) (A) (A) (A) (A) (A) (A) (A) (A) (A)
                 (A) (A) (A) (A) (A) (A) (A) (A) (A) (A) (A) (A)
                 (A) (A) (A) (A) (A) (A) (A) (A) (A) (A) (A) (A)
                 (A) (A) (A) (A) (A) (A) (A) (A) (A) (A) (A) (A)
                 (A) (A) (A) (A) (A) (A) (A) (A) (A) (A) (A) (A)
                 (A) (A) (A) (A) (A) (A) (A) (A) (A) (A) (A) (A)
                 (A) (A) (A) (A) (A) (A) (A) (A) (A) (A) (A) (A)
                 (A) (A) (A) (A) (A) (A) (A) (A) (A) (A) (A) (A)
                 (A) (A) (A) (A) (A) (A) (A) (A) (A) (A) (A) (A)
                 (A) (A) (A) (A) (A) (A) (A) (A) (A) (A) (A) (A)
                 (A) (A) (A) (A) (A) (A) (A) (A) (A) (A) (A) (A)
                 (A) (A) (A) (A) (A) (A) (A) (A) (A) (A) (A) (A)
                 (A) (A) (A) (A) (A) (A) (A) (A) (A) (A) (A) (A)
                 (A)
 The electronic state is 1-A.
 Alpha  occ. eigenvalues --  -19.21131 -19.20548 -19.20480 -19.20410 -19.19444
 Alpha  occ. eigenvalues --  -19.19040 -19.16059 -14.44632 -14.44013 -14.40152
 Alpha  occ. eigenvalues --  -10.31861 -10.31558 -10.31211 -10.29911 -10.29777
 Alpha  occ. eigenvalues --  -10.29605 -10.29557 -10.29384 -10.29111 -10.28527
 Alpha  occ. eigenvalues --  -10.28439 -10.28393 -10.27868 -10.27759 -10.27285
 Alpha  occ. eigenvalues --  -10.27249 -10.26415 -10.25839 -10.23780 -10.23515
 Alpha  occ. eigenvalues --  -10.23352 -10.23255 -10.23025 -10.22978 -10.22976
 Alpha  occ. eigenvalues --  -10.22924 -10.22922 -10.22856 -10.22754 -10.22289
 Alpha  occ. eigenvalues --  -10.22193 -10.22174 -10.22087 -10.22044 -10.21587
 Alpha  occ. eigenvalues --  -10.21038  -6.81383  -6.80528  -6.78628  -3.64246
 Alpha  occ. eigenvalues --   -2.07206  -2.05929  -2.05025  -1.06826  -1.06516
 Alpha  occ. eigenvalues --   -1.05214  -1.01948  -0.99828  -0.99530  -0.99295
 Alpha  occ. eigenvalues --   -0.98322  -0.96779  -0.91588  -0.83683  -0.82708
 Alpha  occ. eigenvalues --   -0.82100  -0.80976  -0.80850  -0.80595  -0.79498
 Alpha  occ. eigenvalues --   -0.76637  -0.76464  -0.75270  -0.75055  -0.73960
 Alpha  occ. eigenvalues --   -0.70750  -0.70568  -0.70088  -0.69544  -0.69526
 Alpha  occ. eigenvalues --   -0.68263  -0.67979  -0.67863  -0.67238  -0.66773
 Alpha  occ. eigenvalues --   -0.64909  -0.63803  -0.62867  -0.62077  -0.61761
 Alpha  occ. eigenvalues --   -0.60604  -0.59794  -0.57633  -0.57025  -0.55114
 Alpha  occ. eigenvalues --   -0.54800  -0.54267  -0.53675  -0.53528  -0.52672
 Alpha  occ. eigenvalues --   -0.52565  -0.52434  -0.51213  -0.50244  -0.48989
 Alpha  occ. eigenvalues --   -0.48758  -0.48381  -0.47995  -0.47436  -0.47037
 Alpha  occ. eigenvalues --   -0.46858  -0.46554  -0.46403  -0.46041  -0.45531
 Alpha  occ. eigenvalues --   -0.45313  -0.45276  -0.44890  -0.44740  -0.44617
 Alpha  occ. eigenvalues --   -0.44221  -0.44177  -0.43945  -0.43640  -0.43345
 Alpha  occ. eigenvalues --   -0.43068  -0.42632  -0.42567  -0.41977  -0.41595
 Alpha  occ. eigenvalues --   -0.40638  -0.40398  -0.40294  -0.40181  -0.40017
 Alpha  occ. eigenvalues --   -0.39951  -0.39740  -0.39579  -0.39371  -0.39305
 Alpha  occ. eigenvalues --   -0.39084  -0.38874  -0.38611  -0.38511  -0.38423
 Alpha  occ. eigenvalues --   -0.38347  -0.38213  -0.37836  -0.37652  -0.37285
 Alpha  occ. eigenvalues --   -0.36941  -0.36790  -0.36685  -0.36392  -0.36165
 Alpha  occ. eigenvalues --   -0.35913  -0.35607  -0.35581  -0.35305  -0.35212
 Alpha  occ. eigenvalues --   -0.35132  -0.35071  -0.34841  -0.34305  -0.34117
 Alpha  occ. eigenvalues --   -0.33643  -0.33060  -0.32933  -0.32752  -0.32457
 Alpha  occ. eigenvalues --   -0.32401  -0.32232  -0.32133  -0.32051  -0.31270
 Alpha  occ. eigenvalues --   -0.31157  -0.30965  -0.30749  -0.30505  -0.30269
 Alpha  occ. eigenvalues --   -0.29563  -0.29156  -0.27726  -0.26675  -0.26350
 Alpha  occ. eigenvalues --   -0.26115  -0.25802  -0.25191  -0.24662  -0.23477
 Alpha  occ. eigenvalues --   -0.23229  -0.21992  -0.17902
 Alpha virt. eigenvalues --   -0.06203  -0.03166  -0.02154   0.02466   0.02961
 Alpha virt. eigenvalues --    0.04553   0.05633   0.05952   0.06542   0.07562
 Alpha virt. eigenvalues --    0.08062   0.08196   0.09377   0.10225   0.10411
 Alpha virt. eigenvalues --    0.10597   0.10882   0.11110   0.11870   0.12258
 Alpha virt. eigenvalues --    0.12354   0.12584   0.12851   0.13003   0.13075
 Alpha virt. eigenvalues --    0.13349   0.13670   0.14053   0.14364   0.14752
 Alpha virt. eigenvalues --    0.14860   0.15101   0.15359   0.15446   0.15688
 Alpha virt. eigenvalues --    0.15769   0.15949   0.16100   0.16202   0.16319
 Alpha virt. eigenvalues --    0.16559   0.16851   0.17114   0.17204   0.17279
 Alpha virt. eigenvalues --    0.17517   0.17746   0.17829   0.18139   0.18221
 Alpha virt. eigenvalues --    0.18589   0.18619   0.18737   0.19000   0.19049
 Alpha virt. eigenvalues --    0.19314   0.19570   0.19694   0.19988   0.20100
 Alpha virt. eigenvalues --    0.20237   0.20337   0.20434   0.20490   0.20901
 Alpha virt. eigenvalues --    0.21223   0.21522   0.21619   0.21710   0.21887
 Alpha virt. eigenvalues --    0.22167   0.22286   0.22412   0.22585   0.22805
 Alpha virt. eigenvalues --    0.23476   0.23890   0.23973   0.24144   0.24281
 Alpha virt. eigenvalues --    0.24309   0.24713   0.24755   0.24983   0.25175
 Alpha virt. eigenvalues --    0.25605   0.25930   0.26191   0.26333   0.26555
 Alpha virt. eigenvalues --    0.26905   0.27080   0.27519   0.28054   0.28237
 Alpha virt. eigenvalues --    0.28373   0.28461   0.28526   0.29019   0.29564
 Alpha virt. eigenvalues --    0.29692   0.30183   0.30332   0.30687   0.30784
 Alpha virt. eigenvalues --    0.31178   0.32332   0.32895   0.33430   0.34383
 Alpha virt. eigenvalues --    0.34817   0.35261   0.36173   0.36214   0.37347
 Alpha virt. eigenvalues --    0.37707   0.38164   0.39162   0.39624   0.40345
 Alpha virt. eigenvalues --    0.41861   0.42472   0.42917   0.44467   0.46638
 Alpha virt. eigenvalues --    0.47438   0.47717   0.48689   0.49176   0.49548
 Alpha virt. eigenvalues --    0.50222   0.50647   0.50762   0.51026   0.51377
 Alpha virt. eigenvalues --    0.51902   0.52213   0.52259   0.52490   0.52948
 Alpha virt. eigenvalues --    0.53777   0.53923   0.54119   0.54777   0.55830
 Alpha virt. eigenvalues --    0.56044   0.56081   0.56191   0.56503   0.56589
 Alpha virt. eigenvalues --    0.57022   0.57206   0.57370   0.57601   0.57692
 Alpha virt. eigenvalues --    0.58140   0.58381   0.58739   0.58966   0.59083
 Alpha virt. eigenvalues --    0.59318   0.59556   0.59878   0.59971   0.60160
 Alpha virt. eigenvalues --    0.60462   0.60609   0.60865   0.61098   0.61647
 Alpha virt. eigenvalues --    0.62023   0.62237   0.62348   0.62592   0.63271
 Alpha virt. eigenvalues --    0.63580   0.64230   0.64591   0.64718   0.64938
 Alpha virt. eigenvalues --    0.65397   0.65760   0.65952   0.66362   0.67188
 Alpha virt. eigenvalues --    0.67273   0.67687   0.68141   0.68529   0.68685
 Alpha virt. eigenvalues --    0.68974   0.69406   0.69560   0.70184   0.70433
 Alpha virt. eigenvalues --    0.71022   0.71257   0.71450   0.71697   0.71973
 Alpha virt. eigenvalues --    0.72255   0.72505   0.72778   0.73169   0.73486
 Alpha virt. eigenvalues --    0.73709   0.73978   0.74274   0.74496   0.74695
 Alpha virt. eigenvalues --    0.75667   0.76186   0.76623   0.76900   0.77412
 Alpha virt. eigenvalues --    0.77638   0.78627   0.78824   0.78953   0.79049
 Alpha virt. eigenvalues --    0.79244   0.80051   0.80152   0.80666   0.80997
 Alpha virt. eigenvalues --    0.81292   0.81470   0.82117   0.82316   0.82844
 Alpha virt. eigenvalues --    0.83223   0.83291   0.83622   0.83732   0.83934
 Alpha virt. eigenvalues --    0.84007   0.84160   0.84468   0.84581   0.85193
 Alpha virt. eigenvalues --    0.85437   0.85528   0.85947   0.86115   0.86381
 Alpha virt. eigenvalues --    0.86748   0.86889   0.87361   0.87440   0.87535
 Alpha virt. eigenvalues --    0.87599   0.87951   0.88045   0.88380   0.88677
 Alpha virt. eigenvalues --    0.89057   0.89073   0.89490   0.89656   0.89813
 Alpha virt. eigenvalues --    0.89890   0.90413   0.90593   0.90788   0.90987
 Alpha virt. eigenvalues --    0.91075   0.91480   0.91546   0.91838   0.91880
 Alpha virt. eigenvalues --    0.92286   0.92542   0.92960   0.93206   0.93421
 Alpha virt. eigenvalues --    0.93766   0.94137   0.94437   0.94576   0.94976
 Alpha virt. eigenvalues --    0.95063   0.95284   0.95847   0.96050   0.96370
 Alpha virt. eigenvalues --    0.96733   0.96809   0.97021   0.97379   0.97511
 Alpha virt. eigenvalues --    0.97951   0.98250   0.98719   0.99400   0.99776
 Alpha virt. eigenvalues --    1.00264   1.00515   1.00892   1.01396   1.01633
 Alpha virt. eigenvalues --    1.02167   1.02705   1.03338   1.03754   1.04085
 Alpha virt. eigenvalues --    1.04667   1.05384   1.05588   1.06319   1.06703
 Alpha virt. eigenvalues --    1.07426   1.08501   1.08800   1.09334   1.09956
 Alpha virt. eigenvalues --    1.10420   1.10713   1.12377   1.12690   1.13532
 Alpha virt. eigenvalues --    1.14362   1.15033   1.15347   1.15909   1.16311
 Alpha virt. eigenvalues --    1.16958   1.17212   1.18328   1.18799   1.19048
 Alpha virt. eigenvalues --    1.19959   1.20520   1.21076   1.21905   1.22210
 Alpha virt. eigenvalues --    1.22860   1.23011   1.24021   1.24333   1.24508
 Alpha virt. eigenvalues --    1.25007   1.25195   1.26213   1.26960   1.28064
 Alpha virt. eigenvalues --    1.29500   1.29878   1.30270   1.31115   1.31372
 Alpha virt. eigenvalues --    1.31991   1.32625   1.33331   1.33388   1.34964
 Alpha virt. eigenvalues --    1.35672   1.36106   1.36950   1.37214   1.38230
 Alpha virt. eigenvalues --    1.38918   1.40227   1.40801   1.41221   1.41677
 Alpha virt. eigenvalues --    1.42785   1.42853   1.43329   1.43696   1.44614
 Alpha virt. eigenvalues --    1.45265   1.45430   1.46111   1.46153   1.46486
 Alpha virt. eigenvalues --    1.46785   1.47180   1.47445   1.47866   1.48101
 Alpha virt. eigenvalues --    1.48592   1.48811   1.49554   1.50228   1.50512
 Alpha virt. eigenvalues --    1.51206   1.52302   1.52663   1.54554   1.55282
 Alpha virt. eigenvalues --    1.56484   1.57274   1.57401   1.57865   1.59530
 Alpha virt. eigenvalues --    1.59901   1.61598   1.62616   1.63335   1.63732
 Alpha virt. eigenvalues --    1.64558   1.65373   1.66065   1.66406   1.66944
 Alpha virt. eigenvalues --    1.67694   1.67878   1.68829   1.70118   1.70197
 Alpha virt. eigenvalues --    1.70648   1.71207   1.72084   1.72751   1.73366
 Alpha virt. eigenvalues --    1.74285   1.75453   1.76243   1.76391   1.77182
 Alpha virt. eigenvalues --    1.77462   1.78120   1.78814   1.79223   1.79990
 Alpha virt. eigenvalues --    1.80585   1.80754   1.81127   1.81982   1.82149
 Alpha virt. eigenvalues --    1.82631   1.83189   1.83895   1.84217   1.84984
 Alpha virt. eigenvalues --    1.85369   1.85535   1.86065   1.86462   1.86921
 Alpha virt. eigenvalues --    1.87677   1.88081   1.88655   1.89129   1.89477
 Alpha virt. eigenvalues --    1.89966   1.90247   1.90868   1.91144   1.91356
 Alpha virt. eigenvalues --    1.91593   1.91779   1.92030   1.92107   1.92322
 Alpha virt. eigenvalues --    1.92520   1.92914   1.93115   1.93305   1.93817
 Alpha virt. eigenvalues --    1.94130   1.94278   1.94481   1.95199   1.95564
 Alpha virt. eigenvalues --    1.96108   1.97520   1.97852   1.98173   1.98745
 Alpha virt. eigenvalues --    1.99163   1.99713   2.00356   2.00641   2.00934
 Alpha virt. eigenvalues --    2.01743   2.01875   2.02256   2.03013   2.03166
 Alpha virt. eigenvalues --    2.04003   2.04390   2.04830   2.05695   2.06113
 Alpha virt. eigenvalues --    2.06316   2.06474   2.07367   2.07496   2.08073
 Alpha virt. eigenvalues --    2.08475   2.08643   2.09778   2.09873   2.10311
 Alpha virt. eigenvalues --    2.10721   2.11271   2.11598   2.12428   2.13225
 Alpha virt. eigenvalues --    2.13340   2.13505   2.14086   2.14332   2.14757
 Alpha virt. eigenvalues --    2.15180   2.15450   2.16290   2.16667   2.16883
 Alpha virt. eigenvalues --    2.17193   2.17554   2.18143   2.18488   2.18856
 Alpha virt. eigenvalues --    2.18971   2.19570   2.19844   2.20189   2.20387
 Alpha virt. eigenvalues --    2.20592   2.21133   2.21604   2.21933   2.22205
 Alpha virt. eigenvalues --    2.22652   2.22851   2.23436   2.23856   2.24098
 Alpha virt. eigenvalues --    2.24664   2.25151   2.25543   2.26131   2.26257
 Alpha virt. eigenvalues --    2.26708   2.26967   2.27683   2.28097   2.28308
 Alpha virt. eigenvalues --    2.29181   2.30005   2.31302   2.31882   2.32109
 Alpha virt. eigenvalues --    2.32515   2.32940   2.33343   2.33542   2.34327
 Alpha virt. eigenvalues --    2.35018   2.36105   2.36404   2.36598   2.37386
 Alpha virt. eigenvalues --    2.38080   2.38761   2.39601   2.39787   2.40207
 Alpha virt. eigenvalues --    2.40720   2.41792   2.43950   2.44504   2.44929
 Alpha virt. eigenvalues --    2.47049   2.47840   2.48286   2.48634   2.48960
 Alpha virt. eigenvalues --    2.49252   2.49422   2.50166   2.51978   2.52366
 Alpha virt. eigenvalues --    2.53609   2.55196   2.56727   2.57644   2.58653
 Alpha virt. eigenvalues --    2.59341   2.59849   2.61172   2.61662   2.62419
 Alpha virt. eigenvalues --    2.63152   2.63306   2.64242   2.64526   2.65050
 Alpha virt. eigenvalues --    2.65806   2.68349   2.69077   2.69449   2.70244
 Alpha virt. eigenvalues --    2.70967   2.73188   2.77287   2.77936   2.78129
 Alpha virt. eigenvalues --    2.78288   2.78941   2.79323   2.80051   2.80527
 Alpha virt. eigenvalues --    2.80653   2.80877   2.81401   2.81915   2.84047
 Alpha virt. eigenvalues --    2.84242   2.84666   2.85203   2.85902   2.87016
 Alpha virt. eigenvalues --    2.88135   2.90125   2.91654   2.95102   2.95324
 Alpha virt. eigenvalues --    2.96733   2.97320   2.97907   2.99548   3.03274
 Alpha virt. eigenvalues --    3.04115   3.04808   3.06707   3.10101   3.11319
 Alpha virt. eigenvalues --    3.12397   3.14566   3.22802   3.25755   3.31241
 Alpha virt. eigenvalues --    3.45199  14.67343
          Condensed to atoms (all electrons):
 Mulliken charges:
               1
     1  C    0.314957
     2  C    0.091236
     3  C   -0.154512
     4  C   -0.128394
     5  C   -0.177528
     6  C    0.287660
     7  C    0.035963
     8  C   -0.173634
     9  C   -0.146333
    10  C   -0.186170
    11  H    0.222826
    12  H    0.178016
    13  H    0.162518
    14  H    0.224095
    15  H    0.179045
    16  H    0.168951
    17  N   -0.526645
    18  N   -0.469428
    19  Ir  -0.203585
    20  O   -0.523594
    21  O   -0.500472
    22  O   -0.502715
    23  B    0.506845
    24  B    0.502297
    25  B    0.463494
    26  O   -0.532552
    27  O   -0.526388
    28  C    0.298138
    29  C    0.295010
    30  C    0.287292
    31  C    0.300822
    32  C    0.294306
    33  C    0.298834
    34  O   -0.513273
    35  C   -0.500938
    36  H    0.177209
    37  H    0.145441
    38  H    0.154468
    39  C   -0.504539
    40  H    0.164246
    41  H    0.166281
    42  H    0.146779
    43  C   -0.514990
    44  H    0.172053
    45  H    0.148412
    46  H    0.165727
    47  C   -0.515350
    48  H    0.186216
    49  H    0.141681
    50  H    0.172015
    51  C   -0.513465
    52  H    0.186925
    53  H    0.174937
    54  H    0.147238
    55  C   -0.514645
    56  H    0.170299
    57  H    0.150061
    58  H    0.172635
    59  C   -0.511200
    60  H    0.151368
    61  H    0.167453
    62  H    0.172370
    63  C   -0.510834
    64  H    0.173020
    65  H    0.167735
    66  H    0.152583
    67  C   -0.514388
    68  H    0.153137
    69  H    0.165997
    70  H    0.177068
    71  C   -0.508980
    72  H    0.163824
    73  H    0.156402
    74  H    0.172670
    75  C   -0.513008
    76  H    0.168733
    77  H    0.174002
    78  H    0.151257
    79  C   -0.505593
    80  H    0.147837
    81  H    0.183221
    82  H    0.175730
    83  H    0.198022
    84  C    0.580896
    85  O   -0.530037
    86  C   -0.406817
    87  H    0.142994
    88  H    0.165078
    89  C   -0.335751
    90  H    0.215005
    91  H    0.158725
    92  N   -0.364991
    93  C   -0.368439
    94  H    0.196694
    95  H    0.165744
    96  H    0.158499
    97  C   -0.261142
    98  H    0.165730
    99  H    0.140035
   100  C   -0.275632
   101  H    0.126496
   102  H    0.137847
   103  C   -0.281630
   104  H    0.152202
   105  H    0.143158
   106  C   -0.497376
   107  H    0.163895
   108  H    0.154742
   109  H    0.159526
   110  H    0.179261
   111  H    0.181083
 Sum of Mulliken charges =  -0.00000
 Mulliken charges with hydrogens summed into heavy atoms:
               1
     1  C    0.314957
     2  C    0.314061
     3  C    0.026571
     4  C    0.049622
     5  C   -0.015010
     6  C    0.287660
     7  C    0.260059
     8  C    0.005628
     9  C    0.032712
    10  C   -0.017219
    17  N   -0.526645
    18  N   -0.469428
    19  Ir  -0.005563
    20  O   -0.523594
    21  O   -0.500472
    22  O   -0.502715
    23  B    0.506845
    24  B    0.502297
    25  B    0.463494
    26  O   -0.532552
    27  O   -0.526388
    28  C    0.298138
    29  C    0.295010
    30  C    0.287292
    31  C    0.300822
    32  C    0.294306
    33  C    0.298834
    34  O   -0.513273
    35  C   -0.023819
    39  C   -0.027232
    43  C   -0.028799
    47  C   -0.015438
    51  C   -0.004365
    55  C   -0.021650
    59  C   -0.020009
    63  C   -0.017496
    67  C   -0.018187
    71  C   -0.016083
    75  C   -0.019016
    79  C    0.001195
    84  C    0.580896
    85  O   -0.530037
    86  C   -0.098745
    89  C    0.037980
    92  N   -0.364991
    93  C    0.152497
    97  C    0.044623
   100  C   -0.011289
   103  C    0.013730
   106  C   -0.019213
 APT charges:
               1
     1  C    0.143682
     2  C    0.063650
     3  C   -0.027189
     4  C    0.099756
     5  C   -0.165727
     6  C    0.216773
     7  C    0.060400
     8  C   -0.046364
     9  C    0.100567
    10  C   -0.198432
    11  H    0.113637
    12  H    0.030433
    13  H    0.037785
    14  H    0.096481
    15  H    0.028600
    16  H    0.040995
    17  N   -0.104560
    18  N   -0.169551
    19  Ir  -1.011814
    20  O   -0.984253
    21  O   -0.943034
    22  O   -1.005303
    23  B    1.287364
    24  B    1.309356
    25  B    1.418013
    26  O   -1.042603
    27  O   -0.984615
    28  C    0.515464
    29  C    0.484130
    30  C    0.503068
    31  C    0.521882
    32  C    0.468137
    33  C    0.459709
    34  O   -0.951609
    35  C   -0.035203
    36  H    0.022361
    37  H   -0.030076
    38  H   -0.004397
    39  C   -0.002232
    40  H    0.001496
    41  H   -0.002949
    42  H   -0.022601
    43  C   -0.010752
    44  H   -0.000067
    45  H   -0.018549
    46  H   -0.001427
    47  C   -0.041787
    48  H    0.029228
    49  H   -0.029381
    50  H    0.001791
    51  C   -0.026717
    52  H    0.003373
    53  H    0.001361
    54  H   -0.024023
    55  C   -0.004394
    56  H   -0.001153
    57  H   -0.016134
    58  H   -0.000653
    59  C   -0.005462
    60  H   -0.019653
    61  H    0.002718
    62  H    0.007818
    63  C   -0.023962
    64  H   -0.008044
    65  H    0.004661
    66  H   -0.021489
    67  C   -0.015552
    68  H   -0.015968
    69  H   -0.002366
    70  H    0.007272
    71  C   -0.045302
    72  H    0.002387
    73  H   -0.019512
    74  H    0.013017
    75  C   -0.011073
    76  H    0.001563
    77  H    0.007964
    78  H   -0.016606
    79  C   -0.033809
    80  H   -0.025499
    81  H    0.010506
    82  H    0.006732
    83  H    0.085335
    84  C    0.867963
    85  O   -0.697194
    86  C    0.003698
    87  H   -0.027341
    88  H   -0.030590
    89  C    0.295555
    90  H    0.016102
    91  H   -0.053466
    92  N   -0.754224
    93  C    0.250940
    94  H    0.030913
    95  H   -0.053275
    96  H   -0.018414
    97  C    0.099586
    98  H   -0.018234
    99  H   -0.023838
   100  C    0.104651
   101  H   -0.052595
   102  H   -0.052534
   103  C    0.118771
   104  H   -0.045869
   105  H   -0.050585
   106  C    0.061246
   107  H   -0.040532
   108  H   -0.021578
   109  H   -0.020685
   110  H    0.033851
   111  H    0.040059
 Sum of APT charges =  -0.00000
 APT charges with hydrogens summed into heavy atoms:
               1
     1  C    0.143682
     2  C    0.177287
     3  C    0.012871
     4  C    0.130189
     5  C   -0.127942
     6  C    0.216773
     7  C    0.156880
     8  C   -0.012513
     9  C    0.129167
    10  C   -0.157437
    17  N   -0.104560
    18  N   -0.169551
    19  Ir  -0.926479
    20  O   -0.984253
    21  O   -0.943034
    22  O   -1.005303
    23  B    1.287364
    24  B    1.309356
    25  B    1.418013
    26  O   -1.042603
    27  O   -0.984615
    28  C    0.515464
    29  C    0.484130
    30  C    0.503068
    31  C    0.521882
    32  C    0.468137
    33  C    0.459709
    34  O   -0.951609
    35  C   -0.047315
    39  C   -0.026286
    43  C   -0.030794
    47  C   -0.040150
    51  C   -0.046006
    55  C   -0.022335
    59  C   -0.014578
    63  C   -0.048835
    67  C   -0.026613
    71  C   -0.049410
    75  C   -0.018152
    79  C   -0.042069
    84  C    0.867963
    85  O   -0.697194
    86  C   -0.054233
    89  C    0.258190
    92  N   -0.754224
    93  C    0.210165
    97  C    0.057514
   100  C   -0.000478
   103  C    0.022317
   106  C   -0.021549
 Electronic spatial extent (au):  <R**2>=          30630.6981
 Charge=             -0.0000 electrons
 Dipole moment (field-independent basis, Debye):
    X=              2.3612    Y=             -1.2749    Z=             -3.9197  Tot=              4.7502
 Quadrupole moment (field-independent basis, Debye-Ang):
   XX=           -300.4857   YY=           -289.3850   ZZ=           -309.7991
   XY=             -6.9614   XZ=            -16.3615   YZ=             -7.1955
 Traceless Quadrupole moment (field-independent basis, Debye-Ang):
   XX=             -0.5957   YY=             10.5050   ZZ=             -9.9092
   XY=             -6.9614   XZ=            -16.3615   YZ=             -7.1955
 Octapole moment (field-independent basis, Debye-Ang**2):
  XXX=            -69.3997  YYY=             16.0454  ZZZ=            -66.6011  XYY=            -31.8069
  XXY=            -20.8527  XXZ=            -45.4490  XZZ=            -18.6986  YZZ=              2.5774
  YYZ=            -13.5229  XYZ=             -8.3954
 Hexadecapole moment (field-independent basis, Debye-Ang**3):
 XXXX=         -22171.8741 YYYY=         -11325.2670 ZZZZ=          -7347.9649 XXXY=           -123.4984
 XXXZ=           -115.8109 YYYX=           -118.9479 YYYZ=            -79.5494 ZZZX=           -242.1853
 ZZZY=           -125.0977 XXYY=          -5388.2700 XXZZ=          -4760.2113 YYZZ=          -3156.3539
 XXYZ=             26.0208 YYXZ=            156.5889 ZZXY=             10.8408
 N-N= 8.070844867738D+03 E-N=-2.141935005651D+04  KE= 2.191835832525D+03
  Exact polarizability:     545.703     -29.556     474.792     -26.127     -33.713     464.835
 Approx polarizability:     723.163     -60.635     682.681     -37.344     -78.497     738.957
   1 Symmetry operations used in ECPInt.
 ECPInt:  NShTT=   53301 NPrTT=  320676 LenC2=   39576 LenP2D=  121591.
 LDataN:  DoStor=T MaxTD1= 8 Len=  415
 Calling FoFJK, ICntrl=    100127 FMM=F ISym2X=0 I1Cent= 0 IOpClX= 0 NMat=1 NMatS=1 NMatT=0.
 Defaulting to unpruned grid for atomic number  77.
 Defaulting to unpruned grid for atomic number  77.
 Defaulting to unpruned grid for atomic number  77.
 Defaulting to unpruned grid for atomic number  77.
 Defaulting to unpruned grid for atomic number  77.
 Defaulting to unpruned grid for atomic number  77.
 Defaulting to unpruned grid for atomic number  77.
 Defaulting to unpruned grid for atomic number  77.
 Defaulting to unpruned grid for atomic number  77.
 Defaulting to unpruned grid for atomic number  77.
 Defaulting to unpruned grid for atomic number  77.
 Defaulting to unpruned grid for atomic number  77.
 Defaulting to unpruned grid for atomic number  77.
 Defaulting to unpruned grid for atomic number  77.
 Defaulting to unpruned grid for atomic number  77.
 Defaulting to unpruned grid for atomic number  77.
 Full mass-weighted force constant matrix:
 Low frequencies ---  -11.0058   -4.9733   -2.6959   -0.0009   -0.0004    0.0008
 Low frequencies ---   14.4208   18.2293   21.4482
 Diagonal vibrational polarizability:
       91.9568128     164.6834585     102.3900140
 Harmonic frequencies (cm**-1), IR intensities (KM/Mole), Raman scattering
 activities (A**4/AMU), depolarization ratios for plane and unpolarized
 incident light, reduced masses (AMU), force constants (mDyne/A),
 and normal coordinates:
                      1                      2                      3
                      A                      A                      A
 Frequencies --     13.6376                18.1336                21.3072
 Red. masses --      4.3074                 3.9636                 4.0217
 Frc consts  --      0.0005                 0.0008                 0.0011
 IR Inten    --      0.2864                 0.0966                 0.8072
  Atom AN      X      Y      Z        X      Y      Z        X      Y      Z
     1   6     0.00   0.02  -0.06    -0.01  -0.04   0.00    -0.02  -0.01  -0.03
     2   6     0.04   0.01  -0.03    -0.03  -0.05  -0.01     0.02   0.03   0.00
     3   6     0.05   0.02  -0.05    -0.04  -0.05  -0.01     0.02   0.03  -0.00
     4   6     0.04   0.02  -0.07    -0.02  -0.04   0.01     0.01   0.02  -0.02
     5   6     0.02   0.03  -0.08    -0.01  -0.03   0.01    -0.01   0.00  -0.03
     6   6    -0.02   0.02  -0.06    -0.00  -0.04   0.01    -0.04  -0.03  -0.05
     7   6    -0.05   0.01  -0.04     0.01  -0.03   0.00    -0.05  -0.02  -0.03
     8   6    -0.07   0.02  -0.06     0.01  -0.04   0.01    -0.08  -0.06  -0.07
     9   6    -0.06   0.02  -0.08     0.00  -0.05   0.01    -0.10  -0.09  -0.09
    10   6    -0.03   0.03  -0.08    -0.00  -0.05   0.01    -0.08  -0.07  -0.08
    11   1     0.05   0.01  -0.01    -0.04  -0.06  -0.02     0.03   0.04   0.01
    12   1     0.05   0.03  -0.09    -0.02  -0.04   0.02     0.02   0.03  -0.02
    13   1     0.00   0.03  -0.09    -0.00  -0.03   0.03    -0.02  -0.01  -0.04
    14   1    -0.06   0.00  -0.03     0.02  -0.02   0.00    -0.04  -0.01  -0.01
    15   1    -0.07   0.03  -0.09     0.00  -0.05   0.01    -0.12  -0.12  -0.12
    16   1    -0.02   0.03  -0.09    -0.01  -0.06   0.00    -0.09  -0.10  -0.11
    17   7     0.02   0.02  -0.04    -0.02  -0.04  -0.01    -0.00   0.01  -0.01
    18   7    -0.03   0.01  -0.04     0.00  -0.03   0.00    -0.03  -0.01  -0.02
    19  77    -0.00  -0.01  -0.02     0.00  -0.01   0.00    -0.01   0.02   0.00
    20   8     0.01   0.02   0.02    -0.00   0.01   0.00     0.00  -0.02   0.01
    21   8    -0.05  -0.02   0.02    -0.02   0.01  -0.02     0.03   0.01  -0.01
    22   8    -0.01  -0.01  -0.02     0.04   0.00   0.02     0.03   0.03   0.03
    23   5    -0.01  -0.02   0.01    -0.03   0.01  -0.01     0.00   0.02  -0.01
    24   5     0.02  -0.03  -0.00    -0.00   0.01   0.00     0.00   0.03   0.01
    25   5     0.00  -0.00  -0.01     0.01  -0.01   0.01    -0.01   0.02   0.00
    26   8     0.03   0.01   0.00    -0.01  -0.02  -0.00    -0.05  -0.00  -0.01
    27   8     0.04  -0.08  -0.01    -0.00   0.02   0.00     0.01   0.09   0.02
    28   6     0.06  -0.04   0.02    -0.00   0.02   0.00    -0.00   0.04   0.01
    29   6     0.02   0.03   0.03    -0.00   0.01   0.00     0.02  -0.05   0.02
    30   6     0.01  -0.00  -0.02     0.03   0.01   0.03     0.01   0.03   0.04
    31   6     0.03   0.01   0.00     0.01  -0.01   0.00    -0.03   0.01  -0.01
    32   6    -0.05  -0.02   0.04    -0.04   0.03  -0.02     0.04   0.00  -0.02
    33   6    -0.01  -0.02   0.02    -0.07   0.02  -0.02     0.04   0.01  -0.02
    34   8     0.01  -0.02   0.01    -0.05   0.01  -0.02     0.01   0.02  -0.01
    35   6    -0.05   0.05   0.02     0.01   0.01   0.01     0.12  -0.07   0.04
    36   1    -0.08   0.01  -0.02     0.01   0.01   0.01     0.16  -0.01   0.05
    37   1    -0.04   0.06   0.02     0.00   0.01   0.00     0.14  -0.09   0.04
    38   1    -0.09   0.09   0.03     0.02  -0.00   0.00     0.15  -0.13   0.03
    39   6     0.07   0.10   0.07    -0.01   0.00  -0.00    -0.03  -0.14   0.01
    40   1     0.13   0.09   0.07    -0.02   0.00  -0.00    -0.11  -0.12   0.00
    41   1     0.03   0.14   0.08    -0.00  -0.00  -0.00    -0.01  -0.19   0.01
    42   1     0.08   0.11   0.08    -0.01  -0.00  -0.00    -0.02  -0.17   0.01
    43   6     0.05  -0.06  -0.00    -0.00   0.02   0.01     0.04   0.07   0.03
    44   1     0.08  -0.11  -0.01    -0.01   0.03   0.01     0.02   0.13   0.02
    45   1     0.07  -0.03   0.02    -0.00   0.02   0.00     0.04   0.02   0.02
    46   1    -0.01  -0.07  -0.02     0.00   0.02   0.01     0.10   0.07   0.05
    47   6     0.14  -0.05   0.04    -0.01   0.02  -0.01    -0.09   0.05  -0.03
    48   1     0.15  -0.03   0.06    -0.02   0.02  -0.01    -0.13   0.03  -0.04
    49   1     0.16  -0.02   0.06    -0.01   0.02  -0.01    -0.10   0.01  -0.03
    50   1     0.16  -0.10   0.03    -0.01   0.03  -0.01    -0.10   0.12  -0.04
    51   6    -0.04  -0.02   0.08    -0.04   0.06  -0.04     0.04  -0.02  -0.04
    52   1    -0.02  -0.01   0.08    -0.03   0.06  -0.04     0.02  -0.02  -0.04
    53   1    -0.06  -0.02   0.09    -0.01   0.07  -0.04     0.04  -0.02  -0.04
    54   1    -0.04  -0.02   0.10    -0.06   0.07  -0.05     0.05  -0.03  -0.04
    55   6    -0.08  -0.02   0.03    -0.05   0.02  -0.02     0.07   0.01  -0.02
    56   1    -0.09  -0.02   0.01    -0.05   0.00  -0.01     0.07   0.02  -0.01
    57   1    -0.08  -0.02   0.05    -0.07   0.03  -0.03     0.08   0.00  -0.03
    58   1    -0.10  -0.02   0.05    -0.03   0.03  -0.03     0.07   0.00  -0.03
    59   6     0.01  -0.01   0.05    -0.09   0.03  -0.03     0.05  -0.01  -0.03
    60   1    -0.02  -0.01   0.06    -0.10   0.04  -0.03     0.07  -0.01  -0.04
    61   1     0.03  -0.02   0.03    -0.11   0.02  -0.02     0.05  -0.00  -0.03
    62   1     0.02  -0.01   0.08    -0.09   0.05  -0.04     0.04  -0.03  -0.04
    63   6    -0.02  -0.02  -0.01    -0.08  -0.01  -0.01     0.06   0.04  -0.01
    64   1    -0.04  -0.02  -0.03    -0.06  -0.02   0.01     0.05   0.05   0.00
    65   1     0.01  -0.02  -0.02    -0.10  -0.02  -0.00     0.05   0.04  -0.00
    66   1    -0.04  -0.02  -0.00    -0.09  -0.00  -0.01     0.08   0.04  -0.01
    67   6     0.05   0.02  -0.00    -0.01  -0.01   0.01    -0.08  -0.01   0.01
    68   1     0.05   0.02  -0.00     0.01  -0.00   0.02    -0.06  -0.00   0.02
    69   1     0.07   0.03   0.02    -0.02  -0.02  -0.00    -0.11  -0.02  -0.03
    70   1     0.06   0.03  -0.02    -0.02  -0.01   0.03    -0.10  -0.01   0.05
    71   6     0.02   0.00   0.03     0.03  -0.02  -0.02    -0.00   0.00  -0.06
    72   1     0.03   0.01   0.05     0.02  -0.03  -0.04    -0.03  -0.01  -0.10
    73   1     0.02   0.00   0.04     0.05  -0.02  -0.02     0.01   0.01  -0.06
    74   1     0.00  -0.01   0.04     0.05  -0.02  -0.03     0.03   0.01  -0.08
    75   6    -0.01  -0.01  -0.01     0.07   0.01   0.03     0.06   0.04   0.04
    76   1    -0.03  -0.01  -0.03     0.08   0.02   0.05     0.09   0.05   0.07
    77   1    -0.02  -0.02   0.01     0.08   0.01   0.00     0.09   0.04  -0.01
    78   1     0.01  -0.00  -0.01     0.06   0.01   0.03     0.04   0.04   0.04
    79   6     0.02   0.01  -0.05     0.02   0.02   0.06    -0.02   0.03   0.10
    80   1     0.03   0.02  -0.05     0.02   0.02   0.06    -0.03   0.02   0.12
    81   1     0.03   0.02  -0.06    -0.01   0.01   0.06    -0.05   0.02   0.10
    82   1    -0.00   0.00  -0.07     0.03   0.03   0.07     0.02   0.04   0.13
    83   1    -0.02   0.04   0.01     0.00  -0.03  -0.01    -0.02  -0.03   0.00
    84   6    -0.02   0.01   0.01     0.03  -0.04  -0.03     0.01  -0.02  -0.00
    85   8    -0.04   0.02   0.02     0.04  -0.07  -0.04    -0.01  -0.00   0.01
    86   6    -0.00  -0.01   0.03     0.02  -0.01  -0.03     0.01  -0.04  -0.00
    87   1     0.02  -0.03   0.04     0.03  -0.01  -0.03     0.02  -0.07   0.01
    88   1    -0.00  -0.01   0.02    -0.01  -0.01  -0.02     0.02  -0.04  -0.03
    89   6    -0.01   0.02  -0.03     0.02  -0.05   0.01     0.01   0.01  -0.01
    90   1    -0.02   0.03  -0.03     0.03  -0.06  -0.00     0.01   0.02  -0.01
    91   1    -0.00   0.03  -0.05     0.02  -0.05   0.02     0.02   0.01  -0.02
    92   7    -0.00  -0.00  -0.02     0.02  -0.04  -0.01     0.01  -0.02  -0.02
    93   6     0.02  -0.01  -0.03     0.00  -0.03   0.00     0.03  -0.04  -0.04
    94   1     0.02  -0.00  -0.03    -0.00  -0.03   0.01     0.02  -0.02  -0.02
    95   1     0.04  -0.01  -0.04     0.00  -0.04   0.01     0.07  -0.04  -0.06
    96   1     0.02  -0.03  -0.03    -0.00  -0.02  -0.01     0.01  -0.08  -0.05
    97   6    -0.02   0.01   0.07     0.04   0.02  -0.03    -0.00  -0.03   0.04
    98   1    -0.06   0.01   0.07    -0.00  -0.03  -0.02    -0.03  -0.01   0.03
    99   1    -0.01   0.00   0.07     0.10   0.00  -0.08    -0.00  -0.03   0.05
   100   6    -0.00   0.01   0.12     0.05   0.12   0.02     0.01  -0.04   0.06
   101   1     0.04   0.01   0.12     0.09   0.17   0.01     0.04  -0.06   0.07
   102   1    -0.01   0.02   0.12    -0.02   0.14   0.07     0.01  -0.04   0.05
   103   6    -0.03   0.03   0.17     0.08   0.16   0.02    -0.01  -0.03   0.11
   104   1    -0.07   0.03   0.16     0.02   0.10   0.03    -0.04  -0.01   0.10
   105   1    -0.01   0.02   0.16     0.16   0.15  -0.05    -0.01  -0.03   0.12
   106   6    -0.00   0.04   0.22     0.08   0.30   0.08     0.01  -0.05   0.14
   107   1    -0.02   0.05   0.25     0.10   0.33   0.08    -0.01  -0.04   0.17
   108   1     0.04   0.04   0.22     0.14   0.37   0.07     0.03  -0.07   0.15
   109   1    -0.02   0.04   0.23    -0.00   0.32   0.16     0.01  -0.05   0.13
   110   1    -0.09   0.01  -0.06     0.02  -0.04   0.01    -0.10  -0.07  -0.07
   111   1     0.07   0.02  -0.05    -0.05  -0.06  -0.01     0.04   0.05   0.01
                      4                      5                      6
                      A                      A                      A
 Frequencies --     25.6856                26.3624                32.6342
 Red. masses --      4.0479                 3.9643                 4.4965
 Frc consts  --      0.0016                 0.0016                 0.0028
 IR Inten    --      0.3484                 0.0757                 0.5952
  Atom AN      X      Y      Z        X      Y      Z        X      Y      Z
     1   6     0.00   0.00   0.01    -0.02  -0.01   0.03    -0.00   0.00   0.04
     2   6    -0.03  -0.03  -0.02    -0.02   0.04   0.05     0.00   0.02   0.05
     3   6    -0.04  -0.04  -0.03    -0.02   0.05   0.06     0.00   0.02   0.05
     4   6    -0.03  -0.03  -0.01    -0.03   0.02   0.07     0.00   0.02   0.05
     5   6    -0.01  -0.01   0.00    -0.03  -0.00   0.05     0.00   0.01   0.05
     6   6     0.03   0.03   0.03    -0.03  -0.04   0.01    -0.01  -0.02   0.02
     7   6     0.04   0.03   0.01    -0.02  -0.06  -0.02    -0.02  -0.04   0.00
     8   6     0.07   0.07   0.05    -0.03  -0.10  -0.03    -0.03  -0.08  -0.01
     9   6     0.09   0.09   0.08    -0.04  -0.11  -0.02    -0.04  -0.08  -0.01
    10   6     0.06   0.07   0.06    -0.04  -0.08  -0.00    -0.02  -0.05   0.01
    11   1    -0.04  -0.04  -0.03    -0.02   0.06   0.05     0.01   0.02   0.05
    12   1    -0.04  -0.05  -0.02    -0.03   0.03   0.08     0.01   0.02   0.06
    13   1    -0.00  -0.01   0.01    -0.03  -0.02   0.05     0.00   0.00   0.05
    14   1     0.03   0.01  -0.01    -0.01  -0.05  -0.02    -0.01  -0.04   0.00
    15   1     0.11   0.13   0.11    -0.05  -0.15  -0.03    -0.05  -0.11  -0.02
    16   1     0.08   0.10   0.09    -0.05  -0.09  -0.00    -0.03  -0.06   0.01
    17   7    -0.01  -0.01  -0.01    -0.02   0.02   0.03     0.00   0.01   0.04
    18   7     0.02   0.01   0.00    -0.02  -0.03   0.00    -0.00  -0.02   0.02
    19  77     0.00  -0.01  -0.01    -0.01  -0.00   0.00     0.00   0.01   0.03
    20   8     0.01  -0.04   0.03    -0.01  -0.03  -0.00     0.01   0.02   0.06
    21   8    -0.09   0.03   0.01    -0.06   0.03   0.01     0.03   0.07  -0.03
    22   8    -0.01  -0.01  -0.03    -0.03  -0.02  -0.01    -0.01   0.03  -0.03
[...]
 0,-0.00001181,0.00000998,-0.00000432,0.00000211,-0.00002077,-0.0000133
 0,-0.00001044,-0.00000345,0.00000913,0.00004692,-0.00003831,0.00074506
 ,-0.00094650,0.00043379,-0.00597245,0.01137897,-0.01210391,-0.00822120
 ,0.13839930,-0.25085710,0.00131415,0.00074074,-0.00034974,0.00058543,0
 .00222026,0.00294499,0.00000095,-0.00000049,0.00000111,-0.00000386,0.0
 0000570,-0.00000575,0.00003219,0.00001526,0.00003021,-0.00085548,-0.00
 129974,-0.00027515,-0.00101100,-0.00139191,-0.00041869,0.00023146,0.00
 005257,-0.00000733,0.00007768,0.00003535,-0.00005046,0.00526578,0.0022
 8779,-0.00053921,-0.00051954,0.00002328,0.00030280,0.00016842,0.000014
 11,-0.00010946,0.00005891,0.00005480,0.00006387,0.00004801,-0.00016311
 ,0.00007112,-0.00013551,-0.00012825,-0.00005701,-0.00010278,-0.0000555
 9,0.00012718,-0.00005613,0.00037437,-0.00016494,0.00001394,-0.00027079
 ,0.00016808,0.00010368,0.00000583,-0.00015837,-0.00004753,0.00002997,0
 .00003151,-0.00002023,-0.00001551,0.00004157,-0.00001266,0.00004273,-0
 .00006358,0.00000860,0.00008158,-0.00001667,-0.00001424,-0.00002932,-0
 .00000470,-0.00001669,-0.00002498,-0.00001933,0.00003391,0.00006021,0.
 00001897,0.00000445,0.00000044,-0.00001169,-0.00000012,-0.00000455,0.0
 0000178,0.00000412,0.00000580,-0.00000431,0.00000054,0.00000015,0.0000
 0274,0.00000388,0.00000837,-0.00000837,-0.00000200,-0.00000273,-0.0000
 0112,0.00000280,0.00000114,0.00000263,0.00000654,-0.00000282,-0.000003
 78,0.00001039,-0.00000639,-0.00000552,-0.00000313,0.00000077,-0.000000
 97,0.00000467,0.00000232,-0.00000704,-0.00000134,-0.00000168,0.0000022
 1,0.00000800,-0.00000169,-0.00000701,-0.00000095,0.00000416,0.00000158
 ,0.00000494,-0.00000544,-0.00000514,-0.00000263,0.00000089,0.00000039,
 0.00000344,0.00000750,-0.00000326,-0.00000331,0.00000150,-0.00000007,0
 .00000132,-0.00000120,0.00000357,0.00000489,0.00000181,0.00000018,0.00
 000007,0.00000195,-0.00000200,-0.00000112,0.00000056,-0.00000265,0.000
 00036,0.00000209,0.00000242,0.00000409,-0.00000088,0.00000422,0.000002
 34,0.00000114,0.00000179,0.00000147,0.00000387,0.00000136,-0.00000058,
 -0.00000128,-0.00000003,0.00000051,-0.00000142,-0.00000174,0.,0.000000
 56,0.00000624,-0.00000019,-0.00000276,-0.00000616,-0.00000017,-0.00000
 311,0.00000213,0.00000103,0.00000550,0.00000223,0.00002333,0.00000611,
 -0.00002963,-0.00000692,0.00000013,0.00001777,-0.00000776,-0.00002750,
 0.00002120,0.00000384,-0.00000156,-0.00000306,0.00003692,-0.00000578,-
 0.00003619,-0.00001844,-0.00001558,0.00000695,-0.00001154,-0.00000498,
 0.00000507,-0.00000113,0.00000351,0.00001125,0.00000361,-0.00000958,0.
 00000977,-0.00000742,0.00000026,0.00000311,-0.00000009,0.00000245,-0.0
 0000621,0.00000619,-0.00000827,-0.00000165,-0.00000143,-0.00000924,0.0
 0001377,0.00000876,-0.00000583,0.00000140,-0.00000030,0.00000605,-0.00
 000748,-0.00000884,0.00000075,0.00000584,-0.00002467,-0.00000666,0.000
 03131,-0.00001484,0.00005000,-0.00001132,-0.00001916,-0.00005759,0.000
 03697,-0.00000671,0.00000484,0.00001671,0.00001154,0.00001755,-0.00000
 085,-0.00000713,-0.00001253,-0.00001549,0.00010110,0.00004168,-0.00003
 571,-0.00001194,-0.00002011,-0.00000154,-0.00001238,-0.00001230,-0.000
 01999,0.00001786,-0.00006729,0.00008820,0.00000640,0.00002713,-0.00006
 457,0.00002834,0.00004538,-0.00001204,-0.00001060,-0.00001919,-0.00002
 068,-0.00002848,0.00002996,-0.00004098,0.00000011,0.00000307,0.0000000
 1,-0.00000073,-0.00000126,-0.00000073,0.00000294,-0.00000965,0.0000041
 3,0.00000365,0.00000493,0.00000023,0.00000121,0.00000463,-0.00000033,-
 0.00000433,-0.00000739,-0.00000386,-0.00000066,0.00000167,0.00000140,0
 .00000009,-0.00000022,0.00000027,0.00000033,-0.00000477,0.00000111,0.0
 0000072,0.00000131,-0.00000066,-0.00000065,-0.00000019,0.00000067,0.00
 000022,0.00000179,0.00000031,-0.00000145,-0.00000284,-0.00000119,0.008
 58947,-0.15103945,0.26137576,-0.00165101,0.00068657,0.00021420,0.00762
 243,0.00928626,-0.01980826,-0.05838246,-0.01165204,0.03857784,0.001501
 75,-0.01431651,0.02215334,-0.00258648,0.00329638,0.00379141,-0.0001277
 7,-0.00053421,-0.00029841,0.00003254,-0.00000911,-0.00002461,-0.000031
 47,-0.00000060,0.00000786,0.00005785,-0.00005135,-0.00002012,-0.000037
 42,0.00005580,-0.00000900,-0.00034540,-0.00154588,-0.00046680,0.000184
 85,-0.00134160,-0.00154656,-0.00001933,-0.00069318,0.00109998,-0.00000
 160,-0.00000001,0.00000471,-0.00000073,-0.00000195,-0.00000156,0.00006
 964,0.00002037,-0.00001695,-0.00111858,0.00646912,-0.00048523,-0.00008
 880,0.00004374,0.00009103,0.00045051,-0.00030688,-0.00025069,-0.000052
 25,-0.00003109,0.00008404,-0.00000376,-0.00004243,0.00001617,-0.000029
 31,0.00005858,0.00002406,0.00006772,0.00009748,0.00007066,0.00014863,0
 .00000092,-0.00021987,-0.00007401,-0.00007032,-0.00004777,-0.00000412,
 0.00005026,-0.00000356,0.00000268,-0.00007952,0.00016401,0.00000117,0.
 00003067,-0.00001843,0.00001430,0.00002699,-0.00004438,0.00001193,-0.0
 0000136,0.00000930,0.00001306,-0.00000892,-0.00000117,0.00000675,0.000
 01238,-0.00002043,-0.00000834,0.00006231,0.00000695,-0.00009858,-0.000
 16307,0.00000358,-0.00002344,0.00000354,0.00001182,0.00000378,-0.00000
 017,-0.00001937,-0.00000746,-0.00000313,0.00000275,0.00001163,-0.00000
 533,0.00000384,-0.00000339,-0.00000803,0.00000940,0.00000237,-0.000007
 64,-0.00000206,0.00000283,0.00000200,0.00000107,-0.00000467,0.00000199
 ,0.00000156,0.00001189,0.00004910,0.00001156,-0.00000142,0.00001280,0.
 00001194,0.00001398,-0.00002107,0.00000183,-0.00003205,-0.00003163,-0.
 00000750,-0.00000306,-0.00000831,0.00001663,0.00000292,-0.00000866,-0.
 00000055,0.00000099,0.00000060,-0.00000131,-0.00000027,0.00000336,-0.0
 0000252,-0.00000029,-0.00000610,0.00000549,0.00000237,0.00000532,-0.00
 000098,0.00000216,-0.00000218,0.00000517,-0.00000392,-0.00000178,-0.00
 000331,-0.00000184,-0.00000254,0.00000238,0.00000004,0.00000132,-0.000
 00262,-0.00000144,-0.00000175,-0.00000336,0.00000317,-0.00000210,0.000
 00268,-0.00001837,0.00001918,-0.00003665,0.00000332,-0.00000548,0.0000
 1741,0.00000114,-0.00002735,0.00000962,-0.00000049,-0.00000088,0.00000
 112,-0.00001694,0.00001664,-0.00005864,-0.00000286,-0.00000932,0.00003
 456,0.00001690,-0.00001284,-0.00001268,0.00000182,-0.00000639,0.000011
 46,-0.00000078,0.00000178,0.00000183,-0.00000042,0.00000135,-0.0000011
 0,0.,-0.00000004,0.00000029,-0.00000018,-0.00000075,-0.00000041,-0.000
 00409,0.00000452,0.00000078,-0.00000031,-0.00000071,0.00000103,0.00000
 121,0.00000221,0.00000036,0.00000069,0.00000003,-0.00000131,-0.0000004
 6,0.00000226,-0.00000441,-0.00000267,0.00000080,0.00000121,0.00000037,
 0.00000031,-0.00000098,-0.00000075,0.00000146,0.00000200,0.00000005,-0
 .00000011,-0.00000550,-0.00000176,0.00000036,0.00000064,0.00000239,0.0
 0000049,0.00000123,-0.00000198,0.00000115,0.00000180,-0.00011515,0.000
 10797,-0.00004119,0.00002215,-0.00007392,0.00012711,-0.00000305,0.0001
 0976,-0.00014264,0.00000718,0.00001123,0.00000082,0.00000405,0.0000105
 8,-0.00001482,-0.00000006,0.00000093,-0.00000578,0.00009804,-0.0001509
 0,0.00004343,0.00003345,0.00002531,0.00002431,-0.00003137,-0.00000352,
 -0.00002351,-0.00007529,0.00005341,-0.00003177,-0.00001418,-0.00000750
 ,0.00000197,0.00000030,0.00000394,-0.00000230,0.00000441,0.00000236,-0
 .00000408,0.00000158,0.00000107,-0.00000144,-0.00000085,0.00000700,0.0
 0000201,-0.00000806,-0.00002201,-0.00001040,0.00001145,0.00000431,0.00
 003004,-0.00000032,0.00000286,0.00000579,0.00000479,0.00000191,-0.0000
 1216,0.,0.00000281,-0.00000351,0.00000014,-0.00000730,0.00000457,-0.00
 000356,-0.00000674,-0.00000735,0.00000069,0.00000618,0.00000847,-0.000
 00283,0.00000248,0.00000046,-0.00000233,-0.00000042,0.00000020,0.00000
 239,-0.00000046,-0.00000430,0.00000196,0.00000243,-0.00000088,0.000015
 17,0.00001123,0.00000923,0.05457418,0.00108160,-0.00040031,-0.00095312
 ,-0.00656770,-0.00577596,0.01639578,-0.01103866,-0.11671540,0.12977650
 ,0.00094988,0.00547379,-0.00505435,0.00304445,0.00436522,0.00139890,-0
 .00051583,-0.00072096,-0.00037302,0.00000047,0.00003055,-0.00005757,-0
 .00004838,0.00000627,0.00001165,-0.00002218,-0.00005395,0.00002776,0.0
 0005824,0.00001844,-0.00001030,-0.00141427,-0.00143179,-0.00147168,-0.
 00164137,-0.00176253,-0.00134515,0.00017463,0.00026870,-0.00025687,0.0
 0000134,-0.00000306,-0.00000314,-0.00000256,-0.00000376,0.00000211,0.0
 0001915,0.00005234,0.00002780,0.00580188,0.00164364,0.00446237,0.00004
 231,-0.00003096,0.00008311,-0.00039526,0.00034942,0.00003242,0.0000521
 8,0.00001050,-0.00011498,0.00003858,0.00002560,0.00001795,0.00006576,-
 0.00012245,-0.00002181,-0.00027490,-0.00005311,-0.00006133,-0.00015741
 ,0.00000159,0.00029400,-0.00000603,0.00010657,0.00001490,0.00002799,-0
 .00012860,0.00002119,0.00004952,0.00005491,-0.00027286,-0.00001002,-0.
 00004013,0.00006045,0.00000506,-0.00000285,0.00005317,-0.00002197,0.00
 001545,-0.00002043,-0.00000928,0.00003634,0.00001405,-0.00000722,-0.00
 002211,-0.00001915,-0.00001866,0.00004661,0.00001092,0.00002529,0.0000
 4910,-0.00008917,0.00000571,-0.00000784,-0.00001310,0.00000392,0.00000
 776,0.00001651,0.00000738,0.00000536,-0.00000356,-0.00001360,0.0000026
 2,-0.00000671,-0.00000048,-0.00000088,-0.00000934,0.00000053,0.0000009
 2,0.00000358,-0.00000551,-0.00000099,-0.00000266,0.00000701,-0.0000001
 0,-0.00000315,0.00000327,-0.00000927,0.00001610,0.00000090,-0.00003183
 ,-0.00003182,-0.00002076,0.00001644,-0.00000914,0.00003089,0.00002831,
 0.00001073,0.00001926,0.00000689,-0.00001006,-0.00000607,0.00000918,0.
 00000121,-0.00000052,-0.00000463,-0.00000207,-0.00000566,-0.00001023,-
 0.00000320,0.00000467,0.00000550,0.00000745,-0.00000085,-0.00000066,-0
 .00000038,0.00000122,-0.00000248,0.00000085,0.00000322,0.00000129,-0.0
 0000097,0.00000082,0.00000201,-0.00000062,0.00000181,0.00000022,-0.000
 00444,-0.00000133,0.00000172,-0.00000011,0.00000224,-0.00000294,0.0000
 0120,-0.00000481,0.00000342,-0.00000545,0.00000054,0.00000111,-0.00000
 342,-0.00000548,0.00000590,0.00000744,0.00000935,-0.00000293,0.0000046
 8,-0.00000223,0.00000633,-0.00002458,0.00000499,-0.00001085,0.00000525
 ,-0.00000478,0.00001442,0.00000406,0.00000013,-0.00000089,-0.00000114,
 0.00000128,-0.00000794,-0.00000414,0.00000266,-0.00000407,0.00000276,-
 0.00000065,0.00000084,0.00000159,-0.00000159,0.00000116,-0.00000094,0.
 00000564,-0.00000786,-0.00000018,-0.00000024,0.00000008,0.00000249,-0.
 00000210,-0.00000549,-0.00000116,0.00000172,0.00000368,-0.00000173,0.0
 0000414,-0.00000425,0.00000749,0.00000364,0.00000012,-0.00000168,-0.00
 000291,-0.00000076,0.00000034,0.00000177,-0.00000453,-0.00000260,0.000
 00051,-0.00000354,0.00000653,0.00000402,-0.00000180,0.00000101,-0.0000
 0244,-0.00000188,-0.00000334,0.00000091,0.00000070,-0.00000133,0.00001
 968,-0.00011177,-0.00004300,0.00008610,-0.00009069,0.00021758,-0.00002
 259,0.00012862,-0.00033701,0.00001019,0.00002278,-0.00000079,0.0000031
 2,0.00000290,-0.00001126,0.00000147,0.00000393,-0.00000326,0.00005726,
 -0.00014838,-0.00008112,-0.00000672,-0.00002215,0.00006673,-0.00003162
 ,-0.00002740,0.00001157,-0.00004846,0.00009388,-0.00010753,-0.00000836
 ,-0.00000830,0.00001661,0.00000332,0.00001127,-0.00000615,0.00000158,0
 .00000706,-0.00000755,0.00000270,0.00000238,-0.00000264,-0.00000208,-0
 .00000210,0.00001299,-0.00001050,-0.00001517,-0.00000951,-0.00000170,0
 .00000887,0.00001333,-0.00000659,0.00000285,-0.00000147,0.00000421,-0.
 00000055,-0.00000868,0.00000328,0.00000190,-0.00000053,0.00000031,0.00
 000473,0.00000428,-0.00000280,-0.00000430,-0.00000535,-0.00000116,0.00
 000100,0.00000296,-0.00000180,-0.00000091,0.00000054,0.00000192,-0.000
 00023,0.00000130,0.00000115,0.00000031,-0.00000402,0.00000061,0.000000
 56,-0.00000019,0.00000983,0.00002321,0.00001830,0.01059890,0.11483127,
 -0.00006249,-0.00054273,0.00041039,0.00328595,0.00184225,-0.00479986,0
 .03854024,0.13065073,-0.26158867,-0.00089062,0.00852812,-0.00929254,0.
 00411000,0.00124908,0.00155536,-0.00031051,-0.00053189,-0.00024401,0.0
 0001131,0.00000298,-0.00002445,-0.00003467,0.00001418,-0.00001049,-0.0
 0001561,-0.00003852,0.00002309,0.00005603,0.00004284,-0.00006447,-0.00
 088862,-0.00129245,-0.00056779,-0.00106531,-0.00158513,-0.00035019,-0.
 00007284,0.00048825,-0.00043538,0.00000250,-0.00000015,-0.00000360,0.0
 0000338,-0.00000047,-0.00000787,-0.00002089,0.00003432,0.00004984,0.00
 034848,0.00355788,0.00290994,-0.00002668,0.00006855,0.00000888,0.00010
 904,-0.00020027,-0.00013935,-0.00010048,-0.00003051,0.00006483,-0.0000
 5817,-0.00014587,-0.00001369,-0.00005233,0.00008226,0.00001889,0.00013
 506,0.00028716,0.00003984,0.00018126,0.00001531,-0.00014433,-0.0000041
 0,-0.00012993,-0.00001914,-0.00002380,0.00008428,-0.00001331,-0.000062
 40,-0.00002127,0.00011708,0.00003693,0.00001363,-0.00002001,0.00003308
 ,0.00003587,-0.00004002,0.00002321,-0.00001963,0.00001741,0.00001959,-
 0.00003229,-0.00000344,0.00003537,0.00005169,-0.00004592,-0.00003353,0
 .00013038,0.00006340,-0.00010254,-0.00030798,-0.00000517,-0.00001944,-
 0.00000267,0.00000942,0.00000773,0.00000710,-0.00000434,-0.00000364,-0
 .00000424,0.00000386,0.00000072,-0.00000097,-0.00000307,-0.00000573,-0
 .00000993,0.00000614,0.00000361,-0.00000581,-0.00000168,-0.00000154,0.
 00000204,-0.00000253,-0.00000378,0.00000156,0.00000344,-0.00000043,0.0
 0002233,0.00000621,-0.00000007,-0.00000605,-0.00000080,-0.00000117,-0.
 00000568,0.00000332,-0.00000325,-0.00000737,0.00000341,-0.00001202,-0.
 00000236,0.00000677,0.00000347,-0.00000404,-0.00000177,-0.00000287,0.0
 0000345,0.00000324,0.00000022,-0.00000126,-0.00000337,-0.00000119,-0.0
 0001677,0.00001823,0.00000309,0.00000585,-0.00000395,0.00000762,-0.000
 00351,0.00000595,-0.00000963,-0.00000483,-0.00000408,-0.00000307,-0.00
 001048,0.00000420,0.00000364,0.00000597,-0.00000748,-0.00000665,-0.000
 00704,-0.00000633,0.00000742,-0.00000287,0.00000409,-0.00002186,0.0000
 1582,-0.00004912,-0.00000047,-0.00000946,0.00001214,-0.00001041,-0.000
 02227,0.00002523,0.00001094,-0.00000403,0.00000704,-0.00002628,0.00003
 773,-0.00014691,0.00000190,-0.00002301,0.00006270,0.00000764,-0.000004
 07,-0.00001620,0.00000233,-0.00001921,0.00001578,-0.00000074,0.0000044
 7,0.00000003,-0.00000213,0.00000368,-0.00000059,0.00000066,-0.00000134
 ,-0.00000010,0.00000009,-0.00000133,-0.00000010,-0.00000276,0.00000725
 ,0.00000116,-0.00000033,-0.00000283,0.00000170,-0.00000077,0.00000549,
 0.00000062,0.00000105,-0.00000187,-0.00000265,-0.00000312,0.00000315,-
 0.00000278,-0.00000186,-0.00000059,0.00000237,0.00000074,-0.00000119,-
 0.00000123,-0.00000130,0.00000356,0.00000005,-0.00000308,0.00000143,-0
 .00000450,-0.00000334,0.00000273,-0.00000150,0.00000334,0.00000135,0.0
 0000243,-0.00000047,-0.00000024,0.00000244,-0.00006576,0.00007280,-0.0
 0002855,-0.00004622,0.00006555,-0.00006157,0.00000564,-0.00000732,0.00
 006191,0.00000019,-0.00000930,-0.00000698,-0.00000194,-0.00000739,0.00
 000965,0.00000099,0.00000476,0.00000403,-0.00001993,-0.00016011,-0.000
 06147,0.00001723,0.00001475,0.00001674,-0.00000066,0.00001398,0.000009
 08,0.00008923,0.00001916,0.00005687,-0.00000162,-0.00002403,0.00000491
 ,0.00000139,-0.00000173,-0.00000003,0.00000281,0.00000788,0.00000208,-
 0.00000212,-0.00000082,-0.00000320,-0.00000277,-0.00001272,0.00000002,
 0.00000436,0.00001028,0.00000574,-0.00000952,0.00000666,-0.00001565,-0
 .00000397,-0.00000204,-0.00000078,-0.00000274,-0.00000197,0.00000540,0
 .00000369,0.00000273,0.00000137,-0.00000133,0.00000432,-0.00000462,0.0
 0000149,0.00000181,0.00000330,-0.00000125,-0.00000027,-0.00000300,0.00
 000060,-0.00000254,0.00000210,0.00000487,-0.00000130,0.00000132,-0.000
 00157,0.00000060,-0.00000001,-0.00000030,0.00000095,-0.00000039,0.0000
 0639,0.00002147,0.00000500,-0.04299585,-0.14226448,0.27260458\\-0.0000
 0977,0.00000730,-0.00000569,-0.00000470,-0.00000349,0.00000525,0.00000
 552,-0.00000158,-0.00000296,0.00000041,-0.00000067,-0.00000038,0.00000
 546,-0.00000510,-0.00000178,-0.00000187,0.00000015,0.00000433,-0.00000
 117,0.00000284,-0.00000414,0.00000479,-0.00000174,0.00000616,-0.000011
 15,0.00000988,-0.00000309,0.00001057,-0.00000568,0.00000137,0.00000425
 ,-0.00000099,-0.00000217,-0.00000130,0.00000139,-0.00000188,0.00000133
 ,0.00000156,-0.00000243,-0.00000201,0.00000268,0.00000012,0.00000438,0
 .00000080,-0.00000343,-0.00000459,0.00000391,-0.00000121,0.00000158,0.
 00000052,-0.00000173,0.00000105,-0.00000169,0.00000324,-0.00000041,0.0
 0000382,-0.00000346,-0.00000399,0.00000050,-0.00000315,-0.00000068,0.0
 0000035,-0.00000215,0.00000137,-0.00000320,0.00000084,0.00000159,0.000
 00060,-0.00000203,0.00000218,-0.00000197,0.00000400,-0.00000170,0.0000
 0126,0.00000382,0.00000133,-0.00000356,0.00000311,-0.00000030,-0.00000
 246,0.00000064,0.00000518,-0.00000292,-0.00000120,-0.00000479,-0.00000
 502,-0.00000485,-0.00000142,-0.00000542,0.00000041,-0.00000233,0.00000
 861,-0.00000263,0.00000755,-0.00000171,-0.00000537,-0.00000201,0.00000
 637,-0.00000606,0.00000008,-0.00000313,-0.00000124,-0.00000020,-0.0000
 0188,0.00000237,0.00000301,-0.00000191,0.00000076,0.00000105,-0.000001
 36,-0.00000211,-0.00000194,-0.00000229,-0.00000290,0.00000281,-0.00000
 342,0.00000835,-0.00000078,0.00000090,0.00000011,-0.00000389,-0.000003
 83,-0.00000440,-0.00000012,-0.00000121,-0.00000078,0.00000050,-0.00000
 612,-0.00000142,0.00000020,0.00000058,0.00000027,-0.00000210,-0.000001
 03,0.00000126,0.00000187,-0.00000337,0.00000008,0.00000480,0.00000109,
 0.00000670,-0.00000068,-0.00000097,0.00000033,-0.00000085,-0.00000092,
 -0.00000044,-0.00000470,-0.00000175,-0.00000213,-0.00000264,0.00000089
 ,0.00000102,0.00000119,0.00000136,-0.00000219,0.00000011,0.00000133,-0
 .00000220,-0.00000034,-0.00000044,-0.00000183,-0.00000186,0.00000270,0
 .00000022,0.00000430,0.00000085,-0.00000077,0.00000020,0.00000064,-0.0
 0000127,-0.00000089,0.00000209,-0.00000418,-0.00000158,-0.00000003,0.0
 0000105,0.00000006,-0.00000179,-0.00000363,0.00000065,-0.00000030,-0.0
 0000067,0.00000083,-0.00000140,-0.00000157,0.00000220,-0.00000668,-0.0
 0001066,-0.00000044,0.00000139,-0.00000159,0.00000243,-0.00000053,0.00
 000221,0.00000170,0.00000590,0.00000198,-0.00000162,0.00000455,0.00000
 215,0.00000117,-0.00000269,0.00000111,-0.00000078,-0.00000009,0.000002
 68,-0.00000049,0.00000031,0.00000079,0.00000472,-0.00000238,0.00000711
 ,-0.00000290,0.00000119,0.00000216,-0.00000030,0.00000019,0.00000081,-
 0.00000188,0.00000242,-0.00000171,-0.00000069,0.00000543,-0.00000042,-
 0.00000195,-0.00000080,0.00000217,-0.00000027,-0.00000021,0.00000205,0
 .00000067,-0.00000300,0.00000312,-0.00000281,0.00000446,0.00000265,0.0
 0000142,-0.00000265,0.00000213,0.00000036,-0.00000076,-0.00000081,0.,-
 0.00000063,0.00000040,0.00000121,-0.00000016,0.00000085,0.00000065,-0.
 00000981,0.00001160,0.00000230,0.00000547,-0.00000613,0.00000043,-0.00
 000228,-0.00000311,-0.00000031,0.00000166,0.00000288,0.00000008,0.0000
 0346,0.00000084,-0.00000273,-0.00000250,0.00000376,-0.00000038,0.00000
 190,-0.00000161,0.00000015,-0.00000143,0.00000066,-0.00000077,0.000005
 61,-0.00000448,0.00000681,0.00000314,0.00000738,-0.00000625,0.00000059
 ,-0.00000249,-0.00000103,-0.00000323,-0.00000034,0.00000016,-0.0000006
 6,0.00000186,-0.00000517,0.00000056,0.00000606,-0.00000099,-0.00000038
 ,-0.00000034,0.00000070,0.00000055,0.00000039,0.00000307,0.00000053,-0
 .00000100,0.00000093,0.00000174,0.00000056,-0.00000072,-0.00000082,0.0
 0000010,-0.00000020,0.00000151,0.00000428,-0.00000064,0.00000057,0.000
 00042,0.00000027,0.00000010,0.00000034,-0.00000003,0.00000256,0.000000
 12,0.00000078,-0.00000002,0.00000254,0.00000067,0.00000072,0.00000137,
 -0.00000102,0.00000126,0.00000050,-0.00000129,0.00000355,-0.00000371,-
 0.00000062,-0.00000021,-0.00000188\\\@
 The archive entry for this job was punched.


 LIVE PURE, SPEAK TRUE, RIGHT WRONG, FOLLOW THE KING...
 ELSE, WHEREFORE BORN......
           IDYLLS OF THE KING, TENNYSON
 Job cpu time:       1 days 16 hours 31 minutes 17.1 seconds.
 Elapsed time:       0 days  2 hours 35 minutes 18.5 seconds.
 File lengths (MBytes):  RWF=   8594 Int=      0 D2E=      0 Chk=     49 Scr=      1
 Normal termination of Gaussian 16 at Sat Dec  7 23:16:35 2024.
