/mnt/lustre/scratch/nvme/SLURM/9698481/usccqdma.NOxccZSJ4K
OMP_STACKSIZE=0m
GAUSS_PDEF=16
GAUSS_MDEF=65536MB
GAUSS_RDEF=SCF=Direct
 Entering Gaussian System, Link 0=g16.exe
 Initial command:
 /opt/cesga/2020/software/Core/g16/c1/l1.exe "/mnt/lustre/scratch/nvme/SLURM/9698481/usccqdma.NOxccZSJ4K/Gau-4138163.inp" -scrdir="/mnt/lustre/scratch/nvme/SLURM/9698481/usccqdma.NOxccZSJ4K/"
 Default is to use a total of  16 processors:
                               16 via shared-memory
                                1 via Linda
 Entering Link 1 = /opt/cesga/2020/software/Core/g16/c1/l1.exe PID=   4138189.
  
 Copyright (c) 1988-2019, Gaussian, Inc.  All Rights Reserved.
  
 This is part of the Gaussian(R) 16 program.  It is based on
 the Gaussian(R) 09 system (copyright 2009, Gaussian, Inc.),
 the Gaussian(R) 03 system (copyright 2003, Gaussian, Inc.),
 the Gaussian(R) 98 system (copyright 1998, Gaussian, Inc.),
 the Gaussian(R) 94 system (copyright 1995, Gaussian, Inc.),
 the Gaussian 92(TM) system (copyright 1992, Gaussian, Inc.),
 the Gaussian 90(TM) system (copyright 1990, Gaussian, Inc.),
 the Gaussian 88(TM) system (copyright 1988, Gaussian, Inc.),
 the Gaussian 86(TM) system (copyright 1986, Carnegie Mellon
 University), and the Gaussian 82(TM) system (copyright 1983,
 Carnegie Mellon University). Gaussian is a federally registered
 trademark of Gaussian, Inc.
  
 This software contains proprietary and confidential information,
 including trade secrets, belonging to Gaussian, Inc.
  
 This software is provided under written license and may be
 used, copied, transmitted, or stored only in accord with that
 written license.
  
 The following legend is applicable only to US Government
 contracts under FAR:
  
                    RESTRICTED RIGHTS LEGEND
  
 Use, reproduction and disclosure by the US Government is
 subject to restrictions as set forth in subparagraphs (a)
 and (c) of the Commercial Computer Software - Restricted
 Rights clause in FAR 52.227-19.
  
 Gaussian, Inc.
 340 Quinnipiac St., Bldg. 40, Wallingford CT 06492
  
  
 ---------------------------------------------------------------
 Warning -- This program may not be used in any manner that
 competes with the business of Gaussian, Inc. or will provide
 assistance to any competitor of Gaussian, Inc.  The licensee
 of this program is prohibited from giving any competitor of
 Gaussian, Inc. access to this program.  By using this program,
 the user acknowledges that Gaussian, Inc. is engaged in the
 business of creating and licensing software in the field of
 computational chemistry and represents and warrants to the
 licensee that it is not a competitor of Gaussian, Inc. and that
 it will not use this program in any manner prohibited above.
 ---------------------------------------------------------------
  

 Cite this work as:
 Gaussian 16, Revision C.01,
 M. J. Frisch, G. W. Trucks, H. B. Schlegel, G. E. Scuseria, 
 M. A. Robb, J. R. Cheeseman, G. Scalmani, V. Barone, 
 G. A. Petersson, H. Nakatsuji, X. Li, M. Caricato, A. V. Marenich, 
 J. Bloino, B. G. Janesko, R. Gomperts, B. Mennucci, H. P. Hratchian, 
 J. V. Ortiz, A. F. Izmaylov, J. L. Sonnenberg, D. Williams-Young, 
 F. Ding, F. Lipparini, F. Egidi, J. Goings, B. Peng, A. Petrone, 
 T. Henderson, D. Ranasinghe, V. G. Zakrzewski, J. Gao, N. Rega, 
 G. Zheng, W. Liang, M. Hada, M. Ehara, K. Toyota, R. Fukuda, 
 J. Hasegawa, M. Ishida, T. Nakajima, Y. Honda, O. Kitao, H. Nakai, 
 T. Vreven, K. Throssell, J. A. Montgomery, Jr., J. E. Peralta, 
 F. Ogliaro, M. J. Bearpark, J. J. Heyd, E. N. Brothers, K. N. Kudin, 
 V. N. Staroverov, T. A. Keith, R. Kobayashi, J. Normand, 
 K. Raghavachari, A. P. Rendell, J. C. Burant, S. S. Iyengar, 
 J. Tomasi, M. Cossi, J. M. Millam, M. Klene, C. Adamo, R. Cammi, 
 J. W. Ochterski, R. L. Martin, K. Morokuma, O. Farkas, 
 J. B. Foresman, and D. J. Fox, Gaussian, Inc., Wallingford CT, 2019.
 
 ******************************************
 Gaussian 16:  ES64L-G16RevC.01  3-Jul-2019
                10-Dec-2024 
 ******************************************
 Default route: SCF=Direct
 ----------------------------------------------------
 # m06/genecp scf=tight int=ultrafine 5d freq=noraman
 ----------------------------------------------------
 1/10=4,30=1,38=1/1,3;
 2/12=2,17=6,18=5,40=1/2;
 3/5=7,8=1,11=2,16=1,17=8,25=1,30=1,71=2,74=-54,75=-5,140=1/1,2,3;
 4//1;
 5/5=2,32=2,38=5,98=1/2;
 8/6=4,10=90,11=11/1;
 11/6=1,8=1,9=11,15=111,16=1/1,2,10;
 10/6=1/2;
 6/7=2,8=2,9=2,10=2,28=1/1;
 7/8=1,10=1,25=1/1,2,3,16;
 1/10=4,30=1/3;
 99//99;
 ------
 OPT-TS
 ------
 Symbolic Z-matrix:
 Charge =  0 Multiplicity = 1
 C                     1.52736   2.3776   -0.20429 
 C                     0.78156   1.85806  -2.35126 
 C                     1.70809   2.70576  -2.94114 
 C                     2.63849   3.31965  -2.11999 
 C                     2.5729    3.15574  -0.73739 
 C                     1.18641   2.22609   1.23466 
 C                     0.1431    0.90585   2.8396 
 C                     0.38462   1.84363   3.83536 
 C                     1.01826   3.0293    3.49168 
 C                     1.42295   3.22442   2.17869 
 H                     3.43953   3.91709  -2.54738 
 H                    -0.38504  -0.02852   3.03093 
 H                     1.19379   3.80457   4.23467 
 H                     1.89638   4.15578   1.89038 
 N                     0.71631   1.69386  -1.03032 
 N                     0.51928   1.10222   1.57027 
 Ir                   -0.28248  -0.19128  -0.10274 
 O                    -1.75334  -2.84321   0.30679 
 O                    -3.01123  -0.88175  -1.43998 
 O                    -2.86666   0.66808   1.42565 
 B                    -1.66942  -0.55397  -1.57199 
 B                    -1.13336  -1.7405    0.87472 
 B                    -2.03622   0.89847   0.34269 
 O                    -2.38975   2.07893  -0.30135 
 O                    -1.13194  -1.858     2.26583 
 C                    -1.69675  -3.13565   2.6093 
 C                    -2.52452  -3.47131   1.33737 
 C                    -3.94375   1.61889   1.37656 
 C                    -3.32006   2.77513   0.54367 
 C                    -3.51271  -1.21938  -2.7398 
 C                    -2.58206  -0.39054  -3.66523 
 O                    -1.34857  -0.40053  -2.92373 
 C                    -2.66027  -4.94815   1.03035 
 H                    -3.17904  -5.47272   1.84584 
 H                    -3.25058  -5.07942   0.11399 
 H                    -1.68518  -5.42168   0.87162 
 C                    -3.89513  -2.80237   1.33406 
 H                    -4.32013  -2.87669   0.3239 
 H                    -4.58701  -3.27695   2.04371 
 H                    -3.80464  -1.73328   1.57015 
 C                    -0.54025  -4.09881   2.83642 
 H                     0.12557  -3.68045   3.6028 
 H                    -0.88806  -5.0808    3.18477 
 H                     0.04482  -4.23921   1.91782 
 C                    -2.51008  -2.9856    3.87909 
 H                    -3.05362  -3.91366   4.10825 
 H                    -1.84523  -2.76774   4.72542 
 H                    -3.23187  -2.16535   3.79518 
 C                    -3.33798  -2.72376  -2.90588 
 H                    -3.85696  -3.2298   -2.08146 
 H                    -3.75713  -3.08465  -3.85496 
 H                    -2.27963  -3.00896  -2.84859 
 C                    -4.98165  -0.8572   -2.81719 
 H                    -5.38572  -1.07211  -3.81699 
 H                    -5.5453   -1.45331  -2.08656 
 H                    -5.15575   0.20191  -2.59302 
 C                    -2.3432   -0.99127  -5.03467 
 H                    -3.28787  -1.08214  -5.59008 
 H                    -1.67231  -0.34455  -5.61509 
 H                    -1.88049  -1.98167  -4.96542 
 C                    -3.01238   1.06555  -3.79101 
 H                    -2.21622   1.62763  -4.29809 
 H                    -3.93044   1.17441  -4.38421 
 H                    -3.16491   1.51916  -2.80084 
 C                    -4.29654   3.54407  -0.32236 
 H                    -3.76248   4.32507  -0.87902 
 H                    -4.79174   2.89024  -1.04982 
 H                    -5.06813   4.03122   0.2913 
 C                    -2.49908   3.74146   1.38954 
 H                    -1.90603   4.37826   0.72001 
 H                    -3.13198   4.38766   2.01288 
 H                    -1.8017    3.1993    2.04436 
 C                    -4.32953   1.98521   2.79552 
 H                    -5.09308   2.7765    2.8064 
 H                    -4.7471    1.10418   3.30028 
 H                    -3.463     2.32316   3.37587 
 C                    -5.11023   0.94083   0.67311 
 H                    -5.38971   0.03862   1.23233 
 H                    -5.99148   1.59393   0.61516 
 H                    -4.81998   0.62584  -0.33697 
 H                     2.34778  -0.31242  -2.14063 
 C                     2.6533   -0.85148  -1.24078 
 C                     3.98118  -1.24585  -1.11519 
 C                     1.70589  -1.13717  -0.24884 
 C                     4.40775  -1.94333   0.01711 
 H                     4.6984   -0.98935  -1.8962 
 C                     2.14555  -1.85767   0.87364 
 C                     3.47648  -2.22391   1.01945 
 H                     3.82011  -2.73228   1.91959 
 H                     0.05877   1.646     4.85338 
 H                     0.31374  -1.43425  -1.01021 
 H                     1.43647  -2.10034   1.66748 
 C                     5.83456  -2.30318   0.27054 
 O                     6.32     -2.16523   1.38545 
 N                     6.5901   -2.74657  -0.79503 
 C                     8.00289  -2.96605  -0.57487 
 H                     8.32889  -2.37195   0.28119 
 H                     8.21775  -4.02647  -0.36623 
 H                     8.56427  -2.67081  -1.47212 
 C                     6.06106  -3.38747  -1.97926 
 H                     4.96924  -3.40906  -1.9581 
 H                     6.38577  -2.86932  -2.89486 
 H                     6.42346  -4.42634  -2.03415 
 H                     1.73306   2.83604  -4.01962 
 C                     3.6837    3.77604   0.06968 
 F                     4.77165   3.96376  -0.68208 
 F                     4.04357   3.02234   1.10592 
 F                     3.34402   4.9895    0.54656 
 H                     0.07726   1.25641  -2.92984 
 

 GradGradGradGradGradGradGradGradGradGradGradGradGradGradGradGradGradGrad
 Berny optimization.
 Initialization pass.
 Trust Radius=3.00D-01 FncErr=1.00D-07 GrdErr=1.00D-07 EigMax=2.50D+02 EigMin=1.00D-04
 Number of steps in this run=      2 maximum allowed number of steps=      2.
 GradGradGradGradGradGradGradGradGradGradGradGradGradGradGradGradGradGrad

 Stoichiometry    C38H54B3F3IrN3O7
 Framework group  C1[X(C38H54B3F3IrN3O7)]
 Deg. of freedom   321
 Full point group                 C1      NOp   1
 Largest Abelian subgroup         C1      NOp   1
 Largest concise Abelian subgroup C1      NOp   1
                         Standard orientation:                         
 ---------------------------------------------------------------------
 Center     Atomic      Atomic             Coordinates (Angstroms)
 Number     Number       Type             X           Y           Z
 ---------------------------------------------------------------------
      1          6           0       -1.527357    2.377601    0.204290
      2          6           0       -0.781558    1.858060    2.351260
      3          6           0       -1.708087    2.705761    2.941140
      4          6           0       -2.638487    3.319652    2.119990
      5          6           0       -2.572897    3.155742    0.737390
      6          6           0       -1.186408    2.226091   -1.234660
      7          6           0       -0.143099    0.905850   -2.839600
      8          6           0       -0.384618    1.843630   -3.835360
      9          6           0       -1.018257    3.029300   -3.491680
     10          6           0       -1.422947    3.224421   -2.178690
     11          1           0       -3.439526    3.917093    2.547380
     12          1           0        0.385040   -0.028521   -3.030930
     13          1           0       -1.193786    3.804571   -4.234670
     14          1           0       -1.896376    4.155781   -1.890380
     15          7           0       -0.716308    1.693860    1.030320
     16          7           0       -0.519279    1.102220   -1.570270
     17         77           0        0.282480   -0.191281    0.102740
     18          8           0        1.753338   -2.843212   -0.306790
     19          8           0        3.011230   -0.881753    1.439980
     20          8           0        2.866661    0.668077   -1.425650
     21          5           0        1.669420   -0.553972    1.571990
     22          5           0        1.133359   -1.740502   -0.874720
     23          5           0        2.036221    0.898468   -0.342690
     24          8           0        2.389752    2.078927    0.301350
     25          8           0        1.131939   -1.858002   -2.265830
     26          6           0        1.696748   -3.135652   -2.609300
     27          6           0        2.524517   -3.471313   -1.337370
     28          6           0        3.943752    1.618886   -1.376560
     29          6           0        3.320063    2.775127   -0.543670
     30          6           0        3.512709   -1.219384    2.739800
     31          6           0        2.582060   -0.390543    3.665230
     32          8           0        1.348570   -0.400532    2.923730
     33          6           0        2.660266   -4.948153   -1.030350
     34          1           0        3.179036   -5.472723   -1.845840
     35          1           0        3.250576   -5.079423   -0.113990
     36          1           0        1.685176   -5.421682   -0.871620
     37          6           0        3.895128   -2.802374   -1.334060
     38          1           0        4.320128   -2.876694   -0.323900
     39          1           0        4.587008   -3.276955   -2.043710
     40          1           0        3.804639   -1.733284   -1.570150
     41          6           0        0.540247   -4.098811   -2.836420
     42          1           0       -0.125573   -3.680450   -3.602800
     43          1           0        0.888056   -5.080801   -3.184770
     44          1           0       -0.044823   -4.239210   -1.917820
     45          6           0        2.510078   -2.985603   -3.879090
     46          1           0        3.053617   -3.913663   -4.108250
     47          1           0        1.845228   -2.767742   -4.725420
     48          1           0        3.231868   -2.165353   -3.795180
     49          6           0        3.337978   -2.723763    2.905880
     50          1           0        3.856958   -3.229804    2.081460
     51          1           0        3.757128   -3.084654    3.854960
     52          1           0        2.279628   -3.008963    2.848590
     53          6           0        4.981650   -0.857205    2.817190
     54          1           0        5.385719   -1.072115    3.816990
     55          1           0        5.545299   -1.453315    2.086560
     56          1           0        5.155751    0.201905    2.593020
     57          6           0        2.343200   -0.991273    5.034670
     58          1           0        3.287869   -1.082143    5.590080
     59          1           0        1.672310   -0.344552    5.615090
     60          1           0        1.880489   -1.981672    4.965420
     61          6           0        3.012381    1.065547    3.791010
     62          1           0        2.216222    1.627628    4.298090
     63          1           0        3.930441    1.174406    4.384210
     64          1           0        3.164912    1.519157    2.800840
     65          6           0        4.296544    3.544066    0.322360
     66          1           0        3.762484    4.325066    0.879020
     67          1           0        4.791743    2.890235    1.049820
     68          1           0        5.068134    4.031215   -0.291300
     69          6           0        2.499084    3.741457   -1.389540
     70          1           0        1.906034    4.378258   -0.720010
     71          1           0        3.131984    4.387657   -2.012880
     72          1           0        1.801703    3.199298   -2.044360
     73          6           0        4.329532    1.985206   -2.795520
     74          1           0        5.093083    2.776495   -2.806400
     75          1           0        4.747101    1.104175   -3.300280
     76          1           0        3.463003    2.323156   -3.375870
     77          6           0        5.110231    0.940825   -0.673110
     78          1           0        5.389710    0.038615   -1.232330
     79          1           0        5.991482    1.593924   -0.615160
     80          1           0        4.819981    0.625835    0.336970
     81          1           0       -2.347780   -0.312418    2.140630
     82          6           0       -2.653300   -0.851478    1.240780
     83          6           0       -3.981181   -1.245847    1.115190
     84          6           0       -1.705891   -1.137169    0.248840
     85          6           0       -4.407751   -1.943327   -0.017110
     86          1           0       -4.698400   -0.989346    1.896200
     87          6           0       -2.145551   -1.857669   -0.873640
     88          6           0       -3.476482   -2.223907   -1.019450
     89          1           0       -3.820112   -2.732277   -1.919590
     90          1           0       -0.058768    1.646000   -4.853380
     91          1           0       -0.313741   -1.434250    1.010210
     92          1           0       -1.436471   -2.100339   -1.667480
     93          6           0       -5.834562   -2.303175   -0.270540
     94          8           0       -6.320002   -2.165225   -1.385450
     95          7           0       -6.590102   -2.746565    0.795030
     96          6           0       -8.002892   -2.966043    0.574870
     97          1           0       -8.328892   -2.371943   -0.281190
     98          1           0       -8.217753   -4.026463    0.366230
     99          1           0       -8.564272   -2.670803    1.472120
    100          6           0       -6.061063   -3.387465    1.979260
    101          1           0       -4.969243   -3.409056    1.958100
    102          1           0       -6.385772   -2.869315    2.894860
    103          1           0       -6.423464   -4.426335    2.034150
    104          1           0       -1.733057    2.836041    4.019620
    105          6           0       -3.683696    3.776043   -0.069680
    106          9           0       -4.771646    3.963764    0.682080
    107          9           0       -4.043567    3.022343   -1.105920
    108          9           0       -3.344015    4.989502   -0.546560
    109          1           0       -0.077258    1.256410    2.929840
 ---------------------------------------------------------------------
 Rotational constants (GHZ):           0.0610511           0.0415889           0.0361182
 General basis read from cards:  (5D, 7F)
 ======================================================================================================
                                       Pseudopotential Parameters
 ======================================================================================================
  Center     Atomic      Valence      Angular      Power
  Number     Number     Electrons     Momentum     of R      Exponent        Coefficient   SO-Coeffient
 ======================================================================================================
    1          6
                                   No pseudopotential on this center.
    2          6
                                   No pseudopotential on this center.
    3          6
                                   No pseudopotential on this center.
    4          6
                                   No pseudopotential on this center.
    5          6
                                   No pseudopotential on this center.
    6          6
                                   No pseudopotential on this center.
    7          6
                                   No pseudopotential on this center.
    8          6
                                   No pseudopotential on this center.
    9          6
                                   No pseudopotential on this center.
   10          6
                                   No pseudopotential on this center.
   11          1
                                   No pseudopotential on this center.
   12          1
                                   No pseudopotential on this center.
   13          1
                                   No pseudopotential on this center.
   14          1
                                   No pseudopotential on this center.
   15          7
                                   No pseudopotential on this center.
   16          7
                                   No pseudopotential on this center.
   17         77           17
                                      G and up 
                                                     1      823.5880147       -0.15780140    0.00000000
                                                     2      364.6613336    -1517.52704460    0.00000000
                                                     2       55.7082801     -316.53065290    0.00000000
                                                     2       12.0464544      -91.88809410    0.00000000
                                                     2        3.5120610       -9.22417730    0.00000000
                                      S - G
                                                     0      188.0490770        3.15780140    0.00000000
                                                     1      340.4194712       26.83225770    0.00000000
                                                     2      128.2373673      800.42500070    0.00000000
                                                     2       33.8644961      369.40506830    0.00000000
                                                     2        4.7560005      242.41718990    0.00000000
                                                     2        3.9649974     -118.21732820    0.00000000
                                      P - G
                                                     0      289.7291139        2.15780140    0.00000000
                                                     1       87.4633789       61.96786100    0.00000000
                                                     2       30.4363766      269.05819860    0.00000000
                                                     2        4.0553412      231.16547930    0.00000000
                                                     2        3.5525341     -133.69526670    0.00000000
                                      D - G
                                                     0      136.4017106        3.15780140    0.00000000
                                                     1       95.0776925       45.93498030    0.00000000
                                                     2       49.2258410      359.03446680    0.00000000
                                                     2       15.0874145      176.47401190    0.00000000
                                                     2        4.0405764       54.51552860    0.00000000
                                      F - G
                                                     0      127.3507908        3.95461970    0.00000000
                                                     1       66.2364374       52.97736550    0.00000000
                                                     2       34.4299229      274.86433830    0.00000000
                                                     2       10.1995721      137.20473380    0.00000000
                                                     2        2.5409702       14.86333050    0.00000000
   18          8
                                   No pseudopotential on this center.
   19          8
                                   No pseudopotential on this center.
   20          8
                                   No pseudopotential on this center.
   21          5
                                   No pseudopotential on this center.
   22          5
                                   No pseudopotential on this center.
   23          5
                                   No pseudopotential on this center.
   24          8
                                   No pseudopotential on this center.
   25          8
                                   No pseudopotential on this center.
   26          6
                                   No pseudopotential on this center.
   27          6
                                   No pseudopotential on this center.
   28          6
                                   No pseudopotential on this center.
   29          6
                                   No pseudopotential on this center.
   30          6
                                   No pseudopotential on this center.
   31          6
                                   No pseudopotential on this center.
   32          8
                                   No pseudopotential on this center.
   33          6
                                   No pseudopotential on this center.
   34          1
                                   No pseudopotential on this center.
   35          1
                                   No pseudopotential on this center.
   36          1
                                   No pseudopotential on this center.
   37          6
                                   No pseudopotential on this center.
   38          1
                                   No pseudopotential on this center.
   39          1
                                   No pseudopotential on this center.
   40          1
                                   No pseudopotential on this center.
   41          6
                                   No pseudopotential on this center.
   42          1
                                   No pseudopotential on this center.
   43          1
                                   No pseudopotential on this center.
   44          1
                                   No pseudopotential on this center.
   45          6
                                   No pseudopotential on this center.
   46          1
                                   No pseudopotential on this center.
   47          1
                                   No pseudopotential on this center.
   48          1
                                   No pseudopotential on this center.
   49          6
                                   No pseudopotential on this center.
   50          1
                                   No pseudopotential on this center.
   51          1
                                   No pseudopotential on this center.
   52          1
                                   No pseudopotential on this center.
   53          6
                                   No pseudopotential on this center.
   54          1
                                   No pseudopotential on this center.
   55          1
                                   No pseudopotential on this center.
   56          1
                                   No pseudopotential on this center.
   57          6
                                   No pseudopotential on this center.
   58          1
                                   No pseudopotential on this center.
   59          1
                                   No pseudopotential on this center.
   60          1
                                   No pseudopotential on this center.
   61          6
                                   No pseudopotential on this center.
   62          1
                                   No pseudopotential on this center.
   63          1
                                   No pseudopotential on this center.
   64          1
                                   No pseudopotential on this center.
   65          6
                                   No pseudopotential on this center.
   66          1
                                   No pseudopotential on this center.
   67          1
                                   No pseudopotential on this center.
   68          1
                                   No pseudopotential on this center.
   69          6
                                   No pseudopotential on this center.
   70          1
                                   No pseudopotential on this center.
   71          1
                                   No pseudopotential on this center.
   72          1
                                   No pseudopotential on this center.
   73          6
                                   No pseudopotential on this center.
   74          1
                                   No pseudopotential on this center.
   75          1
                                   No pseudopotential on this center.
   76          1
                                   No pseudopotential on this center.
   77          6
                                   No pseudopotential on this center.
   78          1
                                   No pseudopotential on this center.
   79          1
                                   No pseudopotential on this center.
   80          1
                                   No pseudopotential on this center.
   81          1
                                   No pseudopotential on this center.
   82          6
                                   No pseudopotential on this center.
   83          6
                                   No pseudopotential on this center.
   84          6
                                   No pseudopotential on this center.
   85          6
                                   No pseudopotential on this center.
   86          1
                                   No pseudopotential on this center.
   87          6
                                   No pseudopotential on this center.
   88          6
                                   No pseudopotential on this center.
   89          1
                                   No pseudopotential on this center.
   90          1
                                   No pseudopotential on this center.
   91          1
                                   No pseudopotential on this center.
   92          1
                                   No pseudopotential on this center.
   93          6
                                   No pseudopotential on this center.
   94          8
                                   No pseudopotential on this center.
   95          7
                                   No pseudopotential on this center.
   96          6
                                   No pseudopotential on this center.
   97          1
                                   No pseudopotential on this center.
   98          1
                                   No pseudopotential on this center.
   99          1
                                   No pseudopotential on this center.
  100          6
                                   No pseudopotential on this center.
  101          1
                                   No pseudopotential on this center.
  102          1
                                   No pseudopotential on this center.
  103          1
                                   No pseudopotential on this center.
  104          1
                                   No pseudopotential on this center.
  105          6
                                   No pseudopotential on this center.
  106          9
                                   No pseudopotential on this center.
  107          9
                                   No pseudopotential on this center.
  108          9
                                   No pseudopotential on this center.
  109          1
                                   No pseudopotential on this center.
 ======================================================================================================
 There are   942 symmetry adapted cartesian basis functions of A   symmetry.
 There are   886 symmetry adapted basis functions of A   symmetry.
   886 basis functions,  1771 primitive gaussians,   942 cartesian basis functions
   209 alpha electrons      209 beta electrons
       nuclear repulsion energy      9195.8427831746 Hartrees.
 NAtoms=  109 NActive=  109 NUniq=  109 SFac= 1.00D+00 NAtFMM=   60 NAOKFM=T Big=T
 Integral buffers will be    131072 words long.
 Raffenetti 2 integral format.
 Two-electron integral symmetry is turned on.
 One-electron integrals computed using PRISM.
   1 Symmetry operations used in ECPInt.
 ECPInt:  NShTT=   55278 NPrTT=  342696 LenC2=   39934 LenP2D=  123406.
 LDataN:  DoStor=T MaxTD1= 6 Len=  172
 NBasis=   886 RedAO= T EigKep=  4.60D-04  NBF=   886
 NBsUse=   886 1.00D-06 EigRej= -1.00D+00 NBFU=   886
 Defaulting to unpruned grid for atomic number  77.
 ExpMin= 2.90D-02 ExpMax= 7.00D+03 ExpMxC= 1.05D+03 IAcc=3 IRadAn=         5 AccDes= 0.00D+00
 Harris functional with IExCor= 1009 and IRadAn=       5 diagonalized for initial guess.
 HarFok:  IExCor= 1009 AccDes= 0.00D+00 IRadAn=         5 IDoV= 1 UseB2=F ITyADJ=14
 ICtDFT=  3500011 ScaDFX=  1.000000  1.000000  1.000000  1.000000
 Defaulting to unpruned grid for atomic number  77.
 FoFCou: FMM=F IPFlag=           0 FMFlag=      100000 FMFlg1=        2001
         NFxFlg=           0 DoJE=T BraDBF=F KetDBF=T FulRan=T
         wScrn=  0.000000 ICntrl=       500 IOpCl=  0 I1Cent=   200000004 NGrid=           0
         NMat0=    1 NMatS0=      1 NMatT0=    0 NMatD0=    1 NMtDS0=    0 NMtDT0=    0
 Petite list used in FoFCou.
 Requested convergence on RMS density matrix=1.00D-08 within 128 cycles.
 Requested convergence on MAX density matrix=1.00D-06.
 Requested convergence on             energy=1.00D-06.
 No special actions if energy rises.
 Defaulting to unpruned grid for atomic number  77.
 Defaulting to unpruned grid for atomic number  77.
 Defaulting to unpruned grid for atomic number  77.
 Defaulting to unpruned grid for atomic number  77.
 Defaulting to unpruned grid for atomic number  77.
 Defaulting to unpruned grid for atomic number  77.
 Defaulting to unpruned grid for atomic number  77.
 Defaulting to unpruned grid for atomic number  77.
 Defaulting to unpruned grid for atomic number  77.
 Defaulting to unpruned grid for atomic number  77.
 Defaulting to unpruned grid for atomic number  77.
 Defaulting to unpruned grid for atomic number  77.
 Defaulting to unpruned grid for atomic number  77.
 Defaulting to unpruned grid for atomic number  77.
 Defaulting to unpruned grid for atomic number  77.
 Defaulting to unpruned grid for atomic number  77.
 SCF Done:  E(RM06) =  -2648.89229555     A.U. after   15 cycles
            NFock= 15  Conv=0.53D-08     -V/T= 2.0341
 DoSCS=F DFT=T ScalE2(SS,OS)=  1.000000  1.000000
 Range of M.O.s used for correlation:     1   886
 NBasis=   886 NAE=   209 NBE=   209 NFC=     0 NFV=     0
 NROrb=    886 NOA=   209 NOB=   209 NVA=   677 NVB=   677

 **** Warning!!: The largest alpha MO coefficient is  0.12446701D+02

   1 Symmetry operations used in ECPInt.
 ECPInt:  NShTT=   55278 NPrTT=  342696 LenC2=   39934 LenP2D=  123406.
 LDataN:  DoStor=T MaxTD1= 7 Len=  274
 Number of processors reduced to   7 by ecpmxn.
 Symmetrizing basis deriv contribution to polar:
 IMax=3 JMax=2 DiffMx= 0.00D+00
 G2DrvN: will do   110 centers at a time, making    1 passes.
 Calling FoFCou, ICntrl=  3107 FMM=T I1Cent=   0 AccDes= 0.00D+00.
 Defaulting to unpruned grid for atomic number  77.
 Defaulting to unpruned grid for atomic number  77.
 Defaulting to unpruned grid for atomic number  77.
 Defaulting to unpruned grid for atomic number  77.
 Defaulting to unpruned grid for atomic number  77.
 Defaulting to unpruned grid for atomic number  77.
 Defaulting to unpruned grid for atomic number  77.
 Defaulting to unpruned grid for atomic number  77.
 Defaulting to unpruned grid for atomic number  77.
 Defaulting to unpruned grid for atomic number  77.
 Defaulting to unpruned grid for atomic number  77.
 Defaulting to unpruned grid for atomic number  77.
 Defaulting to unpruned grid for atomic number  77.
 Defaulting to unpruned grid for atomic number  77.
 Defaulting to unpruned grid for atomic number  77.
 Defaulting to unpruned grid for atomic number  77.
 End of G2Drv F.D. properties file   721 does not exist.
 End of G2Drv F.D. properties file   722 does not exist.
 End of G2Drv F.D. properties file   788 does not exist.
          IDoAtm=11111111111111111111111111111111111111111111111111
          IDoAtm=11111111111111111111111111111111111111111111111111
          IDoAtm=111111111
          Differentiating once with respect to electric field.
                with respect to dipole field.
          Differentiating once with respect to nuclear coordinates.
 Defaulting to unpruned grid for atomic number  77.
 CalDSu exits because no D1Ps are significant.
 Defaulting to unpruned grid for atomic number  77.
 Defaulting to unpruned grid for atomic number  77.
 Defaulting to unpruned grid for atomic number  77.
 Defaulting to unpruned grid for atomic number  77.
 Defaulting to unpruned grid for atomic number  77.
 Defaulting to unpruned grid for atomic number  77.
 Defaulting to unpruned grid for atomic number  77.
 Defaulting to unpruned grid for atomic number  77.
 Defaulting to unpruned grid for atomic number  77.
 Defaulting to unpruned grid for atomic number  77.
 Defaulting to unpruned grid for atomic number  77.
 Defaulting to unpruned grid for atomic number  77.
 Defaulting to unpruned grid for atomic number  77.
 Defaulting to unpruned grid for atomic number  77.
 Defaulting to unpruned grid for atomic number  77.
 Defaulting to unpruned grid for atomic number  77.
          There are   330 degrees of freedom in the 1st order CPHF.  IDoFFX=6 NUNeed=     3.
    327 vectors produced by pass  0 Test12= 1.41D-13 1.00D-09 XBig12= 5.15D+02 9.46D+00.
 AX will form    72 AO Fock derivatives at one time.
    327 vectors produced by pass  1 Test12= 1.41D-13 1.00D-09 XBig12= 1.00D+02 1.48D+00.
    327 vectors produced by pass  2 Test12= 1.41D-13 1.00D-09 XBig12= 1.13D+00 9.74D-02.
    327 vectors produced by pass  3 Test12= 1.41D-13 1.00D-09 XBig12= 7.27D-03 6.39D-03.
    327 vectors produced by pass  4 Test12= 1.41D-13 1.00D-09 XBig12= 2.57D-05 3.55D-04.
    295 vectors produced by pass  5 Test12= 1.41D-13 1.00D-09 XBig12= 5.58D-08 1.53D-05.
     88 vectors produced by pass  6 Test12= 1.41D-13 1.00D-09 XBig12= 8.97D-11 6.65D-07.
      3 vectors produced by pass  7 Test12= 1.41D-13 1.00D-09 XBig12= 1.31D-13 2.15D-08.
      1 vectors produced by pass  8 Test12= 1.41D-13 1.00D-09 XBig12= 1.91D-16 1.20D-09.
 InvSVY:  IOpt=1 It=  1 EMax= 1.42D-14
 Solved reduced A of dimension  2022 with   330 vectors.
 Isotropic polarizability for W=    0.000000      522.52 Bohr**3.
 End of Minotr F.D. properties file   721 does not exist.
 End of Minotr F.D. properties file   722 does not exist.
 End of Minotr F.D. properties file   788 does not exist.
 Hyperfine terms turned off by default for NAtoms > 100.

 **********************************************************************

            Population analysis using the SCF Density.

 **********************************************************************

 Orbital symmetries:
       Occupied  (A) (A) (A) (A) (A) (A) (A) (A) (A) (A) (A) (A)
                 (A) (A) (A) (A) (A) (A) (A) (A) (A) (A) (A) (A)
                 (A) (A) (A) (A) (A) (A) (A) (A) (A) (A) (A) (A)
                 (A) (A) (A) (A) (A) (A) (A) (A) (A) (A) (A) (A)
                 (A) (A) (A) (A) (A) (A) (A) (A) (A) (A) (A) (A)
                 (A) (A) (A) (A) (A) (A) (A) (A) (A) (A) (A) (A)
                 (A) (A) (A) (A) (A) (A) (A) (A) (A) (A) (A) (A)
                 (A) (A) (A) (A) (A) (A) (A) (A) (A) (A) (A) (A)
                 (A) (A) (A) (A) (A) (A) (A) (A) (A) (A) (A) (A)
                 (A) (A) (A) (A) (A) (A) (A) (A) (A) (A) (A) (A)
                 (A) (A) (A) (A) (A) (A) (A) (A) (A) (A) (A) (A)
                 (A) (A) (A) (A) (A) (A) (A) (A) (A) (A) (A) (A)
                 (A) (A) (A) (A) (A) (A) (A) (A) (A) (A) (A) (A)
                 (A) (A) (A) (A) (A) (A) (A) (A) (A) (A) (A) (A)
                 (A) (A) (A) (A) (A) (A) (A) (A) (A) (A) (A) (A)
                 (A) (A) (A) (A) (A) (A) (A) (A) (A) (A) (A) (A)
                 (A) (A) (A) (A) (A) (A) (A) (A) (A) (A) (A) (A)
                 (A) (A) (A) (A) (A)
       Virtual   (A) (A) (A) (A) (A) (A) (A) (A) (A) (A) (A) (A)
                 (A) (A) (A) (A) (A) (A) (A) (A) (A) (A) (A) (A)
                 (A) (A) (A) (A) (A) (A) (A) (A) (A) (A) (A) (A)
                 (A) (A) (A) (A) (A) (A) (A) (A) (A) (A) (A) (A)
                 (A) (A) (A) (A) (A) (A) (A) (A) (A) (A) (A) (A)
                 (A) (A) (A) (A) (A) (A) (A) (A) (A) (A) (A) (A)
                 (A) (A) (A) (A) (A) (A) (A) (A) (A) (A) (A) (A)
                 (A) (A) (A) (A) (A) (A) (A) (A) (A) (A) (A) (A)
                 (A) (A) (A) (A) (A) (A) (A) (A) (A) (A) (A) (A)
                 (A) (A) (A) (A) (A) (A) (A) (A) (A) (A) (A) (A)
                 (A) (A) (A) (A) (A) (A) (A) (A) (A) (A) (A) (A)
                 (A) (A) (A) (A) (A) (A) (A) (A) (A) (A) (A) (A)
                 (A) (A) (A) (A) (A) (A) (A) (A) (A) (A) (A) (A)
                 (A) (A) (A) (A) (A) (A) (A) (A) (A) (A) (A) (A)
                 (A) (A) (A) (A) (A) (A) (A) (A) (A) (A) (A) (A)
                 (A) (A) (A) (A) (A) (A) (A) (A) (A) (A) (A) (A)
                 (A) (A) (A) (A) (A) (A) (A) (A) (A) (A) (A) (A)
                 (A) (A) (A) (A) (A) (A) (A) (A) (A) (A) (A) (A)
                 (A) (A) (A) (A) (A) (A) (A) (A) (A) (A) (A) (A)
                 (A) (A) (A) (A) (A) (A) (A) (A) (A) (A) (A) (A)
                 (A) (A) (A) (A) (A) (A) (A) (A) (A) (A) (A) (A)
                 (A) (A) (A) (A) (A) (A) (A) (A) (A) (A) (A) (A)
                 (A) (A) (A) (A) (A) (A) (A) (A) (A) (A) (A) (A)
                 (A) (A) (A) (A) (A) (A) (A) (A) (A) (A) (A) (A)
                 (A) (A) (A) (A) (A) (A) (A) (A) (A) (A) (A) (A)
                 (A) (A) (A) (A) (A) (A) (A) (A) (A) (A) (A) (A)
                 (A) (A) (A) (A) (A) (A) (A) (A) (A) (A) (A) (A)
                 (A) (A) (A) (A) (A) (A) (A) (A) (A) (A) (A) (A)
                 (A) (A) (A) (A) (A) (A) (A) (A) (A) (A) (A) (A)
                 (A) (A) (A) (A) (A) (A) (A) (A) (A) (A) (A) (A)
                 (A) (A) (A) (A) (A) (A) (A) (A) (A) (A) (A) (A)
                 (A) (A) (A) (A) (A) (A) (A) (A) (A) (A) (A) (A)
                 (A) (A) (A) (A) (A) (A) (A) (A) (A) (A) (A) (A)
                 (A) (A) (A) (A) (A) (A) (A) (A) (A) (A) (A) (A)
                 (A) (A) (A) (A) (A) (A) (A) (A) (A) (A) (A) (A)
                 (A) (A) (A) (A) (A) (A) (A) (A) (A) (A) (A) (A)
                 (A) (A) (A) (A) (A) (A) (A) (A) (A) (A) (A) (A)
                 (A) (A) (A) (A) (A) (A) (A) (A) (A) (A) (A) (A)
                 (A) (A) (A) (A) (A) (A) (A) (A) (A) (A) (A) (A)
                 (A) (A) (A) (A) (A) (A) (A) (A) (A) (A) (A) (A)
                 (A) (A) (A) (A) (A) (A) (A) (A) (A) (A) (A) (A)
                 (A) (A) (A) (A) (A) (A) (A) (A) (A) (A) (A) (A)
                 (A) (A) (A) (A) (A) (A) (A) (A) (A) (A) (A) (A)
                 (A) (A) (A) (A) (A) (A) (A) (A) (A) (A) (A) (A)
                 (A) (A) (A) (A) (A) (A) (A) (A) (A) (A) (A) (A)
                 (A) (A) (A) (A) (A) (A) (A) (A) (A) (A) (A) (A)
                 (A) (A) (A) (A) (A) (A) (A) (A) (A) (A) (A) (A)
                 (A) (A) (A) (A) (A) (A) (A) (A) (A) (A) (A) (A)
                 (A) (A) (A) (A) (A) (A) (A) (A) (A) (A) (A) (A)
                 (A) (A) (A) (A) (A) (A) (A) (A) (A) (A) (A) (A)
                 (A) (A) (A) (A) (A) (A) (A) (A) (A) (A) (A) (A)
                 (A) (A) (A) (A) (A) (A) (A) (A) (A) (A) (A) (A)
                 (A) (A) (A) (A) (A) (A) (A) (A) (A) (A) (A) (A)
                 (A) (A) (A) (A) (A) (A) (A) (A) (A) (A) (A) (A)
                 (A) (A) (A) (A) (A) (A) (A) (A) (A) (A) (A) (A)
                 (A) (A) (A) (A) (A) (A) (A) (A) (A) (A) (A) (A)
                 (A) (A) (A) (A) (A)
 The electronic state is 1-A.
 Alpha  occ. eigenvalues --  -24.83799 -24.83670 -24.83638 -19.20911 -19.20768
 Alpha  occ. eigenvalues --  -19.20650 -19.20389 -19.20200 -19.19344 -19.17436
 Alpha  occ. eigenvalues --  -14.45313 -14.44852 -14.41574 -10.52375 -10.33763
 Alpha  occ. eigenvalues --  -10.33295 -10.32462 -10.30982 -10.30516 -10.30091
 Alpha  occ. eigenvalues --  -10.30046 -10.29817 -10.29690 -10.29593 -10.29506
 Alpha  occ. eigenvalues --  -10.29058 -10.28915 -10.28724 -10.28541 -10.28117
 Alpha  occ. eigenvalues --  -10.27837 -10.27050 -10.25899 -10.24644 -10.24029
 Alpha  occ. eigenvalues --  -10.23925 -10.23341 -10.23331 -10.23316 -10.23180
 Alpha  occ. eigenvalues --  -10.23172 -10.23171 -10.23126 -10.22831 -10.22696
 Alpha  occ. eigenvalues --  -10.22579 -10.22309 -10.22227 -10.22206 -10.22204
 Alpha  occ. eigenvalues --  -10.21321  -6.80999  -6.80079  -6.79243  -3.63520
 Alpha  occ. eigenvalues --   -2.06041  -2.05849  -2.04467  -1.36683  -1.27995
 Alpha  occ. eigenvalues --   -1.27699  -1.06740  -1.06514  -1.05798  -1.03469
 Alpha  occ. eigenvalues --   -1.00598  -0.99670  -0.99659  -0.98808  -0.97986
 Alpha  occ. eigenvalues --   -0.93364  -0.86471  -0.84828  -0.83967  -0.83629
 Alpha  occ. eigenvalues --   -0.80854  -0.80678  -0.79978  -0.79029  -0.75290
 Alpha  occ. eigenvalues --   -0.75266  -0.75157  -0.74402  -0.74327  -0.73751
 Alpha  occ. eigenvalues --   -0.71676  -0.70885  -0.70586  -0.69973  -0.69480
 Alpha  occ. eigenvalues --   -0.68681  -0.68381  -0.68085  -0.67868  -0.67195
 Alpha  occ. eigenvalues --   -0.65695  -0.64714  -0.62688  -0.62289  -0.62220
 Alpha  occ. eigenvalues --   -0.61695  -0.61170  -0.60775  -0.60481  -0.59448
 Alpha  occ. eigenvalues --   -0.56675  -0.55112  -0.55020  -0.54455  -0.54214
 Alpha  occ. eigenvalues --   -0.54152  -0.53869  -0.53441  -0.52972  -0.52811
 Alpha  occ. eigenvalues --   -0.51776  -0.51078  -0.50375  -0.50157  -0.49117
 Alpha  occ. eigenvalues --   -0.48283  -0.47691  -0.47424  -0.47245  -0.47136
 Alpha  occ. eigenvalues --   -0.46801  -0.46782  -0.46702  -0.46615  -0.46453
 Alpha  occ. eigenvalues --   -0.46019  -0.45802  -0.45603  -0.45079  -0.44885
 Alpha  occ. eigenvalues --   -0.44699  -0.44514  -0.44274  -0.44089  -0.44022
 Alpha  occ. eigenvalues --   -0.43899  -0.43822  -0.43563  -0.43150  -0.42986
 Alpha  occ. eigenvalues --   -0.42628  -0.41523  -0.40942  -0.40877  -0.40543
 Alpha  occ. eigenvalues --   -0.40376  -0.40298  -0.40094  -0.40084  -0.40018
 Alpha  occ. eigenvalues --   -0.39908  -0.39712  -0.39586  -0.39498  -0.39475
 Alpha  occ. eigenvalues --   -0.39377  -0.38918  -0.38710  -0.38451  -0.38308
 Alpha  occ. eigenvalues --   -0.37937  -0.37868  -0.37482  -0.37136  -0.37019
 Alpha  occ. eigenvalues --   -0.36943  -0.36835  -0.36455  -0.36275  -0.36146
 Alpha  occ. eigenvalues --   -0.36063  -0.35518  -0.35414  -0.35214  -0.35147
 Alpha  occ. eigenvalues --   -0.34454  -0.34430  -0.33821  -0.33446  -0.33051
 Alpha  occ. eigenvalues --   -0.32662  -0.32480  -0.32209  -0.32163  -0.31824
 Alpha  occ. eigenvalues --   -0.31397  -0.31289  -0.30786  -0.30305  -0.29932
 Alpha  occ. eigenvalues --   -0.29773  -0.27921  -0.27607  -0.26802  -0.26438
 Alpha  occ. eigenvalues --   -0.26128  -0.25494  -0.25237  -0.24366  -0.23716
 Alpha  occ. eigenvalues --   -0.23195  -0.22667  -0.22331  -0.21207
 Alpha virt. eigenvalues --   -0.07571  -0.05043  -0.03450  -0.00824   0.00383
 Alpha virt. eigenvalues --    0.02056   0.03128   0.04511   0.05562   0.06604
 Alpha virt. eigenvalues --    0.06888   0.07247   0.07813   0.08900   0.09268
 Alpha virt. eigenvalues --    0.09769   0.09877   0.10135   0.10479   0.10748
 Alpha virt. eigenvalues --    0.11154   0.11366   0.11677   0.12392   0.12724
 Alpha virt. eigenvalues --    0.13128   0.13177   0.13553   0.13924   0.14103
 Alpha virt. eigenvalues --    0.14457   0.14808   0.14878   0.15035   0.15354
 Alpha virt. eigenvalues --    0.15453   0.15547   0.15765   0.15958   0.16006
 Alpha virt. eigenvalues --    0.16194   0.16440   0.16603   0.16824   0.16904
 Alpha virt. eigenvalues --    0.17010   0.17196   0.17467   0.17623   0.17697
 Alpha virt. eigenvalues --    0.18098   0.18160   0.18363   0.18536   0.18686
 Alpha virt. eigenvalues --    0.19079   0.19172   0.19327   0.19463   0.19828
 Alpha virt. eigenvalues --    0.19880   0.20018   0.20230   0.20432   0.20624
 Alpha virt. eigenvalues --    0.20699   0.20779   0.20888   0.21145   0.21381
 Alpha virt. eigenvalues --    0.22129   0.22208   0.22319   0.22607   0.23037
 Alpha virt. eigenvalues --    0.23388   0.23650   0.23810   0.24017   0.24088
 Alpha virt. eigenvalues --    0.24262   0.24362   0.24576   0.24893   0.25111
 Alpha virt. eigenvalues --    0.25150   0.25598   0.25935   0.26476   0.26770
 Alpha virt. eigenvalues --    0.26797   0.27111   0.27376   0.27760   0.28082
 Alpha virt. eigenvalues --    0.28449   0.28719   0.29577   0.30201   0.30525
 Alpha virt. eigenvalues --    0.30894   0.31232   0.31367   0.32361   0.32738
 Alpha virt. eigenvalues --    0.33088   0.33363   0.33487   0.34009   0.34077
 Alpha virt. eigenvalues --    0.34399   0.35120   0.35780   0.35951   0.36414
 Alpha virt. eigenvalues --    0.36982   0.38037   0.38886   0.40113   0.40579
 Alpha virt. eigenvalues --    0.41067   0.41417   0.43412   0.44668   0.44900
 Alpha virt. eigenvalues --    0.46398   0.47119   0.48004   0.48283   0.48659
 Alpha virt. eigenvalues --    0.49056   0.49415   0.49709   0.50040   0.50418
 Alpha virt. eigenvalues --    0.50680   0.51058   0.51344   0.51641   0.52157
 Alpha virt. eigenvalues --    0.52325   0.52573   0.52803   0.52936   0.53842
 Alpha virt. eigenvalues --    0.54046   0.54768   0.55133   0.55444   0.55539
 Alpha virt. eigenvalues --    0.55928   0.56243   0.56452   0.56517   0.56977
 Alpha virt. eigenvalues --    0.57289   0.57414   0.57666   0.58023   0.58384
 Alpha virt. eigenvalues --    0.58566   0.58774   0.58801   0.58966   0.59266
 Alpha virt. eigenvalues --    0.59322   0.59534   0.59650   0.60057   0.60155
 Alpha virt. eigenvalues --    0.60326   0.60642   0.60729   0.61042   0.61456
 Alpha virt. eigenvalues --    0.61883   0.62060   0.62579   0.63240   0.63701
 Alpha virt. eigenvalues --    0.64037   0.64123   0.64301   0.64585   0.64906
 Alpha virt. eigenvalues --    0.65379   0.65671   0.66071   0.66428   0.66645
 Alpha virt. eigenvalues --    0.67266   0.67594   0.67906   0.68421   0.68658
 Alpha virt. eigenvalues --    0.68733   0.69845   0.70021   0.70182   0.70596
 Alpha virt. eigenvalues --    0.70922   0.71405   0.71786   0.71853   0.72170
 Alpha virt. eigenvalues --    0.72536   0.72712   0.72904   0.73152   0.73811
 Alpha virt. eigenvalues --    0.74022   0.74205   0.74452   0.75232   0.75383
 Alpha virt. eigenvalues --    0.75654   0.75997   0.76240   0.76399   0.76967
 Alpha virt. eigenvalues --    0.77313   0.77477   0.77696   0.78530   0.78566
 Alpha virt. eigenvalues --    0.78811   0.79127   0.79269   0.79661   0.79917
 Alpha virt. eigenvalues --    0.80572   0.81003   0.81241   0.81673   0.82319
 Alpha virt. eigenvalues --    0.82557   0.83054   0.83350   0.83415   0.83680
 Alpha virt. eigenvalues --    0.83914   0.83956   0.84174   0.84450   0.84670
 Alpha virt. eigenvalues --    0.84959   0.85292   0.85418   0.85927   0.85990
 Alpha virt. eigenvalues --    0.86222   0.86341   0.86733   0.87002   0.87406
 Alpha virt. eigenvalues --    0.87796   0.87850   0.88038   0.88609   0.88644
 Alpha virt. eigenvalues --    0.88964   0.89146   0.89414   0.89487   0.89805
 Alpha virt. eigenvalues --    0.90030   0.90233   0.90727   0.90867   0.91106
 Alpha virt. eigenvalues --    0.91672   0.91747   0.91872   0.92070   0.92233
 Alpha virt. eigenvalues --    0.92605   0.92684   0.93066   0.93633   0.94227
 Alpha virt. eigenvalues --    0.94248   0.94359   0.94950   0.95128   0.95557
 Alpha virt. eigenvalues --    0.95788   0.96078   0.96446   0.96472   0.96855
 Alpha virt. eigenvalues --    0.97388   0.97548   0.98066   0.98258   0.98450
 Alpha virt. eigenvalues --    0.98652   0.99157   1.00129   1.00421   1.00775
 Alpha virt. eigenvalues --    1.01362   1.01498   1.02125   1.02777   1.03001
 Alpha virt. eigenvalues --    1.03350   1.03649   1.04317   1.04600   1.04933
 Alpha virt. eigenvalues --    1.05393   1.05589   1.06056   1.07087   1.07661
 Alpha virt. eigenvalues --    1.08108   1.08630   1.08910   1.09592   1.09804
 Alpha virt. eigenvalues --    1.10358   1.11373   1.11991   1.12750   1.13357
 Alpha virt. eigenvalues --    1.14338   1.14720   1.15185   1.15546   1.16143
 Alpha virt. eigenvalues --    1.16849   1.17214   1.17471   1.17688   1.18233
 Alpha virt. eigenvalues --    1.18748   1.19376   1.19554   1.19698   1.20050
 Alpha virt. eigenvalues --    1.20476   1.21445   1.21862   1.22412   1.22742
 Alpha virt. eigenvalues --    1.23392   1.23938   1.24293   1.25232   1.25644
 Alpha virt. eigenvalues --    1.26451   1.26890   1.27534   1.27741   1.28755
 Alpha virt. eigenvalues --    1.28914   1.29756   1.30878   1.30999   1.31973
 Alpha virt. eigenvalues --    1.32395   1.33284   1.33565   1.34109   1.34312
 Alpha virt. eigenvalues --    1.35258   1.35766   1.36294   1.36783   1.37091
 Alpha virt. eigenvalues --    1.37686   1.38203   1.38850   1.39363   1.39831
 Alpha virt. eigenvalues --    1.40026   1.40186   1.41147   1.41960   1.42377
 Alpha virt. eigenvalues --    1.43066   1.43220   1.43810   1.44370   1.44641
 Alpha virt. eigenvalues --    1.44969   1.45623   1.45782   1.46130   1.46579
 Alpha virt. eigenvalues --    1.46959   1.47637   1.47988   1.48418   1.49206
 Alpha virt. eigenvalues --    1.49477   1.50070   1.50355   1.50855   1.51695
 Alpha virt. eigenvalues --    1.52036   1.52354   1.53125   1.53519   1.54630
 Alpha virt. eigenvalues --    1.55033   1.55989   1.56595   1.57239   1.58120
 Alpha virt. eigenvalues --    1.58819   1.59242   1.59931   1.60978   1.61770
 Alpha virt. eigenvalues --    1.62959   1.63595   1.64078   1.64673   1.65141
 Alpha virt. eigenvalues --    1.65714   1.66025   1.66325   1.67198   1.68528
 Alpha virt. eigenvalues --    1.68675   1.69269   1.70343   1.70671   1.71243
 Alpha virt. eigenvalues --    1.71654   1.72257   1.73012   1.73844   1.74804
 Alpha virt. eigenvalues --    1.75623   1.76264   1.77247   1.77584   1.77815
 Alpha virt. eigenvalues --    1.78177   1.78548   1.78685   1.79996   1.80263
 Alpha virt. eigenvalues --    1.80589   1.80731   1.81291   1.81361   1.81521
 Alpha virt. eigenvalues --    1.82213   1.83205   1.83539   1.83863   1.84329
 Alpha virt. eigenvalues --    1.84989   1.85258   1.85933   1.86170   1.86704
 Alpha virt. eigenvalues --    1.86921   1.87362   1.87659   1.88196   1.88670
 Alpha virt. eigenvalues --    1.88890   1.89249   1.89370   1.89755   1.90778
 Alpha virt. eigenvalues --    1.90895   1.91523   1.91583   1.92011   1.92254
 Alpha virt. eigenvalues --    1.92362   1.92507   1.92931   1.93281   1.93424
 Alpha virt. eigenvalues --    1.93783   1.93932   1.94317   1.94973   1.95207
 Alpha virt. eigenvalues --    1.95604   1.96863   1.96947   1.97439   1.97787
 Alpha virt. eigenvalues --    1.98388   1.98633   1.99400   2.00041   2.00574
 Alpha virt. eigenvalues --    2.00687   2.01463   2.01597   2.02211   2.02612
 Alpha virt. eigenvalues --    2.02788   2.03216   2.03806   2.03976   2.04322
 Alpha virt. eigenvalues --    2.04754   2.05366   2.05481   2.06170   2.06212
 Alpha virt. eigenvalues --    2.06764   2.07207   2.07697   2.07828   2.08364
 Alpha virt. eigenvalues --    2.08521   2.09397   2.09552   2.09858   2.10075
 Alpha virt. eigenvalues --    2.10511   2.10844   2.11287   2.11450   2.12049
 Alpha virt. eigenvalues --    2.12237   2.13229   2.13566   2.13753   2.14235
 Alpha virt. eigenvalues --    2.14648   2.14817   2.15176   2.15463   2.15806
 Alpha virt. eigenvalues --    2.15924   2.16316   2.16428   2.17051   2.17515
 Alpha virt. eigenvalues --    2.17623   2.18271   2.18669   2.18788   2.19354
 Alpha virt. eigenvalues --    2.19550   2.19657   2.20282   2.20791   2.20901
 Alpha virt. eigenvalues --    2.21313   2.21841   2.22085   2.22679   2.23295
 Alpha virt. eigenvalues --    2.23329   2.23734   2.23939   2.24883   2.25486
 Alpha virt. eigenvalues --    2.25898   2.26564   2.26724   2.27334   2.27618
 Alpha virt. eigenvalues --    2.28103   2.28690   2.29478   2.29905   2.30076
 Alpha virt. eigenvalues --    2.30448   2.31717   2.31908   2.32000   2.32400
 Alpha virt. eigenvalues --    2.32730   2.33334   2.33854   2.34491   2.35010
 Alpha virt. eigenvalues --    2.35384   2.35653   2.35970   2.36847   2.37519
 Alpha virt. eigenvalues --    2.38283   2.39017   2.39417   2.39628   2.40938
 Alpha virt. eigenvalues --    2.41163   2.43007   2.43892   2.44583   2.46144
 Alpha virt. eigenvalues --    2.47536   2.48048   2.48839   2.49350   2.49670
 Alpha virt. eigenvalues --    2.50376   2.51620   2.52110   2.52469   2.52930
 Alpha virt. eigenvalues --    2.53651   2.56030   2.57074   2.57614   2.58827
 Alpha virt. eigenvalues --    2.59666   2.60069   2.60460   2.60761   2.62177
 Alpha virt. eigenvalues --    2.62954   2.63844   2.64693   2.64906   2.65072
 Alpha virt. eigenvalues --    2.65496   2.65787   2.66987   2.67500   2.68118
 Alpha virt. eigenvalues --    2.70791   2.71599   2.72275   2.74578   2.77347
 Alpha virt. eigenvalues --    2.77662   2.77836   2.78379   2.78974   2.79043
 Alpha virt. eigenvalues --    2.79696   2.79842   2.80141   2.80597   2.80733
 Alpha virt. eigenvalues --    2.81226   2.81693   2.82070   2.82582   2.83968
 Alpha virt. eigenvalues --    2.84263   2.85306   2.86008   2.86444   2.88468
 Alpha virt. eigenvalues --    2.90517   2.91625   2.92685   2.94121   2.94556
 Alpha virt. eigenvalues --    2.95883   2.96372   2.96856   2.98600   3.01681
 Alpha virt. eigenvalues --    3.03193   3.03322   3.05840   3.06774   3.07373
 Alpha virt. eigenvalues --    3.08319   3.11305   3.12167   3.13117   3.15235
 Alpha virt. eigenvalues --    3.18387   3.20416   3.25544   3.31825   3.39289
 Alpha virt. eigenvalues --    3.43465  14.50614
          Condensed to atoms (all electrons):
 Mulliken charges:
               1
     1  C    0.248867
     2  C    0.051124
     3  C   -0.177422
     4  C   -0.155949
     5  C   -0.094348
     6  C    0.304515
     7  C    0.048453
     8  C   -0.173874
     9  C   -0.141605
    10  C   -0.183495
    11  H    0.201427
    12  H    0.247028
    13  H    0.186672
    14  H    0.188557
    15  N   -0.443722
    16  N   -0.485469
    17  Ir  -0.248922
    18  O   -0.507018
    19  O   -0.524209
    20  O   -0.505069
    21  B    0.512595
    22  B    0.524210
    23  B    0.508818
    24  O   -0.516125
    25  O   -0.545831
    26  C    0.305372
    27  C    0.286481
    28  C    0.289085
    29  C    0.294726
    30  C    0.291492
    31  C    0.298264
    32  O   -0.526424
    33  C   -0.512950
    34  H    0.147622
    35  H    0.166389
    36  H    0.172097
    37  C   -0.497470
    38  H    0.156379
    39  H    0.139259
    40  H    0.185320
    41  C   -0.512955
    42  H    0.164991
    43  H    0.152682
    44  H    0.178110
    45  C   -0.512183
    46  H    0.150421
    47  H    0.162185
    48  H    0.175449
    49  C   -0.501701
    50  H    0.165704
    51  H    0.145854
    52  H    0.187254
    53  C   -0.505717
    54  H    0.153131
    55  H    0.167629
    56  H    0.160882
    57  C   -0.513257
    58  H    0.152258
    59  H    0.162899
    60  H    0.177810
    61  C   -0.512139
    62  H    0.153998
    63  H    0.150966
    64  H    0.186863
    65  C   -0.508023
    66  H    0.169058
    67  H    0.165625
    68  H    0.151829
    69  C   -0.496977
    70  H    0.167600
    71  H    0.152080
    72  H    0.151453
    73  C   -0.504911
    74  H    0.150176
    75  H    0.168357
    76  H    0.161293
    77  C   -0.498852
    78  H    0.165058
    79  H    0.146175
    80  H    0.174893
    81  H    0.133890
    82  C   -0.178176
    83  C   -0.160604
    84  C   -0.118811
    85  C    0.023048
    86  H    0.145229
    87  C   -0.174224
    88  C   -0.159060
    89  H    0.169218
    90  H    0.186826
    91  H    0.255706
    92  H    0.149167
    93  C    0.506049
    94  O   -0.507862
    95  N   -0.402323
    96  C   -0.366668
    97  H    0.213989
    98  H    0.166656
    99  H    0.161828
   100  C   -0.374276
   101  H    0.197781
   102  H    0.167321
   103  H    0.169619
   104  H    0.189389
   105  C    0.977792
   106  F   -0.311577
   107  F   -0.296867
   108  F   -0.313099
   109  H    0.229225
 Sum of Mulliken charges =  -0.00000
 Mulliken charges with hydrogens summed into heavy atoms:
               1
     1  C    0.248867
     2  C    0.280349
     3  C    0.011967
     4  C    0.045478
     5  C   -0.094348
     6  C    0.304515
     7  C    0.295481
     8  C    0.012952
     9  C    0.045067
    10  C    0.005062
    15  N   -0.443722
    16  N   -0.485469
    17  Ir  -0.248922
    18  O   -0.507018
    19  O   -0.524209
    20  O   -0.505069
    21  B    0.512595
    22  B    0.524210
    23  B    0.508818
    24  O   -0.516125
    25  O   -0.545831
    26  C    0.305372
    27  C    0.286481
    28  C    0.289085
    29  C    0.294726
    30  C    0.291492
    31  C    0.298264
    32  O   -0.526424
    33  C   -0.026841
    37  C   -0.016512
    41  C   -0.017172
    45  C   -0.024128
    49  C   -0.002889
    53  C   -0.024076
    57  C   -0.020290
    61  C   -0.020313
    65  C   -0.021511
    69  C   -0.025844
    73  C   -0.025086
    77  C   -0.012726
    82  C   -0.044286
    83  C   -0.015375
    84  C    0.136895
    85  C    0.023048
    87  C   -0.025058
    88  C    0.010157
    93  C    0.506049
    94  O   -0.507862
    95  N   -0.402323
    96  C    0.175805
   100  C    0.160444
   105  C    0.977792
   106  F   -0.311577
   107  F   -0.296867
   108  F   -0.313099
 APT charges:
               1
     1  C    0.271737
     2  C    0.142747
     3  C   -0.099872
     4  C    0.078631
     5  C   -0.272214
     6  C    0.156080
     7  C    0.028827
     8  C   -0.057562
     9  C    0.109005
    10  C   -0.167128
    11  H    0.068366
    12  H    0.150468
    13  H    0.033746
    14  H    0.081456
    15  N   -0.321206
    16  N   -0.144211
    17  Ir  -1.110844
    18  O   -0.954574
    19  O   -1.018550
    20  O   -0.953655
    21  B    1.368123
    22  B    1.287031
    23  B    1.244873
    24  O   -0.956811
    25  O   -1.030764
    26  C    0.524499
    27  C    0.477810
    28  C    0.469940
    29  C    0.451344
    30  C    0.495852
    31  C    0.509227
    32  O   -1.008889
    33  C    0.002925
    34  H   -0.019920
    35  H   -0.006375
    36  H   -0.000883
    37  C   -0.024958
    38  H    0.001067
    39  H   -0.032004
    40  H    0.027078
    41  C   -0.039899
    42  H    0.002975
    43  H   -0.024560
    44  H    0.011650
    45  C   -0.013889
    46  H   -0.018441
    47  H   -0.004749
    48  H    0.009304
    49  C   -0.026804
    50  H   -0.006417
    51  H   -0.028148
    52  H    0.014896
    53  C   -0.009412
    54  H   -0.018727
    55  H    0.002470
    56  H    0.001003
    57  C   -0.008680
    58  H   -0.016397
    59  H   -0.004915
    60  H    0.004289
    61  C   -0.041054
    62  H   -0.005899
    63  H   -0.021541
    64  H    0.026001
    65  C    0.001075
    66  H   -0.000976
    67  H    0.003078
    68  H   -0.019085
    69  C   -0.017439
    70  H   -0.000308
    71  H   -0.021595
    72  H   -0.013427
    73  C   -0.007317
    74  H   -0.016112
    75  H    0.000311
    76  H    0.000080
    77  C   -0.034650
    78  H    0.001914
    79  H   -0.029101
    80  H    0.029048
    81  H    0.019788
    82  C   -0.193030
    83  C    0.031763
    84  C    0.280368
    85  C   -0.293645
    86  H    0.002942
    87  C   -0.173220
    88  C    0.050132
    89  H    0.032786
    90  H    0.041076
    91  H    0.336392
    92  H    0.042780
    93  C    1.371509
    94  O   -0.875858
    95  N   -0.871098
    96  C    0.345174
    97  H    0.065747
    98  H   -0.069113
    99  H   -0.045256
   100  C    0.293408
   101  H    0.036027
   102  H   -0.039048
   103  H   -0.060592
   104  H    0.042013
   105  C    1.621398
   106  F   -0.536867
   107  F   -0.485259
   108  F   -0.563659
   109  H    0.134379
 Sum of APT charges =  -0.00000
 APT charges with hydrogens summed into heavy atoms:
               1
     1  C    0.271737
     2  C    0.277126
     3  C   -0.057859
     4  C    0.146997
     5  C   -0.272214
     6  C    0.156080
     7  C    0.179296
     8  C   -0.016486
     9  C    0.142751
    10  C   -0.085672
    15  N   -0.321206
    16  N   -0.144211
    17  Ir  -1.110844
    18  O   -0.954574
    19  O   -1.018550
    20  O   -0.953655
    21  B    1.368123
    22  B    1.287031
    23  B    1.244873
    24  O   -0.956811
    25  O   -1.030764
    26  C    0.524499
    27  C    0.477810
    28  C    0.469940
    29  C    0.451344
    30  C    0.495852
    31  C    0.509227
    32  O   -1.008889
    33  C   -0.024253
    37  C   -0.028816
    41  C   -0.049834
    45  C   -0.027775
    49  C   -0.046472
    53  C   -0.024666
    57  C   -0.025703
    61  C   -0.042494
    65  C   -0.015908
    69  C   -0.052769
    73  C   -0.023039
    77  C   -0.032789
    82  C   -0.173242
    83  C    0.034706
    84  C    0.616760
    85  C   -0.293645
    87  C   -0.130441
    88  C    0.082918
    93  C    1.371509
    94  O   -0.875858
    95  N   -0.871098
    96  C    0.296551
   100  C    0.229794
   105  C    1.621398
   106  F   -0.536867
   107  F   -0.485259
   108  F   -0.563659
 Electronic spatial extent (au):  <R**2>=          34417.3733
 Charge=             -0.0000 electrons
 Dipole moment (field-independent basis, Debye):
    X=              2.3844    Y=              4.0341    Z=              2.2974  Tot=              5.2190
 Quadrupole moment (field-independent basis, Debye-Ang):
   XX=           -342.0898   YY=           -319.5486   ZZ=           -309.5885
   XY=             -2.4756   XZ=            -22.5847   YZ=             -5.3704
 Traceless Quadrupole moment (field-independent basis, Debye-Ang):
   XX=            -18.3475   YY=              4.1937   ZZ=             14.1538
   XY=             -2.4756   XZ=            -22.5847   YZ=             -5.3704
 Octapole moment (field-independent basis, Debye-Ang**2):
  XXX=             72.0676  YYY=             34.3021  ZZZ=              0.1549  XYY=            -23.0912
  XXY=             -8.5993  XXZ=            161.1717  XZZ=              2.9568  YZZ=             64.9507
  YYZ=             -9.2118  XYZ=             27.1269
 Hexadecapole moment (field-independent basis, Debye-Ang**3):
 XXXX=         -22722.6275 YYYY=         -12763.3525 ZZZZ=          -8529.2462 XXXY=             81.2714
 XXXZ=           -828.9376 YYYX=           -175.9048 YYYZ=            -18.3974 ZZZX=             46.5892
 ZZZY=            -84.4027 XXYY=          -5705.7584 XXZZ=          -5250.9051 YYZZ=          -3406.1685
 XXYZ=           -296.2972 YYXZ=           -205.8872 ZZXY=           -259.4219
 N-N= 9.195842783175D+03 E-N=-2.455108187935D+04  KE= 2.561552992879D+03
  Exact polarizability:     576.559      -3.078     479.568     -19.147       4.166     511.429
 Approx polarizability:     750.176     -37.185     676.838     -28.625      20.188     820.602
   1 Symmetry operations used in ECPInt.
 ECPInt:  NShTT=   55278 NPrTT=  342696 LenC2=   39934 LenP2D=  123406.
 LDataN:  DoStor=T MaxTD1= 8 Len=  415
 Calling FoFJK, ICntrl=    100127 FMM=F ISym2X=0 I1Cent= 0 IOpClX= 0 NMat=1 NMatS=1 NMatT=0.
 Defaulting to unpruned grid for atomic number  77.
 Defaulting to unpruned grid for atomic number  77.
 Defaulting to unpruned grid for atomic number  77.
 Defaulting to unpruned grid for atomic number  77.
 Defaulting to unpruned grid for atomic number  77.
 Defaulting to unpruned grid for atomic number  77.
 Defaulting to unpruned grid for atomic number  77.
 Defaulting to unpruned grid for atomic number  77.
 Defaulting to unpruned grid for atomic number  77.
 Defaulting to unpruned grid for atomic number  77.
 Defaulting to unpruned grid for atomic number  77.
 Defaulting to unpruned grid for atomic number  77.
 Defaulting to unpruned grid for atomic number  77.
 Defaulting to unpruned grid for atomic number  77.
 Defaulting to unpruned grid for atomic number  77.
 Defaulting to unpruned grid for atomic number  77.
 Full mass-weighted force constant matrix:
 Low frequencies --- -731.0691   -5.9389   -3.8941   -0.0008   -0.0007    0.0005
 Low frequencies ---    3.3827   13.7315   15.0991
 ******    1 imaginary frequencies (negative Signs) ****** 
 Diagonal vibrational polarizability:
      174.4909301     185.9878431      63.2432335
 Harmonic frequencies (cm**-1), IR intensities (KM/Mole), Raman scattering
 activities (A**4/AMU), depolarization ratios for plane and unpolarized
 incident light, reduced masses (AMU), force constants (mDyne/A),
 and normal coordinates:
                      1                      2                      3
                      A                      A                      A
 Frequencies --   -731.0690                13.6952                15.0250
 Red. masses --      1.1478                 6.0738                 6.5296
 Frc consts  --      0.3614                 0.0007                 0.0009
 IR Inten    --    770.3038                 0.2712                 0.1891
  Atom AN      X      Y      Z        X      Y      Z        X      Y      Z
     1   6     0.00   0.00   0.00    -0.02  -0.04   0.02     0.02   0.01   0.03
     2   6    -0.00  -0.00   0.00     0.03  -0.00   0.01    -0.02  -0.04   0.03
     3   6     0.00   0.00  -0.00     0.02  -0.02   0.02     0.01  -0.02   0.04
     4   6     0.00   0.00  -0.00    -0.00  -0.04   0.03     0.05   0.03   0.04
     5   6     0.00   0.00  -0.00    -0.02  -0.06   0.03     0.05   0.05   0.04
     6   6     0.00  -0.00   0.00    -0.03  -0.04   0.01     0.02   0.01   0.03
     7   6     0.00  -0.00   0.00    -0.02  -0.03   0.01    -0.04  -0.03   0.03
     8   6    -0.00  -0.00   0.00    -0.06  -0.05   0.01     0.00  -0.01   0.03
     9   6     0.00  -0.00   0.00    -0.09  -0.06   0.00     0.06   0.01   0.04
    10   6    -0.00  -0.01   0.00    -0.07  -0.06   0.01     0.06   0.02   0.04
    11   1    -0.00  -0.00  -0.00    -0.01  -0.06   0.03     0.07   0.06   0.04
    12   1     0.01   0.00   0.00    -0.00  -0.02   0.01    -0.07  -0.05   0.02
    13   1     0.00  -0.00   0.00    -0.12  -0.07  -0.00     0.09   0.02   0.04
    14   1    -0.01  -0.01   0.00    -0.10  -0.07   0.01     0.11   0.04   0.04
    15   7    -0.00  -0.00   0.00     0.01  -0.02   0.01    -0.01  -0.03   0.03
    16   7     0.02   0.00   0.01    -0.01  -0.03   0.02    -0.03  -0.02   0.03
    17  77    -0.01  -0.01   0.00     0.02  -0.02   0.02    -0.02  -0.03   0.02
    18   8    -0.00   0.00   0.00     0.04  -0.01   0.02     0.03   0.00   0.02
    19   8     0.00  -0.00  -0.00     0.03   0.01  -0.01     0.01   0.03  -0.01
    20   8     0.00   0.00  -0.00    -0.01   0.00  -0.01    -0.05  -0.01  -0.02
    21   5     0.02   0.03   0.00     0.03  -0.00   0.01     0.00  -0.00   0.01
    22   5    -0.01  -0.00  -0.01     0.02  -0.02   0.02    -0.01  -0.02   0.02
    23   5     0.02   0.00   0.00     0.01  -0.01   0.00    -0.04  -0.01  -0.00
    24   8     0.00   0.00   0.00     0.01  -0.01   0.00    -0.04  -0.00  -0.02
    25   8    -0.00   0.00  -0.00     0.01  -0.02   0.02    -0.05  -0.04   0.03
    26   6    -0.00  -0.00  -0.00     0.02  -0.02   0.02    -0.02  -0.03   0.03
    27   6    -0.00   0.00   0.00     0.03  -0.00   0.01     0.02   0.01   0.01
    28   6     0.00   0.00  -0.00    -0.02   0.01  -0.02    -0.06   0.00  -0.05
    29   6     0.00   0.00  -0.00    -0.01   0.00  -0.01    -0.05   0.00  -0.04
    30   6     0.00  -0.00   0.00     0.05   0.03  -0.01     0.04   0.06  -0.02
    31   6     0.00   0.00  -0.00     0.05   0.03  -0.01     0.03   0.04  -0.01
    32   8     0.00   0.00  -0.01     0.05   0.01   0.01     0.02  -0.01   0.01
    33   6    -0.00   0.00   0.00     0.05   0.00   0.02     0.07   0.01   0.03
    34   1    -0.00   0.00  -0.00     0.05   0.00   0.01     0.06   0.02   0.02
    35   1     0.00  -0.00  -0.00     0.06   0.01   0.01     0.10   0.04   0.01
    36   1    -0.00   0.00   0.00     0.06  -0.01   0.03     0.09  -0.01   0.06
    37   6    -0.00   0.00   0.00     0.03   0.01  -0.01     0.00   0.04  -0.04
    38   1     0.00  -0.00  -0.00     0.03   0.03  -0.01     0.03   0.07  -0.04
    39   1    -0.00   0.00  -0.00     0.02   0.02  -0.01     0.00   0.05  -0.04
    40   1     0.00   0.00  -0.00     0.01   0.01  -0.01    -0.03   0.04  -0.05
    41   6    -0.00   0.00   0.00     0.02  -0.03   0.04    -0.00  -0.07   0.07
    42   1    -0.00   0.00   0.00     0.01  -0.04   0.04    -0.03  -0.10   0.08
    43   1     0.00   0.00   0.00     0.03  -0.03   0.04     0.02  -0.06   0.08
    44   1    -0.00   0.00  -0.00     0.03  -0.03   0.04     0.03  -0.07   0.09
    45   6    -0.00   0.00   0.00    -0.00  -0.02   0.01    -0.06  -0.03   0.00
    46   1    -0.00   0.00   0.00     0.01  -0.01   0.01    -0.04  -0.02   0.00
    47   1    -0.00  -0.00   0.00    -0.01  -0.03   0.02    -0.09  -0.06   0.02
    48   1     0.00   0.00  -0.00    -0.01  -0.01  -0.00    -0.08  -0.01  -0.03
    49   6    -0.00  -0.00  -0.00     0.07   0.03   0.01     0.10   0.06   0.00
    50   1     0.00  -0.00   0.00     0.07   0.03   0.01     0.11   0.07  -0.00
    51   1    -0.00  -0.00  -0.00     0.08   0.04   0.01     0.13   0.08  -0.00
    52   1    -0.00  -0.00  -0.00     0.07   0.02   0.02     0.11   0.02   0.02
    53   6     0.00  -0.00  -0.00     0.05   0.04  -0.03     0.03   0.12  -0.04
    54   1    -0.00   0.00  -0.00     0.06   0.06  -0.03     0.06   0.15  -0.05
    55   1     0.00  -0.00   0.00     0.05   0.04  -0.03     0.04   0.13  -0.04
    56   1    -0.00  -0.00  -0.00     0.03   0.04  -0.04    -0.01   0.12  -0.06
    57   6    -0.00   0.00  -0.00     0.07   0.04   0.00     0.07   0.04   0.00
    58   1    -0.00   0.00  -0.00     0.08   0.05  -0.01     0.09   0.08  -0.01
    59   1    -0.00   0.00  -0.00     0.07   0.04   0.00     0.06   0.03   0.01
    60   1    -0.00   0.00  -0.00     0.08   0.03   0.02     0.10   0.03   0.02
    61   6     0.00   0.00  -0.00     0.04   0.03  -0.02    -0.02   0.06  -0.03
    62   1     0.00  -0.00  -0.00     0.04   0.03  -0.02    -0.03   0.03  -0.02
    63   1    -0.00  -0.00   0.00     0.05   0.05  -0.04    -0.01   0.09  -0.04
    64   1     0.00   0.00   0.00     0.02   0.03  -0.03    -0.05   0.05  -0.03
    65   6     0.00   0.00  -0.00    -0.01   0.01  -0.02    -0.04   0.00  -0.05
    66   1     0.00   0.00  -0.00    -0.01   0.00  -0.01    -0.04   0.00  -0.04
    67   1     0.00   0.00  -0.00     0.01   0.01  -0.03    -0.03   0.00  -0.06
    68   1     0.00   0.00   0.00    -0.02   0.02  -0.03    -0.05   0.01  -0.06
    69   6     0.00   0.00  -0.00    -0.04  -0.00   0.01    -0.07   0.00  -0.02
    70   1    -0.00  -0.00   0.00    -0.03  -0.01   0.02    -0.06  -0.00  -0.01
    71   1    -0.00   0.00  -0.00    -0.05   0.01  -0.00    -0.08   0.00  -0.03
    72   1     0.00  -0.00  -0.00    -0.04  -0.01   0.01    -0.07   0.00  -0.02
    73   6     0.00   0.00  -0.00    -0.04   0.02  -0.03    -0.10  -0.00  -0.06
    74   1     0.00   0.00  -0.00    -0.05   0.03  -0.04    -0.11   0.01  -0.08
    75   1     0.00   0.00  -0.00    -0.04   0.03  -0.04    -0.11   0.00  -0.06
    76   1     0.00   0.00  -0.00    -0.05   0.02  -0.01    -0.12  -0.02  -0.04
    77   6     0.00   0.00  -0.00     0.00   0.02  -0.04    -0.04   0.02  -0.07
    78   1     0.00   0.00  -0.00     0.00   0.03  -0.05    -0.04   0.02  -0.08
    79   1     0.00  -0.00  -0.00    -0.00   0.03  -0.05    -0.05   0.03  -0.09
    80   1     0.00   0.00   0.00     0.02   0.01  -0.04    -0.01   0.01  -0.07
    81   1    -0.01   0.04  -0.03     0.00   0.01  -0.00    -0.08   0.01  -0.03
    82   6     0.01   0.00  -0.01     0.00   0.01  -0.01    -0.05  -0.02  -0.03
    83   6     0.01  -0.01   0.00    -0.00   0.05  -0.03    -0.04  -0.03  -0.06
    84   6    -0.01   0.06  -0.06     0.01  -0.01   0.01    -0.02  -0.04   0.01
    85   6    -0.00  -0.00   0.00    -0.00   0.07  -0.04    -0.01  -0.06  -0.05
    86   1     0.01  -0.01   0.01    -0.01   0.08  -0.05    -0.06  -0.01  -0.08
    87   6    -0.01   0.01  -0.01     0.02  -0.00   0.00     0.02  -0.07   0.01
    88   6    -0.00  -0.01   0.00     0.01   0.03  -0.02     0.03  -0.08  -0.02
    89   1    -0.01  -0.02   0.01     0.01   0.04  -0.03     0.05  -0.10  -0.02
    90   1    -0.00  -0.01   0.00    -0.07  -0.05   0.00    -0.01  -0.02   0.03
    91   1     0.89   0.09   0.42     0.01  -0.01   0.02    -0.02  -0.02   0.04
    92   1    -0.03   0.03  -0.03     0.02  -0.02   0.02     0.04  -0.08   0.04
    93   6     0.00   0.00  -0.00    -0.01   0.12  -0.08     0.00  -0.07  -0.09
    94   8    -0.00  -0.00   0.00     0.03   0.14  -0.09     0.04  -0.10  -0.11
    95   7    -0.00   0.00   0.00    -0.06   0.16  -0.10    -0.03  -0.04  -0.10
    96   6     0.00  -0.00   0.00    -0.07   0.23  -0.13    -0.02  -0.05  -0.14
    97   1     0.00  -0.00  -0.00    -0.01   0.22  -0.16     0.01  -0.08  -0.17
    98   1    -0.00  -0.00   0.00    -0.11   0.23  -0.11    -0.02  -0.05  -0.11
    99   1    -0.00  -0.00  -0.00    -0.08   0.28  -0.16    -0.05  -0.02  -0.17
   100   6    -0.00  -0.00  -0.00    -0.12   0.15  -0.08    -0.07  -0.00  -0.07
   101   1    -0.00   0.00  -0.00    -0.12   0.10  -0.05    -0.07  -0.00  -0.03
   102   1     0.00  -0.00   0.00    -0.13   0.17  -0.09    -0.10   0.02  -0.09
   103   1    -0.00  -0.00   0.00    -0.17   0.17  -0.08    -0.07  -0.00  -0.05
   104   1    -0.00  -0.00  -0.00     0.04  -0.01   0.02     0.01  -0.03   0.04
   105   6    -0.00  -0.00  -0.00    -0.05  -0.09   0.04     0.09   0.11   0.04
   106   9     0.00   0.00  -0.00    -0.05  -0.12   0.06     0.09   0.16   0.03
   107   9     0.00   0.00  -0.00    -0.05  -0.12   0.06     0.06   0.14   0.02
   108   9     0.00   0.00  -0.00    -0.09  -0.09   0.02     0.15   0.10   0.05
   109   1    -0.01  -0.00   0.00     0.05   0.01   0.01    -0.04  -0.07   0.03
                      4                      5                      6
                      A                      A                      A
 Frequencies --     22.8462                25.1194                26.1738
 Red. masses --      4.6154                 5.1481                 4.0436
 Frc consts  --      0.0014                 0.0019                 0.0016
 IR Inten    --      0.5441                 0.0978                 0.2862
  Atom AN      X      Y      Z        X      Y      Z        X      Y      Z
     1   6     0.01  -0.01  -0.03    -0.00  -0.03  -0.00     0.00  -0.01  -0.01
     2   6     0.04   0.02  -0.03    -0.07  -0.07   0.01    -0.02  -0.01  -0.00
     3   6     0.07   0.05  -0.03    -0.09  -0.08  -0.00    -0.04  -0.03  -0.01
     4   6     0.07   0.05  -0.03    -0.07  -0.07  -0.02    -0.04  -0.03  -0.02
     5   6     0.04   0.03  -0.03    -0.02  -0.04  -0.02    -0.01  -0.02  -0.02
     6   6    -0.01  -0.03  -0.03     0.04  -0.00   0.00     0.03   0.01  -0.01
     7   6    -0.03  -0.06  -0.03     0.04   0.01   0.00     0.04   0.01  -0.00
     8   6    -0.05  -0.08  -0.04     0.10   0.04   0.02     0.08   0.03   0.01
     9   6    -0.05  -0.07  -0.05     0.13   0.06   0.03     0.08   0.03   0.01
    10   6    -0.02  -0.05  -0.05     0.10   0.03   0.02     0.06   0.02   0.00
    11   1     0.09   0.08  -0.02    -0.08  -0.08  -0.04    -0.05  -0.05  -0.03
[...]
 00003748,0.00004582,0.00008101,0.00000043,0.00004483,0.00001839,-0.000
 01051,0.00001209,-0.00001430,0.00002262,-0.00004768,-0.00000667,-0.000
 34819,-0.00008344,-0.00027997,0.02659874,-0.23948254,-0.07273008,0.028
 91534,-0.00330543,-0.02360144,0.02610813,-0.06565725,0.01708024,-0.075
 61910,0.34383833,0.00241629,0.00000346,-0.00429507,-0.00071594,-0.0006
 5978,0.00041952,-0.00082942,0.00070920,0.00069954,-0.00078619,0.000468
 64,0.00159780,-0.00104212,-0.02986614,-0.00329912,0.00023718,-0.000536
 41,-0.00176783,-0.00000788,0.00039970,0.00050585,-0.00027789,-0.000357
 03,-0.00021799,0.00085136,0.00139863,0.00004641,0.00076057,-0.00195729
 ,-0.00029029,0.00067770,-0.00028288,0.00032399,-0.00003353,-0.00011992
 ,0.00001826,-0.00004242,-0.00005215,0.00013109,0.00102042,0.00281638,-
 0.00091278,-0.00241949,0.00016980,-0.00104528,0.00039440,0.00084021,0.
 00052703,-0.00013291,0.00017774,-0.00015749,-0.00013118,-0.00019001,0.
 00014422,-0.00018644,-0.00003981,0.00005575,-0.00015547,0.00010200,0.0
 0021007,0.00025822,0.00015358,-0.00023412,0.00019964,0.00028721,-0.000
 31526,0.00030270,-0.00010469,-0.00035205,-0.00023185,0.00017391,0.0002
 2328,-0.00007934,-0.00011121,0.00031486,0.00001799,0.00004597,-0.00000
 368,0.00005815,0.00004219,-0.00008311,0.00004359,-0.00004405,0.0000038
 7,0.00008792,-0.00018548,-0.00018935,0.00003144,0.00003286,-0.00000330
 ,0.00014053,0.00000281,0.00011298,-0.00026182,-0.00021786,0.00011409,-
 0.00000947,-0.00000589,0.00001226,-0.00000644,-0.00001144,0.00000675,0
 .00000482,0.00000453,-0.00000060,0.00000095,0.00000358,-0.00000314,-0.
 00001231,-0.00000691,0.00000836,0.00000800,0.00000529,0.00000132,-0.00
 001361,-0.00000651,0.00000940,0.00000512,-0.00000122,-0.00000605,-0.00
 001015,-0.00001661,-0.00000675,0.00000834,0.00000238,0.00000236,-0.000
 00094,-0.00000962,0.00000489,-0.00000270,0.00001259,0.00000590,-0.0000
 0499,-0.00001384,-0.00000344,-0.00000563,-0.00000059,0.00000896,0.0000
 0979,-0.00000289,0.00001430,-0.00000761,0.00000037,-0.00000661,-0.0000
 0586,-0.00000428,0.00000601,-0.00000811,-0.00000932,0.00000899,-0.0000
 0056,-0.00000152,-0.00000680,-0.00000285,0.00001313,-0.00000469,-0.000
 00528,-0.00001663,0.00001458,-0.00000048,0.00000356,-0.00000403,-0.000
 01283,-0.00000993,0.00000807,0.00000713,0.00000539,-0.00000800,-0.0000
 0200,0.00000833,-0.00001743,-0.00001719,-0.00000424,-0.00000798,0.0000
 0240,-0.00000614,0.00002284,0.00000674,0.00000024,0.00000195,0.0000162
 9,0.00002955,-0.00004467,-0.00000199,-0.00001876,0.00005688,-0.0000299
 3,-0.00001542,-0.00000963,0.00002477,0.00000035,-0.00000738,-0.0000048
 9,0.00003799,0.00002552,0.00000398,-0.00001587,-0.00001711,0.00002550,
 0.00000463,0.00000989,-0.00002195,0.00000662,0.00000816,0.00000823,0.0
 0007108,0.00001806,-0.00000198,-0.00002003,-0.00004949,-0.00001782,0.0
 0000976,0.00002516,-0.00000681,-0.00004240,0.00001580,-0.00002498,-0.0
 0000997,-0.00000571,-0.00000855,0.00000604,0.00000547,0.00000098,0.000
 00022,0.00000566,0.00001205,0.00000284,0.00001295,-0.00000582,0.000017
 23,-0.00000387,0.00000620,-0.00000178,-0.00000048,-0.00000908,0.000004
 66,-0.00000103,0.00001109,-0.00000321,0.00000768,-0.00000630,0.0000618
 5,0.00011511,-0.00002938,-0.00001929,-0.00016629,-0.00006025,-0.000020
 09,-0.00001522,0.00003570,-0.00002032,-0.00014051,0.00004429,-0.000037
 30,0.00004242,-0.00003219,0.00003469,0.00001847,-0.00004117,0.00002459
 ,-0.00000086,0.00005034,0.00000753,0.00002689,0.00000144,-0.00002243,0
 .00001003,0.00006828,0.00015700,-0.00003991,0.00008685,-0.00000568,0.0
 0006089,-0.00002021,-0.00003407,0.00000836,-0.00016552,0.00002764,-0.0
 0015026,0.00011332,0.00001202,0.00015176,0.00004025,-0.00003300,0.0000
 5863,-0.00003494,0.00001507,-0.00001930,-0.00000318,0.00000427,-0.0000
 0216,0.00000496,-0.00001438,0.00000055,0.00000079,0.00000217,0.0000013
 5,-0.00000184,0.00001556,-0.00002107,0.00000353,0.00001561,0.00000237,
 -0.00000976,0.00000384,0.00001290,0.00000849,-0.00001145,0.00000728,-0
 .00007503,-0.00004665,-0.00012306,0.01088261,-0.07175050,-0.10569001,0
 .03590100,-0.03352013,-0.02081398,-0.00854394,0.03370143,0.01507180,-0
 .03869852,0.09841524,0.11915776,0.00481167,-0.00436823,0.00091483,-0.1
 7012288,-0.10593893,-0.09858038,-0.00438833,-0.01017517,-0.00878793,0.
 00196648,-0.00506491,0.00158543,0.00057231,0.00039177,0.00035167,0.000
 28745,-0.00006701,-0.00026964,0.00001915,0.00000945,0.00007119,-0.0000
 4805,-0.00008687,0.00002118,0.00002160,0.00002500,-0.00007871,-0.00010
 594,0.00003023,0.00012264,-0.00049272,0.00030596,-0.00032437,-0.000000
 47,0.00005140,0.00003028,0.00000708,-0.00000118,0.00001390,0.00002014,
 -0.00000990,-0.00002389,0.00469112,0.00500164,0.00441235,-0.00002290,-
 0.00010923,0.00001034,-0.00126857,0.00029685,-0.00068559,-0.00007085,0
 .00003270,-0.00013244,0.00075336,0.00006083,-0.00075636,-0.00001011,-0
 .00004535,-0.00011578,-0.00054220,-0.00109890,0.00447517,0.00019896,-0
 .00010321,0.00031445,0.00021964,0.00022811,0.00023554,0.00017645,-0.00
 010921,-0.00049501,-0.00004287,0.00003330,-0.00015832,0.00002991,-0.00
 000999,0.00001310,-0.00001932,-0.00003882,0.00005183,0.00002619,0.0000
 2660,0.00000927,-0.00006141,0.00012525,0.00007007,-0.00009023,-0.00024
 029,0.00019840,-0.00163554,-0.00006742,-0.00129889,-0.00124155,-0.0002
 2835,-0.00188741,0.00001329,0.00000757,0.00000477,0.00000268,0.0000052
 0,-0.00000866,-0.00001224,-0.00001397,-0.00000682,-0.00000565,0.000003
 98,0.00000301,0.00001305,0.00000514,0.00002104,-0.00002573,-0.00002643
 ,-0.00000581,-0.00000091,0.00001057,-0.00001513,0.00000320,0.00000517,
 0.00001555,-0.00000140,-0.00000153,-0.00001028,-0.00000733,-0.00000243
 ,-0.00001380,-0.00000340,0.00000260,0.00000174,0.00000807,0.00000553,0
 .00000808,-0.00000521,0.00000572,-0.00000382,0.00000254,-0.00000096,-0
 .00000009,-0.00000651,0.00000005,-0.00001317,0.00000189,0.00000629,0.0
 0000788,0.00001927,0.00001061,-0.00006575,0.00003570,0.00004927,-0.000
 02395,0.00001848,0.00000813,0.00002185,0.00001340,-0.00006375,0.000019
 71,0.00002696,0.00010672,-0.00012228,-0.00000228,-0.00000862,0.0000169
 0,0.00007835,0.00001922,-0.00002984,-0.00002650,-0.00001113,0.00002674
 ,0.00018956,0.00000740,-0.00001872,0.00001113,0.00003492,0.00011414,0.
 00001868,-0.00002269,-0.00001333,-0.00000304,0.00005260,-0.00000414,-0
 .00020981,-0.00022590,0.00004888,-0.00019522,0.00005100,-0.00032263,0.
 00015540,0.00000841,0.00007375,-0.00009741,0.00010402,0.00015658,0.000
 02230,0.00001471,0.00000549,0.00000077,0.00000333,0.00001216,-0.000039
 00,-0.00000670,-0.00000420,0.00000195,-0.00000697,-0.00001402,0.000022
 45,-0.00000539,-0.00001553,0.00000298,-0.00002110,0.00001420,-0.000011
 94,-0.00001328,-0.00000749,-0.00000069,0.00000871,-0.00001600,-0.00000
 046,0.00000332,-0.00000231,0.00000347,-0.00000173,0.00000010,0.0000009
 5,-0.00000040,0.00000069,-0.00000493,-0.00001003,-0.00001655,-0.000011
 68,-0.00000882,0.00003803,-0.00000484,-0.00000032,-0.00000141,0.000002
 88,-0.00000842,-0.00000997,-0.00002234,0.00001812,-0.00000411,-0.00020
 085,0.00011552,0.00000540,-0.00004213,0.00010737,-0.00028853,-0.000047
 32,-0.00006836,0.00012501,0.00028421,-0.00004445,-0.00012854,-0.000004
 00,-0.00001256,0.00002305,-0.00002879,0.00000940,-0.00000343,-0.000123
 36,0.00001560,-0.00000100,0.00004038,-0.00002074,0.00000917,-0.0000048
 6,0.00000259,0.00000467,-0.00000725,-0.00000337,0.00000018,0.00039051,
 -0.00000269,0.00012650,0.00002034,-0.00001422,0.00003776,-0.00004484,0
 .00001113,0.00000931,0.00003325,-0.00001170,0.00002027,0.00002243,-0.0
 0002106,0.00000250,-0.00001790,0.00000908,-0.00000555,-0.00000202,0.00
 000225,0.00000061,0.00000321,-0.00000765,0.00000043,0.00000106,0.00000
 069,-0.00000071,0.00000133,0.00001039,-0.00000315,0.00000045,0.0000143
 8,-0.00000235,-0.00000827,0.00000075,0.00000449,0.00000729,-0.00000873
 ,0.00000376,-0.00099707,0.00184920,0.00018598,-0.00111160,0.00070506,-
 0.00031703,0.00005975,-0.00003243,-0.00001544,0.00007974,-0.00000811,0
 .00002025,0.00023805,0.00046605,0.00041660,0.16784981,-0.00225993,0.00
 655483,0.00291136,-0.10970118,-0.13854574,-0.08192135,-0.00850190,0.00
 032834,-0.00848934,-0.00546279,0.00214879,0.00090122,-0.00027630,-0.00
 048992,0.00199799,0.00020278,0.00061667,-0.00001898,-0.00004372,0.0000
 4041,0.00010168,-0.00004195,-0.00007536,-0.00000100,0.00001689,0.00002
 229,-0.00003065,-0.00011103,-0.00011200,0.00030694,-0.00011195,-0.0005
 3630,-0.00059649,0.00002818,0.00004710,0.00003612,-0.00000563,0.000000
 44,0.00002561,-0.00000686,-0.00005131,-0.00006195,0.00612261,0.0038731
 4,0.00162819,-0.00001533,-0.00021914,-0.00000613,0.00045453,-0.0000642
 0,0.00066051,-0.00004018,-0.00006069,-0.00008267,0.00105599,0.00009833
 ,-0.00077016,0.00001540,-0.00014733,-0.00002060,-0.00077129,-0.0003935
 6,0.00448425,-0.00033536,-0.00001835,-0.00002264,0.00006120,0.00048573
 ,0.00005140,-0.00002281,-0.00029217,0.00009573,0.00002834,0.00005034,-
 0.00016583,0.00001812,-0.00002064,0.00000850,-0.00000512,-0.00005613,0
 .00003439,0.00001272,0.00007667,0.00000431,0.00002170,0.00004602,0.000
 00682,0.00023024,-0.00032413,0.00020977,-0.00183723,0.00099737,-0.0020
 2403,-0.00009313,-0.00232343,-0.00108040,0.00000734,0.00000507,0.00001
 481,0.00000196,0.00000039,-0.00001047,-0.00001232,-0.00001142,-0.00000
 529,-0.00000178,-0.00000007,0.00000342,0.00001856,0.00000981,0.0000203
 3,-0.00002217,-0.00002117,-0.00000371,0.00000091,0.00000839,-0.0000148
 1,0.00000196,0.00000663,0.00000381,-0.00000203,-0.00000123,-0.00000409
 ,-0.00000561,-0.00000398,-0.00000822,-0.00000029,0.00000263,0.00000048
 ,0.00000788,0.00000033,0.00000094,-0.00000231,0.00000730,-0.00000277,0
 .00000282,-0.00000144,-0.00000203,-0.00000627,-0.00000073,-0.00001029,
 0.00000100,0.00000026,0.00000693,-0.00001287,-0.00001950,-0.00000553,0
 .00004207,0.00003267,-0.00002426,0.00001847,0.00001197,0.00001895,0.00
 000304,-0.00008324,0.00001686,0.00004289,0.00018765,-0.00017973,0.0000
 0191,0.00000176,0.00002396,0.00011477,-0.00001360,-0.00001705,0.000010
 84,-0.00003870,-0.00000847,0.00025047,-0.00010131,0.00009576,0.0000642
 8,0.00004843,0.00012513,-0.00005485,0.00004638,-0.00005269,-0.00002748
 ,-0.00005982,-0.00004924,0.00030126,0.00025584,-0.00011367,0.00010726,
 0.00009808,0.00039123,0.00004939,-0.00024703,0.00006609,0.00011419,0.0
 0007965,-0.00002739,0.00001737,0.00002712,-0.00000590,-0.00000032,-0.0
 0003395,0.00000354,-0.00000745,0.00000814,-0.00000812,-0.00000481,-0.0
 0000799,0.00000812,0.00001466,0.00000449,-0.00001904,-0.00000431,-0.00
 002851,0.00000383,-0.00000848,-0.00000650,-0.00000117,0.00000454,0.000
 00707,-0.00000150,-0.00000810,-0.00001568,0.00000375,0.00000615,-0.000
 00218,-0.00000554,-0.00000498,-0.00000240,0.00000814,-0.00000636,-0.00
 000050,-0.00001445,-0.00000324,-0.00002138,0.00003542,-0.00000974,-0.0
 0000546,0.00000768,0.00001059,-0.00000838,-0.00001269,-0.00001086,0.00
 003482,-0.00000617,0.00013647,0.00009365,0.00010640,-0.00014805,0.0000
 4142,-0.00011471,-0.00000019,-0.00002659,0.00000544,0.00023703,-0.0001
 3787,0.00021009,-0.00005304,0.00002512,0.00000623,-0.00001902,0.000011
 26,0.00000865,-0.00003225,-0.00000960,-0.00004505,0.00002401,-0.000003
 03,0.00000548,-0.00000073,0.00000419,0.00000152,0.00000293,-0.00001020
 ,0.00000680,0.00017072,-0.00000091,0.00011242,0.00001248,-0.00001482,0
 .00000575,0.00004996,0.00000258,0.00003035,-0.00002848,-0.00001356,-0.
 00003058,-0.00001837,-0.00001168,-0.00000380,0.00000872,0.00000144,-0.
 00000191,-0.00000077,0.00000160,-0.00000322,-0.00000188,-0.00000153,0.
 00000065,-0.00000229,0.00000205,0.00000334,0.00001150,0.00000883,0.000
 00293,-0.00000100,0.00000229,0.00000289,-0.00000063,0.00000019,0.00000
 135,0.00000108,-0.00000263,0.00000030,0.00167216,-0.00135133,-0.000181
 49,-0.00015806,-0.00140421,-0.00050782,0.00035169,0.00021998,-0.000097
 57,0.00017670,0.00003128,0.00039781,0.00000168,-0.00003219,-0.00005814
 ,0.11798270,0.13076953,0.00014346,0.00099331,-0.00339390,-0.09086971,-
 0.07612876,-0.12491047,0.00972171,0.00849208,0.01236367,0.00222665,0.0
 0248957,-0.00146126,-0.00003376,0.00009218,-0.00047141,-0.00080273,-0.
 00079091,-0.00003304,0.00001956,-0.00001477,-0.00002466,0.00001672,0.0
 0002337,-0.00000989,0.00000932,-0.00011079,-0.00000347,0.00018354,0.00
 014295,-0.00032607,0.00075213,0.00024412,0.00053618,0.00000409,-0.0000
 1864,-0.00003023,0.00000298,0.00000799,-0.00003475,-0.00000775,0.00002
 036,0.00000168,-0.02045502,-0.01591864,-0.02865648,0.00004501,0.000142
 65,-0.00003715,-0.00084507,-0.00108831,-0.00061341,-0.00002218,-0.0000
 4387,-0.00004358,-0.00006848,-0.00006585,-0.00026197,-0.00011240,0.000
 01818,0.00009421,0.00126316,0.00124370,0.00009264,0.00024019,0.0004003
 8,0.00011417,0.00012923,0.00000683,-0.00021062,-0.00017539,-0.00000090
 ,0.00019206,-0.00006208,-0.00012250,0.00008722,0.00001529,0.00004806,0
 .00000877,0.00001423,0.00001642,0.,0.00002923,-0.00000029,0.00001505,0
 .00009024,-0.00010068,-0.00004853,-0.00009049,0.00002418,0.00004768,0.
 00002864,-0.00039927,0.00032101,-0.00127439,-0.00090609,-0.00182288,0.
 00000239,0.00000058,-0.00000064,-0.00000068,-0.00000080,0.00000008,-0.
 00000338,-0.00000235,-0.00000336,0.00000122,0.00000023,0.00000104,-0.0
 0000042,0.00000081,0.00000694,-0.00000137,-0.00000042,-0.00000261,-0.0
 0000255,-0.00000090,0.00000052,0.00000430,0.00000104,-0.00000571,-0.00
 000552,-0.00000751,-0.00000130,0.00000015,0.00000017,-0.00000160,0.000
 00046,-0.00000524,0.00000261,0.00000156,0.00000376,0.00000123,-0.00000
 538,-0.00001032,-0.00000198,-0.00000316,-0.00000249,0.00000535,0.00000
 126,-0.00000032,0.00000081,-0.00000179,-0.00000014,0.00000002,0.000016
 05,0.00000306,-0.00002993,0.00000868,0.00001110,-0.00000752,-0.0000142
 3,-0.00001249,-0.00000927,0.00000104,0.00000958,0.00001154,0.00000237,
 -0.00000696,-0.00000937,-0.00001397,-0.00000665,-0.00000787,0.00000041
 ,0.00001277,-0.00000229,-0.00000321,0.00000256,0.00001162,-0.00014650,
 -0.00012636,0.00016339,0.00006160,0.00003839,-0.00006469,0.00007525,0.
 00010020,-0.00015710,0.00001458,0.00001120,-0.00000736,-0.00025394,-0.
 00019345,0.00016521,-0.00008570,0.00016074,-0.00006924,0.00004862,0.00
 002239,-0.00007532,0.00023163,0.00006207,0.00002791,0.00000412,0.00001
 781,0.00001015,0.00000500,-0.00000755,-0.00000103,-0.00000144,-0.00000
 249,0.00000238,-0.00001024,0.00000298,0.00000062,-0.00001613,0.0000188
 6,-0.00000199,-0.00000138,-0.00000664,-0.00000591,0.00000084,0.0000074
 7,0.00001086,-0.00000323,-0.00000496,0.00000161,-0.00001456,-0.0000095
 2,-0.00000291,-0.00000206,0.00000428,0.00000269,-0.00000214,-0.0000019
 8,0.00000614,0.00000012,0.00000227,-0.00000147,-0.00000625,0.00000174,
 0.00000403,-0.00000151,-0.00000329,0.00000179,-0.00000551,0.00000130,-
 0.00000147,0.00000624,0.00000542,0.00000298,-0.00014043,0.00007090,-0.
 00000903,0.00000343,0.00002865,-0.00009141,-0.00001730,-0.00001174,0.0
 0003314,-0.00007052,0.00001394,-0.00002705,0.00004033,-0.00001890,0.00
 000305,0.00000784,0.00000620,-0.00000106,0.00001576,-0.00001185,0.0000
 0475,0.00000044,-0.00000322,0.00000410,0.00000312,-0.00000174,0.000003
 84,-0.00000469,0.00000479,-0.00000325,0.00000980,0.00009323,-0.0000956
 7,-0.00001106,0.00000371,0.00000121,-0.00006991,0.00002574,0.00001816,
 0.00002939,-0.00001128,0.00000442,0.00002617,-0.00001445,-0.00002214,-
 0.00001084,0.00000108,-0.00000563,-0.00000227,0.00000071,0.00000095,0.
 00000277,-0.00000343,0.00000059,0.00000346,0.00000054,-0.00000137,0.00
 000505,0.00000375,0.00001544,-0.00000091,0.00000545,0.00000569,0.00000
 193,0.00000212,-0.00000349,0.00000346,-0.00000487,-0.00000154,-0.00036
 384,-0.00049037,0.00024594,-0.00001419,-0.00015060,-0.00017320,-0.0001
 0177,-0.00002691,0.00016031,0.00003879,-0.00003366,0.00014911,-0.00000
 295,0.00001782,0.00004091,0.10062139,0.08171838,0.14829306\\0.00000049
 ,-0.00000985,-0.00000460,0.00000226,0.00000069,-0.00000934,-0.00000097
 ,-0.00000089,-0.00000610,0.00000080,0.00000244,-0.00000452,-0.00000882
 ,0.00001480,0.00000507,-0.00000312,0.00000405,-0.00000105,0.00000678,-
 0.00000030,0.00000176,0.00000116,-0.00000258,-0.00001111,-0.00000221,-
 0.00000425,0.00000401,0.00000231,0.00000512,-0.00000022,-0.00000014,0.
 00000208,-0.00000007,-0.00000942,0.00000648,0.00001093,0.00000002,0.00
 000119,-0.00000160,0.00000087,-0.00000116,-0.00000047,-0.00000339,0.00
 000087,0.00000966,-0.00000455,0.00000435,-0.00000651,0.00000297,0.0000
 1789,-0.00001467,-0.00001253,0.00000600,-0.00000323,-0.00000315,0.0000
 0574,-0.00000336,-0.00000268,-0.00000480,-0.00000474,0.00000099,-0.000
 01119,0.00000586,0.00000778,-0.00000335,0.00000857,-0.00000040,-0.0000
 0097,-0.00000341,0.00000006,-0.00000254,-0.00000010,0.,-0.00000063,-0.
 00000483,0.00000801,0.00000227,-0.00000072,0.00000315,0.00000198,0.000
 00486,-0.00000164,0.00000162,-0.00000301,0.00000074,0.00000271,0.00000
 096,-0.00000010,-0.00000139,0.00000088,0.00000003,-0.00000452,0.000002
 20,-0.00000121,-0.00000234,-0.00000022,0.00000087,-0.00000110,-0.00000
 255,-0.00000547,-0.00000008,0.00000053,0.00000468,-0.00000009,-0.00000
 380,0.00000233,-0.00000184,0.00000649,0.00000075,0.00000030,-0.0000010
 1,-0.00000013,-0.00000060,0.00000102,-0.00000119,-0.00000102,0.0000025
 4,0.00000045,-0.00000055,0.00000134,-0.00000270,0.00000004,0.00000668,
 -0.00000113,0.00000046,0.00000200,-0.00000077,-0.00000258,-0.00000044,
 0.00000449,0.00000135,-0.00000368,0.00000396,-0.00000269,-0.00000710,0
 .00000141,-0.00000101,0.00000280,0.00000143,0.00000340,0.00000263,-0.0
 0000516,0.00000366,-0.00000068,0.00000371,0.00000174,-0.00000188,-0.00
 000155,-0.00000197,0.00000374,0.00000005,-0.00000185,-0.00000116,-0.00
 000032,-0.00000048,0.00000128,0.00000250,-0.00000323,0.00000383,-0.000
 00082,0.00000057,-0.00000353,0.00000023,-0.00000194,-0.00000245,-0.000
 00041,0.00000094,0.00000192,0.00000892,0.00000012,-0.00000304,-0.00000
 439,-0.00000339,-0.00000159,-0.00000110,-0.00000155,-0.00000002,-0.000
 00009,0.00000042,0.00000100,-0.00000163,-0.00000239,-0.00000334,0.0000
 0109,0.00000004,-0.00000099,0.00000189,-0.00000126,0.00000106,-0.00000
 053,0.00000003,0.00000086,0.00000292,-0.00000188,-0.00000183,-0.000000
 34,-0.00000281,-0.00000245,-0.00000214,-0.00000044,0.00000103,-0.00000
 118,0.00000173,0.00000059,-0.00000630,0.00000635,-0.00000330,0.0000001
 1,-0.00000212,0.00000068,0.00000061,-0.00000076,-0.00000268,0.00000088
 ,-0.00000224,0.00000282,0.00000307,0.00000004,0.00000079,-0.00000246,-
 0.00000407,-0.00000063,0.00000287,-0.00000084,0.00000028,-0.00000193,0
 .00000424,-0.00000119,0.00000116,0.00000532,-0.00000273,-0.00000367,-0
 .00000235,0.00000344,0.00000172,-0.00000019,-0.00000356,-0.00000052,-0
 .00000076,0.00000341,-0.00000207,-0.00000272,-0.00000283,0.00000700,0.
 00000103,0.00000658,0.00000150,0.00000189,0.00000363,-0.00001446,-0.00
 002337,0.00000679,-0.00000599,0.00000015,-0.00000283,-0.00000050,-0.00
 000044,0.00000003,0.00000585,0.00000245,-0.00000220,0.00000156,0.00000
 177,0.00000278,-0.00000024,0.00000157,-0.00000153,-0.00000267,0.000002
 06,0.00000265,0.00000543,0.00000100,0.00000081,-0.00000147,-0.00000130
 ,-0.00000041,0.00000674,0.00000173,0.00001179,-0.00000087,0.00000069,-
 0.00001393,-0.00000203,-0.00001103,0.00000992,0.00000318,0.00000124,-0
 .00000437,0.00000082,0.00000301,0.00000193,-0.00000078,0.00000621,0.00
 000156,-0.00000022,-0.00000122,0.00000163,-0.00000178,0.00000442,0.000
 00127,0.00000076,0.00000224,-0.00000046,0.00000382,0.00000019,-0.00000
 258,-0.00000077,-0.00000054,0.00000217,-0.00000181,0.00000093,0.000003
 22,0.00001091,-0.00000585,-0.00000142,-0.00000291,0.00000175,0.0000029
 0,-0.00000066,-0.00000086,0.00000273,-0.00000140,0.00000296,-0.0000022
 4,0.00000277,-0.00000213,0.00000437\\\@
 The archive entry for this job was punched.


 Any fool can criticize, condemn, and complain -- and most do.
 -- Dale Carnegie
 Job cpu time:       1 days 21 hours 20 minutes 25.9 seconds.
 Elapsed time:       0 days  2 hours 53 minutes 26.9 seconds.
 File lengths (MBytes):  RWF=   9709 Int=      0 D2E=      0 Chk=     55 Scr=      1
 Normal termination of Gaussian 16 at Tue Dec 10 03:48:53 2024.
