42
/Users/danielmarcosatanes/Desktop/Tesis/sp3/Estructuras_supporting copy/DG/Bipy (L1)/Ir(Bpin)/Bipy-Ir(Bpin).log	Energy: -634177.8679756
C          2.46193        1.31741        0.04598
C          0.32617        2.28622        0.03343
C          0.87029        3.55290        0.07869
C          2.25309        3.72118        0.11006
C          3.03906        2.58386        0.09218
C          3.24838        0.08699        0.01969
C          3.13742       -2.22537       -0.06521
C          4.51765       -2.34980       -0.04599
C          5.28323       -1.18833        0.01043
C          4.64374        0.04096        0.04342
H         -0.74749        2.12211        0.01055
H          2.70326        4.71000        0.14674
H          4.12257        2.67094        0.11360
H          2.48858       -3.10005       -0.10806
H          6.36995       -1.23945        0.02846
H          5.22957        0.95572        0.08759
N          1.09186        1.15894        0.01870
N          2.51289       -1.04375       -0.03288
Ir         0.32420       -0.61430       -0.03664
O         -2.40644        0.95376        0.10059
B         -1.66230       -0.22643       -0.02288
O         -2.54253       -1.31363       -0.12787
C         -3.78142        0.65066       -0.17130
C         -3.86152       -0.85741        0.19559
C         -4.07300       -1.09468        1.68611
H         -3.90080       -2.15699        1.89990
H         -3.36067       -0.51153        2.28395
H         -5.09346       -0.84000        2.00390
C         -4.87615       -1.65420       -0.60042
H         -4.86346       -2.70146       -0.27203
H         -5.89240       -1.26299       -0.44540
H         -4.65268       -1.63634       -1.67261
C         -4.01978        0.91348       -1.65319
H         -3.40339        0.25162       -2.27486
H         -5.07401        0.77860       -1.93094
H         -3.73586        1.94933       -1.87843
C         -4.66563        1.55778        0.66127
H         -5.72464        1.28395        0.54755
H         -4.40419        1.51248        1.72404
H         -4.54929        2.59779        0.32926
H          4.97890       -3.33365       -0.07422
H          0.19567        4.40556        0.08976
