/mnt/lustre/scratch/nvme/SLURM/4748555/usccqdma.iSMygwz6Ea
OMP_STACKSIZE=0m
GAUSS_PDEF=16
GAUSS_MDEF=65536MB
GAUSS_RDEF=SCF=Direct
 Entering Gaussian System, Link 0=g16.exe
 Initial command:
 /opt/cesga/2020/software/Core/g16/c1/l1.exe "/mnt/lustre/scratch/nvme/SLURM/4748555/usccqdma.iSMygwz6Ea/Gau-1427988.inp" -scrdir="/mnt/lustre/scratch/nvme/SLURM/4748555/usccqdma.iSMygwz6Ea/"
 Default is to use a total of  16 processors:
                               16 via shared-memory
                                1 via Linda
 Entering Link 1 = /opt/cesga/2020/software/Core/g16/c1/l1.exe PID=   1428014.
  
 Copyright (c) 1988-2019, Gaussian, Inc.  All Rights Reserved.
  
 This is part of the Gaussian(R) 16 program.  It is based on
 the Gaussian(R) 09 system (copyright 2009, Gaussian, Inc.),
 the Gaussian(R) 03 system (copyright 2003, Gaussian, Inc.),
 the Gaussian(R) 98 system (copyright 1998, Gaussian, Inc.),
 the Gaussian(R) 94 system (copyright 1995, Gaussian, Inc.),
 the Gaussian 92(TM) system (copyright 1992, Gaussian, Inc.),
 the Gaussian 90(TM) system (copyright 1990, Gaussian, Inc.),
 the Gaussian 88(TM) system (copyright 1988, Gaussian, Inc.),
 the Gaussian 86(TM) system (copyright 1986, Carnegie Mellon
 University), and the Gaussian 82(TM) system (copyright 1983,
 Carnegie Mellon University). Gaussian is a federally registered
 trademark of Gaussian, Inc.
  
 This software contains proprietary and confidential information,
 including trade secrets, belonging to Gaussian, Inc.
  
 This software is provided under written license and may be
 used, copied, transmitted, or stored only in accord with that
 written license.
  
 The following legend is applicable only to US Government
 contracts under FAR:
  
                    RESTRICTED RIGHTS LEGEND
  
 Use, reproduction and disclosure by the US Government is
 subject to restrictions as set forth in subparagraphs (a)
 and (c) of the Commercial Computer Software - Restricted
 Rights clause in FAR 52.227-19.
  
 Gaussian, Inc.
 340 Quinnipiac St., Bldg. 40, Wallingford CT 06492
  
  
 ---------------------------------------------------------------
 Warning -- This program may not be used in any manner that
 competes with the business of Gaussian, Inc. or will provide
 assistance to any competitor of Gaussian, Inc.  The licensee
 of this program is prohibited from giving any competitor of
 Gaussian, Inc. access to this program.  By using this program,
 the user acknowledges that Gaussian, Inc. is engaged in the
 business of creating and licensing software in the field of
 computational chemistry and represents and warrants to the
 licensee that it is not a competitor of Gaussian, Inc. and that
 it will not use this program in any manner prohibited above.
 ---------------------------------------------------------------
  

 Cite this work as:
 Gaussian 16, Revision C.01,
 M. J. Frisch, G. W. Trucks, H. B. Schlegel, G. E. Scuseria, 
 M. A. Robb, J. R. Cheeseman, G. Scalmani, V. Barone, 
 G. A. Petersson, H. Nakatsuji, X. Li, M. Caricato, A. V. Marenich, 
 J. Bloino, B. G. Janesko, R. Gomperts, B. Mennucci, H. P. Hratchian, 
 J. V. Ortiz, A. F. Izmaylov, J. L. Sonnenberg, D. Williams-Young, 
 F. Ding, F. Lipparini, F. Egidi, J. Goings, B. Peng, A. Petrone, 
 T. Henderson, D. Ranasinghe, V. G. Zakrzewski, J. Gao, N. Rega, 
 G. Zheng, W. Liang, M. Hada, M. Ehara, K. Toyota, R. Fukuda, 
 J. Hasegawa, M. Ishida, T. Nakajima, Y. Honda, O. Kitao, H. Nakai, 
 T. Vreven, K. Throssell, J. A. Montgomery, Jr., J. E. Peralta, 
 F. Ogliaro, M. J. Bearpark, J. J. Heyd, E. N. Brothers, K. N. Kudin, 
 V. N. Staroverov, T. A. Keith, R. Kobayashi, J. Normand, 
 K. Raghavachari, A. P. Rendell, J. C. Burant, S. S. Iyengar, 
 J. Tomasi, M. Cossi, J. M. Millam, M. Klene, C. Adamo, R. Cammi, 
 J. W. Ochterski, R. L. Martin, K. Morokuma, O. Farkas, 
 J. B. Foresman, and D. J. Fox, Gaussian, Inc., Wallingford CT, 2019.
 
 ******************************************
 Gaussian 16:  ES64L-G16RevC.01  3-Jul-2019
                 2-Nov-2023 
 ******************************************
 Default route: SCF=Direct
 --------------------------------------------------------
 # m06/genecp scf=tight int=ultrafine 5d opt freq=noraman
 --------------------------------------------------------
 1/18=20,19=15,26=4,38=1/1,3;
 2/9=110,12=2,17=6,18=5,40=1/2;
 3/5=7,8=1,11=2,16=1,17=8,25=1,30=1,71=1,74=-54,75=-5/1,2,3;
 4//1;
 5/5=2,32=2,38=5/2;
 6/7=2,8=2,9=2,10=2,28=1/1;
 7//1,2,3,16;
 1/18=20,19=15,26=4/3(2);
 2/9=110/2;
 99//99;
 2/9=110/2;
 3/5=7,6=1,8=1,11=2,16=1,17=8,25=1,30=1,71=1,74=-54,75=-5,82=7/1,2,3;
 4/5=5,16=3,69=1/1;
 5/5=2,32=2,38=5/2;
 7//1,2,3,16;
 1/18=20,19=15,26=4/3(-5);
 2/9=110/2;
 6/7=2,8=2,9=2,10=2,19=2,28=1/1;
 99/9=1/99;
 ------
 OPT-TS
 ------
 Symbolic Z-matrix:
 Charge =  0 Multiplicity = 1
 C                    -0.1107    0.8615   -0.1152 
 H                    -0.1926    0.9794    0.9627 
 C                     1.0997    1.0393   -0.8072 
 C                     1.1375    0.8448   -2.1726 
 H                     2.0618    0.9697   -2.7316 
 C                    -0.0408    0.4678   -2.8503 
 C                    -2.4515   -0.3647   -4.1005 
 C                    -3.6648   -0.8183   -4.6583 
 H                    -3.7164   -1.047    -5.7199 
 C                    -4.7656   -0.9802   -3.8413 
 C                    -4.6639   -0.6635   -2.4776 
 H                    -5.4946   -0.7984   -1.7929 
 C                    -2.4403   -0.0802   -2.7159 
 C                    -1.2164    0.3239   -2.0782 
 C                    -1.4055    0.5124    4.0381 
 C                    -2.8956    0.6688    4.4782 
 C                    -0.8986   -0.926     4.1684 
 H                    -1.5977   -1.615     3.685 
 H                    -0.7574   -1.2185    5.215 
 H                     0.0656   -1.0057    3.6542 
 C                    -0.4345    1.4836    4.6923 
 H                     0.5808    1.2984    4.3241 
 H                    -0.429     1.3535    5.781 
 H                    -0.6929    2.5209    4.4643 
 C                    -3.3251   -0.2426    5.6193 
 H                    -4.3765   -0.0555    5.8627 
 H                    -2.7272   -0.0561    6.5195 
 H                    -3.2282   -1.2936    5.3374 
 C                    -3.2767    2.1189    4.783 
 H                    -2.9662    2.7779    3.9657 
 H                    -2.8285    2.4738    5.7179 
 H                    -4.3653    2.1839    4.8702 
 C                    -7.1059    0.9416    1.7885 
 C                    -7.3454   -0.4866    1.1993 
 C                    -6.8725    0.9273    3.3004 
 H                    -6.0846    0.2155    3.5596 
 H                    -7.7887    0.6884    3.8524 
 H                    -6.5298    1.9209    3.6061 
 C                    -8.1718    1.9673    1.4299 
 H                    -7.9172    2.9333    1.8783 
 H                    -9.1525    1.6601    1.8128 
 H                    -8.2449    2.1092    0.3485 
 C                    -8.0544   -1.4587    2.1309 
 H                    -8.1691   -2.4288    1.6349 
 H                    -9.0519   -1.0901    2.3986 
 H                    -7.4775   -1.614     3.0456 
 C                    -8.0401   -0.4586   -0.1642 
 H                    -7.5438    0.2549   -0.831 
 H                    -9.098    -0.1847   -0.0847 
 H                    -7.9714   -1.4556   -0.613 
 B                    -2.7776    0.4573    2.1831 
 B                    -5.1532    0.1513    0.869 
 N                    -1.2386    0.5185   -0.7325 
 N                    -3.5422   -0.2034   -1.9343 
 O                    -1.4828    0.7985    2.6292 
 O                    -3.6026    0.2844    3.2926 
 O                    -5.864     1.319     1.1693 
 O                    -6.0068   -0.9549    0.9756 
 Ir                   -3.2433    0.1932    0.2213 
 H                     1.9903    1.3223   -0.2548 
 H                    -5.709    -1.3458   -4.2343 
 B                    -3.2863   -1.7454    0.616 
 O                    -3.059    -2.3793    1.8334 
 O                    -3.4893   -2.6887   -0.3968 
 C                    -2.8878   -3.7825    1.5754 
 C                    -3.6703   -3.9698    0.2344 
 C                    -1.385    -4.0291    1.425 
 C                    -3.4399   -4.5648    2.7572 
 C                    -3.1179   -5.0527   -0.6806 
 C                    -5.1722   -4.1628    0.4467 
 H                    -0.9886   -3.4689    0.5716 
 H                    -1.1543   -5.0917    1.2909 
 H                    -0.8775   -3.6731    2.327 
 H                    -2.8288   -4.3719    3.6455 
 H                    -3.4211   -5.6423    2.5556 
 H                    -4.4654   -4.2629    2.9818 
 H                    -3.7271   -5.1152   -1.5887 
 H                    -3.1433   -6.0302   -0.1844 
 H                    -2.089    -4.8365   -0.9796 
 H                    -5.5734   -3.3711    1.0845 
 H                    -5.3981   -5.1427    0.8822 
 H                    -5.6736   -4.0908   -0.5243 
 H                    -0.04472   0.29751  -3.90666 
 H                    -1.57473  -0.24089  -4.7012 
 

 GradGradGradGradGradGradGradGradGradGradGradGradGradGradGradGradGradGrad
 Berny optimization.
 Initialization pass.
                           ----------------------------
                           !    Initial Parameters    !
                           ! (Angstroms and Degrees)  !
 --------------------------                            --------------------------
 ! Name  Definition              Value          Derivative Info.                !
 --------------------------------------------------------------------------------
 ! R1    R(1,2)                  1.0874         estimate D2E/DX2                !
 ! R2    R(1,3)                  1.4055         estimate D2E/DX2                !
 ! R3    R(1,53)                 1.3307         estimate D2E/DX2                !
 ! R4    R(3,4)                  1.3797         estimate D2E/DX2                !
 ! R5    R(3,60)                 1.0855         estimate D2E/DX2                !
 ! R6    R(4,5)                  1.0874         estimate D2E/DX2                !
 ! R7    R(4,6)                  1.4106         estimate D2E/DX2                !
 ! R8    R(6,14)                 1.4138         estimate D2E/DX2                !
 ! R9    R(6,83)                 1.07           estimate D2E/DX2                !
 ! R10   R(7,8)                  1.4103         estimate D2E/DX2                !
 ! R11   R(7,13)                 1.4136         estimate D2E/DX2                !
 ! R12   R(7,84)                 1.07           estimate D2E/DX2                !
 ! R13   R(8,9)                  1.0872         estimate D2E/DX2                !
 ! R14   R(8,10)                 1.3804         estimate D2E/DX2                !
 ! R15   R(10,11)                1.4037         estimate D2E/DX2                !
 ! R16   R(10,61)                1.0854         estimate D2E/DX2                !
 ! R17   R(11,12)                1.0849         estimate D2E/DX2                !
 ! R18   R(11,54)                1.3286         estimate D2E/DX2                !
 ! R19   R(13,14)                1.438          estimate D2E/DX2                !
 ! R20   R(13,54)                1.3566         estimate D2E/DX2                !
 ! R21   R(14,53)                1.3599         estimate D2E/DX2                !
 ! R22   R(15,16)                1.5616         estimate D2E/DX2                !
 ! R23   R(15,17)                1.5307         estimate D2E/DX2                !
 ! R24   R(15,21)                1.5212         estimate D2E/DX2                !
 ! R25   R(15,55)                1.4397         estimate D2E/DX2                !
 ! R26   R(16,25)                1.5222         estimate D2E/DX2                !
 ! R27   R(16,29)                1.53           estimate D2E/DX2                !
 ! R28   R(16,56)                1.4329         estimate D2E/DX2                !
 ! R29   R(17,18)                1.0941         estimate D2E/DX2                !
 ! R30   R(17,19)                1.0958         estimate D2E/DX2                !
 ! R31   R(17,20)                1.0956         estimate D2E/DX2                !
 ! R32   R(21,22)                1.0958         estimate D2E/DX2                !
 ! R33   R(21,23)                1.0965         estimate D2E/DX2                !
 ! R34   R(21,24)                1.093          estimate D2E/DX2                !
 ! R35   R(25,26)                1.0953         estimate D2E/DX2                !
 ! R36   R(25,27)                1.0966         estimate D2E/DX2                !
 ! R37   R(25,28)                1.0925         estimate D2E/DX2                !
 ! R38   R(29,30)                1.0948         estimate D2E/DX2                !
 ! R39   R(29,31)                1.0958         estimate D2E/DX2                !
 ! R40   R(29,32)                1.094          estimate D2E/DX2                !
 ! R41   R(33,34)                1.5634         estimate D2E/DX2                !
 ! R42   R(33,35)                1.5299         estimate D2E/DX2                !
 ! R43   R(33,39)                1.5221         estimate D2E/DX2                !
 ! R44   R(33,57)                1.4381         estimate D2E/DX2                !
 ! R45   R(34,43)                1.5217         estimate D2E/DX2                !
 ! R46   R(34,47)                1.5305         estimate D2E/DX2                !
 ! R47   R(34,58)                1.4357         estimate D2E/DX2                !
 ! R48   R(35,36)                1.093          estimate D2E/DX2                !
 ! R49   R(35,37)                1.096          estimate D2E/DX2                !
 ! R50   R(35,38)                1.0946         estimate D2E/DX2                !
 ! R51   R(39,40)                1.095          estimate D2E/DX2                !
 ! R52   R(39,41)                1.0967         estimate D2E/DX2                !
 ! R53   R(39,42)                1.0931         estimate D2E/DX2                !
 ! R54   R(43,44)                1.0956         estimate D2E/DX2                !
 ! R55   R(43,45)                1.0966         estimate D2E/DX2                !
 ! R56   R(43,46)                1.0925         estimate D2E/DX2                !
 ! R57   R(47,48)                1.0955         estimate D2E/DX2                !
 ! R58   R(47,49)                1.0957         estimate D2E/DX2                !
 ! R59   R(47,50)                1.0955         estimate D2E/DX2                !
 ! R60   R(51,55)                1.4114         estimate D2E/DX2                !
 ! R61   R(51,56)                1.3934         estimate D2E/DX2                !
 ! R62   R(51,59)                2.0335         estimate D2E/DX2                !
 ! R63   R(52,57)                1.3996         estimate D2E/DX2                !
 ! R64   R(52,58)                1.4013         estimate D2E/DX2                !
 ! R65   R(52,59)                2.0172         estimate D2E/DX2                !
 ! R66   R(53,59)                2.2437         estimate D2E/DX2                !
 ! R67   R(54,59)                2.2121         estimate D2E/DX2                !
 ! R68   R(59,62)                1.9788         estimate D2E/DX2                !
 ! R69   R(62,63)                1.3912         estimate D2E/DX2                !
 ! R70   R(62,64)                1.3989         estimate D2E/DX2                !
 ! R71   R(63,65)                1.437          estimate D2E/DX2                !
 ! R72   R(64,66)                1.4396         estimate D2E/DX2                !
 ! R73   R(65,66)                1.5639         estimate D2E/DX2                !
 ! R74   R(65,67)                1.5303         estimate D2E/DX2                !
 ! R75   R(65,68)                1.521          estimate D2E/DX2                !
 ! R76   R(66,69)                1.5215         estimate D2E/DX2                !
 ! R77   R(66,70)                1.5291         estimate D2E/DX2                !
 ! R78   R(67,71)                1.0951         estimate D2E/DX2                !
 ! R79   R(67,72)                1.0956         estimate D2E/DX2                !
 ! R80   R(67,73)                1.0945         estimate D2E/DX2                !
 ! R81   R(68,74)                1.0953         estimate D2E/DX2                !
 ! R82   R(68,75)                1.0964         estimate D2E/DX2                !
 ! R83   R(68,76)                1.0924         estimate D2E/DX2                !
 ! R84   R(69,77)                1.0953         estimate D2E/DX2                !
 ! R85   R(69,78)                1.0965         estimate D2E/DX2                !
 ! R86   R(69,79)                1.0931         estimate D2E/DX2                !
 ! R87   R(70,80)                1.0929         estimate D2E/DX2                !
 ! R88   R(70,81)                1.0959         estimate D2E/DX2                !
 ! R89   R(70,82)                1.0952         estimate D2E/DX2                !
 ! A1    A(2,1,3)              122.6273         estimate D2E/DX2                !
 ! A2    A(2,1,53)             115.0828         estimate D2E/DX2                !
 ! A3    A(3,1,53)             122.2843         estimate D2E/DX2                !
 ! A4    A(1,3,4)              119.5376         estimate D2E/DX2                !
 ! A5    A(1,3,60)             119.2721         estimate D2E/DX2                !
 ! A6    A(4,3,60)             121.1894         estimate D2E/DX2                !
 ! A7    A(3,4,5)              121.0538         estimate D2E/DX2                !
 ! A8    A(3,4,6)              119.3567         estimate D2E/DX2                !
 ! A9    A(5,4,6)              119.5877         estimate D2E/DX2                !
 ! A10   A(4,6,14)             117.3487         estimate D2E/DX2                !
 ! A11   A(4,6,83)             121.3256         estimate D2E/DX2                !
 ! A12   A(14,6,83)            121.3256         estimate D2E/DX2                !
 ! A13   A(8,7,13)             117.3198         estimate D2E/DX2                !
 ! A14   A(8,7,84)             121.3401         estimate D2E/DX2                !
 ! A15   A(13,7,84)            121.3401         estimate D2E/DX2                !
 ! A16   A(7,8,9)              119.6499         estimate D2E/DX2                !
 ! A17   A(7,8,10)             119.3201         estimate D2E/DX2                !
 ! A18   A(9,8,10)             121.0253         estimate D2E/DX2                !
 ! A19   A(8,10,11)            119.391          estimate D2E/DX2                !
 ! A20   A(8,10,61)            121.2203         estimate D2E/DX2                !
 ! A21   A(11,10,61)           119.3887         estimate D2E/DX2                !
 ! A22   A(10,11,12)           121.9782         estimate D2E/DX2                !
 ! A23   A(10,11,54)           122.4523         estimate D2E/DX2                !
 ! A24   A(12,11,54)           115.5585         estimate D2E/DX2                !
 ! A25   A(7,13,14)            119.846          estimate D2E/DX2                !
 ! A26   A(7,13,54)            122.6591         estimate D2E/DX2                !
 ! A27   A(14,13,54)           117.474          estimate D2E/DX2                !
 ! A28   A(6,14,13)            119.612          estimate D2E/DX2                !
 ! A29   A(6,14,53)            122.6445         estimate D2E/DX2                !
 ! A30   A(13,14,53)           117.7202         estimate D2E/DX2                !
 ! A31   A(16,15,17)           112.714          estimate D2E/DX2                !
 ! A32   A(16,15,21)           115.084          estimate D2E/DX2                !
 ! A33   A(16,15,55)           101.8095         estimate D2E/DX2                !
 ! A34   A(17,15,21)           110.6076         estimate D2E/DX2                !
 ! A35   A(17,15,55)           106.7277         estimate D2E/DX2                !
 ! A36   A(21,15,55)           109.1624         estimate D2E/DX2                !
 ! A37   A(15,16,25)           114.8682         estimate D2E/DX2                !
 ! A38   A(15,16,29)           112.8767         estimate D2E/DX2                !
 ! A39   A(15,16,56)           102.1668         estimate D2E/DX2                !
 ! A40   A(25,16,29)           110.3551         estimate D2E/DX2                !
 ! A41   A(25,16,56)           108.6875         estimate D2E/DX2                !
 ! A42   A(29,16,56)           107.2286         estimate D2E/DX2                !
 ! A43   A(15,17,18)           110.0327         estimate D2E/DX2                !
 ! A44   A(15,17,19)           112.0121         estimate D2E/DX2                !
 ! A45   A(15,17,20)           108.6534         estimate D2E/DX2                !
 ! A46   A(18,17,19)           109.6457         estimate D2E/DX2                !
 ! A47   A(18,17,20)           108.0075         estimate D2E/DX2                !
 ! A48   A(19,17,20)           108.3859         estimate D2E/DX2                !
 ! A49   A(15,21,22)           109.8175         estimate D2E/DX2                !
 ! A50   A(15,21,23)           110.7603         estimate D2E/DX2                !
 ! A51   A(15,21,24)           111.4247         estimate D2E/DX2                !
 ! A52   A(22,21,23)           107.9954         estimate D2E/DX2                !
 ! A53   A(22,21,24)           108.0199         estimate D2E/DX2                !
 ! A54   A(23,21,24)           108.7176         estimate D2E/DX2                !
 ! A55   A(16,25,26)           109.5815         estimate D2E/DX2                !
 ! A56   A(16,25,27)           111.0809         estimate D2E/DX2                !
 ! A57   A(16,25,28)           110.9493         estimate D2E/DX2                !
 ! A58   A(26,25,27)           108.1732         estimate D2E/DX2                !
 ! A59   A(26,25,28)           107.868          estimate D2E/DX2                !
 ! A60   A(27,25,28)           109.0911         estimate D2E/DX2                !
 ! A61   A(16,29,30)           110.556          estimate D2E/DX2                !
 ! A62   A(16,29,31)           112.0259         estimate D2E/DX2                !
 ! A63   A(16,29,32)           108.6653         estimate D2E/DX2                !
 ! A64   A(30,29,31)           109.0223         estimate D2E/DX2                !
 ! A65   A(30,29,32)           107.8146         estimate D2E/DX2                !
 ! A66   A(31,29,32)           108.6467         estimate D2E/DX2                !
 ! A67   A(34,33,35)           112.7848         estimate D2E/DX2                !
 ! A68   A(34,33,39)           114.8046         estimate D2E/DX2                !
 ! A69   A(34,33,57)           102.108          estimate D2E/DX2                !
 ! A70   A(35,33,39)           110.2405         estimate D2E/DX2                !
 ! A71   A(35,33,57)           107.2303         estimate D2E/DX2                !
 ! A72   A(39,33,57)           109.0539         estimate D2E/DX2                !
 ! A73   A(33,34,43)           115.102          estimate D2E/DX2                !
 ! A74   A(33,34,47)           112.8648         estimate D2E/DX2                !
 ! A75   A(33,34,58)           102.3489         estimate D2E/DX2                !
 ! A76   A(43,34,47)           110.2188         estimate D2E/DX2                !
 ! A77   A(43,34,58)           108.7498         estimate D2E/DX2                !
 ! A78   A(47,34,58)           106.8794         estimate D2E/DX2                !
 ! A79   A(33,35,36)           110.5133         estimate D2E/DX2                !
 ! A80   A(33,35,37)           111.8537         estimate D2E/DX2                !
 ! A81   A(33,35,38)           108.3777         estimate D2E/DX2                !
 ! A82   A(36,35,37)           109.951          estimate D2E/DX2                !
 ! A83   A(36,35,38)           107.4114         estimate D2E/DX2                !
 ! A84   A(37,35,38)           108.5981         estimate D2E/DX2                !
 ! A85   A(33,39,40)           109.5836         estimate D2E/DX2                !
 ! A86   A(33,39,41)           110.8054         estimate D2E/DX2                !
 ! A87   A(33,39,42)           111.5539         estimate D2E/DX2                !
 ! A88   A(40,39,41)           108.1833         estimate D2E/DX2                !
 ! A89   A(40,39,42)           107.8265         estimate D2E/DX2                !
 ! A90   A(41,39,42)           108.7813         estimate D2E/DX2                !
 ! A91   A(34,43,44)           109.7112         estimate D2E/DX2                !
 ! A92   A(34,43,45)           111.0109         estimate D2E/DX2                !
 ! A93   A(34,43,46)           110.9372         estimate D2E/DX2                !
 ! A94   A(44,43,45)           108.2354         estimate D2E/DX2                !
 ! A95   A(44,43,46)           107.9664         estimate D2E/DX2                !
 ! A96   A(45,43,46)           108.888          estimate D2E/DX2                !
 ! A97   A(34,47,48)           110.3984         estimate D2E/DX2                !
 ! A98   A(34,47,49)           112.2211         estimate D2E/DX2                !
 ! A99   A(34,47,50)           108.6538         estimate D2E/DX2                !
 ! A100  A(48,47,49)           108.5892         estimate D2E/DX2                !
 ! A101  A(48,47,50)           108.3597         estimate D2E/DX2                !
 ! A102  A(49,47,50)           108.5286         estimate D2E/DX2                !
 ! A103  A(55,51,56)           108.7539         estimate D2E/DX2                !
 ! A104  A(55,51,59)           123.1219         estimate D2E/DX2                !
 ! A105  A(56,51,59)           128.0585         estimate D2E/DX2                !
 ! A106  A(57,52,58)           109.4461         estimate D2E/DX2                !
 ! A107  A(57,52,59)           122.1683         estimate D2E/DX2                !
 ! A108  A(58,52,59)           128.1391         estimate D2E/DX2                !
 ! A109  A(1,53,14)            118.8219         estimate D2E/DX2                !
 ! A110  A(1,53,59)            126.6878         estimate D2E/DX2                !
 ! A111  A(14,53,59)           114.4878         estimate D2E/DX2                !
 ! A112  A(11,54,13)           118.7923         estimate D2E/DX2                !
 ! A113  A(11,54,59)           125.0767         estimate D2E/DX2                !
 ! A114  A(13,54,59)           115.8117         estimate D2E/DX2                !
 ! A115  A(15,55,51)           108.0909         estimate D2E/DX2                !
 ! A116  A(16,56,51)           109.4758         estimate D2E/DX2                !
 ! A117  A(33,57,52)           108.1799         estimate D2E/DX2                !
 ! A118  A(34,58,52)           108.8028         estimate D2E/DX2                !
 ! A119  A(51,59,52)            84.8228         estimate D2E/DX2                !
 ! A120  A(51,59,53)           100.7577         estimate D2E/DX2                !
 ! A121  A(51,59,62)            86.5478         estimate D2E/DX2                !
 ! A122  A(52,59,54)           100.4417         estimate D2E/DX2                !
 ! A123  A(52,59,62)            83.9746         estimate D2E/DX2                !
 ! A124  A(53,59,54)            74.4832         estimate D2E/DX2                !
 ! A125  A(53,59,62)           104.2549         estimate D2E/DX2                !
 ! A126  A(54,59,62)            90.9047         estimate D2E/DX2                !
 ! A127  A(59,62,63)           128.1234         estimate D2E/DX2                !
 ! A128  A(59,62,64)           121.2897         estimate D2E/DX2                !
 ! A129  A(63,62,64)           110.4878         estimate D2E/DX2                !
 ! A130  A(62,63,65)           107.8958         estimate D2E/DX2                !
 ! A131  A(62,64,66)           107.5112         estimate D2E/DX2                !
 ! A132  A(63,65,66)           102.1985         estimate D2E/DX2                !
 ! A133  A(63,65,67)           106.978          estimate D2E/DX2                !
 ! A134  A(63,65,68)           108.6325         estimate D2E/DX2                !
 ! A135  A(66,65,67)           112.8173         estimate D2E/DX2                !
 ! A136  A(66,65,68)           115.0264         estimate D2E/DX2                !
 ! A137  A(67,65,68)           110.4837         estimate D2E/DX2                !
 ! A138  A(64,66,65)           101.9163         estimate D2E/DX2                !
 ! A139  A(64,66,69)           108.9076         estimate D2E/DX2                !
 ! A140  A(64,66,70)           107.2596         estimate D2E/DX2                !
 ! A141  A(65,66,69)           114.7873         estimate D2E/DX2                !
 ! A142  A(65,66,70)           112.8013         estimate D2E/DX2                !
 ! A143  A(69,66,70)           110.5038         estimate D2E/DX2                !
 ! A144  A(65,67,71)           110.4644         estimate D2E/DX2                !
 ! A145  A(65,67,72)           112.0309         estimate D2E/DX2                !
 ! A146  A(65,67,73)           108.7804         estimate D2E/DX2                !
 ! A147  A(71,67,72)           108.9377         estimate D2E/DX2                !
 ! A148  A(71,67,73)           107.9389         estimate D2E/DX2                !
 ! A149  A(72,67,73)           108.5847         estimate D2E/DX2                !
 ! A150  A(65,68,74)           109.6964         estimate D2E/DX2                !
 ! A151  A(65,68,75)           110.8784         estimate D2E/DX2                !
 ! A152  A(65,68,76)           111.0005         estimate D2E/DX2                !
 ! A153  A(74,68,75)           108.2186         estimate D2E/DX2                !
 ! A154  A(74,68,76)           107.9598         estimate D2E/DX2                !
 ! A155  A(75,68,76)           108.9975         estimate D2E/DX2                !
 ! A156  A(66,69,77)           109.7107         estimate D2E/DX2                !
 ! A157  A(66,69,78)           110.7274         estimate D2E/DX2                !
 ! A158  A(66,69,79)           111.4367         estimate D2E/DX2                !
 ! A159  A(77,69,78)           108.1453         estimate D2E/DX2                !
 ! A160  A(77,69,79)           107.9413         estimate D2E/DX2                !
 ! A161  A(78,69,79)           108.7786         estimate D2E/DX2                !
 ! A162  A(66,70,80)           110.4966         estimate D2E/DX2                !
 ! A163  A(66,70,81)           111.7478         estimate D2E/DX2                !
 ! A164  A(66,70,82)           108.5597         estimate D2E/DX2                !
 ! A165  A(80,70,81)           109.8856         estimate D2E/DX2                !
 ! A166  A(80,70,82)           107.5603         estimate D2E/DX2                !
 ! A167  A(81,70,82)           108.4668         estimate D2E/DX2                !
 ! A168  L(51,59,54,52,-1)     185.2645         estimate D2E/DX2                !
 ! A169  L(52,59,53,51,-1)     185.5805         estimate D2E/DX2                !
 ! A170  L(51,59,54,52,-2)     183.1264         estimate D2E/DX2                !
 ! A171  L(52,59,53,51,-2)     188.1187         estimate D2E/DX2                !
 ! D1    D(2,1,3,4)            178.5784         estimate D2E/DX2                !
 ! D2    D(2,1,3,60)            -1.0797         estimate D2E/DX2                !
 ! D3    D(53,1,3,4)            -0.5193         estimate D2E/DX2                !
 ! D4    D(53,1,3,60)          179.8225         estimate D2E/DX2                !
 ! D5    D(2,1,53,14)         -178.6692         estimate D2E/DX2                !
 ! D6    D(2,1,53,59)            0.7219         estimate D2E/DX2                !
 ! D7    D(3,1,53,14)            0.4918         estimate D2E/DX2                !
 ! D8    D(3,1,53,59)          179.883          estimate D2E/DX2                !
 ! D9    D(1,3,4,5)           -179.6251         estimate D2E/DX2                !
 ! D10   D(1,3,4,6)             -0.123          estimate D2E/DX2                !
 ! D11   D(60,3,4,5)             0.0263         estimate D2E/DX2                !
 ! D12   D(60,3,4,6)           179.5284         estimate D2E/DX2                !
 ! D13   D(3,4,6,14)             0.7272         estimate D2E/DX2                !
 ! D14   D(3,4,6,83)          -179.2728         estimate D2E/DX2                !
 ! D15   D(5,4,6,14)          -179.7633         estimate D2E/DX2                !
 ! D16   D(5,4,6,83)             0.2367         estimate D2E/DX2                !
 ! D17   D(4,6,14,13)         -178.9788         estimate D2E/DX2                !
 ! D18   D(4,6,14,53)           -0.7778         estimate D2E/DX2                !
 ! D19   D(83,6,14,13)           1.0212         estimate D2E/DX2                !
 ! D20   D(83,6,14,53)         179.2222         estimate D2E/DX2                !
 ! D21   D(13,7,8,9)           179.9144         estimate D2E/DX2                !
 ! D22   D(13,7,8,10)           -0.8645         estimate D2E/DX2                !
 ! D23   D(84,7,8,9)            -0.0856         estimate D2E/DX2                !
 ! D24   D(84,7,8,10)          179.1355         estimate D2E/DX2                !
 ! D25   D(8,7,13,14)          177.0162         estimate D2E/DX2                !
 ! D26   D(8,7,13,54)           -1.2794         estimate D2E/DX2                !
 ! D27   D(84,7,13,14)          -2.9838         estimate D2E/DX2                !
 ! D28   D(84,7,13,54)         178.7206         estimate D2E/DX2                !
 ! D29   D(7,8,10,11)            1.338          estimate D2E/DX2                !
 ! D30   D(7,8,10,61)         -178.7981         estimate D2E/DX2                !
 ! D31   D(9,8,10,11)         -179.4519         estimate D2E/DX2                !
 ! D32   D(9,8,10,61)            0.412          estimate D2E/DX2                !
 ! D33   D(8,10,11,12)        -178.4214         estimate D2E/DX2                !
 ! D34   D(8,10,11,54)           0.3199         estimate D2E/DX2                !
 ! D35   D(61,10,11,12)          1.7122         estimate D2E/DX2                !
 ! D36   D(61,10,11,54)       -179.5466         estimate D2E/DX2                !
 ! D37   D(10,11,54,13)         -2.4216         estimate D2E/DX2                !
 ! D38   D(10,11,54,59)       -175.6464         estimate D2E/DX2                !
 ! D39   D(12,11,54,13)        176.3949         estimate D2E/DX2                !
 ! D40   D(12,11,54,59)          3.17           estimate D2E/DX2                !
 ! D41   D(7,13,14,6)            1.6842         estimate D2E/DX2                !
 ! D42   D(7,13,14,53)        -176.6046         estimate D2E/DX2                !
 ! D43   D(54,13,14,6)        -179.9332         estimate D2E/DX2                !
 ! D44   D(54,13,14,53)          1.7781         estimate D2E/DX2                !
 ! D45   D(7,13,54,11)           2.9171         estimate D2E/DX2                !
 ! D46   D(7,13,54,59)         176.7604         estimate D2E/DX2                !
 ! D47   D(14,13,54,11)       -175.4166         estimate D2E/DX2                !
 ! D48   D(14,13,54,59)         -1.5733         estimate D2E/DX2                !
 ! D49   D(6,14,53,1)            0.1722         estimate D2E/DX2                !
 ! D50   D(6,14,53,59)        -179.2913         estimate D2E/DX2                !
 ! D51   D(13,14,53,1)         178.4054         estimate D2E/DX2                !
 ! D52   D(13,14,53,59)         -1.0581         estimate D2E/DX2                !
 ! D53   D(17,15,16,25)         33.809          estimate D2E/DX2                !
 ! D54   D(17,15,16,29)        161.5207         estimate D2E/DX2                !
 ! D55   D(17,15,16,56)        -83.6556         estimate D2E/DX2                !
 ! D56   D(21,15,16,25)        -94.3055         estimate D2E/DX2                !
 ! D57   D(21,15,16,29)         33.4062         estimate D2E/DX2                !
 ! D58   D(21,15,16,56)        148.23           estimate D2E/DX2                !
 ! D59   D(55,15,16,25)        147.7811         estimate D2E/DX2                !
 ! D60   D(55,15,16,29)        -84.5072         estimate D2E/DX2                !
 ! D61   D(55,15,16,56)         30.3165         estimate D2E/DX2                !
 ! D62   D(16,15,17,18)         50.2302         estimate D2E/DX2                !
 ! D63   D(16,15,17,19)        -72.0049         estimate D2E/DX2                !
 ! D64   D(16,15,17,20)        168.2891         estimate D2E/DX2                !
 ! D65   D(21,15,17,18)       -179.3477         estimate D2E/DX2                !
 ! D66   D(21,15,17,19)         58.4172         estimate D2E/DX2                !
 ! D67   D(21,15,17,20)        -61.2889         estimate D2E/DX2                !
 ! D68   D(55,15,17,18)        -60.7149         estimate D2E/DX2                !
 ! D69   D(55,15,17,19)        177.0499         estimate D2E/DX2                !
 ! D70   D(55,15,17,20)         57.3439         estimate D2E/DX2                !
 ! D71   D(16,15,21,22)        179.9744         estimate D2E/DX2                !
 ! D72   D(16,15,21,23)         60.7786         estimate D2E/DX2                !
 ! D73   D(16,15,21,24)        -60.38           estimate D2E/DX2                !
 ! D74   D(17,15,21,22)         50.8133         estimate D2E/DX2                !
 ! D75   D(17,15,21,23)        -68.3825         estimate D2E/DX2                !
 ! D76   D(17,15,21,24)        170.459          estimate D2E/DX2                !
 ! D77   D(55,15,21,22)        -66.3293         estimate D2E/DX2                !
 ! D78   D(55,15,21,23)        174.4749         estimate D2E/DX2                !
 ! D79   D(55,15,21,24)         53.3164         estimate D2E/DX2                !
 ! D80   D(16,15,55,51)        -27.4516         estimate D2E/DX2                !
 ! D81   D(17,15,55,51)         90.8915         estimate D2E/DX2                !
 ! D82   D(21,15,55,51)       -149.5366         estimate D2E/DX2                !
 ! D83   D(15,16,25,26)        179.4771         estimate D2E/DX2                !
 ! D84   D(15,16,25,27)         60.0114         estimate D2E/DX2                !
 ! D85   D(15,16,25,28)        -61.5172         estimate D2E/DX2                !
 ! D86   D(29,16,25,26)         50.5021         estimate D2E/DX2                !
 ! D87   D(29,16,25,27)        -68.9637         estimate D2E/DX2                !
 ! D88   D(29,16,25,28)        169.5077         estimate D2E/DX2                !
 ! D89   D(56,16,25,26)        -66.8194         estimate D2E/DX2                !
 ! D90   D(56,16,25,27)        173.7148         estimate D2E/DX2                !
 ! D91   D(56,16,25,28)         52.1862         estimate D2E/DX2                !
 ! D92   D(15,16,29,30)         49.7654         estimate D2E/DX2                !
 ! D93   D(15,16,29,31)        -72.0519         estimate D2E/DX2                !
 ! D94   D(15,16,29,32)        167.9009         estimate D2E/DX2                !
 ! D95   D(25,16,29,30)        179.8094         estimate D2E/DX2                !
 ! D96   D(25,16,29,31)         57.992          estimate D2E/DX2                !
 ! D97   D(25,16,29,32)        -62.0552         estimate D2E/DX2                !
 ! D98   D(56,16,29,30)        -61.9711         estimate D2E/DX2                !
 ! D99   D(56,16,29,31)        176.2115         estimate D2E/DX2                !
 ! D100  D(56,16,29,32)         56.1643         estimate D2E/DX2                !
 ! D101  D(15,16,56,51)        -23.176          estimate D2E/DX2                !
 ! D102  D(25,16,56,51)       -144.9831         estimate D2E/DX2                !
 ! D103  D(29,16,56,51)         95.7201         estimate D2E/DX2                !
 ! D104  D(35,33,34,43)         32.4921         estimate D2E/DX2                !
 ! D105  D(35,33,34,47)        160.2082         estimate D2E/DX2                !
 ! D106  D(35,33,34,58)        -85.2785         estimate D2E/DX2                !
 ! D107  D(39,33,34,43)        -94.9177         estimate D2E/DX2                !
 ! D108  D(39,33,34,47)         32.7985         estimate D2E/DX2                !
 ! D109  D(39,33,34,58)        147.3118         estimate D2E/DX2                !
 ! D110  D(57,33,34,43)        147.2449         estimate D2E/DX2                !
 ! D111  D(57,33,34,47)        -85.0389         estimate D2E/DX2                !
 ! D112  D(57,33,34,58)         29.4744         estimate D2E/DX2                !
 ! D113  D(34,33,35,36)         52.0677         estimate D2E/DX2                !
 ! D114  D(34,33,35,37)        -70.7918         estimate D2E/DX2                !
 ! D115  D(34,33,35,38)        169.5168         estimate D2E/DX2                !
 ! D116  D(39,33,35,36)       -178.1505         estimate D2E/DX2                !
 ! D117  D(39,33,35,37)         58.99           estimate D2E/DX2                !
 ! D118  D(39,33,35,38)        -60.7014         estimate D2E/DX2                !
 ! D119  D(57,33,35,36)        -59.5535         estimate D2E/DX2                !
 ! D120  D(57,33,35,37)        177.587          estimate D2E/DX2                !
 ! D121  D(57,33,35,38)         57.8956         estimate D2E/DX2                !
 ! D122  D(34,33,39,40)       -179.6089         estimate D2E/DX2                !
 ! D123  D(34,33,39,41)         61.0833         estimate D2E/DX2                !
 ! D124  D(34,33,39,42)        -60.2758         estimate D2E/DX2                !
 ! D125  D(35,33,39,40)         51.6999         estimate D2E/DX2                !
 ! D126  D(35,33,39,41)        -67.6079         estimate D2E/DX2                !
 ! D127  D(35,33,39,42)        171.0331         estimate D2E/DX2                !
 ! D128  D(57,33,39,40)        -65.775          estimate D2E/DX2                !
 ! D129  D(57,33,39,41)        174.9172         estimate D2E/DX2                !
 ! D130  D(57,33,39,42)         53.5582         estimate D2E/DX2                !
 ! D131  D(34,33,57,52)        -26.5966         estimate D2E/DX2                !
 ! D132  D(35,33,57,52)         92.1688         estimate D2E/DX2                !
 ! D133  D(39,33,57,52)       -148.4692         estimate D2E/DX2                !
 ! D134  D(33,34,43,44)       -179.5713         estimate D2E/DX2                !
 ! D135  D(33,34,43,45)         60.8459         estimate D2E/DX2                !
 ! D136  D(33,34,43,46)        -60.3686         estimate D2E/DX2                !
 ! D137  D(47,34,43,44)         51.3933         estimate D2E/DX2                !
 ! D138  D(47,34,43,45)        -68.1895         estimate D2E/DX2                !
 ! D139  D(47,34,43,46)        170.596          estimate D2E/DX2                !
 ! D140  D(58,34,43,44)        -65.465          estimate D2E/DX2                !
 ! D141  D(58,34,43,45)        174.9522         estimate D2E/DX2                !
 ! D142  D(58,34,43,46)         53.7377         estimate D2E/DX2                !
 ! D143  D(33,34,47,48)         48.6624         estimate D2E/DX2                !
 ! D144  D(33,34,47,49)        -72.6236         estimate D2E/DX2                !
 ! D145  D(33,34,47,50)        167.3622         estimate D2E/DX2                !
 ! D146  D(43,34,47,48)        178.8994         estimate D2E/DX2                !
 ! D147  D(43,34,47,49)         57.6135         estimate D2E/DX2                !
 ! D148  D(43,34,47,50)        -62.4007         estimate D2E/DX2                !
 ! D149  D(58,34,47,48)        -63.0845         estimate D2E/DX2                !
 ! D150  D(58,34,47,49)        175.6296         estimate D2E/DX2                !
 ! D151  D(58,34,47,50)         55.6154         estimate D2E/DX2                !
 ! D152  D(33,34,58,52)        -22.4407         estimate D2E/DX2                !
 ! D153  D(43,34,58,52)       -144.6445         estimate D2E/DX2                !
 ! D154  D(47,34,58,52)         96.3819         estimate D2E/DX2                !
 ! D155  D(56,51,55,15)         14.3751         estimate D2E/DX2                !
 ! D156  D(59,51,55,15)       -162.8896         estimate D2E/DX2                !
 ! D157  D(55,51,56,16)          6.9226         estimate D2E/DX2                !
 ! D158  D(59,51,56,16)       -175.9869         estimate D2E/DX2                !
 ! D159  D(55,51,59,52)       -170.0171         estimate D2E/DX2                !
 ! D160  D(55,51,59,53)          1.8642         estimate D2E/DX2                !
 ! D161  D(55,51,59,62)        105.7293         estimate D2E/DX2                !
 ! D162  D(56,51,59,52)         13.2729         estimate D2E/DX2                !
 ! D163  D(56,51,59,53)       -174.8458         estimate D2E/DX2                !
 ! D164  D(56,51,59,62)        -70.9807         estimate D2E/DX2                !
 ! D165  D(58,52,57,33)         13.854          estimate D2E/DX2                !
 ! D166  D(59,52,57,33)       -171.4195         estimate D2E/DX2                !
 ! D167  D(57,52,58,34)          6.7858         estimate D2E/DX2                !
 ! D168  D(59,52,58,34)       -167.5372         estimate D2E/DX2                !
 ! D169  D(57,52,59,51)         79.6821         estimate D2E/DX2                !
 ! D170  D(57,52,59,54)       -103.4442         estimate D2E/DX2                !
 ! D171  D(57,52,59,62)        166.7453         estimate D2E/DX2                !
 ! D172  D(58,52,59,51)       -106.6443         estimate D2E/DX2                !
 ! D173  D(58,52,59,54)         70.2294         estimate D2E/DX2                !
 ! D174  D(58,52,59,62)        -19.5811         estimate D2E/DX2                !
 ! D175  D(1,53,59,51)          -3.1649         estimate D2E/DX2                !
 ! D176  D(1,53,59,54)        -179.2328         estimate D2E/DX2                !
 ! D177  D(1,53,59,62)         -92.3071         estimate D2E/DX2                !
 ! D178  D(14,53,59,51)        176.249          estimate D2E/DX2                !
 ! D179  D(14,53,59,54)          0.181          estimate D2E/DX2                !
 ! D180  D(14,53,59,62)         87.1067         estimate D2E/DX2                !
 ! D181  D(11,54,59,52)        -14.4318         estimate D2E/DX2                !
 ! D182  D(11,54,59,53)        174.1563         estimate D2E/DX2                !
 ! D183  D(11,54,59,62)         69.6078         estimate D2E/DX2                !
 ! D184  D(13,54,59,52)        172.1629         estimate D2E/DX2                !
 ! D185  D(13,54,59,53)          0.7511         estimate D2E/DX2                !
 ! D186  D(13,54,59,62)       -103.7974         estimate D2E/DX2                !
 ! D187  D(51,59,62,63)          0.3533         estimate D2E/DX2                !
 ! D188  D(51,59,62,64)       -175.6688         estimate D2E/DX2                !
 ! D189  D(52,59,62,63)        -84.7974         estimate D2E/DX2                !
 ! D190  D(52,59,62,64)         99.1805         estimate D2E/DX2                !
 ! D191  D(53,59,62,63)        100.5839         estimate D2E/DX2                !
 ! D192  D(53,59,62,64)        -75.4382         estimate D2E/DX2                !
 ! D193  D(54,59,62,63)        174.798          estimate D2E/DX2                !
 ! D194  D(54,59,62,64)         -1.2241         estimate D2E/DX2                !
 ! D195  D(59,62,63,65)       -166.7007         estimate D2E/DX2                !
 ! D196  D(64,62,63,65)          9.6709         estimate D2E/DX2                !
 ! D197  D(59,62,64,66)       -171.3731         estimate D2E/DX2                !
 ! D198  D(63,62,64,66)         11.9668         estimate D2E/DX2                !
 ! D199  D(62,63,65,66)        -25.0776         estimate D2E/DX2                !
 ! D200  D(62,63,65,67)         93.6623         estimate D2E/DX2                !
 ! D201  D(62,63,65,68)       -147.0585         estimate D2E/DX2                !
 ! D202  D(62,64,66,65)        -26.3235         estimate D2E/DX2                !
 ! D203  D(62,64,66,69)       -148.0056         estimate D2E/DX2                !
 ! D204  D(62,64,66,70)         92.3823         estimate D2E/DX2                !
 ! D205  D(63,65,66,64)         31.096          estimate D2E/DX2                !
 ! D206  D(63,65,66,69)        148.6277         estimate D2E/DX2                !
 ! D207  D(63,65,66,70)        -83.5907         estimate D2E/DX2                !
 ! D208  D(67,65,66,64)        -83.4273         estimate D2E/DX2                !
 ! D209  D(67,65,66,69)         34.1044         estimate D2E/DX2                !
 ! D210  D(67,65,66,70)        161.886          estimate D2E/DX2                !
 ! D211  D(68,65,66,64)        148.5912         estimate D2E/DX2                !
 ! D212  D(68,65,66,69)        -93.877          estimate D2E/DX2                !
 ! D213  D(68,65,66,70)         33.9045         estimate D2E/DX2                !
 ! D214  D(63,65,67,71)        -62.1514         estimate D2E/DX2                !
 ! D215  D(63,65,67,72)        176.2009         estimate D2E/DX2                !
 ! D216  D(63,65,67,73)         56.1515         estimate D2E/DX2                !
 ! D217  D(66,65,67,71)         49.4491         estimate D2E/DX2                !
 ! D218  D(66,65,67,72)        -72.1985         estimate D2E/DX2                !
 ! D219  D(66,65,67,73)        167.7521         estimate D2E/DX2                !
 ! D220  D(68,65,67,71)        179.7717         estimate D2E/DX2                !
 ! D221  D(68,65,67,72)         58.1241         estimate D2E/DX2                !
 ! D222  D(68,65,67,73)        -61.9253         estimate D2E/DX2                !
 ! D223  D(63,65,68,74)        -66.2859         estimate D2E/DX2                !
 ! D224  D(63,65,68,75)        174.2451         estimate D2E/DX2                !
 ! D225  D(63,65,68,76)         52.9387         estimate D2E/DX2                !
 ! D226  D(66,65,68,74)        179.9167         estimate D2E/DX2                !
 ! D227  D(66,65,68,75)         60.4476         estimate D2E/DX2                !
 ! D228  D(66,65,68,76)        -60.8588         estimate D2E/DX2                !
 ! D229  D(67,65,68,74)         50.7731         estimate D2E/DX2                !
 ! D230  D(67,65,68,75)        -68.696          estimate D2E/DX2                !
 ! D231  D(67,65,68,76)        169.9976         estimate D2E/DX2                !
 ! D232  D(64,66,69,77)        -66.7122         estimate D2E/DX2                !
 ! D233  D(64,66,69,78)        173.9947         estimate D2E/DX2                !
 ! D234  D(64,66,69,79)         52.7731         estimate D2E/DX2                !
 ! D235  D(65,66,69,77)        179.798          estimate D2E/DX2                !
 ! D236  D(65,66,69,78)         60.5049         estimate D2E/DX2                !
 ! D237  D(65,66,69,79)        -60.7167         estimate D2E/DX2                !
 ! D238  D(70,66,69,77)         50.8639         estimate D2E/DX2                !
 ! D239  D(70,66,69,78)        -68.4292         estimate D2E/DX2                !
 ! D240  D(70,66,69,79)        170.3492         estimate D2E/DX2                !
 ! D241  D(64,66,70,80)        -60.0563         estimate D2E/DX2                !
 ! D242  D(64,66,70,81)        177.2545         estimate D2E/DX2                !
 ! D243  D(64,66,70,82)         57.6721         estimate D2E/DX2                !
 ! D244  D(65,66,70,80)         51.361          estimate D2E/DX2                !
 ! D245  D(65,66,70,81)        -71.3281         estimate D2E/DX2                !
 ! D246  D(65,66,70,82)        169.0895         estimate D2E/DX2                !
 ! D247  D(69,66,70,80)       -178.6412         estimate D2E/DX2                !
 ! D248  D(69,66,70,81)         58.6697         estimate D2E/DX2                !
 ! D249  D(69,66,70,82)        -60.9127         estimate D2E/DX2                !
 --------------------------------------------------------------------------------
 Trust Radius=3.00D-01 FncErr=1.00D-07 GrdErr=1.00D-06 EigMax=2.50D+02 EigMin=1.00D-04
 Number of steps in this run=    504 maximum allowed number of steps=    504.
 GradGradGradGradGradGradGradGradGradGradGradGradGradGradGradGradGradGrad

 Stoichiometry    C28H44B3IrN2O6
 Framework group  C1[X(C28H44B3IrN2O6)]
 Deg. of freedom   246
 Full point group                 C1      NOp   1
 Largest Abelian subgroup         C1      NOp   1
 Largest concise Abelian subgroup C1      NOp   1
                         Standard orientation:                         
 ---------------------------------------------------------------------
 Center     Atomic      Atomic             Coordinates (Angstroms)
 Number     Number       Type             X           Y           Z
 ---------------------------------------------------------------------
      1          6           0        2.122494    2.877609   -0.984664
      2          1           0        1.120368    3.290679   -0.897519
      3          6           0        3.266125    3.684400   -1.114048
      4          6           0        4.510441    3.093291   -1.190495
      5          1           0        5.411945    3.693962   -1.284817
      6          6           0        4.612841    1.687518   -1.134705
      7          6           0        4.708746   -1.144118   -0.934272
      8          6           0        4.697777   -2.546545   -0.785719
      9          1           0        5.636843   -3.094362   -0.782138
     10          6           0        3.492029   -3.200453   -0.630680
     11          6           0        2.299360   -2.460592   -0.652219
     12          1           0        1.330683   -2.927860   -0.509388
     13          6           0        3.459888   -0.481897   -0.933931
     14          6           0        3.410618    0.952865   -1.017121
     15          6           0       -2.096847    3.432032   -0.016133
     16          6           0       -3.182625    2.346722   -0.302027
     17          6           0       -1.821625    3.613344    1.478624
     18          1           0       -1.637646    2.641520    1.946436
     19          1           0       -2.648958    4.117845    1.990351
     20          1           0       -0.918858    4.222733    1.597334
     21          6           0       -2.338760    4.777655   -0.683084
     22          1           0       -1.529926    5.470630   -0.425639
     23          1           0       -3.283132    5.217024   -0.340533
     24          1           0       -2.370000    4.683859   -1.771648
     25          6           0       -4.285393    2.253560    0.743178
     26          1           0       -5.000718    1.476216    0.453800
     27          1           0       -4.828020    3.202607    0.829733
     28          1           0       -3.876116    1.985602    1.719983
     29          6           0       -3.785909    2.463563   -1.703215
     30          1           0       -2.995439    2.534191   -2.457430
     31          1           0       -4.446092    3.333375   -1.795195
     32          1           0       -4.366796    1.560032   -1.910775
     33          6           0       -2.759015   -2.431419   -1.725213
     34          6           0       -2.190212   -3.208921   -0.493862
     35          6           0       -3.985860   -1.586311   -1.377125
     36          1           0       -3.776541   -0.942535   -0.519006
     37          1           0       -4.864887   -2.208126   -1.172538
     38          1           0       -4.209225   -0.935277   -2.228241
     39          6           0       -3.042110   -3.291813   -2.948478
     40          1           0       -3.428619   -2.663452   -3.757682
     41          1           0       -3.793713   -4.057331   -2.720811
     42          1           0       -2.136332   -3.784766   -3.311066
     43          6           0       -3.228826   -3.649921    0.527088
     44          1           0       -2.736001   -4.176713    1.351636
     45          1           0       -3.961072   -4.329399    0.074695
     46          1           0       -3.756060   -2.788896    0.944542
     47          6           0       -1.306393   -4.392538   -0.894412
     48          1           0       -0.570053   -4.082764   -1.643986
     49          1           0       -1.889563   -5.226103   -1.301322
     50          1           0       -0.768588   -4.744303   -0.007182
     51          5           0       -1.078964    1.426497   -0.534267
     52          5           0       -0.968815   -1.284828   -0.851368
     53          7           0        2.190803    1.549298   -0.942354
     54          7           0        2.280617   -1.143258   -0.823562
     55          8           0       -0.919760    2.827967   -0.583934
     56          8           0       -2.415914    1.136613   -0.269614
     57          8           0       -1.687349   -1.521759   -2.028870
     58          8           0       -1.330157   -2.233561    0.114558
     59         77           0        0.469893    0.124380   -0.736303
     60          1           0        3.153475    4.763598   -1.146369
     61          1           0        3.448976   -4.276439   -0.494604
     62          5           0        0.316039   -0.175095    1.213684
     63          8           0       -0.585081    0.401960    2.102811
     64          8           0        1.221917   -0.993380    1.896753
     65          6           0       -0.124077    0.131286    3.436623
     66          6           0        0.723610   -1.167511    3.236066
     67          6           0        0.721677    1.331047    3.869188
     68          6           0       -1.332990   -0.023495    4.346585
     69          6           0        1.903242   -1.312385    4.186077
     70          6           0       -0.127800   -2.437587    3.241797
     71          1           0        1.594135    1.439770    3.216315
     72          1           0        1.062788    1.240813    4.906408
     73          1           0        0.117479    2.239125    3.778441
     74          1           0       -1.859794    0.933487    4.426545
     75          1           0       -1.027319   -0.331667    5.353361
     76          1           0       -2.032585   -0.760669    3.946111
     77          1           0        2.433983   -2.247221    3.976141
     78          1           0        1.561575   -1.340163    5.227642
     79          1           0        2.612817   -0.489043    4.070363
     80          1           0       -0.961505   -2.342599    2.541475
     81          1           0       -0.507093   -2.667635    4.243850
     82          1           0        0.492800   -3.274803    2.905120
     83          1           0        5.562575    1.196712   -1.179588
     84          1           0        5.625504   -0.603136   -1.042868
 ---------------------------------------------------------------------
 Rotational constants (GHZ):           0.0972491           0.0852434           0.0712042
 General basis read from cards:  (5D, 7F)
 ======================================================================================================
                                       Pseudopotential Parameters
 ======================================================================================================
  Center     Atomic      Valence      Angular      Power
  Number     Number     Electrons     Momentum     of R      Exponent        Coefficient   SO-Coeffient
 ======================================================================================================
    1          6
                                   No pseudopotential on this center.
    2          1
                                   No pseudopotential on this center.
    3          6
                                   No pseudopotential on this center.
    4          6
                                   No pseudopotential on this center.
    5          1
                                   No pseudopotential on this center.
    6          6
                                   No pseudopotential on this center.
    7          6
                                   No pseudopotential on this center.
    8          6
                                   No pseudopotential on this center.
    9          1
                                   No pseudopotential on this center.
   10          6
                                   No pseudopotential on this center.
   11          6
                                   No pseudopotential on this center.
   12          1
                                   No pseudopotential on this center.
   13          6
                                   No pseudopotential on this center.
   14          6
                                   No pseudopotential on this center.
   15          6
                                   No pseudopotential on this center.
   16          6
                                   No pseudopotential on this center.
   17          6
                                   No pseudopotential on this center.
   18          1
                                   No pseudopotential on this center.
   19          1
                                   No pseudopotential on this center.
   20          1
                                   No pseudopotential on this center.
   21          6
                                   No pseudopotential on this center.
   22          1
                                   No pseudopotential on this center.
   23          1
                                   No pseudopotential on this center.
   24          1
                                   No pseudopotential on this center.
   25          6
                                   No pseudopotential on this center.
   26          1
                                   No pseudopotential on this center.
   27          1
                                   No pseudopotential on this center.
   28          1
                                   No pseudopotential on this center.
   29          6
                                   No pseudopotential on this center.
   30          1
                                   No pseudopotential on this center.
   31          1
                                   No pseudopotential on this center.
   32          1
                                   No pseudopotential on this center.
   33          6
                                   No pseudopotential on this center.
   34          6
                                   No pseudopotential on this center.
   35          6
                                   No pseudopotential on this center.
   36          1
                                   No pseudopotential on this center.
   37          1
                                   No pseudopotential on this center.
   38          1
                                   No pseudopotential on this center.
   39          6
                                   No pseudopotential on this center.
   40          1
                                   No pseudopotential on this center.
   41          1
                                   No pseudopotential on this center.
   42          1
                                   No pseudopotential on this center.
   43          6
                                   No pseudopotential on this center.
   44          1
                                   No pseudopotential on this center.
   45          1
                                   No pseudopotential on this center.
   46          1
                                   No pseudopotential on this center.
   47          6
                                   No pseudopotential on this center.
   48          1
                                   No pseudopotential on this center.
   49          1
                                   No pseudopotential on this center.
   50          1
                                   No pseudopotential on this center.
   51          5
                                   No pseudopotential on this center.
   52          5
                                   No pseudopotential on this center.
   53          7
                                   No pseudopotential on this center.
   54          7
                                   No pseudopotential on this center.
   55          8
                                   No pseudopotential on this center.
   56          8
                                   No pseudopotential on this center.
   57          8
                                   No pseudopotential on this center.
   58          8
                                   No pseudopotential on this center.
   59         77           17
                                      G and up 
                                                     1      823.5880147       -0.15780140    0.00000000
                                                     2      364.6613336    -1517.52704460    0.00000000
                                                     2       55.7082801     -316.53065290    0.00000000
                                                     2       12.0464544      -91.88809410    0.00000000
                                                     2        3.5120610       -9.22417730    0.00000000
                                      S - G
                                                     0      188.0490770        3.15780140    0.00000000
                                                     1      340.4194712       26.83225770    0.00000000
                                                     2      128.2373673      800.42500070    0.00000000
                                                     2       33.8644961      369.40506830    0.00000000
                                                     2        4.7560005      242.41718990    0.00000000
                                                     2        3.9649974     -118.21732820    0.00000000
                                      P - G
                                                     0      289.7291139        2.15780140    0.00000000
                                                     1       87.4633789       61.96786100    0.00000000
                                                     2       30.4363766      269.05819860    0.00000000
                                                     2        4.0553412      231.16547930    0.00000000
                                                     2        3.5525341     -133.69526670    0.00000000
                                      D - G
                                                     0      136.4017106        3.15780140    0.00000000
                                                     1       95.0776925       45.93498030    0.00000000
                                                     2       49.2258410      359.03446680    0.00000000
                                                     2       15.0874145      176.47401190    0.00000000
                                                     2        4.0405764       54.51552860    0.00000000
                                      F - G
                                                     0      127.3507908        3.95461970    0.00000000
                                                     1       66.2364374       52.97736550    0.00000000
                                                     2       34.4299229      274.86433830    0.00000000
                                                     2       10.1995721      137.20473380    0.00000000
                                                     2        2.5409702       14.86333050    0.00000000
   60          1
                                   No pseudopotential on this center.
   61          1
                                   No pseudopotential on this center.
   62          5
                                   No pseudopotential on this center.
   63          8
                                   No pseudopotential on this center.
   64          8
                                   No pseudopotential on this center.
   65          6
                                   No pseudopotential on this center.
   66          6
                                   No pseudopotential on this center.
   67          6
                                   No pseudopotential on this center.
   68          6
                                   No pseudopotential on this center.
   69          6
                                   No pseudopotential on this center.
   70          6
                                   No pseudopotential on this center.
   71          1
                                   No pseudopotential on this center.
   72          1
                                   No pseudopotential on this center.
   73          1
                                   No pseudopotential on this center.
   74          1
                                   No pseudopotential on this center.
   75          1
                                   No pseudopotential on this center.
   76          1
                                   No pseudopotential on this center.
   77          1
                                   No pseudopotential on this center.
   78          1
                                   No pseudopotential on this center.
   79          1
                                   No pseudopotential on this center.
   80          1
                                   No pseudopotential on this center.
   81          1
                                   No pseudopotential on this center.
   82          1
                                   No pseudopotential on this center.
   83          1
                                   No pseudopotential on this center.
   84          1
                                   No pseudopotential on this center.
 ======================================================================================================
 There are   697 symmetry adapted cartesian basis functions of A   symmetry.
 There are   656 symmetry adapted basis functions of A   symmetry.
   656 basis functions,  1311 primitive gaussians,   697 cartesian basis functions
   153 alpha electrons      153 beta electrons
       nuclear repulsion energy      5549.3686332022 Hartrees.
 NAtoms=   84 NActive=   84 NUniq=   84 SFac= 1.00D+00 NAtFMM=   60 NAOKFM=T Big=T
 Integral buffers will be    131072 words long.
 Raffenetti 2 integral format.
 Two-electron integral symmetry is turned on.
 One-electron integrals computed using PRISM.
   1 Symmetry operations used in ECPInt.
 ECPInt:  NShTT=   31878 NPrTT=  193976 LenC2=   25770 LenP2D=   82838.
 LDataN:  DoStor=T MaxTD1= 6 Len=  172
 NBasis=   656 RedAO= T EigKep=  5.50D-04  NBF=   656
 NBsUse=   656 1.00D-06 EigRej= -1.00D+00 NBFU=   656
 Defaulting to unpruned grid for atomic number  77.
 ExpMin= 2.90D-02 ExpMax= 5.48D+03 ExpMxC= 8.25D+02 IAcc=3 IRadAn=         5 AccDes= 0.00D+00
 Harris functional with IExCor= 1009 and IRadAn=       5 diagonalized for initial guess.
 HarFok:  IExCor= 1009 AccDes= 0.00D+00 IRadAn=         5 IDoV= 1 UseB2=F ITyADJ=14
 ICtDFT=  3500011 ScaDFX=  1.000000  1.000000  1.000000  1.000000
 Defaulting to unpruned grid for atomic number  77.
 FoFCou: FMM=F IPFlag=           0 FMFlag=      100000 FMFlg1=        2001
         NFxFlg=           0 DoJE=T BraDBF=F KetDBF=T FulRan=T
         wScrn=  0.000000 ICntrl=       500 IOpCl=  0 I1Cent=   200000004 NGrid=           0
         NMat0=    1 NMatS0=      1 NMatT0=    0 NMatD0=    1 NMtDS0=    0 NMtDT0=    0
 Petite list used in FoFCou.
 Requested convergence on RMS density matrix=1.00D-08 within 128 cycles.
 Requested convergence on MAX density matrix=1.00D-06.
 Requested convergence on             energy=1.00D-06.
 No special actions if energy rises.
 Defaulting to unpruned grid for atomic number  77.
 Defaulting to unpruned grid for atomic number  77.
 Defaulting to unpruned grid for atomic number  77.
 Defaulting to unpruned grid for atomic number  77.
 Defaulting to unpruned grid for atomic number  77.
 Defaulting to unpruned grid for atomic number  77.
 Defaulting to unpruned grid for atomic number  77.
 Defaulting to unpruned grid for atomic number  77.
 Defaulting to unpruned grid for atomic number  77.
 Defaulting to unpruned grid for atomic number  77.
 Defaulting to unpruned grid for atomic number  77.
 Defaulting to unpruned grid for atomic number  77.
 Defaulting to unpruned grid for atomic number  77.
 Defaulting to unpruned grid for atomic number  77.
 Defaulting to unpruned grid for atomic number  77.
 Defaulting to unpruned grid for atomic number  77.
 SCF Done:  E(RM06) =  -1832.76022038     A.U. after   15 cycles
            NFock= 15  Conv=0.72D-08     -V/T= 2.0472

 **********************************************************************

            Population analysis using the SCF Density.

 **********************************************************************

 Orbital symmetries:
       Occupied  (A) (A) (A) (A) (A) (A) (A) (A) (A) (A) (A) (A)
                 (A) (A) (A) (A) (A) (A) (A) (A) (A) (A) (A) (A)
                 (A) (A) (A) (A) (A) (A) (A) (A) (A) (A) (A) (A)
                 (A) (A) (A) (A) (A) (A) (A) (A) (A) (A) (A) (A)
                 (A) (A) (A) (A) (A) (A) (A) (A) (A) (A) (A) (A)
                 (A) (A) (A) (A) (A) (A) (A) (A) (A) (A) (A) (A)
                 (A) (A) (A) (A) (A) (A) (A) (A) (A) (A) (A) (A)
                 (A) (A) (A) (A) (A) (A) (A) (A) (A) (A) (A) (A)
                 (A) (A) (A) (A) (A) (A) (A) (A) (A) (A) (A) (A)
                 (A) (A) (A) (A) (A) (A) (A) (A) (A) (A) (A) (A)
                 (A) (A) (A) (A) (A) (A) (A) (A) (A) (A) (A) (A)
                 (A) (A) (A) (A) (A) (A) (A) (A) (A) (A) (A) (A)
                 (A) (A) (A) (A) (A) (A) (A) (A) (A)
       Virtual   (A) (A) (A) (A) (A) (A) (A) (A) (A) (A) (A) (A)
                 (A) (A) (A) (A) (A) (A) (A) (A) (A) (A) (A) (A)
                 (A) (A) (A) (A) (A) (A) (A) (A) (A) (A) (A) (A)
                 (A) (A) (A) (A) (A) (A) (A) (A) (A) (A) (A) (A)
                 (A) (A) (A) (A) (A) (A) (A) (A) (A) (A) (A) (A)
                 (A) (A) (A) (A) (A) (A) (A) (A) (A) (A) (A) (A)
                 (A) (A) (A) (A) (A) (A) (A) (A) (A) (A) (A) (A)
                 (A) (A) (A) (A) (A) (A) (A) (A) (A) (A) (A) (A)
                 (A) (A) (A) (A) (A) (A) (A) (A) (A) (A) (A) (A)
                 (A) (A) (A) (A) (A) (A) (A) (A) (A) (A) (A) (A)
                 (A) (A) (A) (A) (A) (A) (A) (A) (A) (A) (A) (A)
                 (A) (A) (A) (A) (A) (A) (A) (A) (A) (A) (A) (A)
                 (A) (A) (A) (A) (A) (A) (A) (A) (A) (A) (A) (A)
                 (A) (A) (A) (A) (A) (A) (A) (A) (A) (A) (A) (A)
                 (A) (A) (A) (A) (A) (A) (A) (A) (A) (A) (A) (A)
                 (A) (A) (A) (A) (A) (A) (A) (A) (A) (A) (A) (A)
                 (A) (A) (A) (A) (A) (A) (A) (A) (A) (A) (A) (A)
                 (A) (A) (A) (A) (A) (A) (A) (A) (A) (A) (A) (A)
                 (A) (A) (A) (A) (A) (A) (A) (A) (A) (A) (A) (A)
                 (A) (A) (A) (A) (A) (A) (A) (A) (A) (A) (A) (A)
                 (A) (A) (A) (A) (A) (A) (A) (A) (A) (A) (A) (A)
                 (A) (A) (A) (A) (A) (A) (A) (A) (A) (A) (A) (A)
                 (A) (A) (A) (A) (A) (A) (A) (A) (A) (A) (A) (A)
                 (A) (A) (A) (A) (A) (A) (A) (A) (A) (A) (A) (A)
                 (A) (A) (A) (A) (A) (A) (A) (A) (A) (A) (A) (A)
                 (A) (A) (A) (A) (A) (A) (A) (A) (A) (A) (A) (A)
                 (A) (A) (A) (A) (A) (A) (A) (A) (A) (A) (A) (A)
                 (A) (A) (A) (A) (A) (A) (A) (A) (A) (A) (A) (A)
                 (A) (A) (A) (A) (A) (A) (A) (A) (A) (A) (A) (A)
                 (A) (A) (A) (A) (A) (A) (A) (A) (A) (A) (A) (A)
                 (A) (A) (A) (A) (A) (A) (A) (A) (A) (A) (A) (A)
                 (A) (A) (A) (A) (A) (A) (A) (A) (A) (A) (A) (A)
                 (A) (A) (A) (A) (A) (A) (A) (A) (A) (A) (A) (A)
                 (A) (A) (A) (A) (A) (A) (A) (A) (A) (A) (A) (A)
                 (A) (A) (A) (A) (A) (A) (A) (A) (A) (A) (A) (A)
                 (A) (A) (A) (A) (A) (A) (A) (A) (A) (A) (A) (A)
                 (A) (A) (A) (A) (A) (A) (A) (A) (A) (A) (A) (A)
                 (A) (A) (A) (A) (A) (A) (A) (A) (A) (A) (A) (A)
                 (A) (A) (A) (A) (A) (A) (A) (A) (A) (A) (A) (A)
                 (A) (A) (A) (A) (A) (A) (A) (A) (A) (A) (A) (A)
                 (A) (A) (A) (A) (A) (A) (A) (A) (A) (A) (A) (A)
                 (A) (A) (A) (A) (A) (A) (A) (A) (A) (A) (A)
 The electronic state is 1-A.
 Alpha  occ. eigenvalues --  -19.19316 -19.19265 -19.18886 -19.18789 -19.18191
 Alpha  occ. eigenvalues --  -19.18173 -14.44721 -14.44607 -10.31947 -10.31762
 Alpha  occ. eigenvalues --  -10.30438 -10.30028 -10.29142 -10.28961 -10.28704
 Alpha  occ. eigenvalues --  -10.28647 -10.28551 -10.28454 -10.28274 -10.28200
 Alpha  occ. eigenvalues --  -10.27942 -10.27919 -10.27714 -10.27690 -10.22263
 Alpha  occ. eigenvalues --  -10.21994 -10.21983 -10.21963 -10.21861 -10.21744
 Alpha  occ. eigenvalues --  -10.21586 -10.21407 -10.21075 -10.20975 -10.20890
 Alpha  occ. eigenvalues --  -10.20355  -6.79615  -6.77223  -6.77131  -3.59633
 Alpha  occ. eigenvalues --   -2.02330  -2.01651  -2.01172  -1.05035  -1.04247
 Alpha  occ. eigenvalues --   -1.04122  -0.99829  -0.98224  -0.97374  -0.97281
 Alpha  occ. eigenvalues --   -0.97181  -0.84292  -0.83302  -0.83089  -0.79389
 Alpha  occ. eigenvalues --   -0.78906  -0.78829  -0.76714  -0.73973  -0.73485
 Alpha  occ. eigenvalues --   -0.73420  -0.69674  -0.69358  -0.69225  -0.69155
 Alpha  occ. eigenvalues --   -0.68051  -0.66992  -0.66554  -0.66520  -0.64464
 Alpha  occ. eigenvalues --   -0.63035  -0.60806  -0.60225  -0.59994  -0.57500
 Alpha  occ. eigenvalues --   -0.53810  -0.53499  -0.53229  -0.53107  -0.52980
 Alpha  occ. eigenvalues --   -0.52357  -0.51808  -0.51693  -0.51495  -0.49211
 Alpha  occ. eigenvalues --   -0.47148  -0.46505  -0.46259  -0.45958  -0.45808
 Alpha  occ. eigenvalues --   -0.45629  -0.45319  -0.45013  -0.44846  -0.44708
 Alpha  occ. eigenvalues --   -0.43911  -0.43535  -0.43047  -0.42999  -0.42746
 Alpha  occ. eigenvalues --   -0.42189  -0.42095  -0.42019  -0.40380  -0.39745
 Alpha  occ. eigenvalues --   -0.39540  -0.39531  -0.39137  -0.39098  -0.38942
 Alpha  occ. eigenvalues --   -0.38832  -0.38665  -0.38583  -0.38370  -0.38162
 Alpha  occ. eigenvalues --   -0.37883  -0.37675  -0.36892  -0.36449  -0.36307
 Alpha  occ. eigenvalues --   -0.35999  -0.35820  -0.35676  -0.35344  -0.35223
 Alpha  occ. eigenvalues --   -0.34940  -0.34771  -0.34646  -0.34119  -0.33600
 Alpha  occ. eigenvalues --   -0.33517  -0.33238  -0.32392  -0.31966  -0.31532
 Alpha  occ. eigenvalues --   -0.31149  -0.30833  -0.30276  -0.29924  -0.29869
 Alpha  occ. eigenvalues --   -0.29158  -0.29123  -0.28746  -0.28403  -0.26108
 Alpha  occ. eigenvalues --   -0.25637  -0.25047  -0.24471  -0.23924  -0.23313
 Alpha  occ. eigenvalues --   -0.20673  -0.20094  -0.19737
 Alpha virt. eigenvalues --   -0.07555  -0.04516  -0.02933  -0.00118   0.01957
 Alpha virt. eigenvalues --    0.03891   0.04469   0.06206   0.07714   0.07830
 Alpha virt. eigenvalues --    0.08576   0.10202   0.10724   0.10915   0.11143
 Alpha virt. eigenvalues --    0.11544   0.12331   0.13507   0.13744   0.13914
 Alpha virt. eigenvalues --    0.14181   0.14745   0.14860   0.15065   0.15242
 Alpha virt. eigenvalues --    0.15475   0.15694   0.15891   0.16101   0.16385
 Alpha virt. eigenvalues --    0.16466   0.16686   0.16919   0.17061   0.17310
 Alpha virt. eigenvalues --    0.17451   0.17559   0.17717   0.18301   0.18592
 Alpha virt. eigenvalues --    0.18894   0.18960   0.19582   0.19895   0.20022
 Alpha virt. eigenvalues --    0.20118   0.20298   0.20633   0.20896   0.21179
 Alpha virt. eigenvalues --    0.21256   0.21658   0.21770   0.21792   0.22065
 Alpha virt. eigenvalues --    0.22581   0.22657   0.23122   0.23702   0.23943
 Alpha virt. eigenvalues --    0.24369   0.24643   0.24940   0.25173   0.25396
 Alpha virt. eigenvalues --    0.25588   0.25985   0.26434   0.26838   0.27146
 Alpha virt. eigenvalues --    0.27365   0.27421   0.27943   0.28242   0.28344
 Alpha virt. eigenvalues --    0.28644   0.29141   0.29392   0.29599   0.30100
 Alpha virt. eigenvalues --    0.30517   0.31545   0.32341   0.32832   0.32977
 Alpha virt. eigenvalues --    0.33658   0.34697   0.35687   0.36301   0.37672
 Alpha virt. eigenvalues --    0.38194   0.39295   0.39668   0.40093   0.40574
 Alpha virt. eigenvalues --    0.43256   0.43415   0.44121   0.46217   0.46623
 Alpha virt. eigenvalues --    0.48042   0.48807   0.50679   0.50909   0.51075
[...]
 66,0.00000819,-0.00000100,0.00000091,0.00000022,-0.00000156,0.00000222
 ,-0.00000170,-0.00000226,-0.00000002,-0.00000372,-0.00001161,0.0000053
 6,-0.00000638,0.00000013,-0.00000160,0.00000130,-0.00000326,-0.0000020
 2,0.00000336,0.00000074,0.00000087,-0.00000343,-0.00000828,-0.00000669
 ,0.00000237,0.00000079,0.00001079,0.00000099,-0.00000078,-0.00000049,-
 0.00000638,-0.00000282,-0.00000491,0.00000312,0.00004103,-0.00002848,0
 .00003322,-0.00001182,-0.00009381,-0.00008398,-0.00170419,-0.00584833,
 0.00370266,-0.00002308,0.00005523,0.00005615,-0.00002119,-0.00000409,-
 0.00002154,-0.00000093,0.00000476,-0.00003069,-0.00007236,0.00003374,0
 .00001892,-0.00012851,0.00000147,0.00001651,0.00066800,0.00023178,-0.0
 0001162,0.00017776,0.00005895,-0.00118306,0.00005437,-0.00001811,-0.00
 001703,-0.00010157,0.00009982,0.00004172,-0.00000258,-0.00000672,-0.00
 000643,-0.00000608,-0.00001993,-0.00007056,0.00001749,0.00000624,0.000
 00192,-0.00000256,-0.00002122,0.00000033,-0.00000322,-0.00000311,-0.00
 000519,-0.00000411,-0.00000014,-0.00000284,0.00000431,0.00000201,0.000
 00427,0.00000290,0.00000161,0.00000763,0.00000244,0.00000059,0.0000021
 0,0.00000148,0.00000047,0.00000050,-0.00000125,-0.00000050,-0.00000193
 ,-0.00000029,-0.00000012,-0.00000244,0.00000069,0.00000023,0.00000077,
 -0.00000071,0.00000023,0.00000150,-0.00000365,-0.00000466,-0.00000226,
 -0.00000008,0.00000157,-0.00000342,0.00000014,-0.00000134,0.00000173,0
 .00000069,0.00000151,0.00000008,-0.00000046,0.00000154,-0.00000274,-0.
 00000434,-0.00000402,-0.00000316,0.04962985,-0.00064373,-0.00088947,-0
 .00035577,0.00079313,-0.00117378,-0.00004803,-0.00527217,0.00466981,-0
 .00079122,0.00021133,0.00407867,-0.01376613,0.00219456,-0.00267927,-0.
 00000604,-0.01000484,-0.04164916,0.01966089,-0.00124816,-0.00087379,0.
 00049933,0.00032668,-0.00020440,-0.00025106,-0.00000802,-0.00002532,0.
 00000983,0.00001360,0.00003775,0.00008619,-0.00014448,0.00014981,-0.00
 016422,0.00001385,0.00002708,0.00001919,0.00124909,-0.00190569,-0.0004
 8104,0.00475155,0.00199640,0.01296105,-0.00000457,-0.00000246,-0.00000
 207,-0.00000506,0.00000543,0.00000073,0.00000056,-0.00000093,0.0000008
 3,-0.00000084,0.00000072,0.00000002,-0.00000025,-0.00000005,-0.0000001
 5,0.00000163,0.00000018,-0.00000052,-0.00000044,-0.00000024,-0.0000018
 0,0.00000192,-0.00000153,0.00000057,0.00000020,0.00000072,-0.00000121,
 -0.00000147,0.00000035,0.00000139,-0.00000050,-0.00000083,0.00000002,0
 .00000111,-0.00000018,-0.00000057,0.00000002,0.00000031,0.00000029,-0.
 00000064,-0.00000077,0.00000019,0.00000184,-0.00000074,-0.00000051,-0.
 00000251,0.00000071,0.00000013,-0.00000020,-0.00000008,0.00000040,0.00
 000175,0.00000014,-0.00000120,0.00000936,0.00000573,-0.00000432,0.0000
 2599,-0.00001346,0.00002547,-0.00000288,-0.00000113,0.00000121,-0.0000
 0019,-0.00000103,-0.00000094,-0.00000076,0.00000040,0.00000192,-0.0000
 0052,-0.00000039,-0.00000144,0.00000045,0.00000094,0.00000313,-0.00000
 025,-0.00000105,-0.00000300,-0.00000180,-0.00000029,0.00000073,0.00000
 079,0.00000261,-0.00000006,-0.00001067,0.00000617,-0.00000385,-0.00000
 087,-0.00000290,-0.00000004,-0.00000308,-0.00000221,0.00000312,0.00000
 089,0.00000135,-0.00000142,-0.00000385,-0.00000074,0.00000074,-0.00000
 042,0.00000761,0.00000176,-0.00000037,0.00000014,-0.00000503,-0.000002
 15,-0.00000606,0.00000263,-0.00003819,0.00001667,0.00001110,0.00002216
 ,-0.00015860,-0.00014098,-0.00599852,0.00452321,0.00251649,0.00033268,
 0.00007772,-0.00010270,0.00000179,-0.00000115,-0.00002245,0.00000983,-
 0.00000252,-0.00000348,-0.00002056,0.00000471,0.00001204,-0.00012722,-
 0.00001351,0.00003038,0.00054770,0.00019227,0.00028842,-0.00004147,0.0
 0026621,-0.00066692,0.00000442,0.00006719,-0.00002526,-0.00014714,0.00
 018462,-0.00003295,0.00001169,-0.00006157,0.00001342,-0.00000454,-0.00
 011721,-0.00006003,-0.00000002,0.00002920,0.00000496,0.00001052,0.0000
 1116,-0.00000974,0.00000038,-0.00000880,0.00000192,0.00000168,-0.00000
 318,-0.00000169,-0.00000437,-0.00000525,0.00000692,0.00000404,-0.00000
 387,0.00000498,-0.00000021,0.00000458,-0.00000007,0.00000243,-0.000003
 82,0.00000079,-0.00000069,0.00000080,-0.00000180,-0.00000107,0.0000005
 7,-0.00000055,-0.00000055,-0.00000242,0.00000142,0.00000194,0.00000105
 ,-0.00000057,-0.00000589,-0.00000340,-0.00000254,0.00000172,-0.0000019
 7,-0.00000532,0.00000635,-0.00000149,0.00000361,0.00000217,0.00000415,
 -0.00000326,-0.00000156,-0.00000092,-0.00000077,-0.00000340,-0.0000006
 4,-0.00000103,0.01544835,0.03393092,0.00038014,0.00015953,0.00078284,-
 0.00002225,-0.00015365,-0.00000755,-0.00282689,-0.00108206,0.00107758,
 0.00165761,0.00193895,-0.01120580,0.00024603,-0.00023179,0.00080287,-0
 .00808230,0.01894995,-0.33870942,-0.00152172,-0.00122196,-0.00085061,-
 0.00014376,-0.00011657,0.00047635,0.00001964,0.00000185,-0.00000586,-0
 .00008901,-0.00001918,0.00001250,-0.00009604,-0.00001518,-0.00005882,0
 .00000673,0.00000763,-0.00001699,-0.00041160,-0.00045482,-0.00124465,-
 0.00313396,-0.00107885,-0.01174215,0.00000985,-0.00001166,0.00006930,0
 .00000612,0.00001206,0.00002401,-0.00000060,0.00000378,-0.00000696,0.0
 0000108,-0.00000169,0.00000230,-0.00000068,0.00000323,-0.00000753,0.00
 000143,-0.00000362,0.00000302,-0.00000374,0.00000037,-0.00000611,0.000
 00349,-0.00000436,0.00000566,0.00000147,0.00000097,-0.00000844,-0.0000
 0272,0.00000451,0.00000542,0.00000327,-0.00000324,-0.00000169,0.000004
 32,0.00000014,-0.00000116,-0.00000212,-0.00000003,-0.00000326,-0.00000
 078,0.00000066,0.00000162,-0.00000135,-0.00000420,-0.00000074,-0.00000
 185,0.00000547,0.00000030,-0.00000226,-0.00000206,-0.00000392,0.000004
 00,0.00000098,-0.00000041,-0.00004933,-0.00000796,0.00002280,-0.000067
 23,0.00002754,-0.00002490,0.00001273,0.00000294,-0.00000311,-0.0000030
 7,-0.00000207,0.00000479,0.00000558,-0.00000035,-0.00000701,-0.0000029
 0,-0.00000002,0.00000052,0.00000615,0.00000081,-0.00000972,-0.00000106
 ,-0.00000350,-0.00000095,0.00000720,-0.00000266,0.00000055,0.00000018,
 0.00000164,0.00000437,0.00001582,-0.00000696,0.00000494,-0.00000086,0.
 00000429,-0.00000017,0.00000859,0.00000140,-0.00000525,-0.00000247,-0.
 00000134,0.00000303,0.00001234,-0.00000008,-0.00000070,-0.00000410,-0.
 00000412,-0.00000285,0.00000846,-0.00000096,0.00000517,-0.00000121,0.0
 0000406,-0.00000149,-0.00005511,-0.00000107,0.00008177,-0.00019735,0.0
 0012484,0.00015884,0.00261344,0.00198188,-0.00008629,0.00025962,0.0000
 9673,0.00011324,0.00004282,0.00003426,-0.00009066,0.00002650,-0.000010
 82,-0.00007398,0.00016874,-0.00006836,-0.00005082,0.00023641,0.0000161
 4,-0.00005210,-0.00065225,-0.00008335,-0.00009383,0.00023199,0.0001960
 4,-0.00052218,-0.00003472,-0.00000652,0.00003255,0.00013839,-0.0003209
 3,0.00002553,-0.00000650,0.00012408,-0.00004144,0.00001645,0.00016606,
 0.00005707,-0.00000464,-0.00005853,-0.00000712,-0.00001582,-0.00004311
 ,0.00002313,-0.00000141,0.00001114,0.00000235,-0.00000115,0.00000523,0
 .00000065,0.00000359,0.00000720,-0.00000600,-0.00000135,0.00000747,-0.
 00000723,0.00000174,-0.00000615,-0.00000377,-0.00000281,0.00000896,-0.
 00000049,0.00000119,-0.00000327,0.00000272,0.00000018,-0.00000209,0.,0
 .00000099,0.00000631,-0.00000147,-0.00000054,-0.00000217,0.00000042,0.
 00000532,0.00000184,0.00000458,-0.00000135,0.00000560,0.00000256,-0.00
 000401,-0.00000114,-0.00000320,-0.00000414,-0.00000621,0.00000355,0.00
 000400,0.00000522,-0.00000155,0.00000258,-0.00000113,0.00000334,0.0132
 5610,-0.01754822,0.36093479,0.00007683,-0.00010563,0.00002205,0.000021
 39,-0.00000043,0.00000100,-0.00006058,-0.00002803,0.00006060,-0.000108
 90,0.00014408,-0.00030577,0.00000854,0.00000899,0.00000251,-0.00138150
 ,-0.00096038,-0.00145448,-0.19990239,-0.07687728,0.12486856,-0.0133172
 9,-0.00728645,0.01679327,-0.00000230,0.00211985,-0.00017620,-0.0006588
 7,-0.00485603,-0.00296894,-0.00025755,0.00008739,-0.00079240,-0.000385
 47,0.00067594,0.00001580,0.00330973,0.00168488,-0.00118715,-0.00122441
 ,0.00075892,0.00061354,-0.00000265,-0.00000011,-0.00004126,-0.00001560
 ,-0.00002008,-0.00002973,-0.00000040,-0.00000045,0.00000773,-0.0000001
 8,0.00000149,-0.00000317,0.00000082,-0.00000284,0.00000542,-0.00000033
 ,0.00000073,-0.00000227,0.00000142,-0.00000175,0.00000383,0.00000105,0
 .00000029,-0.00000209,0.00000064,0.00000060,0.00000471,-0.00000040,0.0
 0000046,-0.00000199,0.00000188,0.00000277,0.00000477,-0.00000264,-0.00
 000027,-0.00000043,0.00000145,-0.00000029,0.00000502,0.00000021,0.0000
 0061,-0.00000198,0.00000166,0.00000366,0.00000389,0.00000031,-0.000003
 29,-0.00000167,0.00000201,0.00000304,0.00000479,-0.00000209,-0.0000011
 7,-0.00000117,0.00002911,-0.00000705,-0.00001804,0.00001979,-0.0000145
 0,-0.00001413,-0.00000309,0.00000166,0.00000147,0.00000197,0.00000069,
 -0.00000373,-0.00000398,-0.00000052,0.00000340,0.00000269,0.00000198,0
 .00000114,-0.00000311,0.00000145,0.00000180,0.00000152,0.00000463,0.00
 000356,-0.00000354,0.00000055,-0.00000025,0.00000059,-0.00000527,-0.00
 000094,0.00000044,0.00000126,0.00000371,0.00000155,0.00000015,-0.00000
 141,-0.00000461,0.00000092,0.00000118,0.00000107,-0.00000093,0.0000022
 0,-0.00000222,0.00000893,0.00000123,0.00000355,-0.00001652,-0.00000047
 ,-0.00000910,0.00000076,0.00000573,0.00000638,0.00000822,-0.00000610,-
 0.00005239,0.00003973,-0.00014734,0.00011046,-0.00003662,-0.00004386,0
 .00011333,0.00010626,0.00004125,0.00336863,-0.00262442,-0.00119737,0.0
 0003665,-0.00000025,0.00008422,-0.00000171,0.00000957,0.00010431,-0.00
 006859,0.00004440,0.00002166,-0.00005302,0.00000900,0.00003325,0.00002
 198,-0.00005471,-0.00001524,0.00001987,-0.00002056,-0.00001238,-0.0005
 4375,-0.00035820,0.00090986,-0.00001108,0.00009815,-0.00005788,0.00000
 668,-0.00006110,0.00004015,-0.00000425,-0.00007859,0.00003069,-0.00000
 681,0.00002611,0.00000097,0.00000891,0.00004391,-0.00001822,0.00000202
 ,-0.00000187,-0.00000003,0.00000315,-0.00000186,0.00000215,-0.00000446
 ,-0.00000646,-0.00000244,-0.00000471,-0.00000491,-0.00000523,-0.000002
 69,0.00000159,0.00000099,0.00000078,-0.00000451,-0.00000052,0.00000095
 ,0.00000175,0.00000130,0.00000140,0.00000092,0.00000301,-0.00000084,-0
 .00000342,-0.00000006,-0.00000018,0.00000092,-0.00000181,0.00000065,0.
 00000519,0.00000029,0.00000087,-0.00000509,0.00000314,0.00000124,0.000
 00215,0.00000017,0.00000204,0.00000229,-0.00000146,-0.00000100,-0.0000
 0558,0.00000443,0.00000417,0.00000472,0.00000194,-0.00148347,-0.002249
 11,-0.00197332,0.21239175,-0.00032646,0.00008875,0.00004086,0.00000913
 ,0.00002690,0.00000118,0.00005311,0.00009076,-0.00012733,0.00026459,-0
 .00027375,0.00014911,0.00001274,-0.00002563,-0.00000963,-0.00076082,-0
 .00073701,-0.00147850,-0.07631287,-0.06986358,0.05459875,-0.01039766,-
 0.00182030,0.01004298,0.00221318,-0.00274632,0.00032156,-0.00490344,0.
 00487249,-0.00253320,0.00010853,-0.00052554,-0.00028029,0.00077309,-0.
 00116915,0.00010995,0.00455688,0.00234822,-0.00133287,0.00039045,-0.00
 231975,0.00045724,-0.00000496,0.00001627,-0.00002387,-0.00000305,0.000
 00350,-0.00000783,-0.00000111,-0.00000246,0.00000101,-0.00000083,0.000
 00051,-0.00000086,0.00000042,-0.00000077,0.00000238,0.00000161,0.00000
 097,-0.00000109,-0.00000063,0.00000043,0.00000453,0.00000060,0.0000006
 0,-0.00000161,0.00000053,0.00000028,0.00000272,0.00000016,-0.00000211,
 -0.00000126,-0.00000197,0.00000048,-0.00000014,-0.00000044,-0.00000036
 ,-0.00000015,0.00000094,0.00000055,0.00000097,-0.00000029,-0.00000089,
 -0.00000016,0.00000171,0.00000049,0.00000062,-0.00000073,-0.00000074,0
 .00000118,0.00000068,0.00000076,0.00000146,0.00000004,-0.00000031,-0.0
 0000086,0.00001210,0.00000448,-0.00000649,0.00000455,0.00000002,-0.000
 00133,-0.00000141,-0.00000022,0.00000157,0.00000045,-0.00000039,-0.000
 00030,-0.00000176,0.00000012,0.00000201,0.00000020,0.00000018,-0.00000
 071,-0.00000149,-0.00000029,-0.00000051,0.00000090,-0.00000028,-0.0000
 0140,-0.00000217,-0.00000057,0.00000101,0.00000159,0.00000098,0.000001
 41,0.00000003,0.00000043,0.00000076,-0.00000057,-0.00000149,-0.0000010
 0,-0.00000111,0.00000018,0.00000044,0.00000045,0.00000054,0.00000124,0
 .00000428,-0.00000154,-0.00000047,-0.00000292,-0.00000165,0.00000202,-
 0.00000038,0.00000167,-0.00000118,0.00000088,0.00000148,-0.00000156,0.
 00003225,-0.00010067,-0.00008719,0.00002566,0.00002786,-0.00001842,0.0
 0030312,-0.00003994,0.00029486,-0.00281422,0.00623023,-0.00207272,0.00
 000734,0.00000143,0.00004497,-0.00000594,0.00000666,0.00001674,-0.0000
 2780,-0.00000124,0.00001840,-0.00002406,-0.00001355,0.00001257,-0.0000
 4633,0.00002133,0.00019798,-0.00002325,0.00005731,0.00001769,-0.000478
 52,-0.00000341,0.00049640,0.00002793,0.00009100,0.00000557,0.00000433,
 -0.00006686,0.00002446,0.00003600,-0.00002204,-0.00000302,-0.00001134,
 0.00003174,0.00000267,-0.00000934,0.00002917,-0.00000430,0.00000313,-0
 .00000526,0.00000523,0.00000242,-0.00000455,-0.00000070,-0.00000898,-0
 .00000420,-0.00000433,-0.00000213,-0.00000800,-0.00000588,-0.00000181,
 0.00000531,0.00000026,0.00000096,-0.00000541,0.00000095,0.00000049,0.0
 0000166,-0.00000145,-0.00000017,0.00000133,0.00000066,-0.00000127,-0.0
 0000345,0.00000122,0.00000220,0.00000079,-0.00000184,-0.00000409,0.000
 00257,0.00000026,0.00000230,-0.00000216,0.00000008,0.00000756,0.000000
 32,0.00000435,0.00000297,0.00000244,-0.00000290,-0.00000055,-0.0000030
 6,0.00000340,0.00000257,0.00000511,0.00000183,-0.00247313,-0.00047978,
 -0.00133372,0.08978499,0.06628039,0.00009959,0.00001884,0.00014787,0.0
 0005797,0.00003297,-0.00007391,0.00002476,-0.00004020,0.00014408,-0.00
 038527,-0.00011986,0.00043385,-0.00000346,0.00000878,-0.00003045,0.000
 07576,0.00024696,-0.00094780,0.12512157,0.05500911,-0.16150269,-0.0104
 2162,-0.00483715,0.01131641,0.00014353,0.00056227,0.00067809,-0.002239
 02,-0.00207105,-0.00001754,-0.00160234,-0.00091900,-0.00083899,0.00011
 056,0.00023839,0.00010667,0.02357500,0.01207847,-0.00921593,0.00084823
 ,0.00068126,0.00053228,-0.00001928,-0.00002141,0.00003222,0.00002966,0
 .00003732,0.00004995,0.00000562,-0.00000289,-0.00001688,0.00000130,-0.
 00000466,0.00000499,-0.00000317,0.00000690,-0.00000573,-0.00000590,0.0
 0000287,0.00000145,0.00000752,0.00001044,-0.00001774,-0.00001053,0.000
 00480,-0.00000159,-0.00000904,-0.00000669,-0.00000520,0.00000514,-0.00
 000616,-0.00000150,-0.00001037,-0.00000783,-0.00000970,0.00000190,0.00
 000079,0.00000122,-0.00000011,0.00000170,-0.00001078,0.00000058,-0.000
 00091,0.00000267,-0.00000599,-0.00000183,-0.00001373,0.00000150,0.0000
 0329,0.00000448,-0.00000138,-0.00000778,-0.00000806,0.00000005,0.00000
 104,0.00000251,-0.00002774,0.00000246,0.00001067,-0.00002566,0.0000092
 3,0.00001127,0.00000401,0.00000297,-0.00000304,-0.00000357,-0.00000142
 ,0.00000373,0.00000365,-0.00000042,-0.00000265,-0.00000148,-0.00000107
 ,-0.00000004,0.00000126,0.00000021,0.00000088,-0.00000051,-0.00000271,
 -0.00000187,0.00000224,-0.00000054,-0.00000039,-0.00000065,0.00000212,
 0.00000041,0.00000010,-0.00000038,-0.00000166,-0.00000061,0.00000061,0
 .00000072,0.00000280,-0.00000051,-0.00000061,-0.00000100,-0.00000004,-
 0.00000055,0.00000550,-0.00000606,0.00000348,-0.00000498,0.00000619,-0
 .00000317,0.00000591,-0.00000055,-0.00000263,-0.00000387,-0.00000212,0
 .00000053,-0.00006291,-0.00007792,0.00028700,-0.00013116,0.00003301,0.
 00002394,-0.00025626,0.00003044,0.00003788,-0.00008518,-0.00157229,-0.
 00704178,-0.00021887,-0.00005342,-0.00025759,-0.00002923,-0.00002043,-
 0.00022019,0.00003567,-0.00003725,0.00000039,0.00002971,0.00000794,-0.
 00002254,0.00091667,0.00030095,0.00061907,0.00001093,-0.00001663,0.000
 07531,-0.00052691,-0.00031952,0.00045444,-0.00008845,-0.00009019,0.000
 06456,-0.00000233,0.00009434,-0.00004212,0.00000226,0.00008411,-0.0000
 4148,0.00002822,-0.00003890,-0.00000818,-0.00000533,-0.00005894,0.0000
 1783,-0.00000358,0.00000562,-0.00000679,-0.00000725,0.00000766,-0.0000
 0010,0.00000795,0.00000463,-0.00000192,0.00000049,0.00001009,-0.000001
 63,0.00000510,-0.00000242,0.00000368,-0.00000241,0.00000428,0.00000102
 ,-0.00000017,-0.00000157,-0.00000308,-0.00000009,-0.00000115,-0.000003
 51,0.00000161,0.00000451,-0.00000167,-0.00000198,-0.00000148,0.0000025
 9,-0.00000052,-0.00000134,0.00000087,-0.00000121,0.00000495,0.00000043
 ,-0.00000299,-0.00000039,0.00000045,-0.00000241,-0.00000266,0.00000275
 ,0.00000338,0.00000466,-0.00000286,-0.00000264,-0.00000478,-0.00000031
 ,-0.00172453,-0.00165623,0.00022328,-0.13323374,-0.05754643,0.16508464
 \\-0.00000117,0.00000243,-0.00000084,-0.00000058,0.00000114,0.00000052
 ,-0.00000116,0.00000256,0.00000130,-0.00000013,0.00000402,-0.00000121,
 -0.00000221,0.00000324,0.00000039,-0.00000412,0.00000121,0.00000270,-0
 .00000116,0.00000270,0.00000464,-0.00000071,0.00000152,-0.00000138,-0.
 00000036,0.00000247,0.00000009,-0.00000137,0.00000074,-0.00000129,0.00
 000224,0.00000255,0.00000179,-0.00000028,-0.00000066,-0.00000049,0.000
 00026,0.00000200,-0.00000272,0.00000060,0.00000321,-0.00000093,-0.0000
 0147,-0.00000067,0.00000161,-0.00000039,-0.00000083,-0.00000144,0.0000
 0081,0.00000109,-0.00000131,0.00000081,-0.00000012,-0.00000014,0.00000
 073,-0.00000019,-0.00000011,0.00000069,0.00000067,-0.00000040,-0.00000
 009,-0.00000001,-0.00000007,-0.00000027,0.00000093,0.00000018,-0.00000
 020,0.00000030,0.00000031,-0.00000074,0.00000041,0.00000073,0.00000082
 ,-0.00000119,0.00000069,-0.00000027,-0.00000162,0.00000003,-0.00000020
 ,-0.00000153,0.00000031,0.00000063,-0.00000124,0.00000007,-0.00000171,
 -0.00000111,0.00000047,-0.00000140,-0.00000021,0.00000109,-0.00000109,
 -0.00000081,0.00000091,-0.00000090,-0.00000111,0.00000104,-0.00000079,
 -0.00000253,0.00000187,-0.00000047,-0.00000263,-0.00000043,0.00000054,
 -0.00000110,-0.00000057,-0.00000065,-0.00000174,0.00000043,-0.00000064
 ,-0.00000229,0.00000107,-0.00000155,-0.00000134,0.00000167,-0.00000081
 ,-0.00000215,0.00000191,-0.00000201,-0.00000145,0.00000144,-0.00000120
 ,-0.00000209,0.00000132,-0.00000128,-0.00000125,0.00000154,0.00000098,
 -0.00000222,-0.00000024,0.00000055,-0.00000239,0.00000002,0.00000015,-
 0.00000270,0.00000045,0.00000020,-0.00000219,0.00000033,0.00000064,-0.
 00000179,0.00000170,-0.00000054,-0.00000115,0.00000008,-0.00000045,-0.
 00000201,0.00000027,0.00000043,-0.00000179,-0.00000015,-0.00000157,0.0
 0000272,-0.00000086,-0.00000335,-0.00000973,0.00000286,-0.00000170,-0.
 00000037,0.00000176,-0.00000352,-0.00000069,-0.00000191,0.00000140,-0.
 00000002,-0.00000088,0.00000107,-0.00000049,0.00000131,-0.00000043,0.0
 0000322,-0.00000006,0.00000138,0.00000389,-0.00000118,-0.00000191,0.00
 000306,0.00000356,-0.00000186,0.00000289,0.00000079,-0.00000014,0.0000
 0084,0.00000017,0.00000426,0.00000012,0.00000229,-0.00000041,0.0000002
 2,-0.00000258,0.00000037,-0.00000047,-0.00000204,0.00000118,-0.0000003
 8,-0.00000066,0.00000059,0.00000027,-0.00000114,0.00000116,0.00000108,
 -0.00000162,0.00000213,-0.00000050,-0.00000124,0.00000172,0.00000120,-
 0.00000069,0.00000304,0.00000067,-0.00000093,0.00000185,0.00000105,-0.
 00000107,0.00000173,0.00000083,-0.00000188,0.00000144,0.00000118,-0.00
 000116,0.00000186,-0.00000087,-0.00000090,0.00000238,-0.00000040,-0.00
 000157,0.00000199,-0.00000140,-0.00000051,0.00000162,0.00000058,-0.000
 00149,0.00000225,0.00000019,-0.00000179,0.00000176,0.00000091,-0.00000
 137,0.00000074,-0.00000142,-0.00000047,0.00000149,-0.00000097,-0.00000
 104,0.00000061,-0.00000016,-0.00000108,-0.00000119,0.00000316,-0.00000
 067,-0.00000065,0.00000277,-0.00000124\\\@
 The archive entry for this job was punched.


 Some scientists claim that hydrogen, because it is so
 plentiful, is the basic building block of the universe. 
 I dispute that. I say that stupidity is far more
 abundant than hydrogen, and THAT is the basic building 
 block of the universe.
                   --Frank Zappa
 Job cpu time:       0 days 17 hours  9 minutes 12.4 seconds.
 Elapsed time:       0 days  1 hours  5 minutes 35.5 seconds.
 File lengths (MBytes):  RWF=   4037 Int=      0 D2E=      0 Chk=     40 Scr=      1
 Normal termination of Gaussian 16 at Fri Nov  3 00:03:47 2023.
