/mnt/lustre/scratch/nvme/SLURM/4748592/usccqdma.4NT4Xb4twv
OMP_STACKSIZE=0m
GAUSS_PDEF=16
GAUSS_MDEF=65536MB
GAUSS_RDEF=SCF=Direct
 Entering Gaussian System, Link 0=g16.exe
 Initial command:
 /opt/cesga/2020/software/Core/g16/c1/l1.exe "/mnt/lustre/scratch/nvme/SLURM/4748592/usccqdma.4NT4Xb4twv/Gau-3161033.inp" -scrdir="/mnt/lustre/scratch/nvme/SLURM/4748592/usccqdma.4NT4Xb4twv/"
 Default is to use a total of  16 processors:
                               16 via shared-memory
                                1 via Linda
 Entering Link 1 = /opt/cesga/2020/software/Core/g16/c1/l1.exe PID=   3161059.
  
 Copyright (c) 1988-2019, Gaussian, Inc.  All Rights Reserved.
  
 This is part of the Gaussian(R) 16 program.  It is based on
 the Gaussian(R) 09 system (copyright 2009, Gaussian, Inc.),
 the Gaussian(R) 03 system (copyright 2003, Gaussian, Inc.),
 the Gaussian(R) 98 system (copyright 1998, Gaussian, Inc.),
 the Gaussian(R) 94 system (copyright 1995, Gaussian, Inc.),
 the Gaussian 92(TM) system (copyright 1992, Gaussian, Inc.),
 the Gaussian 90(TM) system (copyright 1990, Gaussian, Inc.),
 the Gaussian 88(TM) system (copyright 1988, Gaussian, Inc.),
 the Gaussian 86(TM) system (copyright 1986, Carnegie Mellon
 University), and the Gaussian 82(TM) system (copyright 1983,
 Carnegie Mellon University). Gaussian is a federally registered
 trademark of Gaussian, Inc.
  
 This software contains proprietary and confidential information,
 including trade secrets, belonging to Gaussian, Inc.
  
 This software is provided under written license and may be
 used, copied, transmitted, or stored only in accord with that
 written license.
  
 The following legend is applicable only to US Government
 contracts under FAR:
  
                    RESTRICTED RIGHTS LEGEND
  
 Use, reproduction and disclosure by the US Government is
 subject to restrictions as set forth in subparagraphs (a)
 and (c) of the Commercial Computer Software - Restricted
 Rights clause in FAR 52.227-19.
  
 Gaussian, Inc.
 340 Quinnipiac St., Bldg. 40, Wallingford CT 06492
  
  
 ---------------------------------------------------------------
 Warning -- This program may not be used in any manner that
 competes with the business of Gaussian, Inc. or will provide
 assistance to any competitor of Gaussian, Inc.  The licensee
 of this program is prohibited from giving any competitor of
 Gaussian, Inc. access to this program.  By using this program,
 the user acknowledges that Gaussian, Inc. is engaged in the
 business of creating and licensing software in the field of
 computational chemistry and represents and warrants to the
 licensee that it is not a competitor of Gaussian, Inc. and that
 it will not use this program in any manner prohibited above.
 ---------------------------------------------------------------
  

 Cite this work as:
 Gaussian 16, Revision C.01,
 M. J. Frisch, G. W. Trucks, H. B. Schlegel, G. E. Scuseria, 
 M. A. Robb, J. R. Cheeseman, G. Scalmani, V. Barone, 
 G. A. Petersson, H. Nakatsuji, X. Li, M. Caricato, A. V. Marenich, 
 J. Bloino, B. G. Janesko, R. Gomperts, B. Mennucci, H. P. Hratchian, 
 J. V. Ortiz, A. F. Izmaylov, J. L. Sonnenberg, D. Williams-Young, 
 F. Ding, F. Lipparini, F. Egidi, J. Goings, B. Peng, A. Petrone, 
 T. Henderson, D. Ranasinghe, V. G. Zakrzewski, J. Gao, N. Rega, 
 G. Zheng, W. Liang, M. Hada, M. Ehara, K. Toyota, R. Fukuda, 
 J. Hasegawa, M. Ishida, T. Nakajima, Y. Honda, O. Kitao, H. Nakai, 
 T. Vreven, K. Throssell, J. A. Montgomery, Jr., J. E. Peralta, 
 F. Ogliaro, M. J. Bearpark, J. J. Heyd, E. N. Brothers, K. N. Kudin, 
 V. N. Staroverov, T. A. Keith, R. Kobayashi, J. Normand, 
 K. Raghavachari, A. P. Rendell, J. C. Burant, S. S. Iyengar, 
 J. Tomasi, M. Cossi, J. M. Millam, M. Klene, C. Adamo, R. Cammi, 
 J. W. Ochterski, R. L. Martin, K. Morokuma, O. Farkas, 
 J. B. Foresman, and D. J. Fox, Gaussian, Inc., Wallingford CT, 2019.
 
 ******************************************
 Gaussian 16:  ES64L-G16RevC.01  3-Jul-2019
                 3-Nov-2023 
 ******************************************
 Default route: SCF=Direct
 --------------------------------------------------------
 # m06/genecp scf=tight int=ultrafine 5d opt freq=noraman
 --------------------------------------------------------
 1/18=20,19=15,26=4,38=1/1,3;
 2/9=110,12=2,17=6,18=5,40=1/2;
 3/5=7,8=1,11=2,16=1,17=8,25=1,30=1,71=1,74=-54,75=-5/1,2,3;
 4//1;
 5/5=2,32=2,38=5/2;
 6/7=2,8=2,9=2,10=2,28=1/1;
 7//1,2,3,16;
 1/18=20,19=15,26=4/3(2);
 2/9=110/2;
 99//99;
 2/9=110/2;
 3/5=7,6=1,8=1,11=2,16=1,17=8,25=1,30=1,71=1,74=-54,75=-5,82=7/1,2,3;
 4/5=5,16=3,69=1/1;
 5/5=2,32=2,38=5/2;
 7//1,2,3,16;
 1/18=20,19=15,26=4/3(-5);
 2/9=110/2;
 6/7=2,8=2,9=2,10=2,19=2,28=1/1;
 99/9=1/99;
 ------
 OPT-TS
 ------
 Symbolic Z-matrix:
 Charge =  0 Multiplicity = 1
 C                    -2.2958   -2.1715   -0.6907 
 C                    -3.4782   -2.8865   -0.9715 
 C                    -4.6203   -2.1738   -1.3373 
 C                    -4.5368   -0.7545   -1.3792 
 C                    -4.2919    2.1026   -1.3511 
 C                    -4.1373    3.5156   -1.2885 
 C                    -2.8973    4.0227   -0.9021 
 C                    -1.8566    3.1205   -0.6031 
 H                    -0.8711    3.4722   -0.2765 
 C                    -3.1853    1.2872   -1.0377 
 C                    -3.3054   -0.1441   -1.0633 
 C                     2.2209    3.6109    0.5199 
 C                     3.1665    2.3987    0.813 
 C                     2.47      4.236    -0.8508 
 H                     2.4936    3.463    -1.6326 
 H                     3.4133    4.801    -0.8849 
 H                     1.6465    4.9287   -1.0821 
 C                     2.2088    4.6881    1.5899 
 H                     1.5151    5.4926    1.3009 
 H                     3.2081    5.1322    1.7183 
 H                     1.8744    4.284     2.5538 
 C                     4.5436    2.4986    0.1799 
 H                     5.1272    1.6011    0.4319 
 H                     5.0905    3.3785    0.5534 
 H                     4.4798    2.5586   -0.9143 
 C                     3.2969    2.1044    2.3053 
 H                     2.3047    2.0014    2.7663 
 H                     3.8755    2.8779    2.8322 
 H                     3.816     1.142     2.4223 
 B                     1.1007    1.6126    0.1722 
 N                    -2.2001   -0.8552   -0.7448 
 N                    -1.9846    1.803    -0.6697 
 O                     0.9428    2.9818    0.4753 
 O                     2.4583    1.3134    0.224 
 Ir                   -0.4343    0.3675   -0.2886 
 B                    -0.1543   -0.4132    1.4943 
 O                    -0.7141   -1.642     1.8714 
 O                     0.522     0.1362    2.5781 
 C                    -0.6147   -1.7606    3.2886 
 C                     0.6228   -0.8551    3.5998 
 C                    -1.9069   -1.2108    3.8867 
 C                    -0.4472   -3.2239    3.6552 
 C                     0.5951   -0.1751    4.9563 
 C                     1.9466   -1.587     3.4013 
 H                    -2.021    -0.1432    3.6483 
 H                    -1.9468   -1.336     4.9789 
 H                    -2.7566   -1.7498    3.4422 
 H                    -1.361    -3.7779    3.3925 
 H                    -0.2746   -3.3447    4.7358 
 H                     0.3911   -3.6773    3.1109 
 H                     1.501     0.4364    5.0808 
 H                     0.5692   -0.9163    5.7701 
 H                    -0.2739    0.4883    5.0526 
 H                     1.9676   -2.097     2.4273 
 H                     2.1347   -2.3249    4.1953 
 H                     2.7608   -0.849     3.4089 
 H                    -1.3881   -2.6977   -0.3878 
 H                     0.6747   -0.7703   -0.2446 
 H                    -3.49906  -3.95425  -0.90535 
 H                    -5.53167  -2.67962  -1.57907 
 H                    -5.38857  -0.16364  -1.64427 
 H                    -5.22883   1.66773  -1.63031 
 H                    -4.94865   4.16974  -1.53079 
 H                    -2.73852   5.07864  -0.83374 
 

 GradGradGradGradGradGradGradGradGradGradGradGradGradGradGradGradGradGrad
 Berny optimization.
 Initialization pass.
                           ----------------------------
                           !    Initial Parameters    !
                           ! (Angstroms and Degrees)  !
 --------------------------                            --------------------------
 ! Name  Definition              Value          Derivative Info.                !
 --------------------------------------------------------------------------------
 ! R1    R(1,2)                  1.41           estimate D2E/DX2                !
 ! R2    R(1,31)                 1.3209         estimate D2E/DX2                !
 ! R3    R(1,57)                 1.092          estimate D2E/DX2                !
 ! R4    R(2,3)                  1.395          estimate D2E/DX2                !
 ! R5    R(2,59)                 1.07           estimate D2E/DX2                !
 ! R6    R(3,4)                  1.4224         estimate D2E/DX2                !
 ! R7    R(3,60)                 1.07           estimate D2E/DX2                !
 ! R8    R(4,11)                 1.4102         estimate D2E/DX2                !
 ! R9    R(4,61)                 1.07           estimate D2E/DX2                !
 ! R10   R(5,6)                  1.4228         estimate D2E/DX2                !
 ! R11   R(5,10)                 1.4098         estimate D2E/DX2                !
 ! R12   R(5,62)                 1.07           estimate D2E/DX2                !
 ! R13   R(6,7)                  1.3943         estimate D2E/DX2                !
 ! R14   R(6,63)                 1.07           estimate D2E/DX2                !
 ! R15   R(7,8)                  1.4094         estimate D2E/DX2                !
 ! R16   R(7,64)                 1.07           estimate D2E/DX2                !
 ! R17   R(8,9)                  1.0962         estimate D2E/DX2                !
 ! R18   R(8,32)                 1.3254         estimate D2E/DX2                !
 ! R19   R(10,11)                1.4366         estimate D2E/DX2                !
 ! R20   R(10,32)                1.3576         estimate D2E/DX2                !
 ! R21   R(11,31)                1.3523         estimate D2E/DX2                !
 ! R22   R(12,13)                1.5651         estimate D2E/DX2                !
 ! R23   R(12,14)                1.527          estimate D2E/DX2                !
 ! R24   R(12,18)                1.5184         estimate D2E/DX2                !
 ! R25   R(12,33)                1.4252         estimate D2E/DX2                !
 ! R26   R(13,22)                1.5189         estimate D2E/DX2                !
 ! R27   R(13,26)                1.5266         estimate D2E/DX2                !
 ! R28   R(13,34)                1.4235         estimate D2E/DX2                !
 ! R29   R(14,15)                1.0997         estimate D2E/DX2                !
 ! R30   R(14,16)                1.1001         estimate D2E/DX2                !
 ! R31   R(14,17)                1.1007         estimate D2E/DX2                !
 ! R32   R(18,19)                1.1009         estimate D2E/DX2                !
 ! R33   R(18,20)                1.1011         estimate D2E/DX2                !
 ! R34   R(18,21)                1.0974         estimate D2E/DX2                !
 ! R35   R(22,23)                1.0998         estimate D2E/DX2                !
 ! R36   R(22,24)                1.1013         estimate D2E/DX2                !
 ! R37   R(22,25)                1.0977         estimate D2E/DX2                !
 ! R38   R(26,27)                1.0989         estimate D2E/DX2                !
 ! R39   R(26,28)                1.1003         estimate D2E/DX2                !
 ! R40   R(26,29)                1.0997         estimate D2E/DX2                !
 ! R41   R(30,33)                1.4112         estimate D2E/DX2                !
 ! R42   R(30,34)                1.3911         estimate D2E/DX2                !
 ! R43   R(30,35)                2.0295         estimate D2E/DX2                !
 ! R44   R(31,35)                2.1957         estimate D2E/DX2                !
 ! R45   R(32,35)                2.1469         estimate D2E/DX2                !
 ! R46   R(35,36)                1.9664         estimate D2E/DX2                !
 ! R47   R(35,58)                1.5895         estimate D2E/DX2                !
 ! R48   R(36,37)                1.402          estimate D2E/DX2                !
 ! R49   R(36,38)                1.3906         estimate D2E/DX2                !
 ! R50   R(37,39)                1.4256         estimate D2E/DX2                !
 ! R51   R(38,40)                1.4271         estimate D2E/DX2                !
 ! R52   R(39,40)                1.5647         estimate D2E/DX2                !
 ! R53   R(39,41)                1.5264         estimate D2E/DX2                !
 ! R54   R(39,42)                1.5178         estimate D2E/DX2                !
 ! R55   R(40,43)                1.5176         estimate D2E/DX2                !
 ! R56   R(40,44)                1.5256         estimate D2E/DX2                !
 ! R57   R(41,45)                1.0998         estimate D2E/DX2                !
 ! R58   R(41,46)                1.1001         estimate D2E/DX2                !
 ! R59   R(41,47)                1.1            estimate D2E/DX2                !
 ! R60   R(42,48)                1.1004         estimate D2E/DX2                !
 ! R61   R(42,49)                1.1009         estimate D2E/DX2                !
 ! R62   R(42,50)                1.0975         estimate D2E/DX2                !
 ! R63   R(43,51)                1.1            estimate D2E/DX2                !
 ! R64   R(43,52)                1.1011         estimate D2E/DX2                !
 ! R65   R(43,53)                1.0975         estimate D2E/DX2                !
 ! R66   R(44,54)                1.0996         estimate D2E/DX2                !
 ! R67   R(44,55)                1.1001         estimate D2E/DX2                !
 ! R68   R(44,56)                1.0989         estimate D2E/DX2                !
 ! A1    A(2,1,31)             123.9125         estimate D2E/DX2                !
 ! A2    A(2,1,57)             120.5251         estimate D2E/DX2                !
 ! A3    A(31,1,57)            115.5512         estimate D2E/DX2                !
 ! A4    A(1,2,3)              118.6648         estimate D2E/DX2                !
 ! A5    A(1,2,59)             120.6676         estimate D2E/DX2                !
 ! A6    A(3,2,59)             120.6676         estimate D2E/DX2                !
 ! A7    A(2,3,4)              117.998          estimate D2E/DX2                !
 ! A8    A(2,3,60)             121.001          estimate D2E/DX2                !
 ! A9    A(4,3,60)             121.001          estimate D2E/DX2                !
 ! A10   A(3,4,11)             118.4614         estimate D2E/DX2                !
 ! A11   A(3,4,61)             120.7693         estimate D2E/DX2                !
 ! A12   A(11,4,61)            120.7693         estimate D2E/DX2                !
 ! A13   A(6,5,10)             118.6401         estimate D2E/DX2                !
 ! A14   A(6,5,62)             120.6799         estimate D2E/DX2                !
 ! A15   A(10,5,62)            120.6799         estimate D2E/DX2                !
 ! A16   A(5,6,7)              118.0353         estimate D2E/DX2                !
 ! A17   A(5,6,63)             120.9823         estimate D2E/DX2                !
 ! A18   A(7,6,63)             120.9823         estimate D2E/DX2                !
 ! A19   A(6,7,8)              118.8596         estimate D2E/DX2                !
 ! A20   A(6,7,64)             120.5702         estimate D2E/DX2                !
 ! A21   A(8,7,64)             120.5702         estimate D2E/DX2                !
 ! A22   A(7,8,9)              121.4449         estimate D2E/DX2                !
 ! A23   A(7,8,32)             123.6661         estimate D2E/DX2                !
 ! A24   A(9,8,32)             114.8812         estimate D2E/DX2                !
 ! A25   A(5,10,11)            120.4418         estimate D2E/DX2                !
 ! A26   A(5,10,32)            122.3237         estimate D2E/DX2                !
 ! A27   A(11,10,32)           117.2134         estimate D2E/DX2                !
 ! A28   A(4,11,10)            120.5472         estimate D2E/DX2                !
 ! A29   A(4,11,31)            122.6051         estimate D2E/DX2                !
 ! A30   A(10,11,31)           116.8323         estimate D2E/DX2                !
 ! A31   A(13,12,14)           112.7442         estimate D2E/DX2                !
 ! A32   A(13,12,18)           114.9817         estimate D2E/DX2                !
 ! A33   A(13,12,33)           101.876          estimate D2E/DX2                !
 ! A34   A(14,12,18)           110.0879         estimate D2E/DX2                !
 ! A35   A(14,12,33)           107.3916         estimate D2E/DX2                !
 ! A36   A(18,12,33)           109.151          estimate D2E/DX2                !
 ! A37   A(12,13,22)           114.7567         estimate D2E/DX2                !
 ! A38   A(12,13,26)           112.5806         estimate D2E/DX2                !
 ! A39   A(12,13,34)           102.2653         estimate D2E/DX2                !
 ! A40   A(22,13,26)           110.0396         estimate D2E/DX2                !
 ! A41   A(22,13,34)           109.1918         estimate D2E/DX2                !
 ! A42   A(26,13,34)           107.4567         estimate D2E/DX2                !
 ! A43   A(12,14,15)           110.7272         estimate D2E/DX2                !
 ! A44   A(12,14,16)           112.2074         estimate D2E/DX2                !
 ! A45   A(12,14,17)           108.9184         estimate D2E/DX2                !
 ! A46   A(15,14,16)           108.6981         estimate D2E/DX2                !
 ! A47   A(15,14,17)           108.0015         estimate D2E/DX2                !
 ! A48   A(16,14,17)           108.1679         estimate D2E/DX2                !
 ! A49   A(12,18,19)           109.7838         estimate D2E/DX2                !
 ! A50   A(12,18,20)           111.1677         estimate D2E/DX2                !
 ! A51   A(12,18,21)           111.1109         estimate D2E/DX2                !
 ! A52   A(19,18,20)           107.9241         estimate D2E/DX2                !
 ! A53   A(19,18,21)           107.9189         estimate D2E/DX2                !
 ! A54   A(20,18,21)           108.8241         estimate D2E/DX2                !
 ! A55   A(13,22,23)           109.3846         estimate D2E/DX2                !
 ! A56   A(13,22,24)           111.1872         estimate D2E/DX2                !
 ! A57   A(13,22,25)           111.4922         estimate D2E/DX2                !
 ! A58   A(23,22,24)           108.1061         estimate D2E/DX2                !
 ! A59   A(23,22,25)           107.6887         estimate D2E/DX2                !
 ! A60   A(24,22,25)           108.8602         estimate D2E/DX2                !
 ! A61   A(13,26,27)           110.5499         estimate D2E/DX2                !
 ! A62   A(13,26,28)           112.1784         estimate D2E/DX2                !
 ! A63   A(13,26,29)           108.2417         estimate D2E/DX2                !
 ! A64   A(27,26,28)           109.8641         estimate D2E/DX2                !
 ! A65   A(27,26,29)           107.4299         estimate D2E/DX2                !
 ! A66   A(28,26,29)           108.4235         estimate D2E/DX2                !
 ! A67   A(33,30,34)           108.0512         estimate D2E/DX2                !
 ! A68   A(33,30,35)           124.0129         estimate D2E/DX2                !
 ! A69   A(34,30,35)           127.9239         estimate D2E/DX2                !
 ! A70   A(1,31,11)            118.3228         estimate D2E/DX2                !
 ! A71   A(1,31,35)            127.2059         estimate D2E/DX2                !
 ! A72   A(11,31,35)           114.4198         estimate D2E/DX2                !
 ! A73   A(8,32,10)            118.4703         estimate D2E/DX2                !
 ! A74   A(8,32,35)            125.8734         estimate D2E/DX2                !
 ! A75   A(10,32,35)           115.6402         estimate D2E/DX2                !
 ! A76   A(12,33,30)           109.5509         estimate D2E/DX2                !
 ! A77   A(13,34,30)           109.6906         estimate D2E/DX2                !
 ! A78   A(30,35,32)           100.1518         estimate D2E/DX2                !
 ! A79   A(30,35,36)            85.9866         estimate D2E/DX2                !
 ! A80   A(30,35,58)            84.5583         estimate D2E/DX2                !
 ! A81   A(31,35,32)            75.8025         estimate D2E/DX2                !
 ! A82   A(31,35,36)            94.6926         estimate D2E/DX2                !
 ! A83   A(31,35,58)            99.6854         estimate D2E/DX2                !
 ! A84   A(32,35,36)           121.9535         estimate D2E/DX2                !
 ! A85   A(36,35,58)            65.8796         estimate D2E/DX2                !
 ! A86   A(35,36,37)           122.3444         estimate D2E/DX2                !
 ! A87   A(35,36,38)           128.2459         estimate D2E/DX2                !
 ! A88   A(37,36,38)           109.3192         estimate D2E/DX2                !
 ! A89   A(36,37,39)           108.2078         estimate D2E/DX2                !
 ! A90   A(36,38,40)           108.5348         estimate D2E/DX2                !
 ! A91   A(37,39,40)           101.813          estimate D2E/DX2                !
 ! A92   A(37,39,41)           107.4899         estimate D2E/DX2                !
 ! A93   A(37,39,42)           109.1479         estimate D2E/DX2                !
 ! A94   A(40,39,41)           112.5307         estimate D2E/DX2                !
 ! A95   A(40,39,42)           115.0            estimate D2E/DX2                !
 ! A96   A(41,39,42)           110.2461         estimate D2E/DX2                !
 ! A97   A(38,40,39)           101.7552         estimate D2E/DX2                !
 ! A98   A(38,40,43)           109.1096         estimate D2E/DX2                !
 ! A99   A(38,40,44)           107.5399         estimate D2E/DX2                !
 ! A100  A(39,40,43)           115.0013         estimate D2E/DX2                !
 ! A101  A(39,40,44)           112.505          estimate D2E/DX2                !
 ! A102  A(43,40,44)           110.3091         estimate D2E/DX2                !
 ! A103  A(39,41,45)           110.6426         estimate D2E/DX2                !
 ! A104  A(39,41,46)           112.2564         estimate D2E/DX2                !
 ! A105  A(39,41,47)           108.6084         estimate D2E/DX2                !
 ! A106  A(45,41,46)           108.7792         estimate D2E/DX2                !
 ! A107  A(45,41,47)           107.9328         estimate D2E/DX2                !
 ! A108  A(46,41,47)           108.5059         estimate D2E/DX2                !
 ! A109  A(39,42,48)           109.6371         estimate D2E/DX2                !
 ! A110  A(39,42,49)           111.1098         estimate D2E/DX2                !
 ! A111  A(39,42,50)           111.2712         estimate D2E/DX2                !
 ! A112  A(48,42,49)           108.0145         estimate D2E/DX2                !
 ! A113  A(48,42,50)           107.9325         estimate D2E/DX2                !
 ! A114  A(49,42,50)           108.7653         estimate D2E/DX2                !
 ! A115  A(40,43,51)           109.5848         estimate D2E/DX2                !
 ! A116  A(40,43,52)           111.0655         estimate D2E/DX2                !
 ! A117  A(40,43,53)           111.3284         estimate D2E/DX2                !
 ! A118  A(51,43,52)           108.055          estimate D2E/DX2                !
 ! A119  A(51,43,53)           107.8249         estimate D2E/DX2                !
 ! A120  A(52,43,53)           108.8703         estimate D2E/DX2                !
 ! A121  A(40,44,54)           110.7512         estimate D2E/DX2                !
 ! A122  A(40,44,55)           112.1004         estimate D2E/DX2                !
 ! A123  A(40,44,56)           108.6519         estimate D2E/DX2                !
 ! A124  A(54,44,55)           108.9607         estimate D2E/DX2                !
 ! A125  A(54,44,56)           107.6644         estimate D2E/DX2                !
 ! A126  A(55,44,56)           108.5887         estimate D2E/DX2                !
 ! A127  L(30,35,31,32,-1)     175.9543         estimate D2E/DX2                !
 ! A128  L(32,35,58,30,-1)     184.71           estimate D2E/DX2                !
 ! A129  L(30,35,31,32,-2)     181.7468         estimate D2E/DX2                !
 ! A130  L(32,35,58,30,-2)     187.8825         estimate D2E/DX2                !
 ! D1    D(31,1,2,3)             0.4009         estimate D2E/DX2                !
 ! D2    D(31,1,2,59)         -179.5991         estimate D2E/DX2                !
 ! D3    D(57,1,2,3)           179.1283         estimate D2E/DX2                !
 ! D4    D(57,1,2,59)           -0.8717         estimate D2E/DX2                !
 ! D5    D(2,1,31,11)            1.3071         estimate D2E/DX2                !
 ! D6    D(2,1,31,35)          178.5392         estimate D2E/DX2                !
 ! D7    D(57,1,31,11)        -177.4779         estimate D2E/DX2                !
 ! D8    D(57,1,31,35)          -0.2457         estimate D2E/DX2                !
 ! D9    D(1,2,3,4)             -1.3385         estimate D2E/DX2                !
 ! D10   D(1,2,3,60)           178.6615         estimate D2E/DX2                !
 ! D11   D(59,2,3,4)           178.6615         estimate D2E/DX2                !
 ! D12   D(59,2,3,60)           -1.3385         estimate D2E/DX2                !
 ! D13   D(2,3,4,11)             0.6284         estimate D2E/DX2                !
 ! D14   D(2,3,4,61)          -179.3716         estimate D2E/DX2                !
 ! D15   D(60,3,4,11)         -179.3716         estimate D2E/DX2                !
 ! D16   D(60,3,4,61)            0.6284         estimate D2E/DX2                !
 ! D17   D(3,4,11,10)         -177.4223         estimate D2E/DX2                !
 ! D18   D(3,4,11,31)            1.1086         estimate D2E/DX2                !
 ! D19   D(61,4,11,10)           2.5777         estimate D2E/DX2                !
 ! D20   D(61,4,11,31)        -178.8914         estimate D2E/DX2                !
 ! D21   D(10,5,6,7)            -0.7914         estimate D2E/DX2                !
 ! D22   D(10,5,6,63)          179.2086         estimate D2E/DX2                !
 ! D23   D(62,5,6,7)           179.2086         estimate D2E/DX2                !
 ! D24   D(62,5,6,63)           -0.7914         estimate D2E/DX2                !
 ! D25   D(6,5,10,11)          178.7948         estimate D2E/DX2                !
 ! D26   D(6,5,10,32)            0.5125         estimate D2E/DX2                !
 ! D27   D(62,5,10,11)          -1.2052         estimate D2E/DX2                !
 ! D28   D(62,5,10,32)        -179.4875         estimate D2E/DX2                !
 ! D29   D(5,6,7,8)              0.4927         estimate D2E/DX2                !
 ! D30   D(5,6,7,64)          -179.5073         estimate D2E/DX2                !
 ! D31   D(63,6,7,8)          -179.5073         estimate D2E/DX2                !
 ! D32   D(63,6,7,64)            0.4927         estimate D2E/DX2                !
 ! D33   D(6,7,8,9)           -178.7994         estimate D2E/DX2                !
 ! D34   D(6,7,8,32)             0.1298         estimate D2E/DX2                !
 ! D35   D(64,7,8,9)             1.2006         estimate D2E/DX2                !
 ! D36   D(64,7,8,32)         -179.8702         estimate D2E/DX2                !
 ! D37   D(7,8,32,10)           -0.4348         estimate D2E/DX2                !
 ! D38   D(7,8,32,35)          178.0345         estimate D2E/DX2                !
 ! D39   D(9,8,32,10)          178.5581         estimate D2E/DX2                !
 ! D40   D(9,8,32,35)           -2.9726         estimate D2E/DX2                !
 ! D41   D(5,10,11,4)           -1.1107         estimate D2E/DX2                !
 ! D42   D(5,10,11,31)        -179.7238         estimate D2E/DX2                !
 ! D43   D(32,10,11,4)         177.2572         estimate D2E/DX2                !
 ! D44   D(32,10,11,31)         -1.3559         estimate D2E/DX2                !
 ! D45   D(5,10,32,8)            0.1024         estimate D2E/DX2                !
 ! D46   D(5,10,32,35)        -178.5218         estimate D2E/DX2                !
 ! D47   D(11,10,32,8)        -178.2324         estimate D2E/DX2                !
 ! D48   D(11,10,32,35)          3.1434         estimate D2E/DX2                !
 ! D49   D(4,11,31,1)           -2.0655         estimate D2E/DX2                !
 ! D50   D(4,11,31,35)        -179.6446         estimate D2E/DX2                !
 ! D51   D(10,11,31,1)         176.5166         estimate D2E/DX2                !
 ! D52   D(10,11,31,35)         -1.0625         estimate D2E/DX2                !
 ! D53   D(14,12,13,22)         31.916          estimate D2E/DX2                !
 ! D54   D(14,12,13,26)        158.8184         estimate D2E/DX2                !
 ! D55   D(14,12,13,34)        -86.1644         estimate D2E/DX2                !
 ! D56   D(18,12,13,22)        -95.3978         estimate D2E/DX2                !
 ! D57   D(18,12,13,26)         31.5047         estimate D2E/DX2                !
 ! D58   D(18,12,13,34)        146.5218         estimate D2E/DX2                !
 ! D59   D(33,12,13,22)        146.7096         estimate D2E/DX2                !
 ! D60   D(33,12,13,26)        -86.388          estimate D2E/DX2                !
 ! D61   D(33,12,13,34)         28.6292         estimate D2E/DX2                !
 ! D62   D(13,12,14,15)         49.42           estimate D2E/DX2                !
 ! D63   D(13,12,14,16)        -72.2289         estimate D2E/DX2                !
 ! D64   D(13,12,14,17)        168.0396         estimate D2E/DX2                !
 ! D65   D(18,12,14,15)        179.2798         estimate D2E/DX2                !
 ! D66   D(18,12,14,16)         57.6309         estimate D2E/DX2                !
 ! D67   D(18,12,14,17)        -62.1006         estimate D2E/DX2                !
 ! D68   D(33,12,14,15)        -61.9963         estimate D2E/DX2                !
 ! D69   D(33,12,14,16)        176.3547         estimate D2E/DX2                !
 ! D70   D(33,12,14,17)         56.6232         estimate D2E/DX2                !
 ! D71   D(13,12,18,19)       -179.6968         estimate D2E/DX2                !
 ! D72   D(13,12,18,20)         60.9619         estimate D2E/DX2                !
 ! D73   D(13,12,18,21)        -60.3976         estimate D2E/DX2                !
 ! D74   D(14,12,18,19)         51.6549         estimate D2E/DX2                !
 ! D75   D(14,12,18,20)        -67.6865         estimate D2E/DX2                !
 ! D76   D(14,12,18,21)        170.954          estimate D2E/DX2                !
 ! D77   D(33,12,18,19)        -65.9847         estimate D2E/DX2                !
 ! D78   D(33,12,18,20)        174.6739         estimate D2E/DX2                !
 ! D79   D(33,12,18,21)         53.3144         estimate D2E/DX2                !
 ! D80   D(13,12,33,30)        -23.182          estimate D2E/DX2                !
 ! D81   D(14,12,33,30)         95.4948         estimate D2E/DX2                !
 ! D82   D(18,12,33,30)       -145.1795         estimate D2E/DX2                !
 ! D83   D(12,13,22,23)       -179.3787         estimate D2E/DX2                !
 ! D84   D(12,13,22,24)         61.2989         estimate D2E/DX2                !
 ! D85   D(12,13,22,25)        -60.3847         estimate D2E/DX2                !
 ! D86   D(26,13,22,23)         52.4292         estimate D2E/DX2                !
 ! D87   D(26,13,22,24)        -66.8932         estimate D2E/DX2                !
 ! D88   D(26,13,22,25)        171.4231         estimate D2E/DX2                !
 ! D89   D(34,13,22,23)        -65.2856         estimate D2E/DX2                !
 ! D90   D(34,13,22,24)        175.392          estimate D2E/DX2                !
 ! D91   D(34,13,22,25)         53.7084         estimate D2E/DX2                !
 ! D92   D(12,13,26,27)         52.2642         estimate D2E/DX2                !
 ! D93   D(12,13,26,28)        -70.7397         estimate D2E/DX2                !
 ! D94   D(12,13,26,29)        169.6757         estimate D2E/DX2                !
 ! D95   D(22,13,26,27)       -178.3567         estimate D2E/DX2                !
 ! D96   D(22,13,26,28)         58.6394         estimate D2E/DX2                !
 ! D97   D(22,13,26,29)        -60.9451         estimate D2E/DX2                !
 ! D98   D(34,13,26,27)        -59.5724         estimate D2E/DX2                !
 ! D99   D(34,13,26,28)        177.4237         estimate D2E/DX2                !
 ! D100  D(34,13,26,29)         57.8392         estimate D2E/DX2                !
 ! D101  D(12,13,34,30)        -24.865          estimate D2E/DX2                !
 ! D102  D(22,13,34,30)       -146.8325         estimate D2E/DX2                !
 ! D103  D(26,13,34,30)         93.8394         estimate D2E/DX2                !
 ! D104  D(34,30,33,12)          8.9446         estimate D2E/DX2                !
 ! D105  D(35,30,33,12)       -169.8844         estimate D2E/DX2                !
 ! D106  D(33,30,34,13)         11.4614         estimate D2E/DX2                !
 ! D107  D(35,30,34,13)       -169.7692         estimate D2E/DX2                !
 ! D108  D(33,30,35,32)         14.4879         estimate D2E/DX2                !
 ! D109  D(33,30,35,36)       -107.2751         estimate D2E/DX2                !
 ! D110  D(33,30,35,58)       -173.3945         estimate D2E/DX2                !
 ! D111  D(34,30,35,32)       -164.1006         estimate D2E/DX2                !
 ! D112  D(34,30,35,36)         74.1364         estimate D2E/DX2                !
 ! D113  D(34,30,35,58)          8.017          estimate D2E/DX2                !
 ! D114  D(1,31,35,32)        -175.3222         estimate D2E/DX2                !
 ! D115  D(1,31,35,36)         -53.5209         estimate D2E/DX2                !
 ! D116  D(1,31,35,58)          12.779          estimate D2E/DX2                !
 ! D117  D(11,31,35,32)          2.002          estimate D2E/DX2                !
 ! D118  D(11,31,35,36)        123.8033         estimate D2E/DX2                !
 ! D119  D(11,31,35,58)       -169.8969         estimate D2E/DX2                !
 ! D120  D(8,32,35,30)           0.5046         estimate D2E/DX2                !
 ! D121  D(8,32,35,31)         178.7578         estimate D2E/DX2                !
 ! D122  D(8,32,35,36)          92.1026         estimate D2E/DX2                !
 ! D123  D(10,32,35,30)        179.0121         estimate D2E/DX2                !
 ! D124  D(10,32,35,31)         -2.7348         estimate D2E/DX2                !
 ! D125  D(10,32,35,36)        -89.39           estimate D2E/DX2                !
 ! D126  D(30,35,36,37)       -165.5462         estimate D2E/DX2                !
 ! D127  D(30,35,36,38)         18.2938         estimate D2E/DX2                !
 ! D128  D(31,35,36,37)         18.8047         estimate D2E/DX2                !
 ! D129  D(31,35,36,38)       -157.3554         estimate D2E/DX2                !
 ! D130  D(32,35,36,37)         94.9867         estimate D2E/DX2                !
 ! D131  D(32,35,36,38)        -81.1733         estimate D2E/DX2                !
 ! D132  D(58,35,36,37)        -79.718          estimate D2E/DX2                !
 ! D133  D(58,35,36,38)        104.122          estimate D2E/DX2                !
 ! D134  D(35,36,37,39)       -165.5404         estimate D2E/DX2                !
 ! D135  D(38,36,37,39)         11.2646         estimate D2E/DX2                !
 ! D136  D(35,36,38,40)       -172.4487         estimate D2E/DX2                !
 ! D137  D(37,36,38,40)         10.9885         estimate D2E/DX2                !
 ! D138  D(36,37,39,40)        -26.3079         estimate D2E/DX2                !
 ! D139  D(36,37,39,41)         92.1391         estimate D2E/DX2                !
 ! D140  D(36,37,39,42)       -148.2909         estimate D2E/DX2                !
 ! D141  D(36,38,40,39)        -26.1764         estimate D2E/DX2                !
 ! D142  D(36,38,40,43)       -148.1121         estimate D2E/DX2                !
 ! D143  D(36,38,40,44)         92.235          estimate D2E/DX2                !
 ! D144  D(37,39,40,38)         31.6119         estimate D2E/DX2                !
 ! D145  D(37,39,40,43)        149.3871         estimate D2E/DX2                !
 ! D146  D(37,39,40,44)        -83.186          estimate D2E/DX2                !
 ! D147  D(41,39,40,38)        -83.1706         estimate D2E/DX2                !
 ! D148  D(41,39,40,43)         34.6046         estimate D2E/DX2                !
 ! D149  D(41,39,40,44)        162.0315         estimate D2E/DX2                !
 ! D150  D(42,39,40,38)        149.4694         estimate D2E/DX2                !
 ! D151  D(42,39,40,43)        -92.7554         estimate D2E/DX2                !
 ! D152  D(42,39,40,44)         34.6715         estimate D2E/DX2                !
 ! D153  D(37,39,41,45)        -62.6958         estimate D2E/DX2                !
 ! D154  D(37,39,41,46)        175.5772         estimate D2E/DX2                !
 ! D155  D(37,39,41,47)         55.5996         estimate D2E/DX2                !
 ! D156  D(40,39,41,45)         48.5946         estimate D2E/DX2                !
 ! D157  D(40,39,41,46)        -73.1324         estimate D2E/DX2                !
 ! D158  D(40,39,41,47)        166.89           estimate D2E/DX2                !
 ! D159  D(42,39,41,45)        178.4372         estimate D2E/DX2                !
 ! D160  D(42,39,41,46)         56.7103         estimate D2E/DX2                !
 ! D161  D(42,39,41,47)        -63.2673         estimate D2E/DX2                !
 ! D162  D(37,39,42,48)        -65.882          estimate D2E/DX2                !
 ! D163  D(37,39,42,49)        174.7952         estimate D2E/DX2                !
 ! D164  D(37,39,42,50)         53.4401         estimate D2E/DX2                !
 ! D165  D(40,39,42,48)       -179.5239         estimate D2E/DX2                !
 ! D166  D(40,39,42,49)         61.1533         estimate D2E/DX2                !
 ! D167  D(40,39,42,50)        -60.2018         estimate D2E/DX2                !
 ! D168  D(41,39,42,48)         51.968          estimate D2E/DX2                !
 ! D169  D(41,39,42,49)        -67.3548         estimate D2E/DX2                !
 ! D170  D(41,39,42,50)        171.2901         estimate D2E/DX2                !
 ! D171  D(38,40,43,51)        -66.381          estimate D2E/DX2                !
 ! D172  D(38,40,43,52)        174.3072         estimate D2E/DX2                !
 ! D173  D(38,40,43,53)         52.8093         estimate D2E/DX2                !
 ! D174  D(39,40,43,51)       -179.9264         estimate D2E/DX2                !
 ! D175  D(39,40,43,52)         60.7618         estimate D2E/DX2                !
 ! D176  D(39,40,43,53)        -60.736          estimate D2E/DX2                !
 ! D177  D(44,40,43,51)         51.5438         estimate D2E/DX2                !
 ! D178  D(44,40,43,52)        -67.7679         estimate D2E/DX2                !
 ! D179  D(44,40,43,53)        170.7342         estimate D2E/DX2                !
 ! D180  D(38,40,44,54)        -62.0882         estimate D2E/DX2                !
 ! D181  D(38,40,44,55)        175.9827         estimate D2E/DX2                !
 ! D182  D(38,40,44,56)         55.9702         estimate D2E/DX2                !
 ! D183  D(39,40,44,54)         49.1489         estimate D2E/DX2                !
 ! D184  D(39,40,44,55)        -72.7802         estimate D2E/DX2                !
 ! D185  D(39,40,44,56)        167.2074         estimate D2E/DX2                !
 ! D186  D(43,40,44,54)        179.0256         estimate D2E/DX2                !
 ! D187  D(43,40,44,55)         57.0965         estimate D2E/DX2                !
 ! D188  D(43,40,44,56)        -62.916          estimate D2E/DX2                !
 --------------------------------------------------------------------------------
 Trust Radius=3.00D-01 FncErr=1.00D-07 GrdErr=1.00D-06 EigMax=2.50D+02 EigMin=1.00D-04
 Number of steps in this run=    384 maximum allowed number of steps=    384.
 GradGradGradGradGradGradGradGradGradGradGradGradGradGradGradGradGradGrad

 Stoichiometry    C22H33B2IrN2O4
 Framework group  C1[X(C22H33B2IrN2O4)]
 Deg. of freedom   186
 Full point group                 C1      NOp   1
 Largest Abelian subgroup         C1      NOp   1
 Largest concise Abelian subgroup C1      NOp   1
                         Standard orientation:                         
 ---------------------------------------------------------------------
 Center     Atomic      Atomic             Coordinates (Angstroms)
 Number     Number       Type             X           Y           Z
 ---------------------------------------------------------------------
      1          6           0        3.186804    0.954774   -1.401505
      2          6           0        4.588477    1.107429   -1.389148
      3          6           0        5.359781    0.152633   -0.726127
      4          6           0        4.684070   -0.913439   -0.070348
      5          6           0        3.226804   -2.973694    1.291822
      6          6           0        2.463890   -3.955419    1.983609
      7          6           0        1.073746   -3.875725    1.911480
      8          6           0        0.490107   -2.840549    1.153722
      9          1           0       -0.597867   -2.726467    1.083936
     10          6           0        2.545021   -1.982659    0.556512
     11          6           0        3.276037   -0.957614   -0.135296
     12          6           0       -3.529494   -1.801485    0.209909
     13          6           0       -3.895483   -0.555926   -0.664235
     14          6           0       -3.634020   -3.115233   -0.561298
     15          1           0       -3.102032   -3.046390   -1.521271
     16          1           0       -4.678306   -3.400833   -0.756496
     17          1           0       -3.164459   -3.915191    0.031209
     18          6           0       -4.283257   -1.906646    1.523755
     19          1           0       -3.957463   -2.805626    2.069333
     20          1           0       -5.368170   -1.987686    1.354322
     21          1           0       -4.088651   -1.035375    2.161907
     22          6           0       -4.943702   -0.814512   -1.732678
     23          1           0       -5.124505    0.111221   -2.298300
     24          1           0       -5.897861   -1.134012   -1.285101
     25          1           0       -4.611531   -1.580992   -2.444798
     26          6           0       -4.293521    0.654153    0.177104
     27          1           0       -3.526166    0.866626    0.934477
     28          1           0       -5.271243    0.518533    0.663283
     29          1           0       -4.353429    1.529600   -0.485746
     30          5           0       -1.605832   -0.730331   -0.511961
     31          7           0        2.548704   -0.040829   -0.813003
     32          7           0        1.189895   -1.927863    0.494990
     33          8           0       -2.148569   -1.574743    0.479964
     34          8           0       -2.654166   -0.250820   -1.290643
     35         77           0        0.378009   -0.359734   -0.726132
     36          5           0       -0.017855    1.424702   -0.001077
     37          8           0        0.890529    2.488877   -0.089959
     38          8           0       -1.136577    1.833499    0.716690
     39          6           0        0.463670    3.514706    0.803275
     40          6           0       -1.076316    3.249625    0.883007
     41          6           0        1.166950    3.282700    2.137949
     42          6           0        0.853241    4.865935    0.232210
     43          6           0       -1.723852    3.622753    2.203890
     44          6           0       -1.838523    3.881719   -0.277606
     45          1           0        0.867715    2.317101    2.571194
     46          1           0        0.952515    4.079129    2.865882
     47          1           0        2.252474    3.253266    1.962272
     48          1           0        1.949793    4.955260    0.208716
     49          1           0        0.457954    5.686609    0.850531
     50          1           0        0.482310    4.986559   -0.793676
     51          1           0       -2.800244    3.399622    2.162906
     52          1           0       -1.605817    4.697320    2.412919
     53          1           0       -1.293446    3.050028    3.035317
     54          1           0       -1.365095    3.630113   -1.237699
     55          1           0       -1.899874    4.976263   -0.185284
     56          1           0       -2.858763    3.473636   -0.291823
     57          1           0        2.552968    1.691694   -1.899256
     58          1           0       -0.091233    0.695634   -1.818110
     59          1           0        5.051246    1.938880   -1.878468
     60          1           0        6.427541    0.220236   -0.711353
     61          1           0        5.231416   -1.664491    0.459965
     62          1           0        4.296076   -2.987272    1.328880
     63          1           0        2.942819   -4.731922    2.542688
     64          1           0        0.460560   -4.588212    2.422622
 ---------------------------------------------------------------------
 Rotational constants (GHZ):           0.1589705           0.1208382           0.0830901
 General basis read from cards:  (5D, 7F)
 ======================================================================================================
                                       Pseudopotential Parameters
 ======================================================================================================
  Center     Atomic      Valence      Angular      Power
  Number     Number     Electrons     Momentum     of R      Exponent        Coefficient   SO-Coeffient
 ======================================================================================================
    1          6
                                   No pseudopotential on this center.
    2          6
                                   No pseudopotential on this center.
    3          6
                                   No pseudopotential on this center.
    4          6
                                   No pseudopotential on this center.
    5          6
                                   No pseudopotential on this center.
    6          6
                                   No pseudopotential on this center.
    7          6
                                   No pseudopotential on this center.
    8          6
                                   No pseudopotential on this center.
    9          1
                                   No pseudopotential on this center.
   10          6
                                   No pseudopotential on this center.
   11          6
                                   No pseudopotential on this center.
   12          6
                                   No pseudopotential on this center.
   13          6
                                   No pseudopotential on this center.
   14          6
                                   No pseudopotential on this center.
   15          1
                                   No pseudopotential on this center.
   16          1
                                   No pseudopotential on this center.
   17          1
                                   No pseudopotential on this center.
   18          6
                                   No pseudopotential on this center.
   19          1
                                   No pseudopotential on this center.
   20          1
                                   No pseudopotential on this center.
   21          1
                                   No pseudopotential on this center.
   22          6
                                   No pseudopotential on this center.
   23          1
                                   No pseudopotential on this center.
   24          1
                                   No pseudopotential on this center.
   25          1
                                   No pseudopotential on this center.
   26          6
                                   No pseudopotential on this center.
   27          1
                                   No pseudopotential on this center.
   28          1
                                   No pseudopotential on this center.
   29          1
                                   No pseudopotential on this center.
   30          5
                                   No pseudopotential on this center.
   31          7
                                   No pseudopotential on this center.
   32          7
                                   No pseudopotential on this center.
   33          8
                                   No pseudopotential on this center.
   34          8
                                   No pseudopotential on this center.
   35         77           17
                                      G and up 
                                                     1      823.5880147       -0.15780140    0.00000000
                                                     2      364.6613336    -1517.52704460    0.00000000
                                                     2       55.7082801     -316.53065290    0.00000000
                                                     2       12.0464544      -91.88809410    0.00000000
                                                     2        3.5120610       -9.22417730    0.00000000
                                      S - G
                                                     0      188.0490770        3.15780140    0.00000000
                                                     1      340.4194712       26.83225770    0.00000000
                                                     2      128.2373673      800.42500070    0.00000000
                                                     2       33.8644961      369.40506830    0.00000000
                                                     2        4.7560005      242.41718990    0.00000000
                                                     2        3.9649974     -118.21732820    0.00000000
                                      P - G
                                                     0      289.7291139        2.15780140    0.00000000
                                                     1       87.4633789       61.96786100    0.00000000
                                                     2       30.4363766      269.05819860    0.00000000
                                                     2        4.0553412      231.16547930    0.00000000
                                                     2        3.5525341     -133.69526670    0.00000000
                                      D - G
                                                     0      136.4017106        3.15780140    0.00000000
                                                     1       95.0776925       45.93498030    0.00000000
                                                     2       49.2258410      359.03446680    0.00000000
                                                     2       15.0874145      176.47401190    0.00000000
                                                     2        4.0405764       54.51552860    0.00000000
                                      F - G
                                                     0      127.3507908        3.95461970    0.00000000
                                                     1       66.2364374       52.97736550    0.00000000
                                                     2       34.4299229      274.86433830    0.00000000
                                                     2       10.1995721      137.20473380    0.00000000
                                                     2        2.5409702       14.86333050    0.00000000
   36          5
                                   No pseudopotential on this center.
   37          8
                                   No pseudopotential on this center.
   38          8
                                   No pseudopotential on this center.
   39          6
                                   No pseudopotential on this center.
   40          6
                                   No pseudopotential on this center.
   41          6
                                   No pseudopotential on this center.
   42          6
                                   No pseudopotential on this center.
   43          6
                                   No pseudopotential on this center.
   44          6
                                   No pseudopotential on this center.
   45          1
                                   No pseudopotential on this center.
   46          1
                                   No pseudopotential on this center.
   47          1
                                   No pseudopotential on this center.
   48          1
                                   No pseudopotential on this center.
   49          1
                                   No pseudopotential on this center.
   50          1
                                   No pseudopotential on this center.
   51          1
                                   No pseudopotential on this center.
   52          1
                                   No pseudopotential on this center.
   53          1
                                   No pseudopotential on this center.
   54          1
                                   No pseudopotential on this center.
   55          1
                                   No pseudopotential on this center.
   56          1
                                   No pseudopotential on this center.
   57          1
                                   No pseudopotential on this center.
   58          1
                                   No pseudopotential on this center.
   59          1
                                   No pseudopotential on this center.
   60          1
                                   No pseudopotential on this center.
   61          1
                                   No pseudopotential on this center.
   62          1
                                   No pseudopotential on this center.
   63          1
                                   No pseudopotential on this center.
   64          1
                                   No pseudopotential on this center.
 ======================================================================================================
 There are   540 symmetry adapted cartesian basis functions of A   symmetry.
 There are   508 symmetry adapted basis functions of A   symmetry.
   508 basis functions,  1015 primitive gaussians,   540 cartesian basis functions
   119 alpha electrons      119 beta electrons
       nuclear repulsion energy      3559.4306874290 Hartrees.
 NAtoms=   64 NActive=   64 NUniq=   64 SFac= 1.00D+00 NAtFMM=   60 NAOKFM=T Big=T
 Integral buffers will be    131072 words long.
 Raffenetti 2 integral format.
 Two-electron integral symmetry is turned on.
 One-electron integrals computed using PRISM.
   1 Symmetry operations used in ECPInt.
 ECPInt:  NShTT=   18915 NPrTT=  115131 LenC2=   15573 LenP2D=   52332.
 LDataN:  DoStor=T MaxTD1= 6 Len=  172
 NBasis=   508 RedAO= T EigKep=  6.02D-04  NBF=   508
 NBsUse=   508 1.00D-06 EigRej= -1.00D+00 NBFU=   508
 Defaulting to unpruned grid for atomic number  77.
 ExpMin= 2.90D-02 ExpMax= 5.48D+03 ExpMxC= 8.25D+02 IAcc=3 IRadAn=         5 AccDes= 0.00D+00
 Harris functional with IExCor= 1009 and IRadAn=       5 diagonalized for initial guess.
 HarFok:  IExCor= 1009 AccDes= 0.00D+00 IRadAn=         5 IDoV= 1 UseB2=F ITyADJ=14
 ICtDFT=  3500011 ScaDFX=  1.000000  1.000000  1.000000  1.000000
 Defaulting to unpruned grid for atomic number  77.
 FoFCou: FMM=F IPFlag=           0 FMFlag=      100000 FMFlg1=        2001
         NFxFlg=           0 DoJE=T BraDBF=F KetDBF=T FulRan=T
         wScrn=  0.000000 ICntrl=       500 IOpCl=  0 I1Cent=   200000004 NGrid=           0
         NMat0=    1 NMatS0=      1 NMatT0=    0 NMatD0=    1 NMtDS0=    0 NMtDT0=    0
 Petite list used in FoFCou.
 Requested convergence on RMS density matrix=1.00D-08 within 128 cycles.
 Requested convergence on MAX density matrix=1.00D-06.
 Requested convergence on             energy=1.00D-06.
 No special actions if energy rises.
 Defaulting to unpruned grid for atomic number  77.
 Defaulting to unpruned grid for atomic number  77.
 Defaulting to unpruned grid for atomic number  77.
 Defaulting to unpruned grid for atomic number  77.
 Defaulting to unpruned grid for atomic number  77.
 Defaulting to unpruned grid for atomic number  77.
 Defaulting to unpruned grid for atomic number  77.
 Defaulting to unpruned grid for atomic number  77.
 Defaulting to unpruned grid for atomic number  77.
 Defaulting to unpruned grid for atomic number  77.
 Defaulting to unpruned grid for atomic number  77.
 Defaulting to unpruned grid for atomic number  77.
 Defaulting to unpruned grid for atomic number  77.
 Defaulting to unpruned grid for atomic number  77.
 Defaulting to unpruned grid for atomic number  77.
 Defaulting to unpruned grid for atomic number  77.
 SCF Done:  E(RM06) =  -1422.31992601     A.U. after   16 cycles
            NFock= 16  Conv=0.42D-08     -V/T= 2.0597

 **********************************************************************

            Population analysis using the SCF Density.

 **********************************************************************

 Orbital symmetries:
       Occupied  (A) (A) (A) (A) (A) (A) (A) (A) (A) (A) (A) (A)
                 (A) (A) (A) (A) (A) (A) (A) (A) (A) (A) (A) (A)
                 (A) (A) (A) (A) (A) (A) (A) (A) (A) (A) (A) (A)
                 (A) (A) (A) (A) (A) (A) (A) (A) (A) (A) (A) (A)
                 (A) (A) (A) (A) (A) (A) (A) (A) (A) (A) (A) (A)
                 (A) (A) (A) (A) (A) (A) (A) (A) (A) (A) (A) (A)
                 (A) (A) (A) (A) (A) (A) (A) (A) (A) (A) (A) (A)
                 (A) (A) (A) (A) (A) (A) (A) (A) (A) (A) (A) (A)
                 (A) (A) (A) (A) (A) (A) (A) (A) (A) (A) (A) (A)
                 (A) (A) (A) (A) (A) (A) (A) (A) (A) (A) (A)
       Virtual   (A) (A) (A) (A) (A) (A) (A) (A) (A) (A) (A) (A)
                 (A) (A) (A) (A) (A) (A) (A) (A) (A) (A) (A) (A)
                 (A) (A) (A) (A) (A) (A) (A) (A) (A) (A) (A) (A)
                 (A) (A) (A) (A) (A) (A) (A) (A) (A) (A) (A) (A)
                 (A) (A) (A) (A) (A) (A) (A) (A) (A) (A) (A) (A)
                 (A) (A) (A) (A) (A) (A) (A) (A) (A) (A) (A) (A)
                 (A) (A) (A) (A) (A) (A) (A) (A) (A) (A) (A) (A)
                 (A) (A) (A) (A) (A) (A) (A) (A) (A) (A) (A) (A)
                 (A) (A) (A) (A) (A) (A) (A) (A) (A) (A) (A) (A)
                 (A) (A) (A) (A) (A) (A) (A) (A) (A) (A) (A) (A)
                 (A) (A) (A) (A) (A) (A) (A) (A) (A) (A) (A) (A)
                 (A) (A) (A) (A) (A) (A) (A) (A) (A) (A) (A) (A)
                 (A) (A) (A) (A) (A) (A) (A) (A) (A) (A) (A) (A)
                 (A) (A) (A) (A) (A) (A) (A) (A) (A) (A) (A) (A)
                 (A) (A) (A) (A) (A) (A) (A) (A) (A) (A) (A) (A)
                 (A) (A) (A) (A) (A) (A) (A) (A) (A) (A) (A) (A)
                 (A) (A) (A) (A) (A) (A) (A) (A) (A) (A) (A) (A)
                 (A) (A) (A) (A) (A) (A) (A) (A) (A) (A) (A) (A)
                 (A) (A) (A) (A) (A) (A) (A) (A) (A) (A) (A) (A)
                 (A) (A) (A) (A) (A) (A) (A) (A) (A) (A) (A) (A)
                 (A) (A) (A) (A) (A) (A) (A) (A) (A) (A) (A) (A)
                 (A) (A) (A) (A) (A) (A) (A) (A) (A) (A) (A) (A)
                 (A) (A) (A) (A) (A) (A) (A) (A) (A) (A) (A) (A)
                 (A) (A) (A) (A) (A) (A) (A) (A) (A) (A) (A) (A)
                 (A) (A) (A) (A) (A) (A) (A) (A) (A) (A) (A) (A)
                 (A) (A) (A) (A) (A) (A) (A) (A) (A) (A) (A) (A)
                 (A) (A) (A) (A) (A) (A) (A) (A) (A) (A) (A) (A)
                 (A) (A) (A) (A) (A) (A) (A) (A) (A) (A) (A) (A)
                 (A) (A) (A) (A) (A) (A) (A) (A) (A) (A) (A) (A)
                 (A) (A) (A) (A) (A) (A) (A) (A) (A) (A) (A) (A)
                 (A) (A) (A) (A) (A) (A) (A) (A) (A) (A) (A) (A)
                 (A) (A) (A) (A) (A) (A) (A) (A) (A) (A) (A) (A)
                 (A) (A) (A) (A) (A)
 The electronic state is 1-A.
 Alpha  occ. eigenvalues --  -19.19314 -19.19154 -19.18662 -19.17773 -14.45515
 Alpha  occ. eigenvalues --  -14.44599 -10.32131 -10.31760 -10.30372 -10.30118
 Alpha  occ. eigenvalues --  -10.29428 -10.29110 -10.28809 -10.28717 -10.28628
 Alpha  occ. eigenvalues --  -10.28535 -10.27993 -10.27892 -10.27814 -10.27543
 Alpha  occ. eigenvalues --  -10.22429 -10.22138 -10.22042 -10.21829 -10.21684
 Alpha  occ. eigenvalues --  -10.21483 -10.21345 -10.20519  -6.79815  -6.76681
 Alpha  occ. eigenvalues --   -3.59651  -2.02964  -2.01338  -2.00840  -1.05477
 Alpha  occ. eigenvalues --   -1.04368  -1.00387  -0.98492  -0.97670  -0.97338
 Alpha  occ. eigenvalues --   -0.84297  -0.83258  -0.83177  -0.79491  -0.78726
 Alpha  occ. eigenvalues --   -0.76736  -0.74079  -0.73261  -0.69740  -0.69394
 Alpha  occ. eigenvalues --   -0.69095  -0.68172  -0.67012  -0.66220  -0.64572
 Alpha  occ. eigenvalues --   -0.63431  -0.60777  -0.59924  -0.57713  -0.53959
 Alpha  occ. eigenvalues --   -0.53594  -0.53365  -0.52914  -0.52799  -0.51846
 Alpha  occ. eigenvalues --   -0.51614  -0.49440  -0.47219  -0.46878  -0.46450
 Alpha  occ. eigenvalues --   -0.46192  -0.46011  -0.45619  -0.45099  -0.44743
 Alpha  occ. eigenvalues --   -0.44461  -0.43701  -0.42986  -0.42762  -0.42369
 Alpha  occ. eigenvalues --   -0.41916  -0.40571  -0.39979  -0.39449  -0.39439
 Alpha  occ. eigenvalues --   -0.39083  -0.38780  -0.38607  -0.38473  -0.38139
 Alpha  occ. eigenvalues --   -0.37791  -0.37105  -0.36920  -0.36121  -0.36015
 Alpha  occ. eigenvalues --   -0.35499  -0.35251  -0.35108  -0.34777  -0.34220
 Alpha  occ. eigenvalues --   -0.33403  -0.33306  -0.32477  -0.32248  -0.31739
 Alpha  occ. eigenvalues --   -0.31043  -0.30315  -0.29867  -0.29566  -0.29213
 Alpha  occ. eigenvalues --   -0.28374  -0.26615  -0.26164  -0.25266  -0.24414
 Alpha  occ. eigenvalues --   -0.23115  -0.20507  -0.19335  -0.18876
 Alpha virt. eigenvalues --   -0.07840  -0.04657  -0.03145   0.00051   0.01715
 Alpha virt. eigenvalues --    0.02828   0.04320   0.06367   0.07971   0.09091
 Alpha virt. eigenvalues --    0.09235   0.10865   0.11249   0.11449   0.12170
 Alpha virt. eigenvalues --    0.12906   0.13575   0.14149   0.14616   0.14928
 Alpha virt. eigenvalues --    0.15164   0.15361   0.15615   0.15946   0.16397
 Alpha virt. eigenvalues --    0.16512   0.16676   0.17003   0.17348   0.17561
 Alpha virt. eigenvalues --    0.17991   0.18328   0.18613   0.18947   0.19178
 Alpha virt. eigenvalues --    0.19748   0.19796   0.19963   0.20272   0.20772
 Alpha virt. eigenvalues --    0.21021   0.21320   0.21765   0.22269   0.22574
 Alpha virt. eigenvalues --    0.23063   0.24092   0.24292   0.24701   0.24845
 Alpha virt. eigenvalues --    0.25149   0.25727   0.25869   0.26895   0.27035
 Alpha virt. eigenvalues --    0.27250   0.27505   0.28051   0.28232   0.28509
 Alpha virt. eigenvalues --    0.28724   0.29547   0.29843   0.30777   0.31898
 Alpha virt. eigenvalues --    0.32545   0.33860   0.34710   0.35780   0.36482
 Alpha virt. eigenvalues --    0.36994   0.37807   0.39831   0.40167   0.40953
 Alpha virt. eigenvalues --    0.42335   0.44614   0.46046   0.47247   0.48359
 Alpha virt. eigenvalues --    0.49789   0.50462   0.51052   0.51330   0.51719
 Alpha virt. eigenvalues --    0.52462   0.52685   0.52994   0.53713   0.54515
 Alpha virt. eigenvalues --    0.55188   0.55541   0.56288   0.57185   0.57435
 Alpha virt. eigenvalues --    0.57749   0.58259   0.58452   0.58768   0.58830
 Alpha virt. eigenvalues --    0.58962   0.59280   0.59577   0.59790   0.60422
 Alpha virt. eigenvalues --    0.60817   0.61015   0.61271   0.61898   0.62018
 Alpha virt. eigenvalues --    0.62589   0.62820   0.63855   0.64392   0.64788
 Alpha virt. eigenvalues --    0.65199   0.66247   0.66529   0.67303   0.68017
 Alpha virt. eigenvalues --    0.68545   0.69459   0.70334   0.70825   0.71138
 Alpha virt. eigenvalues --    0.71737   0.72348   0.72721   0.72968   0.73596
 Alpha virt. eigenvalues --    0.73976   0.74693   0.75820   0.76092   0.76884
 Alpha virt. eigenvalues --    0.77037   0.78245   0.78680   0.79415   0.79483
 Alpha virt. eigenvalues --    0.80664   0.81364   0.81670   0.82074   0.82459
 Alpha virt. eigenvalues --    0.82914   0.83812   0.84551   0.84854   0.85513
 Alpha virt. eigenvalues --    0.85581   0.85974   0.86429   0.87233   0.87700
 Alpha virt. eigenvalues --    0.87752   0.88178   0.88746   0.89013   0.89373
 Alpha virt. eigenvalues --    0.89629   0.90116   0.90366   0.90638   0.91022
 Alpha virt. eigenvalues --    0.91595   0.92232   0.92399   0.92594   0.93157
 Alpha virt. eigenvalues --    0.93598   0.93979   0.94986   0.95112   0.95695
 Alpha virt. eigenvalues --    0.96109   0.96460   0.96656   0.97282   0.97396
 Alpha virt. eigenvalues --    0.98366   0.99109   0.99450   0.99715   1.00359
 Alpha virt. eigenvalues --    1.01152   1.01825   1.02673   1.03495   1.04962
 Alpha virt. eigenvalues --    1.05865   1.06304   1.07686   1.08236   1.08738
 Alpha virt. eigenvalues --    1.10652   1.12917   1.12993   1.14633   1.15152
 Alpha virt. eigenvalues --    1.16267   1.17001   1.18651   1.19103   1.20108
 Alpha virt. eigenvalues --    1.20669   1.21506   1.22654   1.23342   1.24446
 Alpha virt. eigenvalues --    1.24744   1.25543   1.26980   1.27855   1.28124
 Alpha virt. eigenvalues --    1.30518   1.32868   1.33161   1.34359   1.35855
 Alpha virt. eigenvalues --    1.36614   1.37037   1.38728   1.39705   1.40262
 Alpha virt. eigenvalues --    1.41058   1.42744   1.43145   1.44487   1.44548
 Alpha virt. eigenvalues --    1.45199   1.45775   1.46035   1.46405   1.47337
 Alpha virt. eigenvalues --    1.48312   1.49030   1.50584   1.51451   1.53247
 Alpha virt. eigenvalues --    1.54534   1.56796   1.57546   1.59201   1.60416
 Alpha virt. eigenvalues --    1.60478   1.62134   1.64477   1.64878   1.66207
 Alpha virt. eigenvalues --    1.68060   1.68517   1.69582   1.69742   1.71318
 Alpha virt. eigenvalues --    1.72464   1.73292   1.74947   1.76265   1.76958
 Alpha virt. eigenvalues --    1.78144   1.78944   1.79264   1.80075   1.80332
 Alpha virt. eigenvalues --    1.81053   1.82443   1.82842   1.83436   1.84326
 Alpha virt. eigenvalues --    1.85988   1.86385   1.86566   1.86927   1.88256
 Alpha virt. eigenvalues --    1.89220   1.90000   1.91116   1.92187   1.92335
 Alpha virt. eigenvalues --    1.92989   1.93338   1.94096   1.94460   1.95027
 Alpha virt. eigenvalues --    1.95559   1.96298   1.96962   1.98355   1.99150
 Alpha virt. eigenvalues --    2.00900   2.01591   2.02103   2.03214   2.04330
 Alpha virt. eigenvalues --    2.04477   2.05621   2.07311   2.07665   2.08597
 Alpha virt. eigenvalues --    2.08799   2.09166   2.10307   2.10842   2.11364
 Alpha virt. eigenvalues --    2.11759   2.12177   2.14199   2.14346   2.15194
 Alpha virt. eigenvalues --    2.15693   2.15929   2.17451   2.18341   2.18580
 Alpha virt. eigenvalues --    2.18822   2.19035   2.19377   2.20115   2.21535
 Alpha virt. eigenvalues --    2.22491   2.22931   2.23775   2.25220   2.26005
 Alpha virt. eigenvalues --    2.26178   2.26430   2.26800   2.27210   2.27633
 Alpha virt. eigenvalues --    2.29203   2.30900   2.31675   2.31976   2.32615
 Alpha virt. eigenvalues --    2.33466   2.34858   2.35790   2.38852   2.39038
 Alpha virt. eigenvalues --    2.40914   2.44556   2.46042   2.46586   2.47151
 Alpha virt. eigenvalues --    2.48484   2.49318   2.49785   2.50573   2.52321
 Alpha virt. eigenvalues --    2.55065   2.59182   2.59384   2.59786   2.59851
 Alpha virt. eigenvalues --    2.60843   2.61954   2.63591   2.65356   2.66208
 Alpha virt. eigenvalues --    2.66273   2.67208   2.69980   2.75164   2.77310
 Alpha virt. eigenvalues --    2.78461   2.78734   2.79154   2.79491   2.80312
 Alpha virt. eigenvalues --    2.81004   2.81522   2.84248   2.85081   2.87381
 Alpha virt. eigenvalues --    2.88783   2.90583   2.92919   2.95966   2.96293
 Alpha virt. eigenvalues --    2.98262   3.03774   3.04714   3.10798   3.11584
 Alpha virt. eigenvalues --    3.25076   3.26180   3.41445   8.41381
          Condensed to atoms (all electrons):
 Mulliken charges:
               1
     1  C    0.063593
     2  C   -0.176388
     3  C   -0.140351
     4  C   -0.182537
     5  C   -0.184309
     6  C   -0.135039
     7  C   -0.175005
     8  C    0.045808
     9  H    0.242273
    10  C    0.317852
    11  C    0.295248
    12  C    0.312845
    13  C    0.295534
    14  C   -0.508795
    15  H    0.176125
    16  H    0.148655
    17  H    0.150335
    18  C   -0.506991
    19  H    0.153411
    20  H    0.146470
    21  H    0.174898
    22  C   -0.507177
    23  H    0.168336
    24  H    0.141268
    25  H    0.165699
    26  C   -0.503595
    27  H    0.183370
    28  H    0.137181
    29  H    0.159436
    30  B    0.393781
    31  N   -0.518022
    32  N   -0.597973
    33  O   -0.533467
    34  O   -0.503904
    35  Ir  -0.016808
    36  B    0.457464
    37  O   -0.534923
    38  O   -0.508082
    39  C    0.305543
    40  C    0.299980
    41  C   -0.511620
    42  C   -0.510227
    43  C   -0.509102
    44  C   -0.504126
    45  H    0.177296
    46  H    0.147961
    47  H    0.162472
    48  H    0.160258
    49  H    0.149009
    50  H    0.171375
    51  H    0.167824
    52  H    0.146576
    53  H    0.169184
    54  H    0.179635
    55  H    0.144526
    56  H    0.167020
    57  H    0.214341
    58  H    0.101460
    59  H    0.182990
    60  H    0.182587
    61  H    0.169061
    62  H    0.170673
    63  H    0.184734
    64  H    0.184354
 Sum of Mulliken charges =  -0.00000
 Mulliken charges with hydrogens summed into heavy atoms:
               1
     1  C    0.277934
     2  C    0.006602
     3  C    0.042236
     4  C   -0.013476
     5  C   -0.013636
     6  C    0.049696
     7  C    0.009349
     8  C    0.288081
    10  C    0.317852
    11  C    0.295248
    12  C    0.312845
    13  C    0.295534
    14  C   -0.033680
    18  C   -0.032212
    22  C   -0.031874
    26  C   -0.023608
    30  B    0.393781
    31  N   -0.518022
    32  N   -0.597973
    33  O   -0.533467
    34  O   -0.503904
    35  Ir   0.084652
    36  B    0.457464
    37  O   -0.534923
    38  O   -0.508082
    39  C    0.305543
    40  C    0.299980
    41  C   -0.023890
    42  C   -0.029585
    43  C   -0.025519
    44  C   -0.012944
 Electronic spatial extent (au):  <R**2>=          13672.0280
 Charge=             -0.0000 electrons
 Dipole moment (field-independent basis, Debye):
    X=              6.6753    Y=             -2.6268    Z=              2.8315  Tot=              7.7121
 Quadrupole moment (field-independent basis, Debye-Ang):
   XX=           -166.3545   YY=           -178.1046   ZZ=           -202.1835
   XY=             -5.9321   XZ=             -1.5431   YZ=             -9.3604
 Traceless Quadrupole moment (field-independent basis, Debye-Ang):
   XX=             15.8597   YY=              4.1096   ZZ=            -19.9693
   XY=             -5.9321   XZ=             -1.5431   YZ=             -9.3604
 Octapole moment (field-independent basis, Debye-Ang**2):
  XXX=            187.2740  YYY=            -69.8493  ZZZ=            -73.4156  XYY=             41.9179
  XXY=            -38.5323  XXZ=            -32.3298  XZZ=             26.7831  YZZ=            -22.4652
  YYZ=             18.4528  XYZ=            -33.1770
 Hexadecapole moment (field-independent basis, Debye-Ang**3):
 XXXX=          -8633.7277 YYYY=          -6752.7781 ZZZZ=          -1849.1795 XXXY=            -23.5052
 XXXZ=            -88.2010 YYYX=           -139.1239 YYYZ=           -148.4171 ZZZX=            -35.9733
 ZZZY=            -21.4994 XXYY=          -2666.1317 XXZZ=          -1933.2438 YYZZ=          -1370.7035
 XXYZ=           -121.6536 YYXZ=             55.1832 ZZXY=            -15.2566
 N-N= 3.559430687429D+03 E-N=-1.040392870173D+04  KE= 1.342218087482D+03
   1 Symmetry operations used in ECPInt.
 ECPInt:  NShTT=   18915 NPrTT=  115131 LenC2=   15573 LenP2D=   52332.
 LDataN:  DoStor=T MaxTD1= 7 Len=  274
 Calling FoFJK, ICntrl=      2127 FMM=T ISym2X=0 I1Cent= 0 IOpClX= 0 NMat=1 NMatS=1 NMatT=0.
 Defaulting to unpruned grid for atomic number  77.
 Defaulting to unpruned grid for atomic number  77.
 Defaulting to unpruned grid for atomic number  77.
 Defaulting to unpruned grid for atomic number  77.
 Defaulting to unpruned grid for atomic number  77.
 Defaulting to unpruned grid for atomic number  77.
 Defaulting to unpruned grid for atomic number  77.
 Defaulting to unpruned grid for atomic number  77.
 Defaulting to unpruned grid for atomic number  77.
 Defaulting to unpruned grid for atomic number  77.
 Defaulting to unpruned grid for atomic number  77.
 Defaulting to unpruned grid for atomic number  77.
 Defaulting to unpruned grid for atomic number  77.
 Defaulting to unpruned grid for atomic number  77.
 Defaulting to unpruned grid for atomic number  77.
 Defaulting to unpruned grid for atomic number  77.
 ***** Axes restored to original set *****
 -------------------------------------------------------------------
 Center     Atomic                   Forces (Hartrees/Bohr)
 Number     Number              X              Y              Z
 -------------------------------------------------------------------
      1        6          -0.006618274   -0.025558567    0.000069399
      2        6           0.003109582    0.025297697   -0.000748830
      3        6           0.021071034    0.029596634    0.004219510
      4        6           0.023113884   -0.034130473    0.007262806
      5        6           0.028997286    0.029934941    0.008020087
      6        6           0.015841805   -0.032986761    0.004361169
      7        6          -0.002050116   -0.025465428   -0.001261898
      8        6          -0.001343644    0.026275926    0.000448278
      9        1          -0.003042146   -0.000771636   -0.001449099
     10        6          -0.016228890    0.026880530   -0.004720584
     11        6          -0.020764910   -0.024026220   -0.005616170
     12        6           0.005189564   -0.001571752    0.000038413
     13        6          -0.001116178    0.004781335    0.000740190
     14        6          -0.000766525   -0.000140099    0.000353928
     15        1          -0.000092331    0.001069128    0.000680564
     16        1          -0.000987760   -0.000537570    0.000078843
     17        1           0.001055562   -0.000774568    0.000292277
     18        6          -0.000780735   -0.000047747   -0.000459069
     19        1           0.001080456   -0.001016362    0.000405631
     20        1          -0.000772409   -0.000409525   -0.000201650
     21        1           0.000530915    0.000900539   -0.001063645
     22        6          -0.000370052   -0.000956667    0.000190505
     23        1          -0.000581423    0.001302409   -0.000312492
     24        1          -0.000467151   -0.000706550   -0.000245013
     25        1           0.000450438    0.000026175    0.001428619
     26        6           0.000081742   -0.000863163   -0.000895002
     27        1           0.000798534    0.000085773    0.000265500
     28        1          -0.000601277   -0.000784675   -0.000418915
     29        1          -0.000304636    0.000861596   -0.000025128
     30        5           0.003495134    0.003278056    0.001056219
     31        7          -0.011174155    0.006122032   -0.003342608
     32        7          -0.010269556   -0.005791582   -0.003397021
     33        8          -0.003986079   -0.000636117    0.000872336
     34        8           0.000518753   -0.004694241   -0.000954944
     35       77           0.002329510    0.009869197   -0.001241030
     36        5           0.001518530   -0.004028461    0.009228322
     37        8          -0.001276911   -0.000633778   -0.004392580
     38        8           0.001387209    0.004469059   -0.002624817
     39        6           0.002757468    0.002482068    0.004052319
     40        6          -0.002393973   -0.004564260    0.001402314
     41        6          -0.000050750   -0.000467772   -0.000846040
     42        6          -0.000509830    0.000248017   -0.000745494
     43        6           0.000288227    0.000367143   -0.000838916
     44        6          -0.000426965    0.000920323   -0.000580098
     45        1          -0.000305499   -0.001283517    0.000523789
     46        1           0.000027781    0.000061703   -0.001133666
     47        1           0.001056429    0.000642383    0.000969681
     48        1           0.001256740    0.000628014    0.000590280
     49        1          -0.000156098    0.000230275   -0.000908704
     50        1          -0.001105794    0.000213855    0.000912189
     51        1          -0.000932997   -0.000703745   -0.000074012
     52        1           0.000065843    0.000578918   -0.000720150
     53        1           0.001127704   -0.000791803    0.000301334
     54        1           0.000418786    0.000525650    0.001028247
     55        1          -0.000140709    0.000756069   -0.000729318
     56        1          -0.000611355   -0.000705973    0.000115532
     57        1          -0.001956748    0.001564068   -0.001091111
     58        1           0.008467839   -0.007505350   -0.000463214
     59        1           0.001964550   -0.011981682    0.000876811
     60        1          -0.011361417   -0.004980975   -0.002523918
     61        1          -0.009128914    0.002418482   -0.002435754
     62        1          -0.008926226   -0.001030673   -0.003024272
     63        1          -0.010436909    0.006802886   -0.002756169
     64        1           0.004038035    0.011356810    0.001456244
 -------------------------------------------------------------------
 Cartesian Forces:  Max     0.034130473 RMS     0.008148028

 GradGradGradGradGradGradGradGradGradGradGradGradGradGradGradGradGradGrad
 Berny optimization.
 FormGI is forming the generalized inverse of G from B-inverse, IUseBI=4.
 Internal  Forces:  Max     0.032328200 RMS     0.004077108
 Search for a local minimum.
 Step number   1 out of a maximum of  384
 All quantities printed in internal units (Hartrees-Bohrs-Radians)
 Mixed Optimization -- RFO/linear search
 Second derivative matrix not updated -- first step.
 ITU=  0
     Eigenvalues ---    0.00230   0.00230   0.00409   0.00414   0.00417
     Eigenvalues ---    0.00427   0.00515   0.00523   0.00531   0.00532
     Eigenvalues ---    0.00770   0.00788   0.00839   0.00870   0.00955
     Eigenvalues ---    0.01217   0.01551   0.01777   0.01868   0.01869
     Eigenvalues ---    0.01897   0.01928   0.01967   0.01970   0.01973
     Eigenvalues ---    0.01992   0.02011   0.02044   0.02062   0.02070
     Eigenvalues ---    0.02239   0.02273   0.02370   0.02415   0.02471
     Eigenvalues ---    0.02833   0.03929   0.03947   0.04137   0.04170
     Eigenvalues ---    0.05423   0.05440   0.05446   0.05452   0.05542
     Eigenvalues ---    0.05580   0.05583   0.05584   0.05652   0.05700
     Eigenvalues ---    0.05783   0.05794   0.05799   0.05809   0.05812
     Eigenvalues ---    0.05838   0.05845   0.05914   0.06041   0.06166
[...]
 0018837,-0.00054047,-0.00028684,-0.00032965,-0.10468496,-0.03867048,-0
 .08430490,0.00046620,0.00070482,0.00326994,-0.00214282,0.00067777,0.00
 641227,0.00039719,0.00071925,-0.00042529,0.00060966,-0.00014309,-0.001
 17934,-0.00746789,-0.00724826,-0.00294795,0.00097604,-0.00045641,-0.00
 222488,0.00001373,0.00001648,-0.00000549,0.00000910,0.00001209,0.00001
 456,-0.00000053,0.00000136,0.00000132,0.00000103,-0.00000084,-0.000002
 41,-0.00000206,-0.00000164,0.00000040,0.00000088,0.00000087,0.00000018
 ,-0.00000126,-0.00000234,0.00000030,0.00000122,0.,0.00000112,-0.000002
 05,-0.00000153,-0.00000091,0.00000001,0.00000141,-0.00000116,-0.000001
 96,-0.00000087,-0.00000162,-0.00000063,0.00000137,0.00000043,-0.000002
 04,-0.00000203,-0.00000024,0.00000125,0.00000054,-0.00000088,-0.000001
 91,-0.00000110,-0.00000209,0.00000119,0.00000068,0.00000146,-0.0000021
 7,-0.00000186,-0.00000227,0.,0.00000124,0.00000054,0.00002480,0.000059
 47,0.00003962,0.00018303,-0.00006885,0.00001264,-0.00458937,0.00259708
 ,0.00567859,-0.00002275,-0.00000754,-0.00000330,-0.00004227,-0.0000224
 2,-0.00001453,-0.00011922,-0.00072311,-0.00017718,-0.00003375,0.000038
 06,0.00030304,0.00005525,0.00010778,-0.00015530,-0.00001595,0.00001558
 ,-0.00010326,0.00000479,0.00000168,0.00005196,0.00000246,-0.00003306,0
 .00003134,-0.00000397,-0.00000350,-0.00001562,-0.00000083,-0.00000416,
 -0.00001028,-0.00000165,0.00000535,-0.00000314,0.00000199,0.00000881,-
 0.00000208,-0.00000797,-0.00000306,0.00000198,0.00000558,-0.00000152,-
 0.00000515,0.00000438,0.00001011,0.00000091,0.00000426,0.00000499,-0.0
 0000003,-0.00000069,0.00000493,-0.00000237,0.00000054,-0.00000336,0.00
 000024,0.00000156,-0.00000072,0.00000091,-0.00000128,0.00000141,-0.000
 00468,0.00000051,-0.00000305,0.00000014,0.00000139,-0.00000572,0.00000
 019,-0.00000286,0.00000299,-0.00000389,0.00000277,-0.00000067,0.000001
 33,-0.00001690,-0.00001456,0.00001250,0.00003410,0.00019054,-0.0000798
 4,0.00000520,-0.00001180,0.00007687,-0.00000206,0.00001405,-0.00002665
 ,0.00022471,0.00064797,0.00141878,0.11445471,0.04222572,0.07746430,0.0
 0005750,0.00002188,0.00000761,-0.00005023,0.00001753,-0.00001407,-0.00
 000625,-0.00004313,-0.00001151,0.00004251,0.00007041,-0.00001888,0.007
 39681,-0.00504756,0.00193046,-0.18462519,0.11796795,-0.08186836,-0.011
 63699,0.01852794,-0.00983563,-0.00228416,-0.00357973,-0.00511018,-0.00
 030657,0.00103943,0.00015420,0.00244030,-0.00214597,-0.00277969,0.0001
 9930,-0.00011002,0.00015002,0.00011964,0.00012249,-0.00002494,0.000011
 32,0.00001277,0.00002004,-0.00000624,-0.00002024,0.00001067,0.00000671
 ,0.00000397,-0.00000565,-0.00001665,-0.00000424,0.00000090,0.00000896,
 0.00001471,-0.00000697,-0.00001322,-0.00000617,0.00000361,0.00000690,0
 .00000305,0.00000127,-0.00000897,-0.00000652,-0.00000505,0.00000233,0.
 00000199,0.00000217,-0.00000554,0.00000890,-0.00000698,-0.00000531,0.0
 0000275,0.00000193,-0.00000367,-0.00000418,-0.00000121,0.00000223,-0.0
 0000007,0.00000214,-0.00000360,-0.00000224,-0.00000021,0.00000197,0.00
 000030,0.00000587,-0.00000436,-0.00000358,-0.00000473,-0.00000067,0.00
 000320,-0.00000063,0.00011874,-0.00013624,-0.00000646,0.00000672,-0.00
 012411,0.00015453,-0.00065306,-0.00056466,0.00120257,-0.00028911,0.000
 05110,-0.00010362,-0.00011934,0.00000314,0.00000557,-0.00004320,-0.000
 06806,0.00011134,-0.00001436,-0.00003769,0.00014165,0.00000319,0.00004
 519,-0.00007479,-0.00002814,0.00002030,-0.00008610,0.00000568,-0.00000
 525,0.00003727,0.00001260,-0.00002868,0.00002602,0.00000060,0.00000025
 ,-0.00000554,0.00000153,0.00000092,-0.00000417,-0.00000272,0.00000329,
 -0.00000349,-0.00000205,0.00000335,-0.00000215,-0.00000124,0.00000142,
 0.00000338,0.00000032,0.00000043,-0.00000563,-0.00000042,-0.00000075,0
 .00000241,0.00000096,0.00000048,0.00000177,-0.00000128,0.00000168,-0.0
 0000390,0.,-0.00000082,0.00000155,-0.00000121,-0.00000195,0.00000089,-
 0.00000010,0.00000195,-0.00000407,0.00000080,-0.00000018,0.00000186,0.
 00000259,-0.00000265,-0.00000021,-0.00000182,0.00000396,-0.00000309,0.
 00000027,-0.00000221,0.00000132,0.00000259,-0.00000637,-0.00001109,0.0
 0002854,0.00004693,-0.00006143,-0.00000156,0.00000379,0.00000218,0.000
 00828,-0.00000161,0.00000094,-0.00002405,-0.00001541,0.00000913,-0.000
 26757,0.00044107,0.00182073,0.18974552,0.00009909,0.00003123,0.0000285
 7,-0.00000804,-0.00003931,-0.00000053,-0.00003147,0.00003038,-0.000008
 16,0.00005267,-0.00008557,0.00001318,0.02219003,-0.01354272,0.01252629
 ,0.11751823,-0.16652534,0.06863647,-0.00853533,0.01135265,-0.00477026,
 -0.00297087,-0.00006528,-0.00086010,-0.00030891,0.00045521,-0.00019401
 ,-0.00286392,-0.00501514,-0.00030186,0.00136752,0.00040500,0.00056455,
 0.00000099,0.00001039,-0.00000253,-0.00001381,-0.00001419,-0.00000434,
 -0.00000165,0.00000327,0.00000028,-0.00000011,-0.00000194,0.00000124,0
 .00000113,0.00000125,-0.00000002,0.00000107,-0.00000030,-0.00000083,-0
 .00000085,0.00000334,-0.00000111,0.00000020,-0.00000053,0.00000013,0.0
 0000158,0.00000062,0.00000033,-0.00000010,-0.00000100,0.,0.00000079,0.
 00000281,0.00000127,-0.00000018,-0.00000144,0.00000060,0.00000156,0.00
 000143,-0.00000017,-0.00000090,0.00000024,-0.00000027,0.00000210,0.000
 00263,0.00000143,-0.00000060,-0.00000102,-0.00000165,0.00000122,0.0000
 0150,0.00000196,-0.00000057,-0.00000112,-0.00000026,-0.00006570,-0.000
 07028,-0.00003187,-0.00000563,-0.00070925,0.00008205,-0.00049884,-0.00
 045850,-0.00041034,-0.00002930,0.00005954,-0.00001274,0.00004196,0.000
 02367,0.00001061,-0.00008871,0.00008256,-0.00011079,-0.00000910,0.0000
 2076,-0.00004758,0.00000796,-0.00000944,0.00004493,0.00001870,-0.00000
 867,0.00004675,-0.00000092,0.00000488,-0.00003128,-0.00000463,0.000013
 32,-0.00001161,-0.00000222,-0.00000010,0.00000397,-0.00000111,-0.00000
 110,0.00000325,0.00000230,-0.00000104,0.00000116,0.00000084,-0.0000021
 3,0.00000085,0.00000114,-0.00000066,-0.00000217,0.00000064,-0.00000016
 ,0.00000414,0.00000123,0.00000012,-0.00000294,0.00000014,0.00000026,-0
 .00000228,0.00000127,-0.00000062,0.00000310,-0.00000101,0.00000083,-0.
 00000106,0.00000077,0.00000129,0.00000019,0.00000006,-0.00000113,0.000
 00207,-0.00000051,0.00000037,-0.00000077,-0.00000186,0.00000162,0.0000
 0028,0.00000106,-0.00000204,0.00000173,0.00000021,0.00000116,-0.000000
 26,-0.00000905,-0.00004725,0.00000191,-0.00000345,-0.00003846,0.000028
 31,-0.00000341,-0.00000818,-0.00000068,-0.00000733,-0.00002977,0.00000
 134,-0.00001462,0.00000446,-0.00000375,0.00010915,0.00122630,-0.000368
 36,-0.12654775,0.17241104,0.00001240,0.00000762,0.00003751,0.00000314,
 0.00001578,-0.00001681,-0.00003325,0.00000632,0.00002478,0.00001077,0.
 00004884,0.00003921,-0.00018951,-0.00084660,0.00426362,-0.08202873,0.0
 6876604,-0.08652225,-0.00763781,0.00878663,0.00059321,-0.00511252,-0.0
 0125903,0.00581589,0.00020293,0.00046558,-0.00051874,-0.00254039,-0.00
 004993,0.00705005,0.00006336,-0.00005803,-0.00003857,0.00006525,0.0000
 6172,-0.00000285,0.00000683,-0.00000386,0.00002022,-0.00000619,-0.0000
 0803,-0.00000251,0.00000449,-0.00000318,-0.00000294,-0.00000779,-0.000
 00261,0.00000226,0.00000356,0.00000946,0.00000084,-0.00000790,-0.00000
 091,0.00000006,0.00000283,-0.00000032,0.00000365,-0.00000361,-0.000004
 39,-0.00000286,0.00000008,0.00000269,-0.00000224,-0.00000310,0.0000071
 9,-0.00000256,-0.00000341,0.00000183,0.00000149,-0.00000158,-0.0000028
 2,-0.00000038,0.00000123,-0.00000010,-0.00000094,-0.00000089,0.0000012
 7,-0.00000125,0.00000141,-0.00000050,0.00000210,-0.00000300,-0.0000023
 0,-0.00000218,-0.00000106,0.00000199,-0.00000082,0.00007523,-0.0000677
 0,-0.00002431,0.00014195,-0.00000387,-0.00018857,0.00104407,-0.0006319
 3,-0.00233759,-0.00017197,0.00001348,-0.00005958,-0.00005053,0.0000014
 3,-0.00001502,0.00017650,0.00004311,-0.00030263,0.00007695,-0.00003219
 ,0.00004523,0.00000269,0.00002107,-0.00004412,-0.00000636,0.00000919,-
 0.00002103,-0.00000865,0.00000202,0.00002952,-0.00000521,-0.00000411,0
 .00001739,0.00000414,-0.00000054,-0.00000370,0.00000100,-0.00000003,-0
 .00000451,-0.00000263,-0.00000104,-0.00000022,-0.00000011,0.00000359,-
 0.00000219,-0.00000355,-0.00000087,0.00000246,-0.00000032,0.00000070,-
 0.00000341,0.00000025,0.00000235,0.00000199,0.00000053,0.00000103,0.00
 000154,-0.00000102,0.00000137,-0.00000228,0.00000140,-0.00000203,0.000
 00019,0.00000034,-0.00000067,0.00000081,0.00000010,0.00000148,-0.00000
 124,0.00000115,-0.00000151,0.00000011,0.00000065,-0.00000306,-0.000000
 21,-0.00000087,0.00000200,-0.00000201,0.00000135,-0.00000077,0.0000015
 0,-0.00001083,0.00000049,0.00002316,-0.00011368,-0.00001511,0.00010812
 ,0.00000443,0.00000176,-0.00000862,0.00000256,0.00000262,0.00000515,-0
 .00000454,-0.00000258,-0.00003336,0.00185688,-0.00020440,-0.00302368,0
 .09222895,-0.07481196,0.07788307,0.00001040,-0.00004579,-0.00000293,0.
 00001994,-0.00000333,0.00001395,0.00003966,0.00003873,0.00002915,-0.00
 006228,-0.00001625,-0.00004209,-0.00272457,-0.00128606,-0.00495223,-0.
 00004165,-0.02678514,0.00058993,-0.06447531,-0.05523184,-0.01055312,0.
 00875729,0.02065603,0.00244529,-0.00029590,-0.00038734,0.00148774,-0.0
 0173642,0.00014735,-0.00067785,-0.00012544,0.00009720,0.00065549,0.000
 05494,0.00002322,-0.00008367,-0.00001393,0.00004829,0.00001784,-0.0000
 9793,0.00010734,0.00000837,0.00000767,0.00000002,0.00000230,0.00003117
 ,-0.00002409,0.00001407,0.00004710,-0.00008884,0.00000054,-0.00002961,
 0.00002073,0.00000845,0.00000716,-0.00002410,-0.00001652,0.00000971,-0
 .00000857,-0.00000153,0.00000455,-0.00000563,0.00001434,0.00000185,-0.
 00001398,-0.00000084,0.00000748,-0.00000775,0.00000463,-0.00000617,0.0
 0000088,-0.00000218,-0.00000582,0.00000727,0.00000805,0.00000848,-0.00
 002342,-0.00000336,-0.00000120,0.00000744,0.00000159,-0.00000316,0.000
 00120,-0.00000131,0.00000766,-0.00000898,0.00000624,0.00011466,0.00018
 507,0.00007130,-0.00004595,0.00002127,-0.00005193,-0.00097345,0.003998
 40,-0.00480672,-0.00003591,-0.00020995,-0.00002963,-0.00002072,-0.0000
 8166,-0.00000467,0.00043636,-0.00025981,0.00034837,-0.00008141,0.00005
 037,0.00006390,0.00000728,0.00000320,-0.00001089,-0.00001276,-0.000023
 26,-0.00003524,0.00001473,-0.00000436,0.00000177,0.00000421,-0.0000037
 8,-0.00000212,-0.00000468,-0.00000087,-0.00000328,-0.00000231,-0.00000
 048,0.00000093,0.00000327,0.00000238,0.00000012,0.00000254,0.00000345,
 0.00000298,0.00000251,0.00000105,-0.00000027,0.00000156,-0.00000021,-0
 .00000040,-0.00000103,-0.00000129,-0.00000087,-0.00000051,-0.00000084,
 -0.00000072,0.00000075,0.00000029,0.00000002,-0.00000031,0.00000092,0.
 00000062,-0.00000300,0.00000044,-0.00000247,-0.00000071,-0.00000212,-0
 .00000018,0.00000065,0.00000137,-0.00000033,0.00000124,-0.00000106,0.0
 0000036,-0.00000101,-0.00000130,0.00000029,-0.00000253,0.00000097,-0.0
 0000282,-0.00000120,-0.00000329,-0.00000185,-0.00008471,0.00015625,-0.
 00013461,0.00001284,-0.00000483,-0.00001151,-0.00000180,0.00000004,0.0
 0000229,0.00006631,0.00001453,-0.00001586,-0.00005661,-0.00130780,-0.0
 0000768,0.00019345,0.00060683,0.00196160,0.06107257,-0.00000253,0.0000
 3372,-0.00000460,-0.00000788,-0.00001286,-0.00000125,-0.00000293,-0.00
 000164,-0.00000141,-0.00001213,-0.00004335,0.00000824,-0.00166107,0.00
 139324,-0.00042866,0.00072166,-0.00515944,0.00093281,-0.05491684,-0.33
 191485,-0.00649158,-0.00753815,-0.01420021,-0.00260537,0.00003110,0.00
 045467,-0.00026919,0.00079961,0.00084774,0.00032138,0.00000253,0.00000
 903,-0.00012120,-0.00007092,-0.00009890,0.00007548,-0.00001094,-0.0000
 6972,-0.00003451,0.00004624,-0.00004880,-0.00000833,0.00000377,-0.0000
 1311,0.00000534,-0.00001726,0.00001855,-0.00001562,0.00002035,0.000042
 15,0.00001711,0.00002859,-0.00001048,-0.00000894,-0.00000326,0.0000274
 3,0.00000431,-0.00000603,0.00001342,0.00000649,0.00000138,-0.00000402,
 -0.00000673,0.00000318,0.00001072,0.00000780,-0.00000431,0.00000343,-0
 .00000453,0.00001050,0.00000422,0.00000175,0.00000255,-0.00000617,-0.0
 0000651,0.00000040,0.00002359,0.00000508,-0.00000121,-0.00001046,-0.00
 000578,0.00000864,0.00000366,0.00000739,-0.00000844,0.00000517,-0.0000
 0404,-0.00028623,-0.00029170,-0.00012687,0.00004720,-0.00007560,0.0000
 4305,0.00291262,-0.00128855,0.00188316,0.00016343,0.00031217,0.0000755
 0,0.00013635,0.00013262,0.00003468,-0.00053615,0.00012836,-0.00002036,
 0.00006243,0.00001919,-0.00033888,-0.00001392,-0.00007244,0.00014448,0
 .00005296,0.00000325,0.00017283,-0.00001303,0.00000773,-0.00007341,-0.
 00001266,0.00003915,-0.00003933,0.00000003,-0.00000376,0.00001407,-0.0
 0000111,0.00000022,0.00000928,0.00000403,-0.00000753,0.00000337,-0.000
 00126,-0.00001031,0.00000171,0.00000207,-0.00000123,-0.00000569,-0.000
 00225,-0.00000007,0.00000958,0.00000144,0.00000116,-0.00000332,-0.0000
 0061,-0.00000052,-0.00000255,0.00000159,-0.00000389,0.00000618,-0.0000
 0134,0.00000240,-0.00000242,0.00000478,0.00000199,0.00000148,0.0000005
 7,0.00000028,0.00000617,-0.00000396,-0.00000025,-0.00000016,-0.0000046
 8,0.00000671,0.00000131,0.00000392,-0.00000430,0.00000438,0.00000144,0
 .00000161,0.00000026,0.00000251,-0.00000114,-0.00000080,0.00016452,-0.
 00010478,0.00006919,-0.00000185,-0.00000702,0.00000323,-0.00000493,-0.
 00000719,-0.00000197,0.00002465,0.00001948,0.00000664,0.00014586,-0.00
 026270,0.00010214,0.00006951,0.00052956,-0.00026368,0.05966547,0.34964
 037,-0.00000427,-0.00001576,0.00001140,0.00002070,-0.00001429,-0.00000
 700,0.00004889,0.00002039,-0.00002336,-0.00008483,0.00000930,0.0000091
 7,-0.00491945,-0.00014579,0.00483795,-0.00133214,-0.01283335,0.0028823
 3,-0.01079336,-0.00649634,-0.04034538,0.00470230,0.01105786,0.00217812
 ,0.00149194,-0.00040271,-0.00250212,-0.00083740,0.00002372,-0.00071150
 ,0.00063690,-0.00005459,-0.00110408,-0.00004311,0.00001327,0.00004406,
 -0.00001091,0.00002018,0.00000464,-0.00001395,0.00001154,-0.00003701,0
 .00001318,-0.00002320,-0.00000562,0.00000522,-0.00000196,0.00000018,-0
 .00000624,0.00000334,0.00004329,-0.00001701,0.00003816,-0.00001526,-0.
 00000449,-0.00003022,0.00001066,0.00001624,-0.00001099,-0.00000093,-0.
 00000440,0.00000245,-0.00001101,0.00000063,-0.00000566,0.00000086,0.00
 000237,-0.00000097,-0.00000071,-0.00000323,-0.00000075,0.00000079,0.00
 000078,0.00000011,-0.00000393,-0.00000010,-0.00000067,0.00000021,0.000
 00176,0.00000600,-0.00000234,-0.00000486,-0.00000090,-0.00000246,0.000
 00268,-0.00000326,-0.00000135,0.00013454,0.00014388,0.00003928,0.00003
 291,-0.00003590,0.00002136,-0.00471483,0.00259489,0.00595055,-0.000027
 76,-0.00018640,-0.00001072,-0.00001363,-0.00006100,-0.00002773,0.00029
 469,0.00010502,-0.00006523,0.00000308,0.00001109,0.00004343,0.00000926
 ,0.00001684,-0.00005195,-0.00000600,-0.00000524,-0.00005012,-0.0000060
 0,0.00000582,0.00002424,-0.00000446,-0.00000226,0.00001182,0.00000219,
 0.00000318,-0.00000397,0.00000051,-0.00000154,-0.00000544,-0.00000366,
 0.00000199,0.00000025,0.00000155,0.00000428,-0.00000177,-0.00000214,-0
 .00000149,0.00000304,0.00000103,0.00000021,-0.00000233,0.00000033,0.00
 000075,0.00000055,0.00000011,0.00000082,0.00000050,-0.00000035,0.00000
 218,-0.00000126,0.00000137,-0.00000209,-0.00000015,-0.00000169,0.00000
 037,-0.00000043,0.,-0.00000136,-0.00000135,0.00000334,-0.00000028,-0.0
 0000171,0.00000070,-0.00000362,-0.00000077,-0.00000109,0.00000040,-0.0
 0000083,0.00000020,0.00000048,0.00000055,-0.00000349,-0.00000424,0.000
 00299,-0.00015614,-0.00002034,0.00003116,-0.00000892,0.00000379,0.0000
 3425,0.00000130,0.00000170,-0.00000439,0.00001118,0.00001390,0.0000730
 3,-0.00013655,-0.00064619,0.00020375,0.00202543,-0.00001641,-0.0027789
 5,0.01369916,0.00691183,0.03131874\\0.00000227,-0.00000169,0.00000061,
 -0.00000200,0.00000004,0.00000010,0.00000391,-0.00000370,0.00000250,0.
 00000005,-0.00000319,0.00000107,-0.00000116,-0.00000126,0.00000004,0.0
 0000122,-0.00000191,0.00000075,-0.00000380,-0.00000292,-0.00000126,-0.
 00000088,0.00000038,-0.00000065,-0.00000185,-0.00000119,-0.00000036,-0
 .00000009,-0.00000353,0.00000014,0.00000066,-0.00000047,0.00000097,-0.
 00000092,0.00000221,-0.00000160,-0.00000183,-0.00000257,-0.00000135,-0
 .00000070,0.00000041,-0.00000109,-0.00000115,0.00000019,-0.00000070,-0
 .00000208,0.00000167,-0.00000162,-0.00000166,0.00000049,-0.00000111,-0
 .00000164,0.00000107,-0.00000163,-0.00000149,0.00000093,-0.00000093,-0
 .00000166,0.00000106,-0.00000147,-0.00000122,0.00000129,-0.00000111,-0
 .00000046,0.00000112,-0.00000150,-0.00000079,0.00000161,-0.00000078,-0
 .00000119,0.00000189,-0.00000113,-0.00000139,0.00000129,-0.00000015,-0
 .00000039,0.00000251,-0.00000003,0.00000078,0.00000109,-0.00000199,-0.
 00000041,0.00000168,-0.00000128,0.00000024,0.00000124,0.00000004,0.000
 00041,-0.00000119,-0.00000081,-0.00000095,-0.00000021,0.00000117,0.000
 00186,-0.00000281,0.00000206,-0.00000242,-0.00000036,0.00000011,0.0000
 0077,0.00000289,0.00000084,-0.00000219,0.00000286,-0.00000407,-0.00000
 292,-0.00000542,-0.00000034,0.00000333,0.00000394,0.00000114,0.0000019
 7,0.00000235,0.00000122,0.00000052,0.00000118,0.00000079,0.00000171,-0
 .00000092,0.00000013,0.00000088,-0.00000010,0.00000035,0.00000191,0.00
 000027,0.00000111,0.00000088,0.00000188,0.00000061,-0.00000012,0.00000
 119,0.00000080,0.00000069,-0.00000014,0.00000019,0.00000139,0.00000037
 ,0.00000060,0.00000140,-0.00000036,0.00000096,0.00000212,0.00000035,0.
 00000128,0.00000211,0.00000065,0.00000092,0.00000220,0.00000095,0.0000
 0077,0.00000033,0.00000162,-0.00000047,0.00000142,0.00000129,0.0000006
 9,0.00000083,0.00000087,0.00000075,0.00000119,0.00000130,-0.00000023,0
 .00000161,0.00000162,0.00000029,0.00000116,0.00000127,0.00000023,0.000
 00122,-0.00000028,0.00000143,0.00000089,-0.00000163,0.00000069,0.00000
 156,-0.00000246,0.00000121,-0.00000013,-0.00000300,0.00000125,-0.00000
 066,-0.00000215,0.00000083,-0.00000136,-0.00000295,0.00000022,-0.00000
 244,-0.00000182,-0.00000043,-0.00000151,-0.00000080,-0.00000076\\\@
 The archive entry for this job was punched.


 "THE ACADEMIC HIERARCHY"


 THE PRESIDENT:
   LEAPS TALL BUILDINGS IN A SINGLE BOUND,
     IS MORE POWERFUL THAN A LOCOMOTIVE,
       IS FASTER THAN A SPEEDING BULLET,
         WALKS ON WATER,
           GIVES POLICY TO GOD.

 THE VICE PRESIDENT FOR ACADEMIC AFFAIRS:
   LEAPS SHORT BUILDINGS IN A SINGLE BOUND,
     IS MORE POWERFUL THAN A SWITCH ENGINE,
       IS JUST AS FAST AS A SPEEDING BULLET,
         WALKS ON WATER IF SEA IS CALM,
           TALKS WITH GOD.

 PROFESSOR:
   LEAPS SHORT BUILDINGS WITH A RUNNING START AND FAVORABLE WINDS,
     IS ALMOST AS POWERFUL AS A SWITCH ENGINE,
       CAN FIRE A SPEEDING BULLET,
         WALKS ON WATER IN AN INDOOR SWIMMING POOL,
          TALKS WITH GOD IF SPECIAL REQUEST IS APPROVED.

 ASSOCIATE PROFESSOR:
   BARELY CLEARS A QUONSET HUT,
     LOSES TUG OF WAR WITH LOCOMOTIVE,
       MISFIRES FREQUENTLY,
         SWIMS WELL,
           IS OCCASIONALLY ADDRESSED BY GOD.

 ASSISTANT PROFESSOR:
   MAKES HIGH MARKS ON WALLS WHEN TRYING TO LEAP TALL BUILDINGS,
     IS RUN OVER BY LOCOMOTIVES,
       CAN SOMETIMES HANDLE A GUN WITHOUT INFLICTING SELF INJURY,
         DOG PADDLES,
           TALKS TO ANIMALS.

 GRADUATE STUDENT:
   RUNS INTO BUILDINGS,
     RECOGNIZES LOCOMOTIVES TWO OUT OF THREE TIMES,
       IS NOT ISSUED AMMUNITION,
         CAN STAY AFLOAT WITH A LIFE JACKET,
           TALKS TO WALLS.

 UNDERGRADUATE AND WORK STUDY STUDENT:
   FALLS OVER DOORSTEP WHEN TRYING TO ENTER BUILDINGS,
     SAYS, "LOOK AT THE CHOO-CHOO,"
       WETS HIMSELF WITH A WATER PISTOL,
        PLAYS IN MUD PUDDLES,
          MUMBLES TO HIMSELF.

 DEPARTMENT SECRETARY:
   LIFTS TALL BUILDINGS AND WALKS UNDER THEM,
     KICKS LOCOMOTIVES OFF THE TRACKS,
       CATCHES SPEEDING BULLETS IN HER TEETH AND EATS THEM,
         FREEZES WATER WITH A SINGLE GLANCE,
           IS GOD.
 Job cpu time:       0 days 11 hours 15 minutes 13.6 seconds.
 Elapsed time:       0 days  0 hours 43 minutes 15.7 seconds.
 File lengths (MBytes):  RWF=   1878 Int=      0 D2E=      0 Chk=     25 Scr=      1
 Normal termination of Gaussian 16 at Fri Nov  3 02:43:51 2023.
