/mnt/lustre/scratch/nvme/SLURM/4748278/usccqdma.u69LzAw5Kf
OMP_STACKSIZE=0m
GAUSS_PDEF=16
GAUSS_MDEF=65536MB
GAUSS_RDEF=SCF=Direct
 Entering Gaussian System, Link 0=g16.exe
 Initial command:
 /opt/cesga/2020/software/Core/g16/c1/l1.exe "/mnt/lustre/scratch/nvme/SLURM/4748278/usccqdma.u69LzAw5Kf/Gau-1414056.inp" -scrdir="/mnt/lustre/scratch/nvme/SLURM/4748278/usccqdma.u69LzAw5Kf/"
 Default is to use a total of  16 processors:
                               16 via shared-memory
                                1 via Linda
 Entering Link 1 = /opt/cesga/2020/software/Core/g16/c1/l1.exe PID=   1414082.
  
 Copyright (c) 1988-2019, Gaussian, Inc.  All Rights Reserved.
  
 This is part of the Gaussian(R) 16 program.  It is based on
 the Gaussian(R) 09 system (copyright 2009, Gaussian, Inc.),
 the Gaussian(R) 03 system (copyright 2003, Gaussian, Inc.),
 the Gaussian(R) 98 system (copyright 1998, Gaussian, Inc.),
 the Gaussian(R) 94 system (copyright 1995, Gaussian, Inc.),
 the Gaussian 92(TM) system (copyright 1992, Gaussian, Inc.),
 the Gaussian 90(TM) system (copyright 1990, Gaussian, Inc.),
 the Gaussian 88(TM) system (copyright 1988, Gaussian, Inc.),
 the Gaussian 86(TM) system (copyright 1986, Carnegie Mellon
 University), and the Gaussian 82(TM) system (copyright 1983,
 Carnegie Mellon University). Gaussian is a federally registered
 trademark of Gaussian, Inc.
  
 This software contains proprietary and confidential information,
 including trade secrets, belonging to Gaussian, Inc.
  
 This software is provided under written license and may be
 used, copied, transmitted, or stored only in accord with that
 written license.
  
 The following legend is applicable only to US Government
 contracts under FAR:
  
                    RESTRICTED RIGHTS LEGEND
  
 Use, reproduction and disclosure by the US Government is
 subject to restrictions as set forth in subparagraphs (a)
 and (c) of the Commercial Computer Software - Restricted
 Rights clause in FAR 52.227-19.
  
 Gaussian, Inc.
 340 Quinnipiac St., Bldg. 40, Wallingford CT 06492
  
  
 ---------------------------------------------------------------
 Warning -- This program may not be used in any manner that
 competes with the business of Gaussian, Inc. or will provide
 assistance to any competitor of Gaussian, Inc.  The licensee
 of this program is prohibited from giving any competitor of
 Gaussian, Inc. access to this program.  By using this program,
 the user acknowledges that Gaussian, Inc. is engaged in the
 business of creating and licensing software in the field of
 computational chemistry and represents and warrants to the
 licensee that it is not a competitor of Gaussian, Inc. and that
 it will not use this program in any manner prohibited above.
 ---------------------------------------------------------------
  

 Cite this work as:
 Gaussian 16, Revision C.01,
 M. J. Frisch, G. W. Trucks, H. B. Schlegel, G. E. Scuseria, 
 M. A. Robb, J. R. Cheeseman, G. Scalmani, V. Barone, 
 G. A. Petersson, H. Nakatsuji, X. Li, M. Caricato, A. V. Marenich, 
 J. Bloino, B. G. Janesko, R. Gomperts, B. Mennucci, H. P. Hratchian, 
 J. V. Ortiz, A. F. Izmaylov, J. L. Sonnenberg, D. Williams-Young, 
 F. Ding, F. Lipparini, F. Egidi, J. Goings, B. Peng, A. Petrone, 
 T. Henderson, D. Ranasinghe, V. G. Zakrzewski, J. Gao, N. Rega, 
 G. Zheng, W. Liang, M. Hada, M. Ehara, K. Toyota, R. Fukuda, 
 J. Hasegawa, M. Ishida, T. Nakajima, Y. Honda, O. Kitao, H. Nakai, 
 T. Vreven, K. Throssell, J. A. Montgomery, Jr., J. E. Peralta, 
 F. Ogliaro, M. J. Bearpark, J. J. Heyd, E. N. Brothers, K. N. Kudin, 
 V. N. Staroverov, T. A. Keith, R. Kobayashi, J. Normand, 
 K. Raghavachari, A. P. Rendell, J. C. Burant, S. S. Iyengar, 
 J. Tomasi, M. Cossi, J. M. Millam, M. Klene, C. Adamo, R. Cammi, 
 J. W. Ochterski, R. L. Martin, K. Morokuma, O. Farkas, 
 J. B. Foresman, and D. J. Fox, Gaussian, Inc., Wallingford CT, 2019.
 
 ******************************************
 Gaussian 16:  ES64L-G16RevC.01  3-Jul-2019
                 2-Nov-2023 
 ******************************************
 Default route: SCF=Direct
 --------------------------------------------------------
 # m06/genecp scf=tight int=ultrafine 5d opt freq=noraman
 --------------------------------------------------------
 1/18=20,19=15,26=4,38=1/1,3;
 2/9=110,12=2,17=6,18=5,40=1/2;
 3/5=7,8=1,11=2,16=1,17=8,25=1,30=1,71=1,74=-54,75=-5/1,2,3;
 4//1;
 5/5=2,32=2,38=5/2;
 6/7=2,8=2,9=2,10=2,28=1/1;
 7//1,2,3,16;
 1/18=20,19=15,26=4/3(2);
 2/9=110/2;
 99//99;
 2/9=110/2;
 3/5=7,6=1,8=1,11=2,16=1,17=8,25=1,30=1,71=1,74=-54,75=-5,82=7/1,2,3;
 4/5=5,16=3,69=1/1;
 5/5=2,32=2,38=5/2;
 7//1,2,3,16;
 1/18=20,19=15,26=4/3(-5);
 2/9=110/2;
 6/7=2,8=2,9=2,10=2,19=2,28=1/1;
 99/9=1/99;
 ------
 OPT-TS
 ------
 Symbolic Z-matrix:
 Charge =  0 Multiplicity = 1
 C                     0.28469  -0.92431   2.5602 
 C                    -1.24816   0.80067   2.30341 
 C                    -1.54764   0.79429   3.65751 
 C                    -0.9024   -0.11702   4.48656 
 C                     0.03101  -0.97512   3.93178 
 C                     1.28087  -1.77996   1.89263 
 C                     2.34104  -2.2972   -0.10403 
 C                     3.15362  -3.2392    0.50924 
 C                     3.00184  -3.45289   1.87387 
 C                     2.05869  -2.71553   2.57146 
 H                    -1.70275   1.51485   1.6182 
 H                    -1.11646  -0.14047   5.55248 
 H                     0.56265  -1.67654   4.56815 
 H                     2.41047  -2.08432  -1.17077 
 H                     3.61821  -4.18298   2.39404 
 H                     1.94372  -2.85906   3.64207 
 N                    -0.37118  -0.04961   1.76747 
 N                     1.42336  -1.59763   0.56654 
 Ir                    0.09735  -0.12101  -0.37314 
 O                    -0.95893   2.1459   -2.14643 
 B                    -0.16006   1.00615  -2.08889 
 O                     0.60522   0.88669  -3.22803 
 C                    -0.5754    2.91602  -3.30031 
 C                     0.17131   1.8624   -4.18344 
 C                    -0.73452   1.13758  -5.16792 
 H                    -0.1621    0.32485  -5.63201 
 H                    -1.58416   0.68063  -4.64725 
 H                    -1.1019    1.8014   -5.96231 
 C                     1.38989   2.40265  -4.90726 
 H                     1.8564    1.59688  -5.4879 
 H                     1.1116    3.2067   -5.60391 
 H                     2.1397    2.78802  -4.20622 
 C                     0.31369   4.04784  -2.80232 
 H                     1.22515   3.67053  -2.32201 
 H                     0.60421   4.72696  -3.61488 
 H                    -0.24107   4.62618  -2.05238 
 C                    -1.82046   3.5066   -3.93384 
 H                    -1.56475   4.07304  -4.84085 
 H                    -2.54998   2.73399  -4.2043 
 H                    -2.3028    4.19549  -3.22743 
 H                     3.88795  -3.7875   -0.07584 
 H                    -2.26438   1.4802    4.05838 
 

 GradGradGradGradGradGradGradGradGradGradGradGradGradGradGradGradGradGrad
 Berny optimization.
 Initialization pass.
                           ----------------------------
                           !    Initial Parameters    !
                           ! (Angstroms and Degrees)  !
 --------------------------                            --------------------------
 ! Name  Definition              Value          Derivative Info.                !
 --------------------------------------------------------------------------------
 ! R1    R(1,5)                  1.3958         estimate D2E/DX2                !
 ! R2    R(1,6)                  1.4732         estimate D2E/DX2                !
 ! R3    R(1,17)                 1.3504         estimate D2E/DX2                !
 ! R4    R(2,3)                  1.3868         estimate D2E/DX2                !
 ! R5    R(2,11)                 1.0891         estimate D2E/DX2                !
 ! R6    R(2,17)                 1.3339         estimate D2E/DX2                !
 ! R7    R(3,4)                  1.3907         estimate D2E/DX2                !
 ! R8    R(3,42)                 1.07           estimate D2E/DX2                !
 ! R9    R(4,5)                  1.384          estimate D2E/DX2                !
 ! R10   R(4,12)                 1.0874         estimate D2E/DX2                !
 ! R11   R(5,13)                 1.0861         estimate D2E/DX2                !
 ! R12   R(6,10)                 1.3932         estimate D2E/DX2                !
 ! R13   R(6,18)                 1.3461         estimate D2E/DX2                !
 ! R14   R(7,8)                  1.387          estimate D2E/DX2                !
 ! R15   R(7,14)                 1.09           estimate D2E/DX2                !
 ! R16   R(7,18)                 1.3346         estimate D2E/DX2                !
 ! R17   R(8,9)                  1.3896         estimate D2E/DX2                !
 ! R18   R(8,41)                 1.0873         estimate D2E/DX2                !
 ! R19   R(9,10)                 1.3856         estimate D2E/DX2                !
 ! R20   R(9,15)                 1.0879         estimate D2E/DX2                !
 ! R21   R(10,16)                1.0863         estimate D2E/DX2                !
 ! R22   R(17,19)                2.1924         estimate D2E/DX2                !
 ! R23   R(18,19)                2.1958         estimate D2E/DX2                !
 ! R24   R(19,21)                2.0689         estimate D2E/DX2                !
 ! R25   R(20,21)                1.393          estimate D2E/DX2                !
 ! R26   R(20,23)                1.4393         estimate D2E/DX2                !
 ! R27   R(21,22)                1.3775         estimate D2E/DX2                !
 ! R28   R(22,24)                1.4329         estimate D2E/DX2                !
 ! R29   R(23,24)                1.5645         estimate D2E/DX2                !
 ! R30   R(23,33)                1.523          estimate D2E/DX2                !
 ! R31   R(23,37)                1.5167         estimate D2E/DX2                !
 ! R32   R(24,25)                1.5215         estimate D2E/DX2                !
 ! R33   R(24,29)                1.5168         estimate D2E/DX2                !
 ! R34   R(25,26)                1.0971         estimate D2E/DX2                !
 ! R35   R(25,27)                1.0963         estimate D2E/DX2                !
 ! R36   R(25,28)                1.0985         estimate D2E/DX2                !
 ! R37   R(29,30)                1.0973         estimate D2E/DX2                !
 ! R38   R(29,31)                1.0997         estimate D2E/DX2                !
 ! R39   R(29,32)                1.0964         estimate D2E/DX2                !
 ! R40   R(33,34)                1.0972         estimate D2E/DX2                !
 ! R41   R(33,35)                1.0981         estimate D2E/DX2                !
 ! R42   R(33,36)                1.0976         estimate D2E/DX2                !
 ! R43   R(37,38)                1.0995         estimate D2E/DX2                !
 ! R44   R(37,39)                1.0965         estimate D2E/DX2                !
 ! R45   R(37,40)                1.0983         estimate D2E/DX2                !
 ! A1    A(5,1,6)              123.1656         estimate D2E/DX2                !
 ! A2    A(5,1,17)             120.8074         estimate D2E/DX2                !
 ! A3    A(6,1,17)             116.0164         estimate D2E/DX2                !
 ! A4    A(3,2,11)             121.8145         estimate D2E/DX2                !
 ! A5    A(3,2,17)             122.0957         estimate D2E/DX2                !
 ! A6    A(11,2,17)            116.0799         estimate D2E/DX2                !
 ! A7    A(2,3,4)              119.0049         estimate D2E/DX2                !
 ! A8    A(2,3,42)             120.4975         estimate D2E/DX2                !
 ! A9    A(4,3,42)             120.4975         estimate D2E/DX2                !
 ! A10   A(3,4,5)              118.7003         estimate D2E/DX2                !
 ! A11   A(3,4,12)             120.4723         estimate D2E/DX2                !
 ! A12   A(5,4,12)             120.8186         estimate D2E/DX2                !
 ! A13   A(1,5,4)              119.5988         estimate D2E/DX2                !
 ! A14   A(1,5,13)             120.6851         estimate D2E/DX2                !
 ! A15   A(4,5,13)             119.7151         estimate D2E/DX2                !
 ! A16   A(1,6,10)             123.1454         estimate D2E/DX2                !
 ! A17   A(1,6,18)             116.0605         estimate D2E/DX2                !
 ! A18   A(10,6,18)            120.7865         estimate D2E/DX2                !
 ! A19   A(8,7,14)             121.8738         estimate D2E/DX2                !
 ! A20   A(8,7,18)             122.4574         estimate D2E/DX2                !
 ! A21   A(14,7,18)            115.6684         estimate D2E/DX2                !
 ! A22   A(7,8,9)              118.338          estimate D2E/DX2                !
 ! A23   A(7,8,41)             120.0156         estimate D2E/DX2                !
 ! A24   A(9,8,41)             121.6463         estimate D2E/DX2                !
 ! A25   A(8,9,10)             119.1396         estimate D2E/DX2                !
 ! A26   A(8,9,15)             120.7224         estimate D2E/DX2                !
 ! A27   A(10,9,15)            120.1364         estimate D2E/DX2                !
 ! A28   A(6,10,9)             119.4761         estimate D2E/DX2                !
 ! A29   A(6,10,16)            120.6529         estimate D2E/DX2                !
 ! A30   A(9,10,16)            119.8629         estimate D2E/DX2                !
 ! A31   A(1,17,2)             119.7577         estimate D2E/DX2                !
 ! A32   A(1,17,19)            116.6317         estimate D2E/DX2                !
 ! A33   A(2,17,19)            123.6101         estimate D2E/DX2                !
 ! A34   A(6,18,7)             119.7855         estimate D2E/DX2                !
 ! A35   A(6,18,19)            116.6621         estimate D2E/DX2                !
 ! A36   A(7,18,19)            123.552          estimate D2E/DX2                !
 ! A37   A(17,19,18)            74.5219         estimate D2E/DX2                !
 ! A38   A(17,19,21)           139.9382         estimate D2E/DX2                !
 ! A39   A(18,19,21)           142.7846         estimate D2E/DX2                !
 ! A40   A(21,20,23)           108.5471         estimate D2E/DX2                !
 ! A41   A(19,21,20)           123.4596         estimate D2E/DX2                !
 ! A42   A(19,21,22)           124.7096         estimate D2E/DX2                !
 ! A43   A(20,21,22)           110.8168         estimate D2E/DX2                !
 ! A44   A(21,22,24)           108.9115         estimate D2E/DX2                !
 ! A45   A(20,23,24)           102.6729         estimate D2E/DX2                !
 ! A46   A(20,23,33)           106.9213         estimate D2E/DX2                !
 ! A47   A(20,23,37)           108.9338         estimate D2E/DX2                !
 ! A48   A(24,23,33)           113.9809         estimate D2E/DX2                !
 ! A49   A(24,23,37)           114.7245         estimate D2E/DX2                !
 ! A50   A(33,23,37)           109.0526         estimate D2E/DX2                !
 ! A51   A(22,24,23)           103.105          estimate D2E/DX2                !
 ! A52   A(22,24,25)           106.6981         estimate D2E/DX2                !
 ! A53   A(22,24,29)           108.5075         estimate D2E/DX2                !
 ! A54   A(23,24,25)           113.6978         estimate D2E/DX2                !
 ! A55   A(23,24,29)           114.3903         estimate D2E/DX2                !
 ! A56   A(25,24,29)           109.8279         estimate D2E/DX2                !
 ! A57   A(24,25,26)           108.4201         estimate D2E/DX2                !
 ! A58   A(24,25,27)           110.65           estimate D2E/DX2                !
 ! A59   A(24,25,28)           112.2803         estimate D2E/DX2                !
 ! A60   A(26,25,27)           107.2488         estimate D2E/DX2                !
 ! A61   A(26,25,28)           108.4367         estimate D2E/DX2                !
 ! A62   A(27,25,28)           109.6431         estimate D2E/DX2                !
 ! A63   A(24,29,30)           109.422          estimate D2E/DX2                !
 ! A64   A(24,29,31)           111.0647         estimate D2E/DX2                !
 ! A65   A(24,29,32)           111.6837         estimate D2E/DX2                !
 ! A66   A(30,29,31)           108.0162         estimate D2E/DX2                !
 ! A67   A(30,29,32)           107.7997         estimate D2E/DX2                !
 ! A68   A(31,29,32)           108.7307         estimate D2E/DX2                !
 ! A69   A(23,33,34)           111.872          estimate D2E/DX2                !
 ! A70   A(23,33,35)           111.8448         estimate D2E/DX2                !
 ! A71   A(23,33,36)           108.6591         estimate D2E/DX2                !
 ! A72   A(34,33,35)           108.4711         estimate D2E/DX2                !
 ! A73   A(34,33,36)           107.577          estimate D2E/DX2                !
 ! A74   A(35,33,36)           108.2666         estimate D2E/DX2                !
 ! A75   A(23,37,38)           110.7483         estimate D2E/DX2                !
 ! A76   A(23,37,39)           112.0137         estimate D2E/DX2                !
 ! A77   A(23,37,40)           109.639          estimate D2E/DX2                !
 ! A78   A(38,37,39)           108.3167         estimate D2E/DX2                !
 ! A79   A(38,37,40)           108.0344         estimate D2E/DX2                !
 ! A80   A(39,37,40)           107.9647         estimate D2E/DX2                !
 ! D1    D(6,1,5,4)            178.6572         estimate D2E/DX2                !
 ! D2    D(6,1,5,13)            -0.973          estimate D2E/DX2                !
 ! D3    D(17,1,5,4)            -0.1133         estimate D2E/DX2                !
 ! D4    D(17,1,5,13)         -179.7435         estimate D2E/DX2                !
 ! D5    D(5,1,6,10)            -0.03           estimate D2E/DX2                !
 ! D6    D(5,1,6,18)          -179.0272         estimate D2E/DX2                !
 ! D7    D(17,1,6,10)          178.7949         estimate D2E/DX2                !
 ! D8    D(17,1,6,18)           -0.2023         estimate D2E/DX2                !
 ! D9    D(5,1,17,2)             1.708          estimate D2E/DX2                !
 ! D10   D(5,1,17,19)         -178.5249         estimate D2E/DX2                !
 ! D11   D(6,1,17,2)          -177.1467         estimate D2E/DX2                !
 ! D12   D(6,1,17,19)            2.6203         estimate D2E/DX2                !
 ! D13   D(11,2,3,4)          -178.0577         estimate D2E/DX2                !
 ! D14   D(11,2,3,42)            1.9423         estimate D2E/DX2                !
 ! D15   D(17,2,3,4)             0.7502         estimate D2E/DX2                !
 ! D16   D(17,2,3,42)         -179.2498         estimate D2E/DX2                !
 ! D17   D(3,2,17,1)            -2.0395         estimate D2E/DX2                !
 ! D18   D(3,2,17,19)          178.2106         estimate D2E/DX2                !
 ! D19   D(11,2,17,1)          176.8328         estimate D2E/DX2                !
 ! D20   D(11,2,17,19)          -2.9172         estimate D2E/DX2                !
 ! D21   D(2,3,4,5)              0.8506         estimate D2E/DX2                !
 ! D22   D(2,3,4,12)           179.7835         estimate D2E/DX2                !
 ! D23   D(42,3,4,5)          -179.1494         estimate D2E/DX2                !
 ! D24   D(42,3,4,12)           -0.2165         estimate D2E/DX2                !
 ! D25   D(3,4,5,1)             -1.148          estimate D2E/DX2                !
 ! D26   D(3,4,5,13)           178.4858         estimate D2E/DX2                !
 ! D27   D(12,4,5,1)           179.9229         estimate D2E/DX2                !
 ! D28   D(12,4,5,13)           -0.4433         estimate D2E/DX2                !
 ! D29   D(1,6,10,9)          -178.0787         estimate D2E/DX2                !
 ! D30   D(1,6,10,16)            0.8877         estimate D2E/DX2                !
 ! D31   D(18,6,10,9)            0.8727         estimate D2E/DX2                !
 ! D32   D(18,6,10,16)         179.8391         estimate D2E/DX2                !
 ! D33   D(1,6,18,7)           177.45           estimate D2E/DX2                !
 ! D34   D(1,6,18,19)           -2.312          estimate D2E/DX2                !
 ! D35   D(10,6,18,7)           -1.5727         estimate D2E/DX2                !
 ! D36   D(10,6,18,19)         178.6653         estimate D2E/DX2                !
 ! D37   D(14,7,8,9)          -179.9369         estimate D2E/DX2                !
 ! D38   D(14,7,8,41)            0.1871         estimate D2E/DX2                !
 ! D39   D(18,7,8,9)            -0.1872         estimate D2E/DX2                !
 ! D40   D(18,7,8,41)          179.9368         estimate D2E/DX2                !
 ! D41   D(8,7,18,6)             1.2381         estimate D2E/DX2                !
 ! D42   D(8,7,18,19)         -179.0171         estimate D2E/DX2                !
 ! D43   D(14,7,18,6)         -178.9977         estimate D2E/DX2                !
 ! D44   D(14,7,18,19)           0.747          estimate D2E/DX2                !
 ! D45   D(7,8,9,10)            -0.5116         estimate D2E/DX2                !
 ! D46   D(7,8,9,15)           179.954          estimate D2E/DX2                !
 ! D47   D(41,8,9,10)          179.3623         estimate D2E/DX2                !
 ! D48   D(41,8,9,15)           -0.1721         estimate D2E/DX2                !
 ! D49   D(8,9,10,6)             0.1773         estimate D2E/DX2                !
 ! D50   D(8,9,10,16)         -178.7974         estimate D2E/DX2                !
 ! D51   D(15,9,10,6)          179.7144         estimate D2E/DX2                !
 ! D52   D(15,9,10,16)           0.7397         estimate D2E/DX2                !
 ! D53   D(1,17,19,18)          -2.8387         estimate D2E/DX2                !
 ! D54   D(1,17,19,21)        -165.5103         estimate D2E/DX2                !
 ! D55   D(2,17,19,18)         176.9185         estimate D2E/DX2                !
 ! D56   D(2,17,19,21)          14.2469         estimate D2E/DX2                !
 ! D57   D(6,18,19,17)           2.7301         estimate D2E/DX2                !
 ! D58   D(6,18,19,21)         164.2511         estimate D2E/DX2                !
 ! D59   D(7,18,19,17)        -177.022          estimate D2E/DX2                !
 ! D60   D(7,18,19,21)         -15.501          estimate D2E/DX2                !
 ! D61   D(17,19,21,20)         -8.6531         estimate D2E/DX2                !
 ! D62   D(17,19,21,22)        158.7591         estimate D2E/DX2                !
 ! D63   D(18,19,21,20)       -160.3195         estimate D2E/DX2                !
 ! D64   D(18,19,21,22)          7.0927         estimate D2E/DX2                !
 ! D65   D(23,20,21,19)        160.9888         estimate D2E/DX2                !
 ! D66   D(23,20,21,22)         -7.9612         estimate D2E/DX2                !
 ! D67   D(21,20,23,24)         19.6341         estimate D2E/DX2                !
 ! D68   D(21,20,23,33)       -100.6204         estimate D2E/DX2                !
 ! D69   D(21,20,23,37)        141.6637         estimate D2E/DX2                !
 ! D70   D(19,21,22,24)       -177.7188         estimate D2E/DX2                !
 ! D71   D(20,21,22,24)         -8.9353         estimate D2E/DX2                !
 ! D72   D(21,22,24,23)         20.3546         estimate D2E/DX2                !
 ! D73   D(21,22,24,25)        -99.6892         estimate D2E/DX2                !
 ! D74   D(21,22,24,29)        142.0258         estimate D2E/DX2                !
 ! D75   D(20,23,24,22)        -24.0189         estimate D2E/DX2                !
 ! D76   D(20,23,24,25)         91.0912         estimate D2E/DX2                !
 ! D77   D(20,23,24,29)       -141.6262         estimate D2E/DX2                !
 ! D78   D(33,23,24,22)         91.229          estimate D2E/DX2                !
 ! D79   D(33,23,24,25)       -153.6609         estimate D2E/DX2                !
 ! D80   D(33,23,24,29)        -26.3783         estimate D2E/DX2                !
 ! D81   D(37,23,24,22)       -142.0326         estimate D2E/DX2                !
 ! D82   D(37,23,24,25)        -26.9225         estimate D2E/DX2                !
 ! D83   D(37,23,24,29)        100.36           estimate D2E/DX2                !
 ! D84   D(20,23,33,34)         61.6189         estimate D2E/DX2                !
 ! D85   D(20,23,33,35)       -176.461          estimate D2E/DX2                !
 ! D86   D(20,23,33,36)        -57.0027         estimate D2E/DX2                !
 ! D87   D(24,23,33,34)        -51.106          estimate D2E/DX2                !
 ! D88   D(24,23,33,35)         70.8141         estimate D2E/DX2                !
 ! D89   D(24,23,33,36)       -169.7275         estimate D2E/DX2                !
 ! D90   D(37,23,33,34)        179.2568         estimate D2E/DX2                !
 ! D91   D(37,23,33,35)        -58.8231         estimate D2E/DX2                !
 ! D92   D(37,23,33,36)         60.6353         estimate D2E/DX2                !
 ! D93   D(20,23,37,38)       -177.9965         estimate D2E/DX2                !
 ! D94   D(20,23,37,39)        -56.9552         estimate D2E/DX2                !
 ! D95   D(20,23,37,40)         62.8801         estimate D2E/DX2                !
 ! D96   D(24,23,37,38)        -63.5844         estimate D2E/DX2                !
 ! D97   D(24,23,37,39)         57.4569         estimate D2E/DX2                !
 ! D98   D(24,23,37,40)        177.2922         estimate D2E/DX2                !
 ! D99   D(33,23,37,38)         65.6436         estimate D2E/DX2                !
 ! D100  D(33,23,37,39)       -173.3152         estimate D2E/DX2                !
 ! D101  D(33,23,37,40)        -53.4799         estimate D2E/DX2                !
 ! D102  D(22,24,25,26)        -58.7684         estimate D2E/DX2                !
 ! D103  D(22,24,25,27)         58.5869         estimate D2E/DX2                !
 ! D104  D(22,24,25,28)       -178.5495         estimate D2E/DX2                !
 ! D105  D(23,24,25,26)       -171.7343         estimate D2E/DX2                !
 ! D106  D(23,24,25,27)        -54.379          estimate D2E/DX2                !
 ! D107  D(23,24,25,28)         68.4845         estimate D2E/DX2                !
 ! D108  D(29,24,25,26)         58.6479         estimate D2E/DX2                !
 ! D109  D(29,24,25,27)        176.0033         estimate D2E/DX2                !
 ! D110  D(29,24,25,28)        -61.1332         estimate D2E/DX2                !
 ! D111  D(22,24,29,30)         64.7488         estimate D2E/DX2                !
 ! D112  D(22,24,29,31)       -176.0921         estimate D2E/DX2                !
 ! D113  D(22,24,29,32)        -54.527          estimate D2E/DX2                !
 ! D114  D(23,24,29,30)        179.2246         estimate D2E/DX2                !
 ! D115  D(23,24,29,31)        -61.6163         estimate D2E/DX2                !
 ! D116  D(23,24,29,32)         59.9488         estimate D2E/DX2                !
 ! D117  D(25,24,29,30)        -51.5334         estimate D2E/DX2                !
 ! D118  D(25,24,29,31)         67.6257         estimate D2E/DX2                !
 ! D119  D(25,24,29,32)       -170.8092         estimate D2E/DX2                !
 --------------------------------------------------------------------------------
 Trust Radius=3.00D-01 FncErr=1.00D-07 GrdErr=1.00D-06 EigMax=2.50D+02 EigMin=1.00D-04
 Number of steps in this run=    252 maximum allowed number of steps=    252.
 GradGradGradGradGradGradGradGradGradGradGradGradGradGradGradGradGradGrad

                          Input orientation:                          
 ---------------------------------------------------------------------
 Center     Atomic      Atomic             Coordinates (Angstroms)
 Number     Number       Type             X           Y           Z
 ---------------------------------------------------------------------
      1          6           0        0.284686   -0.924305    2.560198
      2          6           0       -1.248157    0.800672    2.303412
      3          6           0       -1.547637    0.794285    3.657505
      4          6           0       -0.902397   -0.117024    4.486564
      5          6           0        0.031010   -0.975119    3.931780
      6          6           0        1.280872   -1.779959    1.892627
      7          6           0        2.341041   -2.297198   -0.104032
      8          6           0        3.153619   -3.239198    0.509237
      9          6           0        3.001838   -3.452888    1.873866
     10          6           0        2.058687   -2.715533    2.571458
     11          1           0       -1.702753    1.514848    1.618196
     12          1           0       -1.116460   -0.140471    5.552478
     13          1           0        0.562647   -1.676541    4.568148
     14          1           0        2.410473   -2.084324   -1.170773
     15          1           0        3.618214   -4.182980    2.394044
     16          1           0        1.943719   -2.859055    3.642074
     17          7           0       -0.371184   -0.049613    1.767474
     18          7           0        1.423359   -1.597632    0.566543
     19         77           0        0.097345   -0.121010   -0.373135
     20          8           0       -0.958929    2.145899   -2.146434
     21          5           0       -0.160062    1.006147   -2.088887
     22          8           0        0.605223    0.886693   -3.228032
     23          6           0       -0.575402    2.916017   -3.300307
     24          6           0        0.171305    1.862403   -4.183444
     25          6           0       -0.734522    1.137583   -5.167922
     26          1           0       -0.162095    0.324854   -5.632013
     27          1           0       -1.584162    0.680634   -4.647246
     28          1           0       -1.101898    1.801403   -5.962314
     29          6           0        1.389889    2.402649   -4.907257
     30          1           0        1.856398    1.596884   -5.487896
     31          1           0        1.111600    3.206702   -5.603907
     32          1           0        2.139697    2.788022   -4.206222
     33          6           0        0.313694    4.047840   -2.802318
     34          1           0        1.225148    3.670528   -2.322014
     35          1           0        0.604213    4.726965   -3.614881
     36          1           0       -0.241075    4.626185   -2.052378
     37          6           0       -1.820465    3.506602   -3.933842
     38          1           0       -1.564750    4.073041   -4.840852
     39          1           0       -2.549980    2.733992   -4.204299
     40          1           0       -2.302801    4.195494   -3.227426
     41          1           0        3.887946   -3.787496   -0.075844
     42          1           0       -2.264377    1.480205    4.058376
 ---------------------------------------------------------------------
                    Distance matrix (angstroms):
                    1          2          3          4          5
     1  C    0.000000
     2  C    2.321873   0.000000
     3  C    2.741358   1.386830   0.000000
     4  C    2.402448   2.393297   1.390740   0.000000
     5  C    1.395769   2.727872   2.387078   1.383966   0.000000
     6  C    1.473154   3.636535   4.212124   3.776311   2.523503
     7  C    3.634770   5.317417   6.231231   6.028816   4.834451
     8  C    4.218524   6.238209   6.948553   6.482158   5.156602
     9  C    3.774612   6.028245   6.474378   5.761704   4.381800
    10  C    2.521052   4.834332   5.148193   4.380399   2.998498
    11  H    3.284319   1.089140   2.168422   3.395749   3.815566
    12  H    3.395783   3.385192   2.156526   1.087449   2.154063
    13  H    2.162171   3.813742   3.374544   2.141285   1.086092
    14  H    4.448006   5.811948   6.874976   6.844767   5.738312
    15  H    4.664652   6.966101   7.283922   6.430129   5.052033
    16  H    2.768773   5.037230   5.053385   4.041321   2.700296
    17  N    1.350431   1.333902   2.380845   2.771314   2.388000
    18  N    2.392615   3.988179   4.909392   4.792484   3.694723
    19  Ir   3.047101   3.134291   4.448572   4.961469   4.389327
    20  O    5.755442   4.657727   5.988250   7.008614   6.904014
    21  B    5.053557   4.529731   5.915342   6.711865   6.341164
    22  O    6.073390   5.834320   7.214843   7.924352   7.420173
    23  C    7.059274   6.027351   7.338811   8.363111   8.234790
    24  C    7.297623   6.724689   8.097908   8.957678   8.598143
    25  C    8.063126   7.496543   8.869452   9.737110   9.373053
    26  H    8.298936   8.023522   9.404002  10.155241   9.653671
    27  H    7.616802   6.959810   8.305609   9.193886   8.885380
    28  H    9.054574   8.327370   9.682659  10.625405  10.338552
    29  C    8.249423   7.843428   9.196251   9.992357   9.559521
    30  H    8.578956   8.424767   9.791321  10.489913   9.933657
    31  H    9.187036   8.595530   9.933029  10.812999  10.468268
    32  H    7.937687   7.602792   8.911207   9.657026   9.210584
    33  C    7.312978   6.249156   7.468566   8.482498   8.405837
    34  H    6.770004   5.978953   7.191367   8.076431   7.881493
    35  H    8.376786   7.339839   8.543069   9.558635   9.475991
    36  H    7.236036   5.884018   6.999523   8.105131   8.201145
    37  C    8.138620   6.822970   8.065956   9.212857   9.240226
    38  H    9.119727   7.864422   9.108930  10.246758  10.246435
    39  H    8.196150   6.912508   8.159357   9.293757   9.306707
    40  H    8.148866   6.574744   7.716266   8.947881   9.134338
    41  H    5.303778   7.286405   8.029706   7.565403   6.232694
    42  H    3.811027   2.138777   1.070000   2.142306   3.363546
                    6          7          8          9         10
     6  C    0.000000
     7  C    2.319082   0.000000
     8  C    2.747786   1.386992   0.000000
     9  C    2.400160   2.384188   1.389573   0.000000
    10  C    1.393236   2.722678   2.392876   1.385590   0.000000
    11  H    4.453435   5.818078   6.885862   6.846674   5.740493
    12  H    4.672219   6.971506   7.298628   6.439307   5.059544
    13  H    2.772175   5.037575   5.062587   4.045271   2.702667
    14  H    3.279185   1.089987   2.169893   3.390060   3.811361
    15  H    3.389557   3.380492   2.158488   1.087906   2.148721
    16  H    2.159717   3.808787   3.379798   2.144484   1.086294
    17  N    2.395631   3.988776   4.917403   4.792794   3.695645
    18  N    1.346122   1.334617   2.385754   2.764537   2.381812
    19  Ir   3.047380   3.137257   4.454491   4.958478   4.387373
    20  O    6.061607   5.899349   7.277699   7.949648   7.416066
    21  B    5.068642   4.594263   5.979439   6.751594   6.363377
    22  O    5.812803   4.786397   6.122457   7.113725   6.980163
    23  C    7.243239   6.774912   8.142782   8.951629   8.551632
    24  C    7.170535   6.217044   7.545978   8.541384   8.375465
    25  C    7.900963   6.848342   8.154997   9.198890   9.085511
    26  H    7.945603   6.610554   7.836541   8.978866   9.026227
    27  H    7.552011   6.701902   8.025021   8.980106   8.770062
    28  H    8.955660   7.935479   9.241107  10.288534  10.159590
    29  C    7.984016   6.787063   8.017455   9.103259   9.087038
    30  H    8.136733   6.662188   7.812559   9.000432   9.142814
    31  H    9.005191   7.877377   9.115372  10.190203  10.139351
    32  H    7.668115   6.536663   7.719519   8.755553   8.731129
    33  C    7.545938   7.186821   8.493085   9.238709   8.812814
    34  H    6.890146   6.463623   7.712282   8.456068   8.088426
    35  H    8.551641   8.042481   9.325641  10.138291   9.786576
    36  H    7.675810   7.641767   8.941480   9.550042   8.976056
    37  C    8.456580   8.103682   9.486215  10.267354   9.802127
    38  H    9.364556   8.847181  10.215444  11.071620  10.684398
    39  H    8.498452   8.126939   9.509335  10.297779   9.841139
    40  H    8.646600   8.571809   9.950367  10.614147  10.020575
    41  H    3.834308   2.148185   1.087284   2.167607   3.391681
    42  H    5.280902   7.266656   8.013977   7.539265   6.205161
                   11         12         13         14         15
    11  H    0.000000
    12  H    4.308410   0.000000
    13  H    4.900940   2.479479   0.000000
    14  H    6.136042   7.837087   6.042844   0.000000
    15  H    7.834531   6.981026   4.510594   4.309399   0.000000
    16  H    6.043498   4.517194   2.040420   4.897097   2.472709
    17  N    2.059830   3.858749   3.370862   4.528903   5.778634
    18  N    4.534984   5.782175   4.093885   2.056582   3.852424
    19  Ir   3.143530   6.048685   5.201198   3.137099   6.045941
    20  O    3.888951   8.032780   7.874760   5.495414   9.034428
    21  B    4.047362   7.785878   7.213546   4.123299   7.829373
    22  O    5.404374   9.006476   8.206851   4.039577   8.147848
    23  C    5.236972   9.381187   9.181467   6.201111  10.020370
    24  C    6.106710  10.022874   9.448155   5.446716   9.575551
    25  C    6.865217  10.803068  10.217289   6.020704  10.219492
    26  H    7.507013  11.234776  10.419891   5.685500   9.951326
    27  H    6.321846  10.243404   9.751335   5.973940  10.014950
    28  H    7.609683  11.677394  11.214162   7.098908  11.310217
    29  C    7.275586  11.052389  10.349271   5.927548  10.081911
    30  H    7.948008  11.564867  10.654254   5.700512   9.931556
    31  H    7.933582  11.858868  11.296819   7.023867  11.173976
    32  H    7.092900  10.696301   9.970405   5.746914   9.713104
    33  C    5.479329   9.454623   9.335646   6.682953  10.279515
    34  H    5.361419   9.056184   8.746679   5.987376   9.468134
    35  H    6.559335  10.521080  10.390793   7.458545  11.161474
    36  H    5.028920   9.017824   9.176148   7.269034  10.595573
    37  C    5.899666  10.187592  10.238555   7.536168  11.346851
    38  H    6.948575  11.223901  11.229995   8.196647  12.139552
    39  H    6.008789  10.271913  10.300343   7.551459  11.376697
    40  H    5.570096   9.863808  10.171655   8.116704  11.698639
    41  H    7.889267   8.367967   6.089368   2.506510   2.515852
    42  H    2.504217   2.485286   4.268135   7.867915   8.333459
                   16         17         18         19         20
    16  H    0.000000
    17  N    4.094614   0.000000
    18  N    3.364648   2.656875   0.000000
    19  Ir   5.198836   2.192447   2.195842   0.000000
    20  O    8.184238   4.525969   5.200919   3.065808   0.000000
    21  B    7.225621   4.003839   4.042054   2.068948   1.393031
    22  O    7.938549   5.175434   4.608689   3.069828   2.280795
    23  C    9.375185   5.875294   6.270614   4.271354   1.439305
    24  C    9.309798   6.274035   6.008482   4.296260   2.346744
    25  C   10.038033   7.045649   6.709839   5.026534   3.193188
    26  H   10.028979   7.411906   6.680697   5.284118   4.012532
    27  H    9.679265   6.569110   6.435781   4.662416   2.965127
    28  H   11.101348   7.981844   7.781795   6.030985   3.834066
    29  C   10.054020   7.325776   6.779812   5.347690   3.633870
    30  H   10.159693   7.766174   6.859204   5.675051   4.403732
    31  H   11.089364   8.193870   7.826447   6.281987   4.167315
    32  H    9.670762   7.074018   6.521226   5.227449   3.775782
    33  C    9.586051   6.175854   6.667229   4.829808   2.380574
    34  H    8.872550   5.754271   6.011369   4.409743   2.669366
    35  H   10.583259   7.262013   7.625997   5.853947   3.355838
    36  H    9.655513   6.039146   6.954494   5.046805   2.583792
    37  C   10.587028   6.874015   7.538505   5.432881   2.405947
    38  H   11.503188   7.879775   8.386015   6.349261   3.367608
    39  H   10.632077   6.939573   7.570424   5.462342   2.666853
    40  H   10.723321   6.833820   7.863763   5.704374   2.678689
    41  H    4.297085   5.959008   3.358922   5.282060   7.936291
    42  H    6.058924   3.342567   5.938466   5.270665   6.375501
                   21         22         23         24         25
    21  B    0.000000
    22  O    1.377527   0.000000
    23  C    2.299489   2.348884   0.000000
    24  C    2.286951   1.432867   1.564482   0.000000
    25  C    3.134922   2.370873   2.583821   1.521540   0.000000
    26  H    3.608034   2.585260   3.510243   2.138591   1.097079
    27  H    2.946052   2.617258   2.797996   2.166416   1.096264
    28  H    4.064840   3.350710   2.933572   2.188412   1.098491
    29  C    3.506533   2.394498   2.590019   1.516812   2.486254
    30  H    3.996041   2.678954   3.526940   2.147472   2.650699
    31  H    4.337618   3.359113   2.870025   2.170026   2.807045
    32  H    3.598204   2.631827   2.865104   2.175283   3.451079
    33  C    3.159956   3.202979   1.522993   2.589192   3.894154
    34  H    3.011989   2.992476   2.183649   2.800861   4.284310
    35  H    4.093563   3.859707   2.184028   2.952352   4.133740
    36  H    3.621128   4.010259   2.143310   3.514255   4.703238
    37  C    3.523218   3.639512   1.516686   2.594771   2.883484
    38  H    4.353424   4.178850   2.165823   2.886692   3.068089
    39  H    3.629342   3.784299   2.179287   2.857533   2.602495
    40  H    4.007435   4.405084   2.150879   3.532489   3.946625
    41  H    6.589213   6.523849   8.675006   7.912468   8.458893
    42  H    6.514731   7.853573   7.685338   8.602687   9.358548
                   26         27         28         29         30
    26  H    0.000000
    27  H    1.765962   0.000000
    28  H    1.781159   1.793909   0.000000
    29  C    2.692798   3.446436   2.771939   0.000000
    30  H    2.390219   3.658369   3.003067   1.097283   0.000000
    31  H    3.150895   3.816197   2.646298   1.099667   1.777554
    32  H    3.660372   4.301478   3.816440   1.096437   1.772500
    33  C    4.700445   4.282954   4.127464   2.880211   3.949614
    34  H    4.906534   4.715760   4.707500   2.884118   3.836833
    35  H    4.902513   4.714611   4.120700   2.773079   3.856625
    36  H    5.596560   4.909643   4.899797   3.969192   5.037741
    37  C    3.969572   2.924189   2.745677   3.531659   4.425090
    38  H    4.079496   3.397983   2.575316   3.394777   4.272502
    39  H    3.680260   2.311987   2.461155   4.015782   4.728298
    40  H    5.034532   3.858312   3.827983   4.435322   5.400133
    41  H    8.011571   8.414622   9.528109   8.240190   7.899939
    42  H    9.982889   8.768686  10.093006   9.725592  10.398351
                   31         32         33         34         35
    31  H    0.000000
    32  H    1.784881   0.000000
    33  C    3.032008   2.625334   0.000000
    34  H    3.316452   2.272764   1.097181   0.000000
    35  H    2.554382   2.543009   1.098121   1.781327   0.000000
    36  H    4.056848   3.699454   1.097570   1.770817   1.779349
    37  C    3.387633   4.034033   2.475463   3.449727   2.733145
    38  H    2.914729   3.972022   2.772148   3.780224   2.575853
    39  H    3.948357   4.689988   3.448532   4.321075   3.777338
    40  H    4.275921   4.761807   2.654913   3.679916   2.980488
    41  H    9.337365   7.959512   9.033351   8.231519   9.787938
    42  H   10.379679   9.455677   7.765843   7.594977   8.811875
                   36         37         38         39         40
    36  H    0.000000
    37  C    2.699601   0.000000
    38  H    3.135868   1.099505   0.000000
    39  H    3.679973   1.096479   1.780149   0.000000
    40  H    2.411835   1.098291   1.778442   1.775208   0.000000
    41  H    9.578388  10.033641  10.687621  10.050912  10.582341
    42  H    7.164654   8.257051   9.295619   8.362137   7.775422
                   41         42
    41  H    0.000000
    42  H    9.093488   0.000000
 Stoichiometry    C16H20BIrN2O2
 Framework group  C1[X(C16H20BIrN2O2)]
 Deg. of freedom   120
 Full point group                 C1      NOp   1
 Largest Abelian subgroup         C1      NOp   1
 Largest concise Abelian subgroup C1      NOp   1
                         Standard orientation:                         
 ---------------------------------------------------------------------
 Center     Atomic      Atomic             Coordinates (Angstroms)
 Number     Number       Type             X           Y           Z
 ---------------------------------------------------------------------
      1          6           0       -3.105996    0.771021    0.092943
      2          6           0       -1.762627    2.660030   -0.041585
      3          6           0       -2.858897    3.501171    0.076609
      4          6           0       -4.126608    2.943170    0.201910
      5          6           0       -4.246935    1.564593    0.222065
      6          6           0       -3.139614   -0.701217    0.132528
      7          6           0       -1.889715   -2.654210    0.091176
      8          6           0       -3.016989   -3.442979    0.266803
      9          6           0       -4.252227   -2.814744    0.368882
     10          6           0       -4.313450   -1.432075    0.303007
     11          1           0       -0.746890    3.046943   -0.110897
     12          1           0       -5.002398    3.580342    0.299634
     13          1           0       -5.226390    1.111400    0.344054
     14          1           0       -0.892901   -3.086300    0.003238
     15          1           0       -5.161612   -3.395803    0.506461
     16          1           0       -5.270561   -0.927743    0.401097
     17          7           0       -1.886349    1.331933   -0.053696
     18          7           0       -1.951751   -1.323276    0.013921
     19         77           0       -0.195148   -0.042326   -0.294681
     20          8           0        2.634353    1.125766   -0.125381
     21          5           0        1.872579   -0.036359   -0.223862
     22          8           0        2.653651   -1.152488   -0.019496
     23          6           0        3.948847    0.773207    0.343029
     24          6           0        4.029831   -0.755390    0.019867
     25          6           0        4.612256   -1.060322   -1.352315
     26          1           0        4.492886   -2.133005   -1.548996
     27          1           0        4.062107   -0.523345   -2.133844
     28          1           0        5.680480   -0.812240   -1.415848
     29          6           0        4.739473   -1.581988    1.075264
     30          1           0        4.737304   -2.637274    0.774605
     31          1           0        5.785647   -1.263077    1.189642
     32          1           0        4.240939   -1.509921    2.049145
     33          6           0        3.990026    1.094292    1.831221
     34          1           0        3.254673    0.508044    2.396352
     35          1           0        4.984113    0.912824    2.261025
     36          1           0        3.744309    2.155159    1.968498
     37          6           0        4.973651    1.628898   -0.376627
     38          1           0        5.993369    1.358859   -0.066522
     39          1           0        4.905332    1.523125   -1.465852
     40          1           0        4.811495    2.686350   -0.128142
     41          1           0       -2.920622   -4.524504    0.323408
     42          1           0       -2.731287    4.563522    0.071474
 ---------------------------------------------------------------------
 Rotational constants (GHZ):           0.4300590           0.1371596           0.1100815
 General basis read from cards:  (5D, 7F)
 ======================================================================================================
                                       Pseudopotential Parameters
 ======================================================================================================
  Center     Atomic      Valence      Angular      Power
  Number     Number     Electrons     Momentum     of R      Exponent        Coefficient   SO-Coeffient
 ======================================================================================================
    1          6
                                   No pseudopotential on this center.
    2          6
                                   No pseudopotential on this center.
    3          6
                                   No pseudopotential on this center.
    4          6
                                   No pseudopotential on this center.
    5          6
                                   No pseudopotential on this center.
    6          6
                                   No pseudopotential on this center.
    7          6
                                   No pseudopotential on this center.
    8          6
                                   No pseudopotential on this center.
    9          6
                                   No pseudopotential on this center.
   10          6
                                   No pseudopotential on this center.
   11          1
                                   No pseudopotential on this center.
   12          1
                                   No pseudopotential on this center.
   13          1
                                   No pseudopotential on this center.
   14          1
                                   No pseudopotential on this center.
   15          1
                                   No pseudopotential on this center.
   16          1
                                   No pseudopotential on this center.
   17          7
                                   No pseudopotential on this center.
   18          7
                                   No pseudopotential on this center.
   19         77           17
                                      G and up 
                                                     1      823.5880147       -0.15780140    0.00000000
                                                     2      364.6613336    -1517.52704460    0.00000000
                                                     2       55.7082801     -316.53065290    0.00000000
                                                     2       12.0464544      -91.88809410    0.00000000
                                                     2        3.5120610       -9.22417730    0.00000000
                                      S - G
                                                     0      188.0490770        3.15780140    0.00000000
                                                     1      340.4194712       26.83225770    0.00000000
                                                     2      128.2373673      800.42500070    0.00000000
                                                     2       33.8644961      369.40506830    0.00000000
                                                     2        4.7560005      242.41718990    0.00000000
                                                     2        3.9649974     -118.21732820    0.00000000
                                      P - G
                                                     0      289.7291139        2.15780140    0.00000000
                                                     1       87.4633789       61.96786100    0.00000000
                                                     2       30.4363766      269.05819860    0.00000000
                                                     2        4.0553412      231.16547930    0.00000000
                                                     2        3.5525341     -133.69526670    0.00000000
                                      D - G
                                                     0      136.4017106        3.15780140    0.00000000
                                                     1       95.0776925       45.93498030    0.00000000
                                                     2       49.2258410      359.03446680    0.00000000
                                                     2       15.0874145      176.47401190    0.00000000
                                                     2        4.0405764       54.51552860    0.00000000
                                      F - G
                                                     0      127.3507908        3.95461970    0.00000000
                                                     1       66.2364374       52.97736550    0.00000000
                                                     2       34.4299229      274.86433830    0.00000000
                                                     2       10.1995721      137.20473380    0.00000000
                                                     2        2.5409702       14.86333050    0.00000000
   20          8
                                   No pseudopotential on this center.
   21          5
                                   No pseudopotential on this center.
   22          8
                                   No pseudopotential on this center.
   23          6
                                   No pseudopotential on this center.
   24          6
                                   No pseudopotential on this center.
   25          6
                                   No pseudopotential on this center.
   26          1
                                   No pseudopotential on this center.
   27          1
                                   No pseudopotential on this center.
   28          1
                                   No pseudopotential on this center.
   29          6
                                   No pseudopotential on this center.
   30          1
                                   No pseudopotential on this center.
   31          1
                                   No pseudopotential on this center.
   32          1
                                   No pseudopotential on this center.
   33          6
                                   No pseudopotential on this center.
   34          1
                                   No pseudopotential on this center.
   35          1
                                   No pseudopotential on this center.
   36          1
                                   No pseudopotential on this center.
   37          6
                                   No pseudopotential on this center.
   38          1
                                   No pseudopotential on this center.
   39          1
                                   No pseudopotential on this center.
   40          1
                                   No pseudopotential on this center.
   41          1
                                   No pseudopotential on this center.
   42          1
                                   No pseudopotential on this center.
 ======================================================================================================
 There are   379 symmetry adapted cartesian basis functions of A   symmetry.
 There are   356 symmetry adapted basis functions of A   symmetry.
   356 basis functions,   711 primitive gaussians,   379 cartesian basis functions
    84 alpha electrons       84 beta electrons
       nuclear repulsion energy      1887.8662676452 Hartrees.
 NAtoms=   42 NActive=   42 NUniq=   42 SFac= 1.00D+00 NAtFMM=   60 NAOKFM=F Big=F
 Integral buffers will be    131072 words long.
 Raffenetti 2 integral format.
 Two-electron integral symmetry is turned on.
 One-electron integrals computed using PRISM.
   1 Symmetry operations used in ECPInt.
 ECPInt:  NShTT=    8778 NPrTT=   54077 LenC2=    7160 LenP2D=   25902.
 LDataN:  DoStor=T MaxTD1= 6 Len=  172
 NBasis=   356 RedAO= T EigKep=  5.70D-04  NBF=   356
 NBsUse=   356 1.00D-06 EigRej= -1.00D+00 NBFU=   356
 Defaulting to unpruned grid for atomic number  77.
 ExpMin= 2.90D-02 ExpMax= 5.48D+03 ExpMxC= 8.25D+02 IAcc=3 IRadAn=         5 AccDes= 0.00D+00
 Harris functional with IExCor= 1009 and IRadAn=       5 diagonalized for initial guess.
 HarFok:  IExCor= 1009 AccDes= 0.00D+00 IRadAn=         5 IDoV= 1 UseB2=F ITyADJ=14
 ICtDFT=  3500011 ScaDFX=  1.000000  1.000000  1.000000  1.000000
 Defaulting to unpruned grid for atomic number  77.
 FoFCou: FMM=F IPFlag=           0 FMFlag=      100000 FMFlg1=           0
         NFxFlg=           0 DoJE=T BraDBF=F KetDBF=T FulRan=T
         wScrn=  0.000000 ICntrl=       500 IOpCl=  0 I1Cent=   200000004 NGrid=           0
         NMat0=    1 NMatS0=      1 NMatT0=    0 NMatD0=    1 NMtDS0=    0 NMtDT0=    0
 Petite list used in FoFCou.
 Requested convergence on RMS density matrix=1.00D-08 within 128 cycles.
 Requested convergence on MAX density matrix=1.00D-06.
 Requested convergence on             energy=1.00D-06.
 No special actions if energy rises.
 Defaulting to unpruned grid for atomic number  77.
 Defaulting to unpruned grid for atomic number  77.
 Defaulting to unpruned grid for atomic number  77.
 Defaulting to unpruned grid for atomic number  77.
 Defaulting to unpruned grid for atomic number  77.
 Defaulting to unpruned grid for atomic number  77.
 Defaulting to unpruned grid for atomic number  77.
 Defaulting to unpruned grid for atomic number  77.
 Defaulting to unpruned grid for atomic number  77.
 Defaulting to unpruned grid for atomic number  77.
 Defaulting to unpruned grid for atomic number  77.
 Defaulting to unpruned grid for atomic number  77.
 Defaulting to unpruned grid for atomic number  77.
 Defaulting to unpruned grid for atomic number  77.
 Defaulting to unpruned grid for atomic number  77.
 Defaulting to unpruned grid for atomic number  77.
 EnCoef did     4 forward-backward iterations
 Restarting incremental Fock formation.
 SCF Done:  E(RM06) =  -1010.60555952     A.U. after   24 cycles
            NFock= 24  Conv=0.38D-08     -V/T= 2.0832

 **********************************************************************

            Population analysis using the SCF Density.

 **********************************************************************

 Orbital symmetries:
       Occupied  (A) (A) (A) (A) (A) (A) (A) (A) (A) (A) (A) (A)
                 (A) (A) (A) (A) (A) (A) (A) (A) (A) (A) (A) (A)
                 (A) (A) (A) (A) (A) (A) (A) (A) (A) (A) (A) (A)
                 (A) (A) (A) (A) (A) (A) (A) (A) (A) (A) (A) (A)
                 (A) (A) (A) (A) (A) (A) (A) (A) (A) (A) (A) (A)
                 (A) (A) (A) (A) (A) (A) (A) (A) (A) (A) (A) (A)
                 (A) (A) (A) (A) (A) (A) (A) (A) (A) (A) (A) (A)
       Virtual   (A) (A) (A) (A) (A) (A) (A) (A) (A) (A) (A) (A)
                 (A) (A) (A) (A) (A) (A) (A) (A) (A) (A) (A) (A)
                 (A) (A) (A) (A) (A) (A) (A) (A) (A) (A) (A) (A)
                 (A) (A) (A) (A) (A) (A) (A) (A) (A) (A) (A) (A)
                 (A) (A) (A) (A) (A) (A) (A) (A) (A) (A) (A) (A)
                 (A) (A) (A) (A) (A) (A) (A) (A) (A) (A) (A) (A)
                 (A) (A) (A) (A) (A) (A) (A) (A) (A) (A) (A) (A)
                 (A) (A) (A) (A) (A) (A) (A) (A) (A) (A) (A) (A)
                 (A) (A) (A) (A) (A) (A) (A) (A) (A) (A) (A) (A)
                 (A) (A) (A) (A) (A) (A) (A) (A) (A) (A) (A) (A)
                 (A) (A) (A) (A) (A) (A) (A) (A) (A) (A) (A) (A)
                 (A) (A) (A) (A) (A) (A) (A) (A) (A) (A) (A) (A)
                 (A) (A) (A) (A) (A) (A) (A) (A) (A) (A) (A) (A)
                 (A) (A) (A) (A) (A) (A) (A) (A) (A) (A) (A) (A)
                 (A) (A) (A) (A) (A) (A) (A) (A) (A) (A) (A) (A)
                 (A) (A) (A) (A) (A) (A) (A) (A) (A) (A) (A) (A)
                 (A) (A) (A) (A) (A) (A) (A) (A) (A) (A) (A) (A)
                 (A) (A) (A) (A) (A) (A) (A) (A) (A) (A) (A) (A)
                 (A) (A) (A) (A) (A) (A) (A) (A) (A) (A) (A) (A)
                 (A) (A) (A) (A) (A) (A) (A) (A) (A) (A) (A) (A)
                 (A) (A) (A) (A) (A) (A) (A) (A) (A) (A) (A) (A)
                 (A) (A) (A) (A) (A) (A) (A) (A) (A) (A) (A) (A)
                 (A) (A) (A) (A) (A) (A) (A) (A)
 The electronic state is 1-A.
 Alpha  occ. eigenvalues --  -19.18455 -19.18218 -14.47066 -14.46814 -10.32669
 Alpha  occ. eigenvalues --  -10.32580 -10.31218 -10.31188 -10.29218 -10.29214
 Alpha  occ. eigenvalues --  -10.29015 -10.28961 -10.28506 -10.28331 -10.27851
 Alpha  occ. eigenvalues --  -10.27790 -10.21484 -10.21473 -10.21103 -10.21077
 Alpha  occ. eigenvalues --   -6.76244  -3.60509  -2.05078  -2.02671  -1.98050
 Alpha  occ. eigenvalues --   -1.04139  -1.01302  -0.98797  -0.97338  -0.85101
 Alpha  occ. eigenvalues --   -0.84278  -0.83710  -0.78942  -0.78267  -0.73476
 Alpha  occ. eigenvalues --   -0.69835  -0.69102  -0.68755  -0.66243  -0.65427
 Alpha  occ. eigenvalues --   -0.64392  -0.59964  -0.58428  -0.54247  -0.54147
 Alpha  occ. eigenvalues --   -0.52939  -0.51762  -0.51667  -0.50622  -0.47855
 Alpha  occ. eigenvalues --   -0.47092  -0.46988  -0.46237  -0.45473  -0.44878
 Alpha  occ. eigenvalues --   -0.44626  -0.43452  -0.42879  -0.41502  -0.41217
 Alpha  occ. eigenvalues --   -0.40087  -0.38830  -0.38818  -0.38241  -0.38090
 Alpha  occ. eigenvalues --   -0.36517  -0.36114  -0.35384  -0.35227  -0.34875
 Alpha  occ. eigenvalues --   -0.34019  -0.33196  -0.33053  -0.32699  -0.30644
 Alpha  occ. eigenvalues --   -0.29919  -0.28545  -0.27491  -0.26147  -0.24448
 Alpha  occ. eigenvalues --   -0.18752  -0.16724  -0.16678  -0.15345
 Alpha virt. eigenvalues --   -0.07892  -0.07019  -0.04471  -0.03631   0.01116
 Alpha virt. eigenvalues --    0.01695   0.02602   0.04208   0.07216   0.09677
 Alpha virt. eigenvalues --    0.09979   0.10903   0.10972   0.12047   0.13391
 Alpha virt. eigenvalues --    0.14280   0.14421   0.15385   0.15861   0.15976
 Alpha virt. eigenvalues --    0.16194   0.16575   0.17210   0.17975   0.18181
 Alpha virt. eigenvalues --    0.18621   0.19356   0.19612   0.19860   0.20165
 Alpha virt. eigenvalues --    0.20896   0.21752   0.22077   0.22938   0.23773
 Alpha virt. eigenvalues --    0.24243   0.24703   0.25278   0.26224   0.27177
 Alpha virt. eigenvalues --    0.27725   0.27871   0.28299   0.29050   0.29342
 Alpha virt. eigenvalues --    0.30448   0.33315   0.33463   0.35669   0.35702
 Alpha virt. eigenvalues --    0.36987   0.38053   0.42751   0.44136   0.45446
 Alpha virt. eigenvalues --    0.45852   0.46342   0.47515   0.48651   0.50696
 Alpha virt. eigenvalues --    0.50879   0.52102   0.52393   0.52739   0.53926
 Alpha virt. eigenvalues --    0.53975   0.54729   0.55736   0.57437   0.57573
 Alpha virt. eigenvalues --    0.57995   0.58238   0.58507   0.58874   0.59103
 Alpha virt. eigenvalues --    0.59816   0.60160   0.60334   0.60891   0.61313
 Alpha virt. eigenvalues --    0.61740   0.62067   0.62872   0.63219   0.63602
 Alpha virt. eigenvalues --    0.64692   0.65526   0.67331   0.68801   0.69615
 Alpha virt. eigenvalues --    0.70015   0.71022   0.71364   0.72446   0.73210
 Alpha virt. eigenvalues --    0.74246   0.75437   0.76611   0.77524   0.78024
 Alpha virt. eigenvalues --    0.78422   0.78917   0.79253   0.81387   0.81859
 Alpha virt. eigenvalues --    0.82594   0.83596   0.84526   0.85349   0.85817
 Alpha virt. eigenvalues --    0.86211   0.86471   0.86568   0.87884   0.88527
 Alpha virt. eigenvalues --    0.89830   0.89965   0.91160   0.91490   0.91590
 Alpha virt. eigenvalues --    0.92623   0.92778   0.93421   0.94507   0.95259
 Alpha virt. eigenvalues --    0.95598   0.95890   0.96203   0.96725   0.97638
 Alpha virt. eigenvalues --    0.99245   1.00973   1.02044   1.03271   1.03505
 Alpha virt. eigenvalues --    1.07018   1.07175   1.09799   1.10200   1.11433
 Alpha virt. eigenvalues --    1.12222   1.14108   1.15478   1.16311   1.18775
 Alpha virt. eigenvalues --    1.19673   1.20792   1.21469   1.23058   1.23687
 Alpha virt. eigenvalues --    1.24572   1.25360   1.26868   1.28667   1.32156
 Alpha virt. eigenvalues --    1.32923   1.34795   1.35615   1.38695   1.38940
 Alpha virt. eigenvalues --    1.40083   1.42959   1.43284   1.44442   1.44722
 Alpha virt. eigenvalues --    1.45436   1.45896   1.47478   1.48120   1.49317
 Alpha virt. eigenvalues --    1.50178   1.50808   1.56026   1.56448   1.57000
 Alpha virt. eigenvalues --    1.63852   1.65020   1.67898   1.69503   1.69688
 Alpha virt. eigenvalues --    1.70615   1.72483   1.73210   1.75647   1.76569
 Alpha virt. eigenvalues --    1.78491   1.79881   1.80370   1.81809   1.82218
 Alpha virt. eigenvalues --    1.82972   1.84589   1.85276   1.86050   1.86874
 Alpha virt. eigenvalues --    1.90467   1.90903   1.91731   1.91887   1.94791
 Alpha virt. eigenvalues --    1.94980   1.96320   1.97909   2.02352   2.02850
 Alpha virt. eigenvalues --    2.04582   2.06357   2.06783   2.08272   2.09005
 Alpha virt. eigenvalues --    2.09714   2.10937   2.11285   2.11496   2.12612
 Alpha virt. eigenvalues --    2.14907   2.15645   2.15737   2.15825   2.16022
 Alpha virt. eigenvalues --    2.18145   2.19959   2.20376   2.22390   2.23160
 Alpha virt. eigenvalues --    2.24721   2.25629   2.26632   2.27267   2.27757
 Alpha virt. eigenvalues --    2.29013   2.30366   2.32305   2.32774   2.34736
 Alpha virt. eigenvalues --    2.37404   2.38902   2.45502   2.45736   2.46649
 Alpha virt. eigenvalues --    2.47393   2.49710   2.50513   2.53866   2.57927
 Alpha virt. eigenvalues --    2.58135   2.60451   2.61519   2.63864   2.64263
 Alpha virt. eigenvalues --    2.64876   2.65891   2.67970   2.70380   2.73291
 Alpha virt. eigenvalues --    2.76969   2.77058   2.77780   2.80292   2.81525
 Alpha virt. eigenvalues --    2.82949   2.85108   2.89578   2.91581   2.95387
 Alpha virt. eigenvalues --    2.96154   3.01775   3.11666   3.23119   3.28413
 Alpha virt. eigenvalues --    3.43421   6.31872
          Condensed to atoms (all electrons):
               1          2          3          4          5          6
     1  C    4.720473  -0.054688  -0.025899  -0.005470   0.541794   0.357550
     2  C   -0.054688   4.786459   0.523611  -0.016064  -0.042288   0.004864
     3  C   -0.025899   0.523611   4.907280   0.523024  -0.029960   0.001007
     4  C   -0.005470  -0.016064   0.523024   4.869740   0.508380   0.005665
     5  C    0.541794  -0.042288  -0.029960   0.508380   5.010739  -0.067057
     6  C    0.357550   0.004864   0.001007   0.005665  -0.067057   4.710143
     7  C    0.004857   0.000009  -0.000000   0.000003  -0.000133  -0.054134
     8  C    0.001056  -0.000000   0.000000  -0.000000  -0.000044  -0.026056
     9  C    0.005603   0.000003  -0.000000  -0.000010   0.000796  -0.004869
    10  C   -0.068331  -0.000127  -0.000049   0.000817  -0.012840   0.542683
    11  H    0.003592   0.367803  -0.040738   0.002489   0.000989  -0.000249
    12  H    0.002611   0.004221  -0.037584   0.365420  -0.035276  -0.000147
    13  H   -0.034608   0.000037   0.004868  -0.039058   0.354811  -0.010681
    14  H   -0.000247   0.000000   0.000000  -0.000000   0.000001   0.003745
    15  H   -0.000152  -0.000000  -0.000000  -0.000000   0.000007   0.002675
    16  H   -0.010657  -0.000003   0.000002   0.000328   0.002672  -0.034717
    17  N    0.294637   0.446250  -0.026807  -0.040767  -0.066979  -0.008775
    18  N   -0.011223  -0.000035  -0.000048  -0.000127   0.007239   0.299157
    19  Ir  -0.043162  -0.033455   0.006723  -0.001057   0.005018  -0.043049
    20  O   -0.000001  -0.000051  -0.000000   0.000000  -0.000000   0.000000
    21  B    0.000179   0.000437   0.000038  -0.000005   0.000006   0.000131
    22  O    0.000000   0.000000   0.000000   0.000000   0.000000  -0.000000
    23  C    0.000000   0.000001   0.000000  -0.000000   0.000000  -0.000000
    24  C    0.000000   0.000000   0.000000  -0.000000   0.000000   0.000000
    25  C    0.000000  -0.000000  -0.000000   0.000000   0.000000  -0.000000
    26  H    0.000000  -0.000000  -0.000000   0.000000   0.000000   0.000000
    27  H    0.000000   0.000000   0.000000  -0.000000   0.000000  -0.000000
    28  H   -0.000000   0.000000   0.000000  -0.000000   0.000000   0.000000
    29  C    0.000000   0.000000   0.000000  -0.000000   0.000000  -0.000000
    30  H    0.000000  -0.000000  -0.000000   0.000000   0.000000   0.000000
    31  H   -0.000000  -0.000000   0.000000  -0.000000  -0.000000   0.000000
    32  H   -0.000000  -0.000000  -0.000000   0.000000  -0.000000  -0.000000
    33  C    0.000000  -0.000000  -0.000000   0.000000  -0.000000   0.000000
    34  H   -0.000000  -0.000000  -0.000000  -0.000000  -0.000000   0.000000
    35  H   -0.000000  -0.000000   0.000000  -0.000000   0.000000  -0.000000
    36  H    0.000000  -0.000000  -0.000000   0.000000  -0.000000   0.000000
    37  C   -0.000000  -0.000000   0.000000   0.000000  -0.000000   0.000000
    38  H    0.000000   0.000000   0.000000  -0.000000   0.000000  -0.000000
    39  H    0.000000   0.000000   0.000000   0.000000  -0.000000  -0.000000
    40  H    0.000000  -0.000000  -0.000000   0.000000  -0.000000   0.000000
    41  H    0.000009   0.000000   0.000000  -0.000000  -0.000000   0.000383
    42  H    0.000379  -0.038510   0.369634  -0.037504   0.004997   0.000008
               7          8          9         10         11         12
     1  C    0.004857   0.001056   0.005603  -0.068331   0.003592   0.002611
     2  C    0.000009  -0.000000   0.000003  -0.000127   0.367803   0.004221
     3  C   -0.000000   0.000000  -0.000000  -0.000049  -0.040738  -0.037584
     4  C    0.000003  -0.000000  -0.000010   0.000817   0.002489   0.365420
     5  C   -0.000133  -0.000044   0.000796  -0.012840   0.000989  -0.035276
     6  C   -0.054134  -0.026056  -0.004869   0.542683  -0.000249  -0.000147
     7  C    4.783746   0.526519  -0.017200  -0.041659   0.000000  -0.000000
     8  C    0.526519   4.905154   0.523879  -0.031079   0.000000  -0.000000
     9  C   -0.017200   0.523879   4.870539   0.509580  -0.000000  -0.000000
    10  C   -0.041659  -0.031079   0.509580   5.010600   0.000001   0.000007
    11  H    0.000000   0.000000  -0.000000   0.000001   0.476596  -0.000134
    12  H   -0.000000  -0.000000  -0.000000   0.000007  -0.000134   0.525821
    13  H   -0.000002   0.000002   0.000331   0.002558   0.000022  -0.004868
    14  H    0.366612  -0.040635   0.002491   0.001036   0.000000   0.000000
    15  H    0.004202  -0.037434   0.364932  -0.035352   0.000000   0.000000
    16  H    0.000018   0.004835  -0.038981   0.354592   0.000000  -0.000001
    17  N   -0.000045  -0.000041  -0.000131   0.007312  -0.035220   0.000004
    18  N    0.449844  -0.027456  -0.040866  -0.068372  -0.000024   0.000001
    19  Ir  -0.034652   0.006636  -0.001246   0.004948   0.000636   0.000159
    20  O    0.000000   0.000000   0.000000   0.000000  -0.000051   0.000000
    21  B    0.000329   0.000026  -0.000004   0.000004   0.000549  -0.000000
    22  O   -0.000020  -0.000000   0.000000  -0.000000  -0.000000  -0.000000
    23  C    0.000000   0.000000  -0.000000   0.000000   0.000006  -0.000000
    24  C    0.000001   0.000000  -0.000000   0.000000   0.000000  -0.000000
    25  C   -0.000000  -0.000000   0.000000  -0.000000  -0.000000   0.000000
    26  H   -0.000000  -0.000000   0.000000   0.000000   0.000000   0.000000
    27  H   -0.000000   0.000000  -0.000000  -0.000000  -0.000000  -0.000000
    28  H    0.000000   0.000000  -0.000000   0.000000  -0.000000  -0.000000
    29  C    0.000000   0.000000  -0.000000  -0.000000  -0.000000  -0.000000
    30  H   -0.000000  -0.000000   0.000000  -0.000000   0.000000   0.000000
    31  H    0.000000   0.000000  -0.000000   0.000000   0.000000   0.000000
    32  H   -0.000000  -0.000000   0.000000   0.000000   0.000000   0.000000
    33  C   -0.000000  -0.000000   0.000000   0.000000  -0.000001   0.000000
    34  H    0.000000   0.000000  -0.000000   0.000000  -0.000000  -0.000000
    35  H   -0.000000   0.000000  -0.000000  -0.000000   0.000000  -0.000000
    36  H   -0.000000  -0.000000   0.000000   0.000000  -0.000001   0.000000
    37  C    0.000000   0.000000  -0.000000   0.000000  -0.000000   0.000000
    38  H   -0.000000   0.000000  -0.000000  -0.000000   0.000000  -0.000000
    39  H   -0.000000  -0.000000   0.000000  -0.000000  -0.000000   0.000000
    40  H   -0.000000  -0.000000   0.000000   0.000000  -0.000000   0.000000
    41  H   -0.037807   0.367181  -0.035708   0.004534   0.000000  -0.000000
    42  H    0.000000   0.000000  -0.000000  -0.000000  -0.002287  -0.004826
              13         14         15         16         17         18
     1  C   -0.034608  -0.000247  -0.000152  -0.010657   0.294637  -0.011223
     2  C    0.000037   0.000000  -0.000000  -0.000003   0.446250  -0.000035
     3  C    0.004868   0.000000  -0.000000   0.000002  -0.026807  -0.000048
     4  C   -0.039058  -0.000000  -0.000000   0.000328  -0.040767  -0.000127
     5  C    0.354811   0.000001   0.000007   0.002672  -0.066979   0.007239
     6  C   -0.010681   0.003745   0.002675  -0.034717  -0.008775   0.299157
     7  C   -0.000002   0.366612   0.004202   0.000018  -0.000045   0.449844
     8  C    0.000002  -0.040635  -0.037434   0.004835  -0.000041  -0.027456
     9  C    0.000331   0.002491   0.364932  -0.038981  -0.000131  -0.040866
    10  C    0.002558   0.001036  -0.035352   0.354592   0.007312  -0.068372
    11  H    0.000022   0.000000   0.000000   0.000000  -0.035220  -0.000024
    12  H   -0.004868   0.000000   0.000000  -0.000001   0.000004   0.000001
    13  H    0.545693   0.000000  -0.000000   0.004923   0.004112   0.000025
    14  H    0.000000   0.482140  -0.000137   0.000023  -0.000029  -0.036431
    15  H   -0.000000  -0.000137   0.527024  -0.005004   0.000001   0.000032
    16  H    0.004923   0.000023  -0.005004   0.546332   0.000025   0.004194
    17  N    0.004112  -0.000029   0.000001   0.000025   6.892523  -0.022542
    18  N    0.000025  -0.036431   0.000032   0.004194  -0.022542   6.892739
    19  Ir  -0.000696   0.001713   0.000159  -0.000673   0.115996   0.110422
    20  O   -0.000000  -0.000000  -0.000000  -0.000000   0.000057   0.000001
    21  B    0.000000   0.000594  -0.000000   0.000000  -0.010343  -0.009918
    22  O   -0.000000  -0.000084   0.000000  -0.000000   0.000001   0.000042
    23  C    0.000000   0.000000  -0.000000   0.000000  -0.000003  -0.000001
    24  C    0.000000   0.000004  -0.000000   0.000000  -0.000001  -0.000002
    25  C   -0.000000  -0.000000   0.000000  -0.000000   0.000000   0.000000
    26  H   -0.000000  -0.000000   0.000000  -0.000000   0.000000   0.000000
    27  H    0.000000  -0.000000   0.000000   0.000000  -0.000000  -0.000000
    28  H    0.000000   0.000000  -0.000000   0.000000  -0.000000  -0.000000
    29  C    0.000000  -0.000000   0.000000  -0.000000  -0.000000   0.000000
    30  H   -0.000000  -0.000000   0.000000  -0.000000   0.000000   0.000000
    31  H    0.000000   0.000000  -0.000000   0.000000  -0.000000  -0.000000
    32  H   -0.000000  -0.000000   0.000000  -0.000000   0.000000   0.000000
    33  C   -0.000000  -0.000000   0.000000  -0.000000   0.000000   0.000000
    34  H   -0.000000  -0.000000  -0.000000   0.000000  -0.000000  -0.000000
    35  H    0.000000   0.000000  -0.000000   0.000000  -0.000000  -0.000000
    36  H   -0.000000   0.000000   0.000000  -0.000000   0.000000   0.000000
    37  C   -0.000000   0.000000  -0.000000   0.000000   0.000000  -0.000000
    38  H    0.000000   0.000000   0.000000   0.000000  -0.000000  -0.000000
    39  H   -0.000000  -0.000000   0.000000  -0.000000   0.000000   0.000000
    40  H   -0.000000  -0.000000   0.000000  -0.000000   0.000000   0.000000
    41  H   -0.000000  -0.002179  -0.004513  -0.000124  -0.000000   0.003826
    42  H   -0.000138   0.000000  -0.000000  -0.000000   0.004021  -0.000000
              19         20         21         22         23         24
     1  C   -0.043162  -0.000001   0.000179   0.000000   0.000000   0.000000
     2  C   -0.033455  -0.000051   0.000437   0.000000   0.000001   0.000000
     3  C    0.006723  -0.000000   0.000038   0.000000   0.000000   0.000000
     4  C   -0.001057   0.000000  -0.000005   0.000000  -0.000000  -0.000000
     5  C    0.005018  -0.000000   0.000006   0.000000   0.000000   0.000000
     6  C   -0.043049   0.000000   0.000131  -0.000000  -0.000000   0.000000
     7  C   -0.034652   0.000000   0.000329  -0.000020   0.000000   0.000001
     8  C    0.006636   0.000000   0.000026  -0.000000   0.000000   0.000000
     9  C   -0.001246   0.000000  -0.000004   0.000000  -0.000000  -0.000000
    10  C    0.004948   0.000000   0.000004  -0.000000   0.000000   0.000000
    11  H    0.000636  -0.000051   0.000549  -0.000000   0.000006   0.000000
    12  H    0.000159   0.000000  -0.000000  -0.000000  -0.000000  -0.000000
    13  H   -0.000696  -0.000000   0.000000  -0.000000   0.000000   0.000000
    14  H    0.001713  -0.000000   0.000594  -0.000084   0.000000   0.000004
    15  H    0.000159  -0.000000  -0.000000   0.000000  -0.000000  -0.000000
    16  H   -0.000673  -0.000000   0.000000  -0.000000   0.000000   0.000000
    17  N    0.115996   0.000057  -0.010343   0.000001  -0.000003  -0.000001
    18  N    0.110422   0.000001  -0.009918   0.000042  -0.000001  -0.000002
    19  Ir  16.557646  -0.012476   0.321575  -0.012062   0.008332   0.010325
    20  O   -0.012476   8.131386   0.351938  -0.042162   0.238556  -0.062044
    21  B    0.321575   0.351938   3.799392   0.369280  -0.054164  -0.057145
    22  O   -0.012062  -0.042162   0.369280   8.106806  -0.060679   0.234290
    23  C    0.008332   0.238556  -0.054164  -0.060679   4.743655   0.370916
    24  C    0.010325  -0.062044  -0.057145   0.234290   0.370916   4.752386
    25  C    0.000226  -0.000640   0.004085  -0.062494  -0.053844   0.354938
    26  H    0.001241  -0.000077  -0.000777  -0.000019   0.004949  -0.023015
    27  H    0.000393   0.002412   0.004581  -0.002554  -0.005044  -0.026094
    28  H   -0.000298   0.000077  -0.000231   0.003825  -0.004721  -0.021495
    29  C   -0.002246   0.003472   0.000843  -0.052113  -0.051009   0.361086
    30  H    0.000803  -0.000077  -0.000275  -0.001064   0.004734  -0.023062
    31  H    0.000062   0.000037  -0.000080   0.003315  -0.001864  -0.028832
    32  H    0.000069   0.000000   0.000940  -0.000527  -0.009118  -0.019915
    33  C    0.000239  -0.061349   0.005066  -0.000352   0.352394  -0.050595
    34  H    0.000495  -0.002009   0.004242   0.002042  -0.025588  -0.005137
    35  H   -0.000256   0.003749  -0.000303   0.000069  -0.022159  -0.004444
    36  H    0.001488  -0.000214  -0.000858  -0.000087  -0.022626   0.004763
    37  C   -0.002090  -0.050120   0.000462   0.003394   0.362298  -0.050827
    38  H    0.000017   0.003298  -0.000037   0.000028  -0.028546  -0.001663
    39  H   -0.000023  -0.000359   0.000961   0.000009  -0.020229  -0.009440
    40  H    0.000816  -0.001179  -0.000316  -0.000073  -0.023017   0.004675
    41  H   -0.000001  -0.000000   0.000001  -0.000000   0.000000   0.000000
    42  H   -0.000057  -0.000000   0.000001  -0.000000   0.000000   0.000000
              25         26         27         28         29         30
     1  C    0.000000   0.000000   0.000000  -0.000000   0.000000   0.000000
     2  C   -0.000000  -0.000000   0.000000   0.000000   0.000000  -0.000000
     3  C   -0.000000  -0.000000   0.000000   0.000000   0.000000  -0.000000
     4  C    0.000000   0.000000  -0.000000  -0.000000  -0.000000   0.000000
     5  C    0.000000   0.000000   0.000000   0.000000   0.000000   0.000000
     6  C   -0.000000   0.000000  -0.000000   0.000000  -0.000000   0.000000
     7  C   -0.000000  -0.000000  -0.000000   0.000000   0.000000  -0.000000
     8  C   -0.000000  -0.000000   0.000000   0.000000   0.000000  -0.000000
     9  C    0.000000   0.000000  -0.000000  -0.000000  -0.000000   0.000000
    10  C   -0.000000   0.000000  -0.000000   0.000000  -0.000000  -0.000000
    11  H   -0.000000   0.000000  -0.000000  -0.000000  -0.000000   0.000000
    12  H    0.000000   0.000000  -0.000000  -0.000000  -0.000000   0.000000
    13  H   -0.000000  -0.000000   0.000000   0.000000   0.000000  -0.000000
[...]
 1359,0.00012873,0.00006816,-0.00244231,0.00139824,0.00087391,0.0008293
 9,-0.00079882,-0.00063088,-0.00030089,0.00016326,0.00058425,0.00255860
 ,0.00199504,-0.00490401,-0.00024518,0.00008705,-0.00066774,-0.00033289
 ,0.00001738,0.00000115,-0.00001153,0.00003340,0.00006017,0.00010006,-0
 .00013845,-0.00001295,0.00019614,-0.00032364,0.00005504,0.00007180,0.0
 0010340,-0.00002176,-0.00000255,-0.00006379,0.00009017,0.00026375,-0.0
 0015202,0.00008091,0.00000747,-0.00003812,0.00000942,0.00034824,0.0002
 8788,-0.00025018,-0.00008651,-0.00023898,0.00021288,-0.00039055,-0.000
 40136,0.00033591,-0.00006345,0.00012970,0.00007917,-0.00440130,0.12230
 469,-0.22583410,0.00481414,-0.13516022,0.24331022,-0.00000051,-0.00001
 835,0.00000490,-0.00001243,0.00001929,-0.00000948,0.00000546,0.0000001
 6,-0.00000860,0.00000322,-0.00000419,0.00000822,-0.00000460,0.00000098
 ,0.00000161,-0.00001358,0.00000261,0.00000677,0.00000154,-0.00000649,0
 .00000303,0.00000094,0.00000352,-0.00000447,-0.00000121,0.00000042,0.0
 0000646,0.00000499,-0.00000326,0.00000033,-0.00003590,-0.00001635,-0.0
 0001514,-0.00000114,-0.00000105,0.00000181,-0.00000044,-0.00000192,0.0
 0000050,-0.00000205,-0.00000032,-0.00000191,-0.00000042,-0.00000132,0.
 00000048,-0.00000150,-0.00000043,0.00000075,0.00005563,0.00001004,-0.0
 0001562,0.00000053,0.00001469,-0.00000752,0.00002782,-0.00004256,0.000
 05919,0.00353137,0.00004136,0.00135090,-0.00036067,-0.00004752,-0.0000
 6542,0.00044036,0.00041506,0.00029352,-0.01858730,-0.02634616,-0.00279
 125,0.00033328,-0.00149675,-0.00116486,-0.00025922,0.00000986,0.000436
 28,0.00048123,0.00007303,-0.00016186,-0.00008699,0.00107485,0.00015609
 ,0.00003777,0.00004307,0.00049299,0.00016179,0.00005036,0.00004101,-0.
 00003691,0.00005379,0.00006766,-0.00001706,-0.00001854,-0.00004899,0.0
 0015332,0.00006448,-0.00010099,-0.00562240,0.00377148,-0.00091881,-0.0
 0117177,-0.00152570,-0.00080017,0.00030024,0.00021877,0.00025148,0.000
 17484,0.00007854,-0.00013399,-0.15362077,-0.13004145,-0.01948705,0.000
 74629,0.00249739,0.00039225,0.16637461,-0.00001346,0.00002182,-0.00001
 925,0.00003999,-0.00002112,-0.00002054,-0.00001367,0.00001195,0.000031
 94,0.00000246,0.00001511,-0.00002660,0.00000864,-0.00000925,-0.0000022
 4,0.00000972,-0.00000736,-0.00001104,-0.00000220,0.00001028,-0.0000140
 1,-0.00000072,-0.00000393,0.00001070,0.00000392,0.00000133,-0.00001234
 ,-0.00000468,0.00000695,-0.00000061,-0.00003679,-0.00002278,0.00003538
 ,-0.00000145,-0.00000041,-0.00000458,-0.00000107,0.00000061,-0.0000019
 3,-0.00000002,-0.00000238,0.00000234,-0.00000078,0.00000097,-0.0000015
 6,0.00000019,-0.00000011,-0.00000326,-0.00004745,0.00002875,0.00007115
 ,0.00000231,0.00000685,-0.00000257,-0.00003646,0.00002970,-0.00003681,
 -0.00063321,0.00159924,-0.00080732,0.00028940,-0.00013403,-0.00000343,
 -0.00015827,0.00025904,-0.00004148,0.00682280,0.00816277,0.00210847,-0
 .00059567,-0.00022559,-0.00022942,0.00133738,-0.00107184,-0.00179402,0
 .00046933,-0.00003750,0.00015683,0.00075343,-0.00118381,-0.00099412,0.
 00017030,-0.00050797,0.00012411,-0.00004957,0.00003350,0.00003207,-0.0
 0003789,0.00004521,0.00002542,-0.00001047,0.00000561,-0.00006031,-0.00
 000819,-0.00001499,0.00001571,0.00131557,-0.00003702,0.00035207,0.0003
 6114,0.00050525,0.00015906,0.00023680,0.00009785,-0.00013423,0.0001395
 3,-0.00000526,0.00020462,-0.13286243,-0.20946824,-0.02404714,-0.009262
 28,-0.01165948,-0.00398883,0.14195208,0.22572572,-0.00000289,0.0000037
 4,-0.00002182,0.00004754,0.00000903,-0.00005749,-0.00000272,0.00000032
 ,0.00004492,0.00000628,0.00001088,-0.00002901,0.00000526,-0.00001067,0
 .00000712,-0.00000824,0.00000020,0.00000759,-0.00000573,-0.00000069,0.
 00001185,0.00000256,0.00000185,-0.00000583,-0.00000079,0.00000113,0.00
 000316,0.00000650,-0.00000357,-0.00000035,-0.00007688,-0.00001726,-0.0
 0006000,-0.00000285,-0.00000207,0.00000150,0.00000117,-0.00000283,0.00
 000093,0.00000029,0.00000168,-0.00000356,0.00000019,-0.00000141,0.0000
 0077,-0.00000188,0.00000099,-0.00000078,-0.00004677,0.00002335,0.00006
 752,-0.00001413,-0.00000217,0.00000154,0.00012720,-0.00004191,-0.00001
 035,0.00112661,-0.00091886,0.00038259,-0.00060327,0.00028769,0.0005115
 8,-0.00013589,0.00005199,-0.00065733,-0.00412084,-0.00437184,-0.002599
 56,0.00059097,0.00041730,0.00018470,0.00081304,-0.00096914,-0.00033971
 ,-0.00007071,0.00012967,-0.00010471,0.00035826,-0.00036980,0.00000286,
 0.00043889,-0.00021778,-0.00090730,-0.00001365,-0.00000033,-0.00022963
 ,0.00009468,-0.00001539,0.00004880,0.00004809,-0.00002833,0.00011611,0
 .00000495,-0.00004630,-0.00000366,-0.00167102,0.00086053,-0.00005642,-
 0.00047092,-0.00041664,0.00036781,0.00000704,-0.00028155,0.00009386,0.
 00021234,0.00028975,0.00035271,-0.01938890,-0.02489755,-0.05003592,0.0
 1748206,0.01985908,0.00444294,0.02139689,0.02901243,0.05045104,-0.0000
 0067,0.00002316,-0.00003171,0.00003948,-0.00001975,-0.00008464,-0.0000
 2313,-0.00001048,0.00005430,-0.00000167,0.00001902,-0.00004252,0.00001
 187,-0.00001368,0.00000105,0.00001422,-0.00001553,-0.00000122,-0.00001
 192,0.00001969,-0.00001490,-0.00000381,-0.00000445,0.00001074,0.000005
 40,-0.00000040,-0.00001354,-0.00000688,0.00000727,-0.00000233,-0.00001
 014,0.00006998,-0.00001140,0.00000211,0.00000064,0.00000070,0.00000181
 ,0.00000039,-0.00000208,0.00000179,0.00000041,-0.00000027,0.00000033,0
 .00000111,-0.00000125,0.00000094,0.00000113,-0.00000236,-0.00009825,0.
 00005867,0.00008732,-0.00002208,0.00002891,0.00002712,0.00014609,-0.00
 021915,0.00002025,0.00239724,-0.00255828,-0.00015363,-0.00070639,0.000
 02210,0.00129923,-0.00160058,0.00264800,-0.00052758,-0.01284977,0.0183
 6910,0.02669265,-0.00328647,-0.00098467,-0.00410299,-0.00006406,-0.000
 51517,-0.00068995,0.00029135,0.00004140,0.00008572,0.00000491,0.000231
 14,-0.00014155,0.00008384,-0.00020441,0.00030887,0.00009939,0.00043676
 ,0.00015750,-0.00012295,-0.00009567,0.00021937,0.00002950,-0.00006112,
 0.00003792,-0.00005863,0.00002453,-0.00000346,0.00118098,0.00089718,0.
 00131847,0.00049632,-0.00000473,-0.00019436,-0.00008910,-0.00015812,0.
 00004245,-0.00073287,-0.00043241,-0.00086353,-0.07308618,0.04620752,0.
 06484949,-0.00067498,-0.00104057,-0.00117348,0.00700582,-0.01013079,-0
 .01612916,0.08162027,0.00000485,-0.00002871,0.00004969,-0.00008046,0.0
 0001763,0.00014389,0.00004698,-0.00001500,-0.00011204,-0.00001318,-0.0
 0002581,0.00007718,-0.00001899,0.00002797,-0.00001186,-0.00000116,0.00
 000388,-0.00000410,0.00001004,-0.00001095,-0.00000108,-0.00000095,0.00
 000378,-0.00000165,-0.00000147,-0.00000240,0.00000901,-0.00000266,0.00
 000183,0.00000245,0.00010851,-0.00009549,0.00005545,0.00000241,0.00000
 042,-0.00000066,-0.00000332,0.00000408,-0.00000016,-0.00000163,-0.0000
 0094,0.00000245,-0.00000055,0.00000049,0.00000007,0.00000127,-0.000002
 75,0.00000375,0.00012342,-0.00004416,-0.00018508,0.00000907,-0.0000151
 1,-0.00000964,-0.00010749,0.00011001,0.00006873,-0.00129351,0.00110623
 ,0.00012737,0.00042330,-0.00012450,-0.00089074,0.00077667,-0.00092034,
 0.00081889,0.00371790,-0.00733433,-0.00926580,0.00045163,0.00061349,0.
 00105837,0.00051730,-0.00010048,-0.00001409,0.00018112,0.00002482,-0.0
 0006734,-0.00009058,0.00033392,-0.00010787,-0.00004750,-0.00010345,0.0
 0017326,0.00020678,-0.00034310,-0.00002336,0.00006114,0.00008440,-0.00
 011930,-0.00000275,0.00008678,-0.00008847,0.00001489,0.00009643,-0.000
 00726,-0.00143498,0.00034434,0.00007674,-0.00009519,-0.00013192,0.0002
 3972,0.00006350,-0.00002249,0.00020895,-0.00018534,0.00062799,0.000148
 96,0.04690046,-0.12928398,-0.11392790,-0.00676374,0.01125808,0.0146385
 4,0.00918059,-0.01214598,-0.01832812,-0.05264482,0.13599091,0.00001604
 ,-0.00003238,0.00002358,-0.00004774,0.00003166,0.00003672,0.00002139,-
 0.00001051,-0.00003405,0.00000145,-0.00001836,0.00003402,-0.00001171,0
 .00001078,0.00000469,-0.00001558,0.00001099,0.00001314,0.00000429,-0.0
 0001444,0.00001957,0.00000223,0.00000417,-0.00001413,-0.00000614,-0.00
 000080,0.00001595,0.00000814,-0.00001059,0.00000133,0.00001870,0.00002
 391,-0.00008005,-0.00000067,-0.00000217,0.00000681,0.00000087,-0.00000
 271,0.00000244,-0.00000075,0.00000182,-0.00000347,0.00000070,-0.000002
 18,0.00000222,-0.00000170,-0.00000041,0.00000422,0.00006910,-0.0000278
 1,-0.00008453,0.00001480,-0.00001271,0.00000835,-0.00001577,-0.0000142
 7,0.00002236,0.00076417,-0.00100201,0.00135173,-0.00015372,0.00014672,
 -0.00002979,-0.00017381,0.00031259,0.00048751,-0.00279181,0.00394737,0
 .00384988,-0.00148337,0.00048960,-0.00008781,-0.00008913,0.00013808,-0
 .00048487,0.00010535,-0.00006812,0.00011709,-0.00002924,-0.00002446,0.
 00002902,0.00021553,-0.00013326,0.00034228,-0.00011745,0.00012836,0.00
 006717,0.00000409,-0.00001092,0.00004600,-0.00005636,-0.00009299,0.000
 10778,0.00010161,-0.00000961,0.00002095,-0.00053188,0.00041458,0.00046
 214,-0.00003923,0.00022427,0.00019510,0.00020011,-0.00009629,-0.000107
 42,0.00000097,0.00015995,0.00020960,0.06641472,-0.11404559,-0.20322639
 ,0.00784721,-0.01555018,-0.01793714,0.00076821,-0.00007636,-0.00195841
 ,-0.07101512,0.12521443,0.21656552,-0.00072183,-0.00066727,-0.00029043
 ,-0.00001608,-0.00000305,-0.00001623,-0.00001063,-0.00000336,-0.000011
 13,-0.00002007,-0.00002170,-0.00000994,-0.00000439,0.00002755,0.000037
 34,0.00023335,-0.00055695,-0.00030874,-0.00407101,0.00300312,0.0042620
 0,-0.17988647,0.14332048,0.05581653,-0.00446765,0.00766444,0.00047206,
 0.00381226,0.00205685,0.00341308,0.00000506,-0.00000192,0.00000224,0.0
 0000137,0.00000722,0.00000736,0.00006214,0.00003656,-0.00000946,-0.001
 51126,-0.00153483,-0.00086157,-0.00156494,-0.00192690,-0.00100869,-0.0
 0013331,0.00047637,-0.00001483,0.00004883,0.00001598,-0.00005868,0.004
 63867,0.00441725,0.00017706,-0.00025737,-0.00024126,0.00017047,-0.0000
 7312,0.00010665,-0.00008756,0.00025184,0.00000012,0.00018217,-0.000054
 77,0.00008955,-0.00018039,-0.00000679,-0.00004382,0.00003735,0.0000307
 0,-0.00003859,0.00002981,-0.00001143,0.00001181,-0.00000855,0.00000431
 ,-0.00000168,-0.00000204,0.00000280,0.00000250,0.00000425,-0.00000773,
 -0.00000054,-0.00000720,-0.00000741,0.00000249,-0.00000421,0.00000294,
 -0.00000243,-0.00000313,-0.00000043,0.00000554,-0.00000515,-0.00000043
 ,-0.00000139,0.00000220,0.00000223,0.00000492,-0.00000713,-0.00000376,
 -0.00000420,0.00000158,0.00000061,0.00000751,-0.00000427,-0.00000006,-
 0.00000245,0.00000143,0.00000280,0.00000767,-0.00000601,-0.00000384,0.
 00000472,-0.00000505,-0.00000013,-0.00000224,0.00000126,-0.00000120,-0
 .00000033,0.00000236,0.18372308,-0.00065918,-0.00044139,-0.00039655,-0
 .00000133,-0.00002208,-0.00000815,-0.00001562,-0.00001012,0.00002040,-
 0.00001586,0.00000010,-0.00004931,0.00004788,-0.00002392,0.00000459,-0
 .00073454,-0.00003330,0.00105883,0.01279725,-0.00972585,-0.01012447,0.
 14313562,-0.17990909,-0.04521700,-0.00172873,0.00359628,0.00138463,0.0
 0221021,0.00363016,0.00157988,-0.00000373,0.00000644,0.00000463,0.0000
 0971,0.00000053,-0.00000355,0.00003818,0.00003624,0.00001810,-0.001755
 90,-0.00081089,-0.00061733,-0.00174262,-0.00108185,-0.00101231,-0.0000
 3629,0.00020055,0.00021447,-0.00006697,0.00005617,0.00012815,0.0047450
 1,0.00048465,0.00487041,-0.00012038,0.00006048,-0.00065665,0.00007366,
 -0.00015626,0.00010810,0.00003995,0.00025582,0.00000988,0.00003131,-0.
 00016070,0.00022129,0.00000528,0.00004971,-0.00004435,-0.00006153,0.00
 001307,-0.00003980,0.00000919,-0.00000654,0.00000237,-0.00000244,0.000
 00267,0.00000062,-0.00000674,-0.00000195,-0.00000226,0.00000687,-0.000
 00203,0.00000790,0.00001760,-0.00000870,0.00000766,-0.00000186,0.00000
 395,0.00000450,-0.00000198,-0.00000783,0.00000929,-0.00000055,-0.00000
 136,-0.00000391,0.00000066,-0.00001049,0.00001151,0.00000267,0.0000059
 1,-0.00000112,-0.00000184,-0.00001056,0.00000440,0.00000096,0.00000188
 ,-0.00000251,-0.00000361,-0.00000901,0.00000574,0.00000460,-0.00000544
 ,0.00000639,-0.00000148,0.00000170,-0.00000189,0.00000242,0.00000004,-
 0.00000315,-0.15623349,0.18402498,-0.00033694,-0.00034743,0.00007666,-
 0.00000813,-0.00001112,0.00001838,0.00000976,-0.00001193,-0.00001703,-
 0.00003002,-0.00002184,0.00007390,0.00000700,0.00004116,-0.00006697,0.
 00007273,0.00060491,-0.00175914,-0.01542188,0.01303537,0.01051968,0.05
 615510,-0.04563630,-0.07517520,0.01936839,-0.02083804,-0.00165009,0.00
 312321,0.00193691,-0.00420460,0.00000560,0.00000071,-0.00001168,0.0000
 0258,0.00000233,-0.00000027,-0.00000953,0.00002088,0.00007284,-0.00041
 436,-0.00115584,0.00011312,-0.00138911,-0.00056467,0.00076270,0.001009
 80,-0.00099927,-0.00013688,0.00009131,-0.00005627,-0.00007248,-0.00048
 814,0.00567062,-0.00176166,-0.00002467,-0.00038755,0.00048865,-0.00001
 149,0.00002035,-0.00002521,0.00004305,0.00015165,-0.00009084,-0.000033
 57,0.00003114,-0.00006130,-0.00000854,-0.00000092,-0.00000417,0.000001
 55,0.00000942,-0.00000851,-0.00000219,0.00000397,-0.00000124,0.0000007
 1,-0.00000055,-0.00000273,-0.00000058,0.00000104,0.00000136,-0.0000009
 5,-0.00000178,-0.00000130,-0.00000494,0.00000209,-0.00000024,0.0000002
 8,-0.00000043,-0.00000228,0.00000173,0.00000106,-0.00000190,-0.0000003
 9,0.00000059,0.00000027,0.00000013,-0.00000061,-0.00000185,-0.00000034
 ,-0.00000035,0.00000070,-0.00000013,0.00000112,0.00000042,0.00000024,0
 .00000046,-0.00000032,0.00000231,0.00000170,-0.00000320,-0.00000188,0.
 00000106,-0.00000027,-0.00000077,-0.00000029,-0.00000012,-0.00000017,0
 .00000024,-0.00000026,-0.06171498,0.04849536,0.07292378,0.00002121,-0.
 00067362,0.00039358,-0.00710827,0.01073164,-0.00226279,-0.16669709,0.1
 4965756,0.01446991,0.00040751,0.00212034,0.00153983,0.00406025,0.00249
 891,0.00026866,-0.00050640,-0.00049746,-0.00028977,0.00007340,0.000007
 49,0.00002086,0.00000193,0.00002281,-0.00000781,-0.00004117,-0.0000301
 3,-0.00001405,0.00000277,0.00004237,0.00000854,-0.00184094,-0.00194088
 ,-0.00104844,-0.00154398,-0.00163337,-0.00092665,-0.00001892,0.0000857
 2,0.00013527,-0.00000358,-0.00001370,0.00000072,-0.00000871,-0.0000003
 6,-0.00000606,0.00005053,0.00001992,0.00002518,0.00413950,0.00363299,0
 .00427323,-0.00005013,-0.00002412,0.00003648,-0.00018422,0.00000505,-0
 .00021996,0.00014243,-0.00024393,0.00006928,-0.00016001,0.00024027,-0.
 00014579,0.00005952,-0.00012116,0.00010691,0.00003959,0.00008218,0.000
 00886,-0.00005153,0.00003450,-0.00002236,0.00001473,-0.00001360,-0.000
 00168,-0.00000095,-0.00000307,-0.00000649,-0.00000464,0.00000247,0.000
 00042,0.00000524,-0.00000035,0.00000692,0.00000974,-0.00000706,0.00000
 318,-0.00000089,-0.00000235,-0.00000470,0.00000103,-0.00000454,0.00000
 827,-0.00000668,0.00000213,0.00000057,-0.00002664,0.00001626,0.0000301
 3,-0.00000020,0.00000605,0.00000207,0.00000087,-0.00001037,-0.00001180
 ,0.00001466,-0.00002568,-0.00000500,-0.00001460,0.00000299,0.00001860,
 0.00000711,-0.00000519,-0.00000294,-0.00000402,-0.00000524,-0.00000481
 ,0.00001807,-0.00001123,-0.00000086,0.00001311,0.00001765,0.00000819,0
 .16919041,-0.00063969,0.00029643,0.00018079,0.00138341,-0.00138809,0.0
 0136402,0.14996809,-0.21133902,-0.00675147,0.01129912,-0.00875382,-0.0
 0388901,0.00237376,0.00124954,0.00438554,-0.00046900,-0.00038192,-0.00
 020890,0.00003861,0.00003674,0.00001141,0.00001148,0.00000433,0.000001
 19,-0.00003342,-0.00001863,-0.00002800,0.00003254,-0.00001447,0.000035
 96,-0.00187772,-0.00127097,-0.00075750,-0.00184268,-0.00067830,-0.0008
 3409,0.00059046,-0.00048406,-0.00022109,-0.00000724,-0.00000277,-0.000
 00777,-0.00000264,-0.00000901,0.00000088,0.00002005,0.00006281,-0.0000
 1797,0.00313011,0.00454429,0.00135445,-0.00001345,-0.00000472,-0.00006
 824,-0.00002290,-0.00016244,-0.00015537,-0.00013210,0.00016076,-0.0000
 8467,0.00012471,-0.00020071,0.00011631,-0.00005203,0.00009912,-0.00012
 089,0.00004667,-0.00003537,0.00001867,0.00004464,-0.00002911,0.0000355
 4,-0.00000226,0.00000679,-0.00001210,-0.00000105,-0.00000207,0.0000043
 3,0.00000591,-0.00000506,0.00000280,-0.00000643,0.00000299,-0.00000820
 ,-0.00000928,0.00000301,-0.00000662,0.00000194,-0.00000156,0.00000006,
 -0.00000026,0.00000614,-0.00000571,-0.00000196,-0.00000263,0.00000187,
 -0.00000933,0.00001099,-0.00000367,-0.00000598,-0.00000496,-0.00000092
 ,0.00000257,0.00000517,-0.00000370,0.00000278,-0.00000111,0.00000168,0
 .00000299,0.00001070,0.00000729,-0.00000866,-0.00000037,-0.00000019,-0
 .00000257,-0.00001117,-0.00001551,0.00000369,0.00001434,0.00000298,0.0
 0001908,0.00000803,0.00000105,-0.16396195,0.21828017,0.00031029,0.0002
 5080,-0.00163110,0.01668627,-0.02124354,0.00351061,0.01372747,-0.00590
 381,-0.05654703,-0.01695818,0.01826066,0.00689452,0.00052214,0.0040733
 9,-0.00321243,-0.00035553,-0.00013570,0.00008108,-0.00002517,0.0000613
 2,0.00002292,0.00001664,-0.00001369,0.00000654,-0.00002456,-0.00002580
 ,0.00003846,0.00004687,-0.00000954,-0.00004773,-0.00113742,-0.00066070
 ,0.00022943,-0.00050307,-0.00134493,0.00062105,-0.00087154,0.00098218,
 0.00021891,-0.00001187,0.00000642,-0.00000092,-0.00000174,-0.00000432,
 0.00000132,0.00002435,-0.00001759,0.00005365,0.00529240,0.00015461,-0.
 00419532,0.00000961,-0.00001808,-0.00004050,-0.00017421,-0.00022889,0.
 00064909,-0.00023819,0.00023768,0.00001308,0.00016135,-0.00022118,0.00
 009864,-0.00008205,0.00009145,-0.00002192,0.00003789,0.00001470,-0.000
 05028,0.00002819,-0.00002739,0.00000563,-0.00000617,0.00001087,-0.0000
 0202,-0.00000498,0.00000424,0.00000931,0.00000270,-0.00001154,-0.00000
 180,-0.00000193,-0.00000020,-0.00000741,-0.00000777,0.00001170,0.00000
 286,-0.00000292,0.00000271,0.00000850,0.00000122,0.00000213,-0.0000059
 4,0.00000169,-0.00000324,-0.00000245,0.00000445,-0.00001630,-0.0000307
 3,-0.00001055,0.00000073,0.00000372,-0.00000167,0.00000259,0.00001409,
 0.00000686,0.00002702,0.00000804,0.00001943,-0.00003049,-0.00001548,-0
 .00001704,0.00000139,0.00002283,-0.00000443,-0.00000802,-0.00001997,-0
 .00000996,0.00004838,0.00000117,0.00000482,0.00000522,0.00000927,-0.01
 645367,0.00567477,0.05330827\\0.00000182,-0.00000748,0.00001144,0.0000
 0544,-0.00000772,-0.00000021,-0.00000570,0.00000113,0.00000381,-0.0000
 0647,0.00000613,-0.00000196,0.00000140,-0.00000035,-0.00000622,-0.0000
 0954,0.00001406,0.00000554,-0.00000561,0.00000284,0.00001327,0.0000004
 7,-0.00000002,0.00000504,-0.00000151,0.00000138,0.00000922,-0.00000542
 ,0.00000600,0.00000249,-0.00000033,0.00000176,-0.00000448,-0.00000594,
 0.00000293,-0.00000059,-0.00000515,0.00000300,0.00000394,0.00000273,0.
 00000104,0.00000332,-0.00000336,0.00000251,0.00000866,-0.00000629,0.00
 000264,0.00000687,-0.00000737,0.00001665,-0.00001629,0.00001731,0.0000
 0442,-0.00003141,-0.00002753,0.00000136,0.00004163,0.00000029,-0.00000
 549,-0.00000288,0.00001238,-0.00000444,-0.00000719,-0.00000336,0.00000
 124,-0.00000658,0.00000254,0.00000268,-0.00000592,0.00001051,-0.000012
 14,0.00000519,0.00000473,0.00000066,-0.00000233,0.00000573,-0.00000570
 ,-0.00000178,0.00000141,-0.00000292,0.00000069,0.00000193,-0.00000251,
 -0.00000456,0.00000434,-0.00000121,-0.00000374,0.00000485,-0.00000438,
 -0.00000089,0.00000326,-0.00000343,-0.00000248,0.00000479,-0.00000239,
 -0.00000080,-0.00000143,0.00000177,-0.00000046,0.00000228,-0.00000179,
 -0.00000147,0.00000134,-0.00000099,-0.00000117,-0.00000035,0.00000036,
 -0.00000196,0.00000293,-0.00000498,-0.00000522,0.00000267,-0.00000359,
 -0.00000494,0.00000109,-0.00000478,-0.00000500,0.00000003,-0.00000119,
 -0.00000346,0.00000129,0.00000192,0.00000683,-0.00000220,0.00000104,-0
 .00000394\\\@
 The archive entry for this job was punched.


 CHILDREN YOU ARE VERY LITTLE,
 AND YOUR BONES ARE VERY BRITTLE;
 IF YOU WOULD GROW GREAT AND STATELY
 YOU MUST TRY TO WALK SEDATELY.
 YOU MUST STILL BE BRIGHT AND QUIET,
 AND CONTENT WITH SIMPLE DIET;
 AND REMAIN, THROUGH ALL BEWILD'RING
 INNOCENT AND HONEST CHILDREN.
     -- A CHILD'S GARDEN OF VERSE,
        ROBERT LOUIS STEVENSON
 Job cpu time:       0 days  1 hours 40 minutes  5.6 seconds.
 Elapsed time:       0 days  0 hours  6 minutes 23.5 seconds.
 File lengths (MBytes):  RWF=    651 Int=      0 D2E=      0 Chk=     13 Scr=      1
 Normal termination of Gaussian 16 at Thu Nov  2 20:27:05 2023.
