/mnt/lustre/scratch/nvme/SLURM/4751695/usccqdma.SV7JMpoGMB
OMP_STACKSIZE=0m
GAUSS_PDEF=16
GAUSS_MDEF=65536MB
GAUSS_RDEF=SCF=Direct
 Entering Gaussian System, Link 0=g16.exe
 Initial command:
 /opt/cesga/2020/software/Core/g16/c1/l1.exe "/mnt/lustre/scratch/nvme/SLURM/4751695/usccqdma.SV7JMpoGMB/Gau-127313.inp" -scrdir="/mnt/lustre/scratch/nvme/SLURM/4751695/usccqdma.SV7JMpoGMB/"
 Default is to use a total of  16 processors:
                               16 via shared-memory
                                1 via Linda
 Entering Link 1 = /opt/cesga/2020/software/Core/g16/c1/l1.exe PID=    127339.
  
 Copyright (c) 1988-2019, Gaussian, Inc.  All Rights Reserved.
  
 This is part of the Gaussian(R) 16 program.  It is based on
 the Gaussian(R) 09 system (copyright 2009, Gaussian, Inc.),
 the Gaussian(R) 03 system (copyright 2003, Gaussian, Inc.),
 the Gaussian(R) 98 system (copyright 1998, Gaussian, Inc.),
 the Gaussian(R) 94 system (copyright 1995, Gaussian, Inc.),
 the Gaussian 92(TM) system (copyright 1992, Gaussian, Inc.),
 the Gaussian 90(TM) system (copyright 1990, Gaussian, Inc.),
 the Gaussian 88(TM) system (copyright 1988, Gaussian, Inc.),
 the Gaussian 86(TM) system (copyright 1986, Carnegie Mellon
 University), and the Gaussian 82(TM) system (copyright 1983,
 Carnegie Mellon University). Gaussian is a federally registered
 trademark of Gaussian, Inc.
  
 This software contains proprietary and confidential information,
 including trade secrets, belonging to Gaussian, Inc.
  
 This software is provided under written license and may be
 used, copied, transmitted, or stored only in accord with that
 written license.
  
 The following legend is applicable only to US Government
 contracts under FAR:
  
                    RESTRICTED RIGHTS LEGEND
  
 Use, reproduction and disclosure by the US Government is
 subject to restrictions as set forth in subparagraphs (a)
 and (c) of the Commercial Computer Software - Restricted
 Rights clause in FAR 52.227-19.
  
 Gaussian, Inc.
 340 Quinnipiac St., Bldg. 40, Wallingford CT 06492
  
  
 ---------------------------------------------------------------
 Warning -- This program may not be used in any manner that
 competes with the business of Gaussian, Inc. or will provide
 assistance to any competitor of Gaussian, Inc.  The licensee
 of this program is prohibited from giving any competitor of
 Gaussian, Inc. access to this program.  By using this program,
 the user acknowledges that Gaussian, Inc. is engaged in the
 business of creating and licensing software in the field of
 computational chemistry and represents and warrants to the
 licensee that it is not a competitor of Gaussian, Inc. and that
 it will not use this program in any manner prohibited above.
 ---------------------------------------------------------------
  

 Cite this work as:
 Gaussian 16, Revision C.01,
 M. J. Frisch, G. W. Trucks, H. B. Schlegel, G. E. Scuseria, 
 M. A. Robb, J. R. Cheeseman, G. Scalmani, V. Barone, 
 G. A. Petersson, H. Nakatsuji, X. Li, M. Caricato, A. V. Marenich, 
 J. Bloino, B. G. Janesko, R. Gomperts, B. Mennucci, H. P. Hratchian, 
 J. V. Ortiz, A. F. Izmaylov, J. L. Sonnenberg, D. Williams-Young, 
 F. Ding, F. Lipparini, F. Egidi, J. Goings, B. Peng, A. Petrone, 
 T. Henderson, D. Ranasinghe, V. G. Zakrzewski, J. Gao, N. Rega, 
 G. Zheng, W. Liang, M. Hada, M. Ehara, K. Toyota, R. Fukuda, 
 J. Hasegawa, M. Ishida, T. Nakajima, Y. Honda, O. Kitao, H. Nakai, 
 T. Vreven, K. Throssell, J. A. Montgomery, Jr., J. E. Peralta, 
 F. Ogliaro, M. J. Bearpark, J. J. Heyd, E. N. Brothers, K. N. Kudin, 
 V. N. Staroverov, T. A. Keith, R. Kobayashi, J. Normand, 
 K. Raghavachari, A. P. Rendell, J. C. Burant, S. S. Iyengar, 
 J. Tomasi, M. Cossi, J. M. Millam, M. Klene, C. Adamo, R. Cammi, 
 J. W. Ochterski, R. L. Martin, K. Morokuma, O. Farkas, 
 J. B. Foresman, and D. J. Fox, Gaussian, Inc., Wallingford CT, 2019.
 
 ******************************************
 Gaussian 16:  ES64L-G16RevC.01  3-Jul-2019
                 3-Nov-2023 
 ******************************************
 Default route: SCF=Direct
 ----------------------------------------------------------
 # m06/6-31g(d) scf=tight int=ultrafine 5d opt freq=noraman
 ----------------------------------------------------------
 1/18=20,19=15,26=4,38=1/1,3;
 2/9=110,12=2,17=6,18=5,40=1/2;
 3/5=1,6=6,7=1,8=1,11=2,25=1,30=1,71=1,74=-54,75=-5/1,2,3;
 4//1;
 5/5=2,32=2,38=5/2;
 6/7=2,8=2,9=2,10=2,28=1/1;
 7//1,2,3,16;
 1/18=20,19=15,26=4/3(2);
 2/9=110/2;
 99//99;
 2/9=110/2;
 3/5=1,6=6,7=1,8=1,11=2,25=1,30=1,71=1,74=-54,75=-5/1,2,3;
 4/5=5,16=3,69=1/1;
 5/5=2,32=2,38=5/2;
 7//1,2,3,16;
 1/18=20,19=15,26=4/3(-5);
 2/9=110/2;
 6/7=2,8=2,9=2,10=2,19=2,28=1/1;
 99/9=1/99;
 ------------
 optimization
 ------------
 Symbolic Z-matrix:
 Charge =  0 Multiplicity = 1
 C                     3.13476  -1.28762  -2.444 
 O                     3.75981  -2.34214  -2.47613 
 C                     3.79535  -0.00599  -1.97137 
 H                     3.9599    0.64049  -2.85085 
 H                     3.11944   0.56239  -1.31926 
 C                     0.92445  -0.10183  -2.66844 
 H                     1.46766   0.75403  -2.32589 
 H                     0.43066   0.13371  -3.588 
 N                     1.83515  -1.19467  -2.87958 
 C                     1.18512  -2.3719   -3.41283 
 H                     0.3055   -2.62588  -2.80321 
 H                     0.85007  -2.1888   -4.44444 
 H                     1.89454  -3.20251  -3.39927 
 C                     5.1025   -0.2479   -1.23986 
 H                     4.91543  -0.9327   -0.39512 
 H                     5.80823  -0.7812   -1.89244 
 C                     5.71165   1.04508  -0.72206 
 H                     6.01427   1.68509  -1.56912 
 H                     4.9417    1.6216   -0.17626 
 C                     6.90033   0.82411   0.20007 
 H                     6.58598   0.17824   1.03862 
 H                     7.68116   0.25881  -0.3336 
 C                     7.46961   2.12529   0.73902 
 H                     7.81482   2.77373  -0.07821 
 H                     6.70313   2.68546   1.29505 
 H                     8.31871   1.9594    1.41377 
 H                     0.19745  -0.38013  -1.93432 
 

 GradGradGradGradGradGradGradGradGradGradGradGradGradGradGradGradGradGrad
 Berny optimization.
 Initialization pass.
                           ----------------------------
                           !    Initial Parameters    !
                           ! (Angstroms and Degrees)  !
 --------------------------                            --------------------------
 ! Name  Definition              Value          Derivative Info.                !
 --------------------------------------------------------------------------------
 ! R1    R(1,2)                  1.2263         estimate D2E/DX2                !
 ! R2    R(1,3)                  1.5174         estimate D2E/DX2                !
 ! R3    R(1,9)                  1.3738         estimate D2E/DX2                !
 ! R4    R(3,4)                  1.1039         estimate D2E/DX2                !
 ! R5    R(3,5)                  1.0978         estimate D2E/DX2                !
 ! R6    R(3,14)                 1.5173         estimate D2E/DX2                !
 ! R7    R(6,7)                  1.07           estimate D2E/DX2                !
 ! R8    R(6,8)                  1.07           estimate D2E/DX2                !
 ! R9    R(6,9)                  1.4381         estimate D2E/DX2                !
 ! R10   R(6,27)                 1.07           estimate D2E/DX2                !
 ! R11   R(9,10)                 1.4466         estimate D2E/DX2                !
 ! R12   R(10,11)                1.0999         estimate D2E/DX2                !
 ! R13   R(10,12)                1.1            estimate D2E/DX2                !
 ! R14   R(10,13)                1.0924         estimate D2E/DX2                !
 ! R15   R(14,15)                1.1034         estimate D2E/DX2                !
 ! R16   R(14,16)                1.0992         estimate D2E/DX2                !
 ! R17   R(14,17)                1.5202         estimate D2E/DX2                !
 ! R18   R(17,18)                1.104          estimate D2E/DX2                !
 ! R19   R(17,19)                1.1059         estimate D2E/DX2                !
 ! R20   R(17,20)                1.5206         estimate D2E/DX2                !
 ! R21   R(20,21)                1.1041         estimate D2E/DX2                !
 ! R22   R(20,22)                1.1018         estimate D2E/DX2                !
 ! R23   R(20,23)                1.5191         estimate D2E/DX2                !
 ! R24   R(23,24)                1.0989         estimate D2E/DX2                !
 ! R25   R(23,25)                1.1002         estimate D2E/DX2                !
 ! R26   R(23,26)                1.0972         estimate D2E/DX2                !
 ! A1    A(2,1,3)              120.8374         estimate D2E/DX2                !
 ! A2    A(2,1,9)              122.1451         estimate D2E/DX2                !
 ! A3    A(3,1,9)              116.9655         estimate D2E/DX2                !
 ! A4    A(1,3,4)              108.1438         estimate D2E/DX2                !
 ! A5    A(1,3,5)              110.75           estimate D2E/DX2                !
 ! A6    A(1,3,14)             112.989          estimate D2E/DX2                !
 ! A7    A(4,3,5)              105.1791         estimate D2E/DX2                !
 ! A8    A(4,3,14)             110.4304         estimate D2E/DX2                !
 ! A9    A(5,3,14)             109.0613         estimate D2E/DX2                !
 ! A10   A(7,6,8)              109.4712         estimate D2E/DX2                !
 ! A11   A(7,6,9)              109.4712         estimate D2E/DX2                !
 ! A12   A(7,6,27)             109.4712         estimate D2E/DX2                !
 ! A13   A(8,6,9)              109.4712         estimate D2E/DX2                !
 ! A14   A(8,6,27)             109.4712         estimate D2E/DX2                !
 ! A15   A(9,6,27)             109.4712         estimate D2E/DX2                !
 ! A16   A(1,9,6)              127.1505         estimate D2E/DX2                !
 ! A17   A(1,9,10)             119.1359         estimate D2E/DX2                !
 ! A18   A(6,9,10)             112.8273         estimate D2E/DX2                !
 ! A19   A(9,10,11)            110.0559         estimate D2E/DX2                !
 ! A20   A(9,10,12)            110.3103         estimate D2E/DX2                !
 ! A21   A(9,10,13)            108.8058         estimate D2E/DX2                !
 ! A22   A(11,10,12)           108.3382         estimate D2E/DX2                !
 ! A23   A(11,10,13)           109.6874         estimate D2E/DX2                !
 ! A24   A(12,10,13)           109.6336         estimate D2E/DX2                !
 ! A25   A(3,14,15)            108.7827         estimate D2E/DX2                !
 ! A26   A(3,14,16)            110.1346         estimate D2E/DX2                !
 ! A27   A(3,14,17)            111.9505         estimate D2E/DX2                !
 ! A28   A(15,14,16)           105.2032         estimate D2E/DX2                !
 ! A29   A(15,14,17)           109.5739         estimate D2E/DX2                !
 ! A30   A(16,14,17)           110.953          estimate D2E/DX2                !
 ! A31   A(14,17,18)           109.9735         estimate D2E/DX2                !
 ! A32   A(14,17,19)           109.4215         estimate D2E/DX2                !
 ! A33   A(14,17,20)           113.3413         estimate D2E/DX2                !
 ! A34   A(18,17,19)           105.5038         estimate D2E/DX2                !
 ! A35   A(18,17,20)           109.5892         estimate D2E/DX2                !
 ! A36   A(19,17,20)           108.7059         estimate D2E/DX2                !
 ! A37   A(17,20,21)           108.8448         estimate D2E/DX2                !
 ! A38   A(17,20,22)           109.5619         estimate D2E/DX2                !
 ! A39   A(17,20,23)           112.5592         estimate D2E/DX2                !
 ! A40   A(21,20,22)           105.6335         estimate D2E/DX2                !
 ! A41   A(21,20,23)           109.7725         estimate D2E/DX2                !
 ! A42   A(22,20,23)           110.2261         estimate D2E/DX2                !
 ! A43   A(20,23,24)           111.0583         estimate D2E/DX2                !
 ! A44   A(20,23,25)           110.7531         estimate D2E/DX2                !
 ! A45   A(20,23,26)           112.253          estimate D2E/DX2                !
 ! A46   A(24,23,25)           107.1138         estimate D2E/DX2                !
 ! A47   A(24,23,26)           107.6664         estimate D2E/DX2                !
 ! A48   A(25,23,26)           107.7784         estimate D2E/DX2                !
 ! D1    D(2,1,3,4)            107.6322         estimate D2E/DX2                !
 ! D2    D(2,1,3,5)           -137.6088         estimate D2E/DX2                !
 ! D3    D(2,1,3,14)           -14.9188         estimate D2E/DX2                !
 ! D4    D(9,1,3,4)            -69.8016         estimate D2E/DX2                !
 ! D5    D(9,1,3,5)             44.9574         estimate D2E/DX2                !
 ! D6    D(9,1,3,14)           167.6475         estimate D2E/DX2                !
 ! D7    D(2,1,9,6)            167.4618         estimate D2E/DX2                !
 ! D8    D(2,1,9,10)            -0.9422         estimate D2E/DX2                !
 ! D9    D(3,1,9,6)            -15.1406         estimate D2E/DX2                !
 ! D10   D(3,1,9,10)           176.4554         estimate D2E/DX2                !
 ! D11   D(1,3,14,15)          -56.1638         estimate D2E/DX2                !
 ! D12   D(1,3,14,16)           58.6527         estimate D2E/DX2                !
 ! D13   D(1,3,14,17)         -177.4014         estimate D2E/DX2                !
 ! D14   D(4,3,14,15)         -177.4294         estimate D2E/DX2                !
 ! D15   D(4,3,14,16)          -62.6129         estimate D2E/DX2                !
 ! D16   D(4,3,14,17)           61.3329         estimate D2E/DX2                !
 ! D17   D(5,3,14,15)           67.4623         estimate D2E/DX2                !
 ! D18   D(5,3,14,16)         -177.7212         estimate D2E/DX2                !
 ! D19   D(5,3,14,17)          -53.7753         estimate D2E/DX2                !
 ! D20   D(7,6,9,1)             14.0654         estimate D2E/DX2                !
 ! D21   D(7,6,9,10)          -176.9163         estimate D2E/DX2                !
 ! D22   D(8,6,9,1)            134.0654         estimate D2E/DX2                !
 ! D23   D(8,6,9,10)           -56.9163         estimate D2E/DX2                !
 ! D24   D(27,6,9,1)          -105.9346         estimate D2E/DX2                !
 ! D25   D(27,6,9,10)           63.0837         estimate D2E/DX2                !
 ! D26   D(1,9,10,11)          119.0324         estimate D2E/DX2                !
 ! D27   D(1,9,10,12)         -121.4784         estimate D2E/DX2                !
 ! D28   D(1,9,10,13)           -1.1786         estimate D2E/DX2                !
 ! D29   D(6,9,10,11)          -50.9571         estimate D2E/DX2                !
 ! D30   D(6,9,10,12)           68.5322         estimate D2E/DX2                !
 ! D31   D(6,9,10,13)         -171.1681         estimate D2E/DX2                !
 ! D32   D(3,14,17,18)         -66.0486         estimate D2E/DX2                !
 ! D33   D(3,14,17,19)          49.4007         estimate D2E/DX2                !
 ! D34   D(3,14,17,20)         170.9019         estimate D2E/DX2                !
 ! D35   D(15,14,17,18)        173.1716         estimate D2E/DX2                !
 ! D36   D(15,14,17,19)        -71.3791         estimate D2E/DX2                !
 ! D37   D(15,14,17,20)         50.1221         estimate D2E/DX2                !
 ! D38   D(16,14,17,18)         57.4377         estimate D2E/DX2                !
 ! D39   D(16,14,17,19)        172.887          estimate D2E/DX2                !
 ! D40   D(16,14,17,20)        -65.6118         estimate D2E/DX2                !
 ! D41   D(14,17,20,21)        -56.3978         estimate D2E/DX2                !
 ! D42   D(14,17,20,22)         58.6556         estimate D2E/DX2                !
 ! D43   D(14,17,20,23)       -178.3254         estimate D2E/DX2                !
 ! D44   D(18,17,20,21)       -179.6589         estimate D2E/DX2                !
 ! D45   D(18,17,20,22)        -64.6054         estimate D2E/DX2                !
 ! D46   D(18,17,20,23)         58.4135         estimate D2E/DX2                !
 ! D47   D(19,17,20,21)         65.5038         estimate D2E/DX2                !
 ! D48   D(19,17,20,22)       -179.4428         estimate D2E/DX2                !
 ! D49   D(19,17,20,23)        -56.4238         estimate D2E/DX2                !
 ! D50   D(17,20,23,24)        -60.144          estimate D2E/DX2                !
 ! D51   D(17,20,23,25)         58.7447         estimate D2E/DX2                !
 ! D52   D(17,20,23,26)        179.2651         estimate D2E/DX2                !
 ! D53   D(21,20,23,24)        178.4554         estimate D2E/DX2                !
 ! D54   D(21,20,23,25)        -62.6559         estimate D2E/DX2                !
 ! D55   D(21,20,23,26)         57.8645         estimate D2E/DX2                !
 ! D56   D(22,20,23,24)         62.5025         estimate D2E/DX2                !
 ! D57   D(22,20,23,25)       -178.6089         estimate D2E/DX2                !
 ! D58   D(22,20,23,26)        -58.0884         estimate D2E/DX2                !
 --------------------------------------------------------------------------------
 Trust Radius=3.00D-01 FncErr=1.00D-07 GrdErr=1.00D-06 EigMax=2.50D+02 EigMin=1.00D-04
 Number of steps in this run=    142 maximum allowed number of steps=    162.
 GradGradGradGradGradGradGradGradGradGradGradGradGradGradGradGradGradGrad

                          Input orientation:                          
 ---------------------------------------------------------------------
 Center     Atomic      Atomic             Coordinates (Angstroms)
 Number     Number       Type             X           Y           Z
 ---------------------------------------------------------------------
      1          6           0        3.134760   -1.287623   -2.444000
      2          8           0        3.759813   -2.342144   -2.476128
      3          6           0        3.795353   -0.005986   -1.971370
      4          1           0        3.959896    0.640492   -2.850849
      5          1           0        3.119443    0.562389   -1.319255
      6          6           0        0.924450   -0.101827   -2.668436
      7          1           0        1.467659    0.754029   -2.325895
      8          1           0        0.430663    0.133709   -3.588000
      9          7           0        1.835153   -1.194671   -2.879577
     10          6           0        1.185120   -2.371903   -3.412831
     11          1           0        0.305500   -2.625878   -2.803214
     12          1           0        0.850072   -2.188802   -4.444442
     13          1           0        1.894539   -3.202508   -3.399272
     14          6           0        5.102503   -0.247902   -1.239862
     15          1           0        4.915434   -0.932696   -0.395120
     16          1           0        5.808228   -0.781204   -1.892442
     17          6           0        5.711647    1.045078   -0.722058
     18          1           0        6.014267    1.685094   -1.569120
     19          1           0        4.941697    1.621596   -0.176256
     20          6           0        6.900329    0.824108    0.200066
     21          1           0        6.585975    0.178239    1.038621
     22          1           0        7.681159    0.258806   -0.333596
     23          6           0        7.469607    2.125294    0.739022
     24          1           0        7.814817    2.773730   -0.078213
     25          1           0        6.703126    2.685462    1.295046
     26          1           0        8.318706    1.959399    1.413767
     27          1           0        0.197453   -0.380129   -1.934322
 ---------------------------------------------------------------------
                    Distance matrix (angstroms):
                    1          2          3          4          5
     1  C    0.000000
     2  O    1.226270   0.000000
     3  C    1.517352   2.390330   0.000000
     4  H    2.136353   3.012734   1.103853   0.000000
     5  H    2.165140   3.191354   1.097797   1.748783   0.000000
     6  C    2.518324   3.618741   2.955871   3.130215   2.660727
     7  H    2.638469   3.855234   2.474160   2.549453   1.943821
     8  H    3.262064   4.295270   3.735524   3.640838   3.544080
     9  N    1.373807   2.276792   2.465805   2.807700   2.677922
    10  C    2.432158   2.739953   3.806401   4.133973   4.090811
    11  H    3.150345   3.481346   4.442395   4.901638   4.503938
    12  H    3.167600   3.516300   4.422155   4.496159   4.741929
    13  H    2.473353   2.252036   3.983686   4.397171   4.472282
    14  C    2.530411   2.777952   1.517323   2.165658   2.143689
    15  H    2.737642   2.766333   2.144280   3.068970   2.512944
    16  H    2.776348   2.640687   2.158439   2.521130   3.059959
    17  C    3.879037   4.284821   2.517479   2.786409   2.703545
    18  H    4.230133   4.703602   2.818712   2.637132   3.114949
    19  H    4.107461   4.732599   2.680590   3.013295   2.397702
    20  C    5.062608   5.200962   3.878797   4.241220   4.083128
    21  H    5.117449   5.166525   4.108717   4.715713   4.209987
    22  H    5.245473   5.170333   4.225152   4.508885   4.676851
    23  C    6.369500   6.637602   5.038722   5.235445   5.059951
    24  H    6.632833   6.954511   5.240893   5.205635   5.336361
    25  H    6.519134   6.939861   5.135028   5.375468   4.917804
    26  H    7.231792   7.376860   5.981857   6.239046   6.037664
    27  H    3.116262   4.102861   3.617491   4.004706   3.131242
                    6          7          8          9         10
     6  C    0.000000
     7  H    1.070000   0.000000
     8  H    1.070000   1.747303   0.000000
     9  N    1.438148   2.058895   2.058895   0.000000
    10  C    2.403189   3.321552   2.622590   1.446644   0.000000
    11  H    2.602325   3.605859   2.871737   2.096193   1.099940
    12  H    2.741385   3.678303   2.510668   2.099401   1.100002
    13  H    3.330078   4.121717   3.648136   2.074854   1.092412
    14  C    4.417951   3.923700   5.242658   3.776323   4.957728
    15  H    4.667576   4.296520   5.607572   3.966017   5.009305
    16  H    4.991493   4.624431   5.712284   4.114695   5.120062
    17  C    5.293490   4.546255   6.077253   4.969766   6.277377
    18  H    5.505254   4.702258   6.136717   5.241692   6.571085
    19  H    5.031841   4.176429   5.848353   4.988980   6.366736
    20  C    6.693040   5.991602   7.528789   6.262242   7.478711
    21  H    6.773003   6.152126   7.700355   6.309316   7.449019
    22  H    7.157838   6.543858   7.948363   6.539908   7.655119
    23  C    7.707783   6.877315   8.499191   7.474189   8.772539
    24  H    7.902863   7.029771   8.591510   7.704040   9.030509
    25  H    7.541304   6.652199   8.348615   7.495337   8.842479
    26  H    8.694139   7.897774   9.516934   8.391509   9.640761
    27  H    1.070000   1.747303   1.747303   2.058895   2.669951
                   11         12         13         14         15
    11  H    0.000000
    12  H    1.783598   0.000000
    13  H    1.792438   1.791896   0.000000
    14  C    5.577641   5.667415   4.866599   0.000000
    15  H    5.469668   5.873839   4.827296   1.103416   0.000000
    16  H    5.874721   5.751291   4.842542   1.099236   1.749858
    17  C    6.858101   6.924524   6.307121   1.520189   2.156950
    18  H    7.259304   7.067068   6.649080   2.162452   3.072220
    19  H    6.814416   7.034056   6.553242   2.156882   2.563786
    20  C    8.025825   8.200896   7.363885   2.540625   2.716692
    21  H    7.878270   8.280546   7.289301   2.752048   2.465866
    22  H    8.295828   8.339879   7.407026   2.779845   3.012092
    23  C    9.297607   9.449760   8.751705   3.892457   4.142630
    24  H    9.642159   9.601997   9.044034   4.223309   4.716402
    25  H    9.270150   9.537212   8.934614   4.194327   4.375337
    26  H   10.149836  10.358894   9.543613   4.717826   4.818563
    27  H    2.410402   3.161947   3.604442   4.955732   4.993377
                   16         17         18         19         20
    16  H    0.000000
    17  C    2.171274   0.000000
    18  H    2.495920   1.103954   0.000000
    19  H    3.077274   1.105937   1.759122   0.000000
    20  C    2.854523   1.520561   2.157874   2.147986   0.000000
    21  H    3.180653   2.148453   3.065579   2.502570   1.104147
    22  H    2.649432   2.155946   2.517806   3.063757   1.101843
    23  C    4.258229   2.528249   2.763930   2.735283   1.519091
    24  H    4.467145   2.797516   2.578742   3.097070   2.171348
    25  H    4.793610   2.782553   3.111062   2.529659   2.168527
    26  H    4.974377   3.492061   3.779325   3.747863   2.184891
    27  H    5.625248   5.822983   6.183352   5.441098   7.136830
                   21         22         23         24         25
    21  H    0.000000
    22  H    1.757526   0.000000
    23  C    2.159071   2.163109   0.000000
    24  H    3.081224   2.531388   1.098869   0.000000
    25  H    2.523023   3.081831   1.100202   1.769036   0.000000
    26  H    2.513090   2.520270   1.097165   1.772863   1.775207
    27  H    7.068478   7.679611   8.142981   8.450811   7.883556
                   26         27
    26  H    0.000000
    27  H    9.090536   0.000000
 Stoichiometry    C8H17NO
 Framework group  C1[X(C8H17NO)]
 Deg. of freedom    75
 Full point group                 C1      NOp   1
 Largest Abelian subgroup         C1      NOp   1
 Largest concise Abelian subgroup C1      NOp   1
                         Standard orientation:                         
 ---------------------------------------------------------------------
 Center     Atomic      Atomic             Coordinates (Angstroms)
 Number     Number       Type             X           Y           Z
 ---------------------------------------------------------------------
      1          6           0        1.453753   -0.456739    0.077674
      2          8           0        1.438270   -1.680550    0.001620
      3          6           0        0.172359    0.325051    0.299459
      4          1           0        0.179568    0.710606    1.333764
      5          1           0        0.145482    1.217198   -0.339688
      6          6           0        2.757741    1.685664   -0.149654
      7          1           0        1.810582    2.156651    0.011471
      8          1           0        3.468612    2.063892    0.554978
      9          7           0        2.621804    0.264339    0.022464
     10          6           0        3.878628   -0.439737   -0.109633
     11          1           0        4.381805   -0.141786   -1.041247
     12          1           0        4.541802   -0.198756    0.734247
     13          1           0        3.680524   -1.513916   -0.125663
     14          6           0       -1.076135   -0.500557    0.050655
     15          1           0       -1.033244   -0.909820   -0.973157
     16          1           0       -1.087121   -1.378616    0.711875
     17          6           0       -2.343792    0.321695    0.217754
     18          1           0       -2.455659    0.632328    1.271180
     19          1           0       -2.251745    1.260726   -0.359171
     20          6           0       -3.598968   -0.407612   -0.234739
     21          1           0       -3.471543   -0.717805   -1.286729
     22          1           0       -3.709914   -1.341775    0.338922
     23          6           0       -4.849246    0.444295   -0.098014
     24          1           0       -5.011591    0.742369    0.947122
     25          1           0       -4.757651    1.368539   -0.687783
     26          1           0       -5.749904   -0.082094   -0.437869
     27          1           0        3.095168    1.893933   -1.143469
 ---------------------------------------------------------------------
 Rotational constants (GHZ):           3.7183493           0.4362725           0.3995439
 Standard basis: 6-31G(d) (5D, 7F)
 There are   184 symmetry adapted cartesian basis functions of A   symmetry.
 There are   174 symmetry adapted basis functions of A   symmetry.
   174 basis functions,   348 primitive gaussians,   184 cartesian basis functions
    40 alpha electrons       40 beta electrons
       nuclear repulsion energy       542.8535950287 Hartrees.
 NAtoms=   27 NActive=   27 NUniq=   27 SFac= 1.00D+00 NAtFMM=   60 NAOKFM=F Big=F
 Integral buffers will be    131072 words long.
 Raffenetti 2 integral format.
 Two-electron integral symmetry is turned on.
 One-electron integrals computed using PRISM.
 NBasis=   174 RedAO= T EigKep=  2.49D-03  NBF=   174
 NBsUse=   174 1.00D-06 EigRej= -1.00D+00 NBFU=   174
 ExpMin= 1.61D-01 ExpMax= 5.48D+03 ExpMxC= 8.25D+02 IAcc=3 IRadAn=         5 AccDes= 0.00D+00
 Harris functional with IExCor= 1009 and IRadAn=       5 diagonalized for initial guess.
 HarFok:  IExCor= 1009 AccDes= 0.00D+00 IRadAn=         5 IDoV= 1 UseB2=F ITyADJ=14
 ICtDFT=  3500011 ScaDFX=  1.000000  1.000000  1.000000  1.000000
 FoFCou: FMM=F IPFlag=           0 FMFlag=      100000 FMFlg1=           0
         NFxFlg=           0 DoJE=T BraDBF=F KetDBF=T FulRan=T
         wScrn=  0.000000 ICntrl=       500 IOpCl=  0 I1Cent=   200000004 NGrid=           0
         NMat0=    1 NMatS0=      1 NMatT0=    0 NMatD0=    1 NMtDS0=    0 NMtDT0=    0
 Petite list used in FoFCou.
 Requested convergence on RMS density matrix=1.00D-08 within 128 cycles.
 Requested convergence on MAX density matrix=1.00D-06.
 Requested convergence on             energy=1.00D-06.
 No special actions if energy rises.
 Integral accuracy reduced to 1.0D-05 until final iterations.
 Initial convergence to 1.0D-05 achieved.  Increase integral accuracy.
 SCF Done:  E(RM06) =  -444.741976981     A.U. after   14 cycles
            NFock= 14  Conv=0.79D-08     -V/T= 2.0061

 **********************************************************************

            Population analysis using the SCF Density.

 **********************************************************************

 Orbital symmetries:
       Occupied  (A) (A) (A) (A) (A) (A) (A) (A) (A) (A) (A) (A)
                 (A) (A) (A) (A) (A) (A) (A) (A) (A) (A) (A) (A)
                 (A) (A) (A) (A) (A) (A) (A) (A) (A) (A) (A) (A)
                 (A) (A) (A) (A)
       Virtual   (A) (A) (A) (A) (A) (A) (A) (A) (A) (A) (A) (A)
                 (A) (A) (A) (A) (A) (A) (A) (A) (A) (A) (A) (A)
                 (A) (A) (A) (A) (A) (A) (A) (A) (A) (A) (A) (A)
                 (A) (A) (A) (A) (A) (A) (A) (A) (A) (A) (A) (A)
                 (A) (A) (A) (A) (A) (A) (A) (A) (A) (A) (A) (A)
                 (A) (A) (A) (A) (A) (A) (A) (A) (A) (A) (A) (A)
                 (A) (A) (A) (A) (A) (A) (A) (A) (A) (A) (A) (A)
                 (A) (A) (A) (A) (A) (A) (A) (A) (A) (A) (A) (A)
                 (A) (A) (A) (A) (A) (A) (A) (A) (A) (A) (A) (A)
                 (A) (A) (A) (A) (A) (A) (A) (A) (A) (A) (A) (A)
                 (A) (A) (A) (A) (A) (A) (A) (A) (A) (A) (A) (A)
                 (A) (A)
 The electronic state is 1-A.
 Alpha  occ. eigenvalues --  -19.18382 -14.42496 -10.34399 -10.27619 -10.26625
 Alpha  occ. eigenvalues --  -10.25006 -10.23689 -10.23633 -10.23480 -10.22948
 Alpha  occ. eigenvalues --   -1.04293  -0.94720  -0.81617  -0.77433  -0.73415
 Alpha  occ. eigenvalues --   -0.71844  -0.67772  -0.61216  -0.58111  -0.54486
 Alpha  occ. eigenvalues --   -0.50580  -0.49788  -0.48335  -0.47881  -0.44741
 Alpha  occ. eigenvalues --   -0.43222  -0.41801  -0.41476  -0.41102  -0.40188
 Alpha  occ. eigenvalues --   -0.39677  -0.38460  -0.36228  -0.36054  -0.33793
 Alpha  occ. eigenvalues --   -0.33584  -0.32814  -0.32356  -0.25659  -0.24925
 Alpha virt. eigenvalues --    0.04083   0.09397   0.10404   0.12041   0.13034
 Alpha virt. eigenvalues --    0.13802   0.14724   0.15845   0.16541   0.16897
 Alpha virt. eigenvalues --    0.17383   0.17779   0.18204   0.18730   0.19217
 Alpha virt. eigenvalues --    0.20169   0.20401   0.21507   0.22269   0.23155
 Alpha virt. eigenvalues --    0.23902   0.24889   0.26820   0.29620   0.32335
 Alpha virt. eigenvalues --    0.36312   0.40094   0.48879   0.50537   0.51634
 Alpha virt. eigenvalues --    0.52335   0.53604   0.55688   0.56097   0.56286
 Alpha virt. eigenvalues --    0.57221   0.60969   0.62053   0.62974   0.66319
 Alpha virt. eigenvalues --    0.68199   0.69423   0.70819   0.71417   0.72172
 Alpha virt. eigenvalues --    0.73937   0.76955   0.78103   0.78654   0.79577
 Alpha virt. eigenvalues --    0.81247   0.82673   0.83158   0.83674   0.85255
 Alpha virt. eigenvalues --    0.86099   0.87195   0.87344   0.88493   0.89861
 Alpha virt. eigenvalues --    0.90603   0.91451   0.92120   0.92462   0.93276
 Alpha virt. eigenvalues --    0.94121   0.94835   0.96158   0.97818   1.00856
 Alpha virt. eigenvalues --    1.03275   1.06129   1.08327   1.16205   1.20130
 Alpha virt. eigenvalues --    1.25257   1.31509   1.33871   1.37446   1.38287
 Alpha virt. eigenvalues --    1.42067   1.43801   1.45231   1.46723   1.50956
 Alpha virt. eigenvalues --    1.58720   1.60244   1.68850   1.72120   1.73860
 Alpha virt. eigenvalues --    1.78614   1.80454   1.81181   1.85101   1.87606
 Alpha virt. eigenvalues --    1.89033   1.90738   1.91344   1.93194   1.93769
 Alpha virt. eigenvalues --    1.94879   1.97900   1.99534   2.00291   2.01318
 Alpha virt. eigenvalues --    2.02325   2.03400   2.09243   2.09435   2.10367
 Alpha virt. eigenvalues --    2.14582   2.16650   2.19465   2.20839   2.22697
 Alpha virt. eigenvalues --    2.26154   2.29130   2.33259   2.35459   2.36278
 Alpha virt. eigenvalues --    2.37303   2.44978   2.45817   2.54460   2.58474
 Alpha virt. eigenvalues --    2.59272   2.62710   2.66835   2.74390   2.76515
 Alpha virt. eigenvalues --    2.82903   2.96735   3.03553   3.19523
          Condensed to atoms (all electrons):
               1          2          3          4          5          6
     1  C    4.287207   0.618484   0.320047  -0.021018  -0.022288  -0.031530
     2  O    0.618484   8.054933  -0.102459   0.000171   0.002122   0.002887
     3  C    0.320047  -0.102459   5.381532   0.358842   0.355066  -0.003700
     4  H   -0.021018   0.000171   0.358842   0.548818  -0.036979  -0.000458
     5  H   -0.022288   0.002122   0.355066  -0.036979   0.582067  -0.004583
     6  C   -0.031530   0.002887  -0.003700  -0.000458  -0.004583   5.032442
     7  H   -0.007988   0.000059   0.007592   0.000262   0.002978   0.378638
     8  H    0.001665  -0.000069  -0.000300   0.000070   0.000203   0.381763
     9  N    0.311101  -0.090232  -0.119198  -0.000259   0.000774   0.294060
    10  C   -0.028834  -0.012965   0.006580  -0.000197  -0.000175  -0.063960
    11  H   -0.000034   0.000597  -0.000121  -0.000010   0.000010  -0.001529
    12  H    0.001626   0.000521  -0.000129   0.000039  -0.000011  -0.002863
    13  H   -0.001371   0.023247   0.001384  -0.000035  -0.000032   0.004629
    14  C   -0.029238   0.007174   0.344663  -0.030918  -0.038777   0.000521
    15  H   -0.001672   0.001950  -0.042730   0.005107  -0.005090  -0.000019
    16  H   -0.002337   0.005039  -0.034210  -0.005089   0.005186  -0.000019
    17  C    0.004434   0.000699  -0.042483  -0.002785  -0.003867  -0.000009
    18  H   -0.000000  -0.000000  -0.002991   0.003628  -0.000381  -0.000000
    19  H    0.000061  -0.000004  -0.005573  -0.000401   0.005741  -0.000009
    20  C   -0.000081   0.000002   0.003397   0.000013   0.000024   0.000000
    21  H   -0.000003  -0.000001   0.000059   0.000003   0.000014   0.000000
    22  H    0.000001  -0.000002   0.000054   0.000001   0.000004  -0.000000
    23  C    0.000001   0.000000  -0.000130   0.000003  -0.000003  -0.000000
    24  H    0.000000  -0.000000  -0.000001  -0.000001   0.000001   0.000000
    25  H    0.000000  -0.000000   0.000000   0.000001  -0.000004   0.000000
    26  H   -0.000000   0.000000   0.000001   0.000000   0.000000   0.000000
    27  H   -0.000003   0.000045  -0.000156   0.000002   0.000333   0.383262
               7          8          9         10         11         12
     1  C   -0.007988   0.001665   0.311101  -0.028834  -0.000034   0.001626
     2  O    0.000059  -0.000069  -0.090232  -0.012965   0.000597   0.000521
     3  C    0.007592  -0.000300  -0.119198   0.006580  -0.000121  -0.000129
     4  H    0.000262   0.000070  -0.000259  -0.000197  -0.000010   0.000039
     5  H    0.002978   0.000203   0.000774  -0.000175   0.000010  -0.000011
     6  C    0.378638   0.381763   0.294060  -0.063960  -0.001529  -0.002863
     7  H    0.517277  -0.024086  -0.033196   0.005501   0.000090  -0.000039
     8  H   -0.024086   0.548814  -0.046460  -0.001974  -0.003028   0.006485
     9  N   -0.033196  -0.046460   6.990529   0.277309  -0.047669  -0.046652
    10  C    0.005501  -0.001974   0.277309   5.069932   0.378591   0.380450
    11  H    0.000090  -0.003028  -0.047669   0.378591   0.567456  -0.043183
    12  H   -0.000039   0.006485  -0.046652   0.380450  -0.043183   0.559548
    13  H   -0.000223  -0.000053  -0.036788   0.370494  -0.021883  -0.022872
    14  C    0.000032  -0.000016   0.003716  -0.000100   0.000006  -0.000002
    15  H    0.000012   0.000000   0.000187  -0.000004  -0.000001   0.000000
    16  H    0.000003   0.000001   0.000199  -0.000000   0.000000  -0.000000
    17  C   -0.000001   0.000000  -0.000027   0.000001  -0.000000  -0.000000
    18  H    0.000003   0.000000   0.000000  -0.000000  -0.000000   0.000000
    19  H   -0.000006  -0.000000  -0.000003   0.000000   0.000000  -0.000000
    20  C   -0.000000  -0.000000   0.000001  -0.000000   0.000000   0.000000
    21  H    0.000000   0.000000  -0.000000  -0.000000   0.000000   0.000000
    22  H    0.000000  -0.000000  -0.000000   0.000000  -0.000000   0.000000
    23  C    0.000000   0.000000  -0.000000   0.000000  -0.000000  -0.000000
    24  H    0.000000  -0.000000   0.000000   0.000000   0.000000  -0.000000
    25  H    0.000000  -0.000000  -0.000000   0.000000  -0.000000   0.000000
    26  H   -0.000000   0.000000   0.000000  -0.000000   0.000000   0.000000
    27  H   -0.028345  -0.045204  -0.051232  -0.003603   0.008414  -0.001640
              13         14         15         16         17         18
     1  C   -0.001371  -0.029238  -0.001672  -0.002337   0.004434  -0.000000
     2  O    0.023247   0.007174   0.001950   0.005039   0.000699  -0.000000
     3  C    0.001384   0.344663  -0.042730  -0.034210  -0.042483  -0.002991
     4  H   -0.000035  -0.030918   0.005107  -0.005089  -0.002785   0.003628
     5  H   -0.000032  -0.038777  -0.005090   0.005186  -0.003867  -0.000381
     6  C    0.004629   0.000521  -0.000019  -0.000019  -0.000009  -0.000000
     7  H   -0.000223   0.000032   0.000012   0.000003  -0.000001   0.000003
     8  H   -0.000053  -0.000016   0.000000   0.000001   0.000000   0.000000
     9  N   -0.036788   0.003716   0.000187   0.000199  -0.000027   0.000000
    10  C    0.370494  -0.000100  -0.000004  -0.000000   0.000001  -0.000000
    11  H   -0.021883   0.000006  -0.000001   0.000000  -0.000000  -0.000000
    12  H   -0.022872  -0.000002   0.000000  -0.000000  -0.000000   0.000000
    13  H    0.461414  -0.000025  -0.000004  -0.000003  -0.000000  -0.000000
    14  C   -0.000025   5.011816   0.390415   0.382834   0.350388  -0.035081
    15  H   -0.000004   0.390415   0.570061  -0.033744  -0.044062   0.005364
    16  H   -0.000003   0.382834  -0.033744   0.546076  -0.036442  -0.006146
    17  C   -0.000000   0.350388  -0.044062  -0.036442   5.056372   0.373995
    18  H   -0.000000  -0.035081   0.005364  -0.006146   0.373995   0.600219
    19  H    0.000000  -0.039754  -0.004161   0.005111   0.375648  -0.041820
    20  C   -0.000000  -0.040777  -0.003763  -0.002366   0.381274  -0.038288
    21  H    0.000000  -0.004026   0.005154  -0.000357  -0.041688   0.005694
    22  H    0.000000  -0.002151  -0.000526   0.003281  -0.040055  -0.005953
    23  C    0.000000   0.003663   0.000121  -0.000026  -0.047218  -0.002770
    24  H    0.000000   0.000047   0.000006   0.000004  -0.004857   0.004459
    25  H    0.000000   0.000059   0.000005   0.000002  -0.005346  -0.000420
    26  H   -0.000000  -0.000123  -0.000001   0.000002   0.004236  -0.000038
    27  H   -0.000023   0.000012   0.000002   0.000000   0.000000  -0.000000
              19         20         21         22         23         24
     1  C    0.000061  -0.000081  -0.000003   0.000001   0.000001   0.000000
     2  O   -0.000004   0.000002  -0.000001  -0.000002   0.000000  -0.000000
     3  C   -0.005573   0.003397   0.000059   0.000054  -0.000130  -0.000001
     4  H   -0.000401   0.000013   0.000003   0.000001   0.000003  -0.000001
     5  H    0.005741   0.000024   0.000014   0.000004  -0.000003   0.000001
     6  C   -0.000009   0.000000   0.000000  -0.000000  -0.000000   0.000000
     7  H   -0.000006  -0.000000   0.000000   0.000000   0.000000   0.000000
     8  H   -0.000000  -0.000000   0.000000  -0.000000   0.000000  -0.000000
     9  N   -0.000003   0.000001  -0.000000  -0.000000  -0.000000   0.000000
    10  C    0.000000  -0.000000  -0.000000   0.000000   0.000000   0.000000
    11  H    0.000000   0.000000   0.000000  -0.000000  -0.000000   0.000000
    12  H   -0.000000   0.000000   0.000000   0.000000  -0.000000  -0.000000
    13  H    0.000000  -0.000000   0.000000   0.000000   0.000000   0.000000
    14  C   -0.039754  -0.040777  -0.004026  -0.002151   0.003663   0.000047
    15  H   -0.004161  -0.003763   0.005154  -0.000526   0.000121   0.000006
    16  H    0.005111  -0.002366  -0.000357   0.003281  -0.000026   0.000004
    17  C    0.375648   0.381274  -0.041688  -0.040055  -0.047218  -0.004857
    18  H   -0.041820  -0.038288   0.005694  -0.005953  -0.002770   0.004459
    19  H    0.613563  -0.041289  -0.005969   0.005825  -0.003578  -0.000451
    20  C   -0.041289   4.997159   0.384341   0.383260   0.359238  -0.035024
    21  H   -0.005969   0.384341   0.587247  -0.038786  -0.037740   0.005029
    22  H    0.005825   0.383260  -0.038786   0.581964  -0.037058  -0.004832
    23  C   -0.003578   0.359238  -0.037740  -0.037058   5.125993   0.380165
    24  H   -0.000451  -0.035024   0.005029  -0.004832   0.380165   0.558749
    25  H    0.004990  -0.035430  -0.004880   0.004990   0.380031  -0.032544
    26  H   -0.000013  -0.027234  -0.003036  -0.002777   0.377248  -0.029663
    27  H    0.000001   0.000000  -0.000000   0.000000   0.000000  -0.000000
              25         26         27
     1  C    0.000000  -0.000000  -0.000003
     2  O   -0.000000   0.000000   0.000045
     3  C    0.000000   0.000001  -0.000156
     4  H    0.000001   0.000000   0.000002
     5  H   -0.000004   0.000000   0.000333
     6  C    0.000000   0.000000   0.383262
     7  H    0.000000  -0.000000  -0.028345
     8  H   -0.000000   0.000000  -0.045204
     9  N   -0.000000   0.000000  -0.051232
    10  C    0.000000  -0.000000  -0.003603
    11  H   -0.000000   0.000000   0.008414
    12  H    0.000000   0.000000  -0.001640
    13  H    0.000000  -0.000000  -0.000023
    14  C    0.000059  -0.000123   0.000012
    15  H    0.000005  -0.000001   0.000002
    16  H    0.000002   0.000002   0.000000
    17  C   -0.005346   0.004236   0.000000
    18  H   -0.000420  -0.000038  -0.000000
    19  H    0.004990  -0.000013   0.000001
    20  C   -0.035430  -0.027234   0.000000
    21  H   -0.004880  -0.003036  -0.000000
    22  H    0.004990  -0.002777   0.000000
    23  C    0.380031   0.377248   0.000000
    24  H   -0.032544  -0.029663  -0.000000
    25  H    0.561027  -0.029566  -0.000000
    26  H   -0.029566   0.545394   0.000000
    27  H   -0.000000   0.000000   0.556908
 Mulliken charges:
               1
     1  C    0.601769
     2  O   -0.512198
     3  C   -0.425037
     4  H    0.181190
     5  H    0.157665
     6  C   -0.369522
     7  H    0.181438
     8  H    0.182189
     9  N   -0.406158
    10  C   -0.377048
    11  H    0.162294
    12  H    0.168723
    13  H    0.222145
    14  C   -0.274360
    15  H    0.157394
    16  H    0.173002
    17  C   -0.278208
    18  H    0.140527
    19  H    0.132092
    20  C   -0.284457
    21  H    0.148945
    22  H    0.152761
    23  C   -0.497941
    24  H    0.158914
    25  H    0.157084
    26  H    0.165568
    27  H    0.181227
 Sum of Mulliken charges =  -0.00000
 Mulliken charges with hydrogens summed into heavy atoms:
               1
     1  C    0.601769
     2  O   -0.512198
     3  C   -0.086182
     6  C    0.175332
     9  N   -0.406158
    10  C    0.176114
    14  C    0.056036
    17  C   -0.005588
    20  C    0.017249
    23  C   -0.016374
 Electronic spatial extent (au):  <R**2>=           2843.3998
 Charge=             -0.0000 electrons
 Dipole moment (field-independent basis, Debye):
    X=              0.8524    Y=              3.2951    Z=             -0.0023  Tot=              3.4035
 Quadrupole moment (field-independent basis, Debye-Ang):
   XX=            -56.7447   YY=            -67.3280   ZZ=            -62.6236
   XY=              5.7802   XZ=             -0.4803   YZ=             -0.3962
 Traceless Quadrupole moment (field-independent basis, Debye-Ang):
   XX=              5.4874   YY=             -5.0959   ZZ=             -0.3915
   XY=              5.7802   XZ=             -0.4803   YZ=             -0.3962
 Octapole moment (field-independent basis, Debye-Ang**2):
  XXX=             48.6780  YYY=              7.6602  ZZZ=              0.3204  XYY=              2.7597
  XXY=              2.4765  XXZ=             -1.6343  XZZ=              4.6912  YZZ=             -1.1066
  YYZ=             -0.1709  XYZ=              0.0294
 Hexadecapole moment (field-independent basis, Debye-Ang**3):
 XXXX=          -3191.5693 YYYY=           -409.8312 ZZZZ=           -117.3872 XXXY=             25.3348
 XXXZ=              1.8704 YYYX=             14.6549 YYYZ=             -2.7757 ZZZX=             -3.8432
 ZZZY=              0.5517 XXYY=           -612.8033 XXZZ=           -561.8465 YYZZ=            -84.5474
 XXYZ=             -0.0786 YYXZ=              0.4535 ZZXY=              0.5216
 N-N= 5.428535950287D+02 E-N=-2.119953788299D+03  KE= 4.420257122595D+02
 Calling FoFJK, ICntrl=      2127 FMM=F ISym2X=0 I1Cent= 0 IOpClX= 0 NMat=1 NMatS=1 NMatT=0.
 ***** Axes restored to original set *****
 -------------------------------------------------------------------
 Center     Atomic                   Forces (Hartrees/Bohr)
 Number     Number              X              Y              Z
 -------------------------------------------------------------------
      1        6           0.005237890   -0.004315325    0.000491197
      2        8          -0.004355938    0.006064832   -0.001535627
      3        6          -0.000681867    0.000231009   -0.000163780
      4        1          -0.000191283   -0.000042982    0.000059517
      5        1           0.000134134    0.000557422    0.002046392
      6        6           0.021742634   -0.007329780   -0.000954809
      7        1           0.003134992    0.015384884    0.003769375
      8        1          -0.010473816    0.006284852   -0.016041387
      9        7           0.000138174   -0.010236786   -0.002824200
     10        6           0.002693114   -0.001816230    0.000522698
     11        1          -0.000277100   -0.001338556   -0.000110817
     12        1          -0.000434560   -0.000199290    0.000145686
     13        1          -0.000402018   -0.000082717   -0.000101727
     14        6          -0.000231828   -0.001601374    0.002148417
     15        1           0.000139391    0.000699252   -0.000971831
     16        1          -0.000339220    0.000313235   -0.000251198
     17        6          -0.000498806    0.000563070    0.000475525
     18        1          -0.000069956    0.000123483   -0.000113924
     19        1           0.000484564   -0.000305019   -0.000146221
     20        6           0.000205097   -0.001321994    0.001215668
     21        1           0.000388078    0.000717115   -0.000955020
     22        1          -0.000033000    0.000171131   -0.000284957
     23        6          -0.000477266    0.000589094   -0.000194240
     24        1           0.000219734    0.000056860   -0.000138917
     25        1           0.000661638   -0.000272831    0.000008926
     26        1          -0.000217861   -0.000128242   -0.000093858
     27        1          -0.016494921   -0.002765112    0.013999112
 -------------------------------------------------------------------
 Cartesian Forces:  Max     0.021742634 RMS     0.004871357

 GradGradGradGradGradGradGradGradGradGradGradGradGradGradGradGradGradGrad
 Berny optimization.
 FormGI is forming the generalized inverse of G from B-inverse, IUseBI=4.
 Internal  Forces:  Max     0.021531540 RMS     0.003402377
 Search for a local minimum.
 Step number   1 out of a maximum of  142
 All quantities printed in internal units (Hartrees-Bohrs-Radians)
 Mixed Optimization -- RFO/linear search
 Second derivative matrix not updated -- first step.
 ITU=  0
     Eigenvalues ---    0.00494   0.00499   0.00513   0.00536   0.00537
     Eigenvalues ---    0.01075   0.01152   0.01187   0.01450   0.02038
     Eigenvalues ---    0.03532   0.03611   0.03648   0.04042   0.04889
     Eigenvalues ---    0.04910   0.04926   0.05431   0.05464   0.05649
     Eigenvalues ---    0.07611   0.07708   0.07771   0.07771   0.08356
     Eigenvalues ---    0.08428   0.08554   0.09482   0.12205   0.12256
     Eigenvalues ---    0.12350   0.12923   0.16000   0.16000   0.16000
     Eigenvalues ---    0.16000   0.16000   0.16000   0.16000   0.16000
     Eigenvalues ---    0.16000   0.21837   0.21868   0.21882   0.21887
     Eigenvalues ---    0.24471   0.24754   0.24978   0.25000   0.30313
     Eigenvalues ---    0.30348   0.30454   0.30623   0.30626   0.33034
     Eigenvalues ---    0.33228   0.33249   0.33260   0.33307   0.33479
     Eigenvalues ---    0.33660   0.33682   0.33689   0.33767   0.33808
     Eigenvalues ---    0.33927   0.33998   0.34535   0.37230   0.37230
     Eigenvalues ---    0.37230   0.38688   0.39841   0.50252   0.92658
 RFO step:  Lambda=-6.29045105D-03 EMin= 4.93966851D-03
 Linear search not attempted -- first point.
 Iteration  1 RMS(Cart)=  0.11996478 RMS(Int)=  0.00385505
 Iteration  2 RMS(Cart)=  0.00792312 RMS(Int)=  0.00012163
 Iteration  3 RMS(Cart)=  0.00002860 RMS(Int)=  0.00012085
 Iteration  4 RMS(Cart)=  0.00000000 RMS(Int)=  0.00012085
 Variable       Old X    -DE/DX   Delta X   Delta X   Delta X     New X
                                 (Linear)    (Quad)   (Total)
    R1        2.31731  -0.00740   0.00000  -0.00793  -0.00793   2.30939
    R2        2.86738   0.00089   0.00000   0.00285   0.00285   2.87023
    R3        2.59612   0.00072   0.00000   0.00142   0.00142   2.59753
    R4        2.08598  -0.00010   0.00000  -0.00030  -0.00030   2.08568
    R5        2.07454   0.00142   0.00000   0.00411   0.00411   2.07865
    R6        2.86732   0.00060   0.00000   0.00193   0.00193   2.86925
    R7        2.02201   0.01510   0.00000   0.03990   0.03990   2.06190
    R8        2.02201   0.02000   0.00000   0.05283   0.05283   2.07484
    R9        2.71771   0.01024   0.00000   0.02529   0.02529   2.74300
   R10        2.02201   0.02153   0.00000   0.05687   0.05687   2.07888
   R11        2.73376   0.00192   0.00000   0.00488   0.00488   2.73864
   R12        2.07858   0.00047   0.00000   0.00137   0.00137   2.07995
   R13        2.07870  -0.00004   0.00000  -0.00011  -0.00011   2.07859
   R14        2.06436  -0.00020   0.00000  -0.00057  -0.00057   2.06379
   R15        2.08515  -0.00120   0.00000  -0.00354  -0.00354   2.08161
   R16        2.07725  -0.00022   0.00000  -0.00064  -0.00064   2.07661
   R17        2.87274   0.00035   0.00000   0.00112   0.00112   2.87386
   R18        2.08617   0.00014   0.00000   0.00041   0.00041   2.08658
   R19        2.08992  -0.00057   0.00000  -0.00169  -0.00169   2.08823
   R20        2.87344   0.00035   0.00000   0.00112   0.00112   2.87456
   R21        2.08653  -0.00126   0.00000  -0.00371  -0.00371   2.08283
   R22        2.08218   0.00003   0.00000   0.00008   0.00008   2.08226
   R23        2.87067   0.00013   0.00000   0.00042   0.00042   2.87108
   R24        2.07656   0.00021   0.00000   0.00060   0.00060   2.07716
   R25        2.07908  -0.00060   0.00000  -0.00174  -0.00174   2.07734
   R26        2.07334  -0.00021   0.00000  -0.00060  -0.00060   2.07275
    A1        2.10901  -0.00070   0.00000  -0.00296  -0.00302   2.10599
    A2        2.13183  -0.00381   0.00000  -0.01511  -0.01516   2.11668
    A3        2.04143   0.00450   0.00000   0.01731   0.01726   2.05869
    A4        1.88746   0.00058   0.00000  -0.00318  -0.00333   1.88413
    A5        1.93295   0.00178   0.00000   0.01557   0.01559   1.94854
    A6        1.97203  -0.00270   0.00000  -0.01363  -0.01369   1.95834
    A7        1.83572  -0.00004   0.00000   0.00569   0.00570   1.84142
    A8        1.92737   0.00024   0.00000  -0.00629  -0.00639   1.92098
    A9        1.90348   0.00035   0.00000   0.00316   0.00322   1.90670
   A10        1.91063  -0.00455   0.00000  -0.02944  -0.02957   1.88106
   A11        1.91063   0.00705   0.00000   0.04483   0.04434   1.95497
   A12        1.91063  -0.00375   0.00000  -0.01567  -0.01646   1.89417
   A13        1.91063   0.00119   0.00000   0.00369   0.00361   1.91424
   A14        1.91063  -0.00331   0.00000  -0.02475  -0.02476   1.88587
   A15        1.91063   0.00338   0.00000   0.02135   0.02091   1.93154
   A16        2.21920  -0.00127   0.00000  -0.00318  -0.00336   2.21584
   A17        2.07931  -0.00436   0.00000  -0.01539  -0.01560   2.06371
   A18        1.96921   0.00575   0.00000   0.02431   0.02416   1.99337
   A19        1.92084   0.00157   0.00000   0.00961   0.00960   1.93043
   A20        1.92528   0.00022   0.00000   0.00165   0.00164   1.92692
   A21        1.89902   0.00014   0.00000   0.00033   0.00033   1.89935
   A22        1.89086  -0.00071   0.00000  -0.00328  -0.00330   1.88756
   A23        1.91441  -0.00099   0.00000  -0.00659  -0.00660   1.90781
   A24        1.91347  -0.00025   0.00000  -0.00180  -0.00180   1.91167
   A25        1.89862  -0.00000   0.00000   0.00851   0.00840   1.90702
   A26        1.92221  -0.00132   0.00000  -0.01516  -0.01515   1.90706
   A27        1.95391   0.00175   0.00000   0.00792   0.00782   1.96173
   A28        1.83614   0.00037   0.00000   0.00085   0.00092   1.83706
   A29        1.91242  -0.00019   0.00000   0.00760   0.00748   1.91991
   A30        1.93649  -0.00069   0.00000  -0.00965  -0.00965   1.92685
   A31        1.91940   0.00006   0.00000  -0.00436  -0.00440   1.91500
   A32        1.90976   0.00038   0.00000   0.00639   0.00638   1.91615
   A33        1.97818  -0.00064   0.00000  -0.00312  -0.00316   1.97502
   A34        1.84139  -0.00010   0.00000   0.00045   0.00048   1.84187
   A35        1.91269  -0.00016   0.00000  -0.00623  -0.00626   1.90643
   A36        1.89728   0.00052   0.00000   0.00732   0.00732   1.90459
   A37        1.89970   0.00001   0.00000   0.00267   0.00266   1.90236
   A38        1.91222  -0.00029   0.00000  -0.00443  -0.00444   1.90778
   A39        1.96453   0.00029   0.00000   0.00110   0.00109   1.96562
   A40        1.84365   0.00012   0.00000   0.00112   0.00113   1.84478
   A41        1.91589   0.00008   0.00000   0.00337   0.00336   1.91925
   A42        1.92381  -0.00022   0.00000  -0.00375  -0.00375   1.92005
   A43        1.93833   0.00005   0.00000   0.00078   0.00078   1.93911
   A44        1.93301   0.00042   0.00000   0.00298   0.00298   1.93599
   A45        1.95918  -0.00038   0.00000  -0.00321  -0.00321   1.95598
   A46        1.86949  -0.00001   0.00000   0.00180   0.00180   1.87128
   A47        1.87913   0.00007   0.00000  -0.00045  -0.00046   1.87868
   A48        1.88109  -0.00015   0.00000  -0.00184  -0.00183   1.87925
    D1        1.87854   0.00006   0.00000   0.06686   0.06685   1.94538
    D2       -2.40173   0.00129   0.00000   0.08020   0.08020  -2.32152
    D3       -0.26038   0.00114   0.00000   0.08611   0.08604  -0.17434
    D4       -1.21827   0.00044   0.00000   0.08610   0.08614  -1.13213
    D5        0.78465   0.00167   0.00000   0.09944   0.09950   0.88415
    D6        2.92600   0.00151   0.00000   0.10535   0.10533   3.03133
    D7        2.92276   0.00322   0.00000   0.11863   0.11838   3.04114
    D8       -0.01645   0.00183   0.00000   0.07890   0.07907   0.06262
    D9       -0.26425   0.00293   0.00000   0.09947   0.09931  -0.16495
   D10        3.07973   0.00154   0.00000   0.05974   0.05999   3.13972
   D11       -0.98024  -0.00034   0.00000  -0.01825  -0.01818  -0.99842
   D12        1.02368  -0.00062   0.00000  -0.02071  -0.02069   1.00299
   D13       -3.09624  -0.00122   0.00000  -0.03864  -0.03862  -3.13486
   D14       -3.09673   0.00062   0.00000  -0.00016  -0.00016  -3.09688
   D15       -1.09280   0.00034   0.00000  -0.00262  -0.00267  -1.09547
   D16        1.07046  -0.00026   0.00000  -0.02054  -0.02060   1.04986
   D17        1.17744   0.00034   0.00000  -0.00532  -0.00528   1.17216
   D18       -3.10182   0.00006   0.00000  -0.00779  -0.00780  -3.10962
   D19       -0.93856  -0.00055   0.00000  -0.02571  -0.02573  -0.96428
   D20        0.24549   0.00079   0.00000   0.00373   0.00386   0.24934
   D21       -3.08777   0.00117   0.00000   0.03766   0.03805  -3.04972
   D22        2.33988   0.00026   0.00000  -0.00261  -0.00270   2.33718
   D23       -0.99338   0.00064   0.00000   0.03131   0.03149  -0.96188
   D24       -1.84891  -0.00100   0.00000  -0.01760  -0.01804  -1.86694
   D25        1.10102  -0.00062   0.00000   0.01633   0.01616   1.11718
   D26        2.07751  -0.00012   0.00000  -0.00231  -0.00230   2.07521
   D27       -2.12020   0.00013   0.00000   0.00073   0.00076  -2.11944
   D28       -0.02057   0.00005   0.00000  -0.00027  -0.00025  -0.02082
   D29       -0.88937  -0.00072   0.00000  -0.03426  -0.03429  -0.92366
   D30        1.19611  -0.00047   0.00000  -0.03122  -0.03123   1.16488
   D31       -2.98745  -0.00055   0.00000  -0.03221  -0.03224  -3.01968
   D32       -1.15277   0.00079   0.00000   0.04334   0.04337  -1.10939
   D33        0.86220   0.00092   0.00000   0.04508   0.04510   0.90730
   D34        2.98280   0.00142   0.00000   0.05696   0.05698   3.03978
   D35        3.02241  -0.00022   0.00000   0.02226   0.02224   3.04466
   D36       -1.24580  -0.00009   0.00000   0.02400   0.02396  -1.22184
   D37        0.87480   0.00041   0.00000   0.03588   0.03585   0.91064
   D38        1.00248  -0.00016   0.00000   0.02229   0.02230   1.02478
   D39        3.01745  -0.00004   0.00000   0.02402   0.02403   3.04147
   D40       -1.14514   0.00047   0.00000   0.03590   0.03591  -1.10923
   D41       -0.98433  -0.00031   0.00000  -0.01523  -0.01522  -0.99955
   D42        1.02373  -0.00032   0.00000  -0.01483  -0.01483   1.00891
   D43       -3.11237  -0.00061   0.00000  -0.02210  -0.02210  -3.13446
   D44       -3.13564   0.00019   0.00000  -0.00268  -0.00269  -3.13833
   D45       -1.12758   0.00018   0.00000  -0.00228  -0.00230  -1.12988
   D46        1.01951  -0.00011   0.00000  -0.00956  -0.00957   1.00994
   D47        1.14326   0.00012   0.00000  -0.00389  -0.00388   1.13938
   D48       -3.13187   0.00011   0.00000  -0.00349  -0.00349  -3.13535
   D49       -0.98478  -0.00019   0.00000  -0.01077  -0.01076  -0.99554
   D50       -1.04971   0.00007   0.00000   0.00389   0.00389  -1.04582
   D51        1.02529   0.00037   0.00000   0.00858   0.00858   1.03387
   D52        3.12877   0.00021   0.00000   0.00613   0.00613   3.13490
   D53        3.11463  -0.00020   0.00000  -0.00264  -0.00264   3.11199
   D54       -1.09355   0.00010   0.00000   0.00206   0.00205  -1.09150
   D55        1.00993  -0.00006   0.00000  -0.00039  -0.00040   1.00953
   D56        1.09087  -0.00026   0.00000  -0.00380  -0.00380   1.08708
   D57       -3.11731   0.00004   0.00000   0.00090   0.00090  -3.11641
   D58       -1.01383  -0.00012   0.00000  -0.00155  -0.00155  -1.01538
         Item               Value     Threshold  Converged?
 Maximum Force            0.021532     0.000450     NO 
 RMS     Force            0.003402     0.000300     NO 
 Maximum Displacement     0.403888     0.001800     NO 
 RMS     Displacement     0.120664     0.001200     NO 
 Predicted change in Energy=-3.520432D-03
 GradGradGradGradGradGradGradGradGradGradGradGradGradGradGradGradGradGrad

                          Input orientation:                          
 ---------------------------------------------------------------------
 Center     Atomic      Atomic             Coordinates (Angstroms)
 Number     Number       Type             X           Y           Z
 ---------------------------------------------------------------------
      1          6           0        3.098228   -1.264669   -2.378521
      2          8           0        3.744496   -2.301435   -2.408876
      3          6           0        3.715839    0.017902   -1.848888
      4          1           0        3.837601    0.712681   -2.697769
      5          1           0        3.044969    0.530130   -1.143552
      6          6           0        0.907636   -0.079481   -2.816879
      7          1           0        1.411803    0.840650   -2.517380
      8          1           0        0.453682    0.092306   -3.801728
      9          7           0        1.823994   -1.202800   -2.890286
     10          6           0        1.229538   -2.422456   -3.399515
     11          1           0        0.319417   -2.675076   -2.834427
     12          1           0        0.953579   -2.301925   -4.457436
     13          1           0        1.952830   -3.234783   -3.301133
     14          6           0        5.056174   -0.224982   -1.178163
     15          1           0        4.927715   -0.954624   -0.362985
     16          1           0        5.737321   -0.707131   -1.893108
     17          6           0        5.674236    1.055195   -0.637860
     18          1           0        5.892889    1.744444   -1.472319
     19          1           0        4.942256    1.584256   -0.001136
     20          6           0        6.946853    0.814772    0.159976
     21          1           0        6.725058    0.123898    0.989620
     22          1           0        7.681382    0.292925   -0.474292
     23          6           0        7.548362    2.100301    0.702106
     24          1           0        7.804864    2.791733   -0.112962
     25          1           0        6.836323    2.620721    1.358295
     26          1           0        8.461406    1.915900    1.281265
     27          1           0        0.098916   -0.284304   -2.099780
 ---------------------------------------------------------------------
                    Distance matrix (angstroms):
                    1          2          3          4          5
     1  C    0.000000
     2  O    1.222075   0.000000
     3  C    1.518862   2.386154   0.000000
     4  H    2.135065   3.029360   1.103695   0.000000
     5  H    2.179287   3.179331   1.099974   1.754190   0.000000
     6  C    2.528937   3.626474   2.971951   3.037500   2.782057
     7  H    2.701052   3.914834   2.536214   2.435860   2.156631
     8  H    3.295530   4.301103   3.802734   3.613101   3.737962
     9  N    1.374556   2.264306   2.480666   2.785811   2.746800
    10  C    2.423820   2.705739   3.813330   4.138058   4.135569
    11  H    3.149426   3.471580   4.445120   4.886020   4.534428
    12  H    3.161852   3.462054   4.451539   4.527898   4.834902
    13  H    2.458556   2.208467   3.974566   4.415753   4.474650
    14  C    2.520984   2.747145   1.518342   2.161790   2.148566
    15  H    2.739624   2.720217   2.149967   3.069116   2.521609
    16  H    2.740672   2.603684   2.148026   2.504452   3.056371
    17  C    3.879109   4.257623   2.525447   2.780965   2.728454
    18  H    4.205484   4.675668   2.803979   2.605854   3.113406
    19  H    4.143522   4.725509   2.715097   3.041667   2.452752
    20  C    5.057663   5.154108   3.887157   4.224284   4.123700
    21  H    5.140660   5.129889   4.138087   4.720266   4.272996
    22  H    5.201681   5.096311   4.206029   4.460347   4.690469
    23  C    6.373145   6.597188   5.052938   5.220573   5.113945
    24  H    6.613590   6.906386   5.237147   5.171350   5.369689
    25  H    6.559985   6.926658   5.176689   5.393014   5.000416
    26  H    7.230057   7.324772   5.993385   6.217718   6.094085
    27  H    3.167758   4.177872   3.638188   3.915270   3.202641
                    6          7          8          9         10
     6  C    0.000000
     7  H    1.091112   0.000000
     8  H    1.097959   1.768492   0.000000
     9  N    1.451532   2.117699   2.094225   0.000000
    10  C    2.435696   3.385151   2.662283   1.449225   0.000000
    11  H    2.661469   3.695153   2.934638   2.105817   1.100664
    12  H    2.762751   3.721501   2.532230   2.102773   1.099945
    13  H    3.358997   4.185228   3.683416   2.077101   1.092110
    14  C    4.462838   4.026229   5.307230   3.786090   4.940287
    15  H    4.790460   4.497340   5.739163   4.010228   5.005154
    16  H    4.957131   4.636318   5.674396   4.068683   5.052891
    17  C    5.362470   4.663364   6.179919   4.999633   6.283004
    18  H    5.476066   4.689257   6.143344   5.220420   6.544004
    19  H    5.193707   4.398697   6.067760   5.083152   6.433273
    20  C    6.792164   6.148633   7.640571   6.294313   7.472437
    21  H    6.955084   6.406517   7.892285   6.390167   7.479917
    22  H    7.177049   6.616784   7.959379   6.510239   7.586601
    23  C    7.825212   7.043377   8.640084   7.522243   8.786704
    24  H    7.945237   7.103463   8.656430   7.709775   9.012442
    25  H    7.737732   6.900356   8.588179   7.602183   8.916637
    26  H    8.822458   8.079775   9.658465   8.437024   9.645255
    27  H    1.100096   1.778647   1.778854   2.108182   2.745781
                   11         12         13         14         15
    11  H    0.000000
    12  H    1.782011   0.000000
    13  H    1.788610   1.790464   0.000000
    14  C    5.584177   5.647885   4.816289   0.000000
    15  H    5.504942   5.862893   4.762540   1.101542   0.000000
    16  H    5.840596   5.657148   4.763814   1.098897   1.748712
    17  C    6.885776   6.938589   6.272623   1.520784   2.161532
    18  H    7.242312   7.048461   6.607672   2.159922   3.073622
    19  H    6.894932   7.132360   6.561234   2.161415   2.564578
    20  C    8.066498   8.182519   7.301947   2.538971   2.735172
    21  H    7.968050   8.298494   7.243304   2.757930   2.494632
    22  H    8.281171   8.237840   7.297401   2.766836   3.025136
    23  C    9.357827   9.460001   8.706263   3.892731   4.163505
    24  H    9.660449   9.579139   8.984967   4.217881   4.730295
    25  H    9.385863   9.626102   8.935642   4.207205   4.403257
    26  H   10.213126  10.348439   9.481005   4.714634   4.840499
    27  H    2.510800   3.218662   3.685861   5.042550   5.175238
                   16         17         18         19         20
    16  H    0.000000
    17  C    2.164583   0.000000
    18  H    2.492285   1.104172   0.000000
    19  H    3.076060   1.105042   1.758905   0.000000
    20  C    2.827421   1.521151   2.153954   2.153247   0.000000
    21  H    3.158537   2.149473   3.062650   2.508511   1.102185
    22  H    2.606247   2.153241   2.510313   3.065000   1.101885
    23  C    4.230447   2.529843   2.755966   2.748206   1.519311
    24  H    4.436858   2.798331   2.569108   3.108863   2.172338
    25  H    4.780589   2.790332   3.109711   2.551431   2.170170
    26  H    4.937366   3.491729   3.769470   3.760180   2.182577
    27  H    5.658013   5.917403   6.170872   5.599444   7.294430
                   21         22         23         24         25
    21  H    0.000000
    22  H    1.756748   0.000000
    23  C    2.160247   2.160605   0.000000
    24  H    3.082047   2.527815   1.099185   0.000000
    25  H    2.526347   3.080768   1.099282   1.769722   0.000000
    26  H    2.512217   2.514849   1.096849   1.772569   1.773020
    27  H    7.322348   7.776194   8.308499   8.531770   8.111110
                   26         27
    26  H    0.000000
    27  H    9.284590   0.000000
 Stoichiometry    C8H17NO
 Framework group  C1[X(C8H17NO)]
 Deg. of freedom    75
 Full point group                 C1      NOp   1
 Largest Abelian subgroup         C1      NOp   1
 Largest concise Abelian subgroup C1      NOp   1
                         Standard orientation:                         
 ---------------------------------------------------------------------
 Center     Atomic      Atomic             Coordinates (Angstroms)
 Number     Number       Type             X           Y           Z
 ---------------------------------------------------------------------
      1          6           0        1.442523   -0.427094    0.046156
      2          8           0        1.394466   -1.648210    0.040451
      3          6           0        0.172441    0.397584    0.163377
      4          1           0        0.180726    0.897006    1.147579
      5          1           0        0.146063    1.209572   -0.578192
      6          6           0        2.845018    1.673057   -0.087612
      7          1           0        1.924090    2.230305    0.090976
      8          1           0        3.585047    2.002093    0.653742
      9          7           0        2.644220    0.239900    0.025015
     10          6           0        3.860148   -0.541015   -0.084279
     11          1           0        4.408925   -0.277088   -1.001147
     12          1           0        4.517974   -0.348837    0.776076
     13          1           0        3.597065   -1.600569   -0.113225
     14          6           0       -1.078214   -0.451436    0.020587
     15          1           0       -1.050775   -0.979239   -0.945884
     16          1           0       -1.068055   -1.243020    0.782733
     17          6           0       -2.352622    0.371453    0.127917
     18          1           0       -2.423909    0.818283    1.135119
     19          1           0       -2.306630    1.225326   -0.572015
     20          6           0       -3.611233   -0.435523   -0.152416
     21          1           0       -3.534569   -0.882413   -1.157017
     22          1           0       -3.663407   -1.284319    0.548280
     23          6           0       -4.875921    0.400364   -0.051611
     24          1           0       -4.986564    0.831056    0.953611
     25          1           0       -4.850843    1.237709   -0.763400
     26          1           0       -5.777029   -0.188578   -0.261918
     27          1           0        3.223789    1.934754   -1.086741
 ---------------------------------------------------------------------
 Rotational constants (GHZ):           3.7942489           0.4331084           0.3962722
 Standard basis: 6-31G(d) (5D, 7F)
 There are   184 symmetry adapted cartesian basis functions of A   symmetry.
 There are   174 symmetry adapted basis functions of A   symmetry.
   174 basis functions,   348 primitive gaussians,   184 cartesian basis functions
    40 alpha electrons       40 beta electrons
       nuclear repulsion energy       541.8033325946 Hartrees.
 NAtoms=   27 NActive=   27 NUniq=   27 SFac= 1.00D+00 NAtFMM=   60 NAOKFM=F Big=F
 Integral buffers will be    131072 words long.
 Raffenetti 2 integral format.
 Two-electron integral symmetry is turned on.
 One-electron integrals computed using PRISM.
 NBasis=   174 RedAO= T EigKep=  2.46D-03  NBF=   174
 NBsUse=   174 1.00D-06 EigRej= -1.00D+00 NBFU=   174
 Initial guess from the checkpoint file:  "/mnt/lustre/scratch/nvme/SLURM/4751695/usccqdma.SV7JMpoGMB/Gau-127339.chk"
 B after Tr=    -0.000000   -0.000000    0.000000
         Rot=    0.999874    0.015565   -0.000217    0.002995 Ang=   1.82 deg.
 ExpMin= 1.61D-01 ExpMax= 5.48D+03 ExpMxC= 8.25D+02 IAcc=3 IRadAn=         5 AccDes= 0.00D+00
 Harris functional with IExCor= 1009 and IRadAn=       5 diagonalized for initial guess.
 HarFok:  IExCor= 1009 AccDes= 0.00D+00 IRadAn=         5 IDoV= 1 UseB2=F ITyADJ=14
 ICtDFT=  3500011 ScaDFX=  1.000000  1.000000  1.000000  1.000000
 FoFCou: FMM=F IPFlag=           0 FMFlag=      100000 FMFlg1=           0
         NFxFlg=           0 DoJE=T BraDBF=F KetDBF=T FulRan=T
         wScrn=  0.000000 ICntrl=       500 IOpCl=  0 I1Cent=   200000004 NGrid=           0
         NMat0=    1 NMatS0=      1 NMatT0=    0 NMatD0=    1 NMtDS0=    0 NMtDT0=    0
 Petite list used in FoFCou.
 Requested convergence on RMS density matrix=1.00D-08 within 128 cycles.
 Requested convergence on MAX density matrix=1.00D-06.
 Requested convergence on             energy=1.00D-06.
 No special actions if energy rises.
 Integral accuracy reduced to 1.0D-05 until final iterations.
 Initial convergence to 1.0D-05 achieved.  Increase integral accuracy.
 SCF Done:  E(RM06) =  -444.745249227     A.U. after   13 cycles
            NFock= 13  Conv=0.30D-08     -V/T= 2.0065
 Calling FoFJK, ICntrl=      2127 FMM=F ISym2X=0 I1Cent= 0 IOpClX= 0 NMat=1 NMatS=1 NMatT=0.
 ***** Axes restored to original set *****
 -------------------------------------------------------------------
 Center     Atomic                   Forces (Hartrees/Bohr)
 Number     Number              X              Y              Z
 -------------------------------------------------------------------
      1        6           0.002665507    0.000602417   -0.002955257
      2        8           0.000199695   -0.000060736    0.001778022
      3        6          -0.001104393    0.000551268   -0.000138602
      4        1          -0.000193451    0.000631245    0.000406259
      5        1          -0.001705067   -0.000635348    0.000337209
      6        6           0.005938367   -0.003676780   -0.000002698
      7        1           0.001410027    0.000430353    0.000270518
      8        1          -0.000637956    0.000066331   -0.000781062
      9        7          -0.005204067    0.000355661    0.001455734
     10        6          -0.000666080    0.000678958   -0.000458172
     11        1           0.000035086    0.000257865    0.000202949
     12        1          -0.000203355   -0.000131474    0.000047451
     13        1           0.000035636    0.000719315   -0.000286783
     14        6           0.000747462   -0.000144182    0.000216712
     15        1          -0.000320798    0.000456220   -0.000274361
     16        1           0.000360723   -0.000265551    0.000196201
     17        6          -0.000364773    0.000089364   -0.000330158
     18        1          -0.000325345    0.000231420   -0.000092935
     19        1           0.000215731   -0.000263668    0.000227601
     20        6           0.000145368   -0.000348001    0.000014169
     21        1           0.000096147    0.000175031   -0.000006573
     22        1          -0.000117687   -0.000013132   -0.000163611
     23        6          -0.000205555    0.000142768   -0.000104628
     24        1           0.000004592   -0.000107996   -0.000023501
     25        1           0.000135531    0.000007968    0.000067361
     26        1           0.000063300   -0.000041294    0.000035182
     27        1          -0.001004644    0.000291978    0.000362972
 -------------------------------------------------------------------
 Cartesian Forces:  Max     0.005938367 RMS     0.001174008

 GradGradGradGradGradGradGradGradGradGradGradGradGradGradGradGradGradGrad
 Berny optimization.
 Using GEDIIS/GDIIS optimizer.
 FormGI is forming the generalized inverse of G from B-inverse, IUseBI=4.
 Internal  Forces:  Max     0.006964364 RMS     0.001242646
 Search for a local minimum.
 Step number   2 out of a maximum of  142
 All quantities printed in internal units (Hartrees-Bohrs-Radians)
 Mixed Optimization -- RFO/linear search
 Update second derivatives using D2CorX and points    1    2
 DE= -3.27D-03 DEPred=-3.52D-03 R= 9.30D-01
 TightC=F SS=  1.41D+00  RLast= 3.45D-01 DXNew= 5.0454D-01 1.0338D+00
 Trust test= 9.30D-01 RLast= 3.45D-01 DXMaxT set to 5.05D-01
 ITU=  1  0
 Use linear search instead of GDIIS.
     Eigenvalues ---    0.00493   0.00495   0.00513   0.00536   0.00541
     Eigenvalues ---    0.01068   0.01163   0.01194   0.01412   0.01967
     Eigenvalues ---    0.03546   0.03604   0.03618   0.04139   0.04890
     Eigenvalues ---    0.04909   0.04910   0.05473   0.05484   0.05625
     Eigenvalues ---    0.07377   0.07550   0.07663   0.07683   0.08426
     Eigenvalues ---    0.08435   0.08524   0.09372   0.12253   0.12260
     Eigenvalues ---    0.12327   0.12843   0.15613   0.16000   0.16000
     Eigenvalues ---    0.16000   0.16000   0.16000   0.16000   0.16000
     Eigenvalues ---    0.16307   0.21734   0.21859   0.21873   0.21896
     Eigenvalues ---    0.23463   0.24842   0.24958   0.26646   0.30313
     Eigenvalues ---    0.30349   0.30454   0.30618   0.30635   0.33032
     Eigenvalues ---    0.33224   0.33247   0.33260   0.33287   0.33479
     Eigenvalues ---    0.33660   0.33682   0.33689   0.33763   0.33808
     Eigenvalues ---    0.33847   0.33998   0.34512   0.36159   0.37230
     Eigenvalues ---    0.37243   0.38711   0.45566   0.50258   0.92685
 RFO step:  Lambda=-1.62777372D-03 EMin= 4.93034576D-03
 Quartic linear search produced a step of  0.06054.
 Iteration  1 RMS(Cart)=  0.08458465 RMS(Int)=  0.00256201
 Iteration  2 RMS(Cart)=  0.00492356 RMS(Int)=  0.00023012
 Iteration  3 RMS(Cart)=  0.00001159 RMS(Int)=  0.00023008
 Iteration  4 RMS(Cart)=  0.00000000 RMS(Int)=  0.00023008
 Variable       Old X    -DE/DX   Delta X   Delta X   Delta X     New X
                                 (Linear)    (Quad)   (Total)
    R1        2.30939   0.00011  -0.00048  -0.00100  -0.00148   2.30791
    R2        2.87023  -0.00051   0.00017  -0.00134  -0.00116   2.86907
    R3        2.59753  -0.00008   0.00009   0.00004   0.00013   2.59766
    R4        2.08568   0.00006  -0.00002   0.00016   0.00014   2.08582
    R5        2.07865   0.00096   0.00025   0.00351   0.00376   2.08241
    R6        2.86925   0.00028   0.00012   0.00123   0.00135   2.87060
    R7        2.06190   0.00109   0.00242   0.00867   0.01109   2.07299
    R8        2.07484   0.00098   0.00320   0.01019   0.01339   2.08823
    R9        2.74300  -0.00585   0.00153  -0.01163  -0.01009   2.73290
   R10        2.07888   0.00092   0.00344   0.01060   0.01405   2.09293
   R11        2.73864  -0.00078   0.00030  -0.00139  -0.00110   2.73754
   R12        2.07995   0.00002   0.00008   0.00024   0.00032   2.08028
   R13        2.07859  -0.00001  -0.00001  -0.00005  -0.00005   2.07854
   R14        2.06379  -0.00054  -0.00003  -0.00169  -0.00172   2.06207
   R15        2.08161  -0.00047  -0.00021  -0.00195  -0.00217   2.07945
   R16        2.07661   0.00021  -0.00004   0.00056   0.00052   2.07713
   R17        2.87386  -0.00038   0.00007  -0.00113  -0.00106   2.87281
   R18        2.08658   0.00015   0.00002   0.00053   0.00055   2.08713
   R19        2.08823  -0.00014  -0.00010  -0.00067  -0.00077   2.08746
   R20        2.87456   0.00003   0.00007   0.00026   0.00033   2.87489
   R21        2.08283  -0.00013  -0.00022  -0.00094  -0.00117   2.08166
   R22        2.08226   0.00002   0.00000   0.00007   0.00008   2.08234
   R23        2.87108  -0.00000   0.00003   0.00004   0.00007   2.87115
[...]
 02460,-0.02875244,0.00541662,-0.01225373,-0.00048971,0.00074940,-0.000
 31591,-0.00028997,0.00078337,0.00024504,0.02021140,-0.08319084,0.00886
 191,0.02090699,-0.00437755,0.00904183,0.01077361,-0.00257243,0.0043483
 4,-0.01501420,0.54144503,-0.00074611,0.00043478,0.00045513,0.00024683,
 0.00002299,-0.00009797,-0.00024185,-0.00158576,-0.00093373,0.00006955,
 -0.00021678,0.00016009,-0.00029868,0.00007323,0.00017556,0.00000956,-0
 .00004678,0.00001685,0.00001584,-0.00000210,-0.00001324,-0.00000430,0.
 00000806,-0.00000056,-0.00003187,-0.00015967,-0.00009172,-0.00001766,0
 .00002883,-0.00003745,0.00000236,-0.00000358,-0.00000309,-0.00001127,-
 0.00001364,-0.00001000,-0.00000407,-0.00000192,0.00000484,-0.01313618,
 -0.00003964,-0.00685566,0.00126627,0.00105992,0.00081028,-0.00048224,0
 .00050385,0.00010795,-0.04441914,0.00915559,-0.09902142,-0.02437647,0.
 00407438,-0.01040733,0.02157930,-0.00373233,0.00937475,-0.03994232,-0.
 01702687,0.56315341,0.00000630,0.00000361,0.00012963,0.00002497,-0.000
 08291,-0.00000074,-0.00007860,0.00007924,0.00011094,0.00008152,-0.0001
 2697,0.00019251,-0.00000628,0.00004729,-0.00001482,0.00000642,0.000019
 24,0.00000424,0.00000276,0.00000100,-0.00000531,0.00000052,-0.00000046
 ,0.00000178,0.00000993,-0.00000021,-0.00000172,0.00001036,0.00000325,-
 0.00000417,-0.00000228,0.00000169,0.00000032,-0.00000065,-0.00000150,-
 0.00000017,0.00000148,-0.00000112,-0.00000098,0.00147203,0.00143517,0.
 00012105,-0.00016133,-0.00076197,0.00035912,-0.00002416,-0.00015527,0.
 00002926,0.00039993,0.02112080,-0.02453046,-0.00543559,0.00085960,-0.0
 0295118,0.00144528,-0.00014645,0.00083876,-0.04865540,-0.01001530,0.01
 320595,0.05358858,-0.00001772,-0.00005536,-0.00002266,0.00003845,0.000
 06962,0.00002432,0.00003840,0.00024575,-0.00022651,-0.00015376,-0.0000
 7829,-0.00008185,0.00002878,-0.00003852,0.00001169,-0.00000876,-0.0000
 0175,0.00000256,-0.00000373,0.00000117,0.00000426,0.00000108,-0.000001
 84,-0.00000114,0.00004363,0.00004169,0.00002021,-0.00000371,-0.0000186
 7,0.00000168,0.00000877,0.00000207,0.00000127,0.00000375,0.00000371,0.
 00000208,-0.00000561,-0.00000200,-0.00000005,-0.00032217,0.00057393,-0
 .00078004,0.00005614,0.00044088,0.00027944,0.00010790,0.00000850,-0.00
 004736,0.00033869,-0.00421613,0.00410380,0.00088515,0.00045991,0.00003
 790,-0.00008630,-0.00010147,-0.00005499,-0.01014032,-0.16531767,0.1252
 8631,0.01262457,0.18185394,-0.00011375,0.00021294,0.00001418,0.0000659
 5,-0.00019367,0.00004434,-0.00015108,-0.00040411,0.00019713,0.00021241
 ,-0.00006597,0.00016662,0.00003304,0.00002601,-0.00000674,0.00000865,0
 .00002472,0.00000027,0.00000298,-0.00000177,-0.00000365,0.00000433,-0.
 00000175,0.00000402,0.00001856,-0.00007620,-0.00000319,0.00000351,0.00
 001495,-0.00000430,-0.00000699,-0.00000030,-0.00000105,-0.00000170,-0.
 00000400,0.00000045,0.00000202,0.00000030,-0.00000356,0.00090060,0.000
 86360,0.00012310,-0.00063154,-0.00073346,-0.00001268,-0.00003149,0.000
 05591,-0.00007891,0.00030711,0.00896595,-0.01050412,-0.00294141,-0.000
 01450,0.00028444,-0.00014460,-0.00041897,0.00077821,0.01322060,0.12506
 779,-0.18207443,-0.00985220,-0.13708186,0.19554923,-0.00000537,0.00020
 385,-0.00005407,0.00009399,-0.00019263,-0.00004592,0.00012822,-0.00014
 906,-0.00037355,-0.00001146,0.00004356,0.00004090,0.00036759,-0.000056
 29,-0.00001555,0.00000452,0.00002758,0.00001842,-0.00000196,-0.0000039
 7,0.00000705,-0.00000045,-0.00000472,-0.00000525,0.00001390,-0.0000632
 6,-0.00000880,-0.00000085,0.00001122,0.00001663,-0.00000083,-0.0000038
 6,-0.00000325,-0.00000594,0.00000155,-0.00000540,-0.00000020,-0.000001
 87,0.00000432,0.00106494,0.00118781,0.00159302,-0.00005051,-0.00005748
 ,-0.00004545,-0.00006206,-0.00086614,-0.00092407,-0.02133666,0.0107810
 0,0.02161211,0.00145261,-0.00010227,-0.00015431,-0.00514554,0.00080594
 ,-0.00321217,-0.14147721,0.05653017,0.10913322,-0.00141053,0.00055725,
 0.00069309,0.15707040,-0.00006877,0.00001762,-0.00001313,0.00006193,0.
 00001356,0.00002223,-0.00013219,0.00001136,0.00011182,0.00003914,-0.00
 003422,0.00001088,-0.00007640,-0.00007218,-0.00005809,-0.00000330,0.00
 000519,-0.00000417,0.00000072,0.00000197,-0.00000403,0.00000494,-0.000
 00010,0.00000548,0.00004051,0.00000958,0.00002746,0.00000008,-0.000010
 61,-0.00000771,0.00000311,0.00000234,0.00000180,0.00000420,0.00000067,
 0.00000457,-0.00000364,-0.00000104,-0.00000340,-0.00076133,0.00034046,
 0.00043760,-0.00000548,0.00000701,0.00013072,0.00000537,0.00034549,-0.
 00011999,0.00403171,-0.00251021,-0.00360343,-0.00014237,-0.00010863,-0
 .00039816,0.00086332,0.00035966,0.00025068,0.05662581,-0.08169002,-0.0
 6314344,-0.01412468,0.00840794,0.01554049,-0.06164400,0.08866334,0.000
 12363,-0.00010967,-0.00004720,-0.00002862,0.00006235,0.00003142,-0.000
 11680,0.00030079,0.00022466,-0.00001210,0.00000742,-0.00000582,-0.0000
 4589,-0.00005179,-0.00012555,0.00000086,0.00000152,-0.00000476,-0.0000
 0126,0.00000203,0.00000025,-0.00000025,-0.00000025,0.00000143,0.000003
 90,0.00005404,0.00002495,0.00000491,-0.00001242,-0.00000114,0.00000101
 ,0.00000210,0.00000201,0.00000407,0.00000154,0.00000401,-0.00000008,-0
 .00000079,-0.00000283,-0.00001395,0.00054787,0.00076349,0.00008570,-0.
 00012164,-0.00005104,0.00044386,0.00009347,-0.00001673,-0.00937595,0.0
 0456159,0.00952651,0.00083340,-0.00004358,0.00077851,-0.00320375,0.000
 26415,0.00009463,0.10911221,-0.06291171,-0.17287850,0.01418647,-0.0091
 1776,-0.01609869,-0.11676649,0.07265015,0.18525646,-0.00028120,0.00057
 652,-0.00000325,-0.00004858,-0.00018919,-0.00008287,0.00002990,-0.0018
 9917,-0.00071056,0.00004470,0.00003711,-0.00003734,0.00005126,-0.00000
 672,0.00011048,0.00006594,-0.00008777,0.00001097,0.00002929,-0.0000215
 3,0.00000350,-0.00001931,0.00000952,-0.00002042,-0.00027705,-0.0003000
 4,-0.00019131,-0.00003314,0.00010552,0.00000813,-0.00003419,-0.0000252
 6,-0.00001035,-0.00002523,-0.00002022,-0.00002727,0.00002082,0.0000103
 2,0.00001242,-0.00525174,0.00242241,-0.00169195,-0.00008181,0.00007738
 ,0.00013682,0.00015747,-0.00008139,-0.00036932,-0.01565678,-0.02990537
 ,-0.01402253,0.00158376,-0.00031679,0.00094403,0.00132914,-0.00085916,
 0.00000872,-0.09794139,-0.04071969,-0.01747806,-0.00135905,-0.00258656
 ,-0.00112445,0.00880775,0.01711608,0.00676956,0.56675121,-0.00004495,-
 0.00035299,-0.00009969,0.00011136,0.00013933,0.00007551,0.00043661,0.0
 0095470,0.00027795,-0.00008549,-0.00000967,-0.00000694,-0.00003244,-0.
 00000680,-0.00004265,-0.00005246,0.00007500,-0.00000834,-0.00002329,0.
 00002023,-0.00000912,0.00001884,-0.00000652,0.00002167,0.00024671,0.00
 017141,0.00015824,0.00001507,-0.00008276,-0.00001124,0.00002726,0.0000
 1810,0.00000588,0.00001926,0.00001469,0.00002376,-0.00002033,-0.000010
 11,-0.00001175,0.00189257,-0.00087620,0.00081889,0.00000211,0.00013003
 ,-0.00023802,-0.00013954,-0.00006513,0.00006120,-0.00271822,0.00439655
 ,-0.00027313,0.00131599,0.00078766,0.00064045,0.00098519,0.00043245,0.
 00064410,-0.04334647,-0.17922725,-0.04262530,-0.00933370,-0.02020965,-
 0.01019275,-0.00550509,-0.01136652,-0.00441365,-0.02388776,0.51039955,
 -0.00014213,0.00019439,-0.00002585,-0.00001573,-0.00006672,0.00001488,
 -0.00018879,-0.00082722,0.00036096,0.00009864,-0.00000219,-0.00000565,
 -0.00005862,0.00002278,-0.00001511,0.00001888,-0.00002506,0.00000460,0
 .00000310,-0.00000829,0.00001136,-0.00000741,-0.00000070,-0.00001021,-
 0.00006917,-0.00010046,-0.00006956,-0.00001207,0.00003156,0.00000083,-
 0.00000884,-0.00000623,-0.00000349,-0.00000823,-0.00000766,-0.00000906
 ,0.00000558,0.00000275,0.00000269,-0.00181000,0.00106957,-0.00115046,-
 0.00014180,-0.00034897,0.00022997,-0.00012051,0.00023530,0.00018574,-0
 .00794952,-0.01313732,-0.00683529,0.00027237,-0.00090573,0.00023580,0.
 00145737,0.00054499,0.00084605,-0.01806512,-0.04138249,-0.09801987,0.0
 0973487,0.02020473,0.01039815,-0.01065040,-0.02091481,-0.00861200,-0.0
 0462494,-0.02355508,0.55779800,-0.00002475,-0.00006052,-0.00003422,0.0
 0001111,0.00005503,0.00002051,-0.00000818,0.00007851,-0.00001101,-0.00
 002729,0.00000078,-0.00003560,-0.00000623,-0.00000818,0.00000194,-0.00
 000781,-0.00000325,-0.00000375,-0.00000217,0.00000197,0.00000161,0.000
 00081,-0.00000072,0.00000171,0.00002949,0.00003001,0.00001954,-0.00000
 579,-0.00001655,-0.00000559,0.00000548,0.00000207,0.00000097,0.0000037
 4,0.00000147,0.00000400,-0.00000372,-0.00000090,-0.00000189,-0.0000355
 2,-0.00007434,-0.00015885,0.00000880,0.00017175,-0.00006136,0.00000871
 ,0.00002973,0.00003804,0.00077818,-0.00039869,0.00151395,-0.00013271,0
 .00008640,-0.00060751,-0.00005931,0.00000084,0.00004708,-0.00178514,-0
 .00835367,0.00920724,-0.00031790,-0.00216841,-0.00124239,0.00023916,0.
 00069583,-0.00032400,-0.04984458,-0.01471788,0.01619773,0.04880932,0.0
 0009040,0.00001139,0.00005264,-0.00004664,0.00001467,-0.00003644,-0.00
 000191,0.00003018,-0.00008644,-0.00005944,0.00000899,-0.00004062,-0.00
 000432,-0.00000020,0.00000116,0.00000994,-0.00002260,0.00000540,0.0000
 0404,-0.00000555,0.00000540,-0.00000666,0.00000118,-0.00000878,-0.0000
 6456,-0.00000714,-0.00004076,-0.00000060,0.00001695,0.00000854,-0.0000
 0339,-0.00000405,-0.00000086,-0.00000452,-0.00000154,-0.00000727,0.000
 00462,0.00000168,0.00000521,0.00007628,0.00012402,-0.00028342,0.000181
 26,0.00027992,-0.00000361,0.00002729,-0.00004711,0.00002311,0.00142008
 ,0.00087976,0.00109187,-0.00079669,0.00046212,-0.00075449,-0.00008065,
 0.00001978,-0.00010773,-0.00270579,-0.02106909,0.02138734,-0.00249903,
 -0.00420538,-0.00314733,0.00071307,0.00101895,0.00007227,-0.01465284,-
 0.17006144,0.13034423,0.01857558,0.18682383,-0.00004546,-0.00004004,-0
 .00003170,0.00003605,0.00000467,0.00001960,0.00002862,0.00014423,-0.00
 001826,-0.00001322,0.00000437,0.00000567,0.00000108,0.00000175,-0.0000
 0785,-0.00001207,0.00002292,-0.00000315,-0.00000518,0.00000548,-0.0000
 0469,0.00000464,-0.00000115,0.00000758,0.00005576,0.00001881,0.0000361
 6,0.00000270,-0.00001733,-0.00000496,0.00000418,0.00000381,0.00000036,
 0.00000338,0.00000237,0.00000623,-0.00000425,-0.00000228,-0.00000356,0
 .00013890,-0.00029683,0.00020515,-0.00006576,0.00000052,-0.00012929,0.
 00000322,-0.00000990,-0.00000334,0.00045497,-0.00035424,0.00092489,0.0
 0041287,0.00034231,-0.00002939,-0.00003529,0.00013700,-0.00008134,-0.0
 0162784,-0.00940588,0.01032011,-0.00154876,-0.00271722,0.00012157,0.00
 043904,0.00073973,0.00076733,0.01613641,0.12994928,-0.18436228,-0.0167
 9312,-0.14120267,0.19633764,-0.00007074,-0.00007368,-0.00004196,0.0000
 4616,0.00003881,0.00002455,-0.00001957,0.00013613,0.00006940,-0.000004
 51,-0.00000492,-0.00000055,-0.00002084,0.00000076,-0.00000540,-0.00001
 748,0.00001782,-0.00000186,-0.00000736,0.00000560,-0.00000030,0.000003
 95,-0.00000228,0.00000558,0.00007486,0.00003632,0.00003869,-0.00000317
 ,-0.00002713,-0.00000552,0.00000945,0.00000475,0.00000045,0.00000465,0
 .00000363,0.00000647,-0.00000720,-0.00000296,-0.00000290,0.00016341,-0
 .00024404,-0.00010627,0.00001263,0.00002405,-0.00000093,-0.00015879,0.
 00002492,0.00004560,0.00160977,-0.00019448,-0.00063152,-0.00005866,0.0
 0009553,0.00000347,-0.00002583,0.00005491,0.00050977,0.00772946,-0.004
 35361,-0.01030078,0.00035583,0.00082832,0.00036295,-0.00030170,-0.0024
 2458,-0.00154634,-0.14075873,0.05722305,0.11154558,-0.00168968,0.00059
 227,0.00008173,0.14868085,0.00007728,0.00000923,0.00003082,-0.00004425
 ,0.00000034,-0.00000463,-0.00006717,0.00002910,0.00007810,-0.00000345,
 0.00000137,-0.00000014,-0.00005915,0.00000768,-0.00002054,0.00000941,-
 0.00001074,-0.00000224,0.00000433,-0.00000255,-0.00000130,-0.00000287,
 0.00000164,-0.00000194,-0.00004915,-0.00000700,-0.00001902,0.00000409,
 0.00001358,0.00000129,-0.00000604,-0.00000198,-0.00000001,-0.00000183,
 -0.00000239,-0.00000239,0.00000492,0.00000162,0.00000063,-0.00004376,-
 0.00005705,0.00019361,0.00003497,-0.00004705,-0.00000760,0.00002574,0.
 00017452,0.00020836,0.00154556,0.00085003,0.00064366,-0.00016153,0.000
 02615,0.00004344,-0.00090556,0.00037212,0.00010974,0.01794317,-0.01155
 291,-0.02196882,0.00060990,0.00100679,0.00073101,-0.00304009,-0.004585
 43,-0.00213114,0.05753199,-0.08175663,-0.06790451,-0.01444285,0.008979
 57,0.01576291,-0.06126929,0.08917487,0.00003671,-0.00001934,0.00001644
 ,-0.00003226,0.00004168,-0.00000111,-0.00003361,-0.00001830,-0.0000057
 9,0.00000150,-0.00000324,-0.00001114,-0.00005462,-0.00000869,0.0000005
 3,0.00000752,-0.00002201,-0.00000533,0.00000667,-0.00000176,-0.0000025
 0,-0.00000200,0.00000279,-0.00000077,-0.00003775,0.00000660,-0.0000093
 5,-0.00000327,0.00000484,-0.00000421,-0.00000267,-0.00000172,0.0000009
 6,0.00000083,-0.00000190,-0.00000047,0.00000244,0.00000177,-0.00000002
 ,-0.00032571,0.00004098,0.00018739,0.00003578,0.00002138,-0.00000735,0
 .00005233,0.00019939,0.00014369,0.00122265,0.00040578,0.00012297,0.000
 01021,-0.00004109,-0.00008829,-0.00092248,-0.00011465,-0.00004618,0.00
 677666,-0.00439828,-0.00871088,-0.00044503,0.00015871,0.00066278,-0.00
 145128,-0.00211359,0.00048534,0.11169035,-0.06768654,-0.18175253,0.013
 64121,-0.00961064,-0.01552619,-0.12180058,0.07761126,0.19411477,0.0001
 5203,0.00024294,0.00012813,-0.00011271,-0.00012268,-0.00007666,0.00000
 881,-0.00044311,-0.00009500,0.00000655,0.00001740,-0.00000747,-0.00000
 149,0.00001783,0.00001549,0.00003971,-0.00004091,0.00000918,0.00001601
 ,-0.00001737,0.00000440,-0.00001126,0.00000447,-0.00001704,-0.00018826
 ,-0.00011664,-0.00011453,0.00000776,0.00007658,0.00002017,-0.00002364,
 -0.00001276,-0.00000317,-0.00001537,-0.00000934,-0.00001985,0.00001816
 ,0.00000755,0.00000987,-0.00047314,0.00079776,-0.00033342,-0.00002364,
 -0.00002922,0.00005621,-0.00000701,-0.00006586,-0.00007244,0.00044908,
 -0.00346627,-0.00068025,0.00012321,0.00013855,-0.00000109,0.00046331,0
 .00001086,0.00009760,-0.00954075,0.00290270,-0.00323831,0.00004857,-0.
 00007146,0.00040632,0.00056257,-0.00010798,-0.00013199,-0.26722545,0.0
 3758596,-0.09545641,0.00405255,-0.00076249,0.00234206,-0.01555643,0.00
 231302,-0.00836612,0.28725138,-0.00005086,0.00023372,0.00002907,-0.000
 03082,-0.00007753,-0.00002998,-0.00009722,-0.00065434,-0.00019225,0.00
 002342,0.00000908,-0.00001564,0.00000333,0.00000160,0.00002962,0.00002
 676,-0.00004053,0.00000338,0.00001261,-0.00001095,0.00000385,-0.000009
 17,0.00000337,-0.00001025,-0.00012180,-0.00010853,-0.00008159,-0.00001
 167,0.00004449,0.00000413,-0.00001405,-0.00001003,-0.00000372,-0.00001
 012,-0.00000840,-0.00001166,0.00000972,0.00000500,0.00000552,-0.001560
 31,0.00087874,-0.00067783,0.00001646,0.00005280,0.00010511,0.00006193,
 0.00005326,-0.00003512,-0.00069826,-0.00568801,-0.00165696,0.00012254,
 0.00007752,-0.00029592,0.00003897,-0.00009798,0.00026662,-0.02781920,0
 .00627915,-0.01146437,0.00044812,0.00112877,0.00083735,0.00082796,0.00
 117628,0.00029331,0.03767146,-0.05350477,0.01653839,0.02051474,-0.0032
 5117,0.00690901,0.00950947,-0.00262439,0.00554752,-0.03884994,0.056131
 64,0.00006249,0.00016807,0.00006307,-0.00005614,-0.00007344,-0.0000515
 8,-0.00001774,-0.00035594,-0.00008749,0.00000973,0.00001661,-0.0000019
 4,-0.00000361,0.00000139,0.00001359,0.00002431,-0.00002863,0.00000607,
 0.00001109,-0.00001034,0.00000147,-0.00000723,0.00000338,-0.00001008,-
 0.00011568,-0.00007915,-0.00007370,0.00000046,0.00004589,0.00001175,-0
 .00001368,-0.00000863,-0.00000261,-0.00000981,-0.00000576,-0.00001251,
 0.00001035,0.00000449,0.00000678,-0.00086010,0.00043802,0.00029876,-0.
 00003953,-0.00007704,-0.00000807,0.00006204,0.00006495,-0.00002518,-0.
 00006200,-0.00296685,-0.00044141,0.00041938,-0.00014745,0.00032834,-0.
 00032007,0.00011251,0.00016378,-0.01010112,0.00307243,-0.00541988,0.00
 044088,-0.00000742,0.00044528,0.00015859,0.00044934,-0.00011624,-0.095
 43736,0.01649797,-0.08921788,-0.02141558,0.00233415,-0.00854542,0.0217
 5212,-0.00335064,0.01043680,0.10552128,-0.01609784,0.09223694,0.003525
 64,0.00057953,0.00613880,-0.00174062,0.00190911,-0.00168629,-0.0002364
 7,-0.00000092,-0.00025386,0.00011060,-0.00001721,-0.00005435,-0.000328
 02,-0.00022454,-0.00011570,-0.23488549,-0.03618711,0.10521457,-0.01028
 156,-0.00139021,0.00735208,0.00571138,-0.00018108,-0.00283396,-0.02425
 380,0.00843797,0.00169926,0.00054283,-0.00193248,-0.00134648,0.0003586
 8,0.00119380,0.00053140,0.00005374,0.00014019,0.00033499,0.00002417,0.
 00002739,-0.00033020,0.00014933,-0.00012312,-0.00001493,-0.00001331,0.
 00005313,0.00002698,0.00003037,0.00002876,-0.00000320,-0.00008351,0.00
 011169,0.00001766,-0.00000013,-0.00001616,0.00000218,0.00001330,-0.000
 02469,-0.00003026,0.00002270,-0.00007207,-0.00000678,-0.00000272,0.000
 00762,-0.00000051,0.00000562,0.00000199,-0.00000213,-0.00003298,0.0000
 2765,-0.00000444,0.00000345,-0.00000529,0.00000534,0.00000963,-0.00000
 739,-0.00000748,-0.00002054,-0.00001404,-0.00001307,0.26131771,-0.0021
 4208,-0.00197723,-0.00528521,0.00173598,-0.00167032,0.00222562,-0.0005
 2804,0.00000142,-0.00002202,0.00033219,0.00023377,-0.00015579,-0.00016
 907,0.00006713,0.00018801,-0.03841157,-0.05401397,0.01919557,-0.019736
 77,-0.00189803,0.01379856,-0.00466298,-0.00024737,0.00117959,0.0346672
 4,-0.00361747,-0.01077710,0.00288271,0.00312312,-0.00015252,-0.0012676
 1,0.00015572,0.00068555,-0.00035722,-0.00034970,0.00003093,0.00004593,
 0.00024957,0.00024802,0.00006483,0.00029867,-0.00000902,-0.00009837,0.
 00000975,-0.00008944,-0.00007513,-0.00002277,-0.00000064,0.00001777,-0
 .00000697,0.00003800,0.00001586,0.00001956,-0.00000877,0.00000747,0.00
 000540,0.00000341,0.00000207,0.00001134,-0.00000427,-0.00000390,0.0000
 0205,-0.00000437,-0.00000023,-0.00000244,-0.00000019,0.00000115,-0.000
 00327,0.00000475,0.00000122,0.00000226,-0.00000164,0.00000064,-0.00000
 049,-0.00000093,0.00000042,0.00000122,-0.00000007,0.02767749,0.0596290
 4,-0.00178819,0.00070506,-0.00000745,0.00018699,-0.00017070,-0.0004900
 2,-0.00023137,0.00016896,0.00001854,0.00011026,0.00006270,-0.00010489,
 -0.00000153,-0.00007925,-0.00004698,0.10657590,0.01932291,-0.10970726,
 -0.01261715,-0.00142204,0.00719310,0.02737039,0.00596443,-0.01477295,-
 0.00546201,-0.00358018,0.00721341,0.00025259,0.00030925,0.00006161,0.0
 0017696,-0.00046315,-0.00010952,0.00020940,0.00027187,-0.00039439,-0.0
 0016759,-0.00008089,0.00005955,0.00004472,0.00005523,-0.00004806,-0.00
 003034,0.00001578,-0.00001337,-0.00001228,0.00000140,0.00000432,-0.000
 00045,0.00000967,0.00000266,0.00000322,-0.00000299,-0.00000102,0.00000
 137,-0.00000144,0.00000154,-0.00000214,-0.00000088,-0.00000323,-0.0000
 0024,-0.00000008,0.00000155,-0.00000042,0.00000098,-0.00000048,0.00000
 059,-0.00000069,0.00000021,-0.00000066,-0.00000027,-0.00000089,-0.0000
 0144,0.00000009,0.00000044,0.00000303,0.00000027,0.00000135,-0.1146196
 1,-0.02108604,0.11114225\\-0.00000013,0.00000215,-0.00000131,0.0000037
 7,0.00000029,0.00000151,-0.00000020,-0.00000202,0.00000217,-0.00000083
 ,-0.00000031,-0.00000111,0.00000123,0.00000033,0.00000034,-0.00000103,
 0.00000339,-0.00000148,0.00000074,-0.00000002,0.00000010,-0.00000003,-
 0.00000052,-0.00000092,-0.00000120,-0.00000277,0.00000082,-0.00000022,
 -0.00000035,-0.00000208,0.00000031,-0.00000127,0.00000016,-0.00000040,
 0.00000047,0.00000040,-0.00000080,0.00000044,0.00000067,-0.00000011,0.
 00000035,-0.00000092,0.00000022,-0.00000006,0.00000060,-0.00000043,-0.
 00000018,0.00000019,-0.00000015,-0.00000017,0.00000056,0.00000012,-0.0
 0000043,-0.00000026,-0.00000011,0.00000062,-0.00000027,-0.00000035,-0.
 00000018,0.00000057,0.00000026,0.,-0.00000031,-0.00000003,0.00000056,-
 0.00000011,-0.00000011,0.00000028,0.00000013,-0.00000008,0.00000015,-0
 .00000003,-0.00000016,0.00000018,-0.00000009,-0.00000016,0.00000024,-0
 .00000002,-0.00000012,-0.00000115,0.00000068\\\@
 The archive entry for this job was punched.


 NATURE REVEALS EVERY SECRET ONCE.
                    - RALPH WALDO EMERSON
 Job cpu time:       0 days  0 hours 15 minutes 48.9 seconds.
 Elapsed time:       0 days  0 hours  1 minutes  0.7 seconds.
 File lengths (MBytes):  RWF=    103 Int=      0 D2E=      0 Chk=      4 Scr=      1
 Normal termination of Gaussian 16 at Fri Nov  3 16:30:41 2023.
