/mnt/lustre/scratch/nvme/SLURM/4748304/usccqdma.z9ffxNohzs
OMP_STACKSIZE=0m
GAUSS_PDEF=16
GAUSS_MDEF=65536MB
GAUSS_RDEF=SCF=Direct
 Entering Gaussian System, Link 0=g16.exe
 Initial command:
 /opt/cesga/2020/software/Core/g16/c1/l1.exe "/mnt/lustre/scratch/nvme/SLURM/4748304/usccqdma.z9ffxNohzs/Gau-548363.inp" -scrdir="/mnt/lustre/scratch/nvme/SLURM/4748304/usccqdma.z9ffxNohzs/"
 Default is to use a total of  16 processors:
                               16 via shared-memory
                                1 via Linda
 Entering Link 1 = /opt/cesga/2020/software/Core/g16/c1/l1.exe PID=    548389.
  
 Copyright (c) 1988-2019, Gaussian, Inc.  All Rights Reserved.
  
 This is part of the Gaussian(R) 16 program.  It is based on
 the Gaussian(R) 09 system (copyright 2009, Gaussian, Inc.),
 the Gaussian(R) 03 system (copyright 2003, Gaussian, Inc.),
 the Gaussian(R) 98 system (copyright 1998, Gaussian, Inc.),
 the Gaussian(R) 94 system (copyright 1995, Gaussian, Inc.),
 the Gaussian 92(TM) system (copyright 1992, Gaussian, Inc.),
 the Gaussian 90(TM) system (copyright 1990, Gaussian, Inc.),
 the Gaussian 88(TM) system (copyright 1988, Gaussian, Inc.),
 the Gaussian 86(TM) system (copyright 1986, Carnegie Mellon
 University), and the Gaussian 82(TM) system (copyright 1983,
 Carnegie Mellon University). Gaussian is a federally registered
 trademark of Gaussian, Inc.
  
 This software contains proprietary and confidential information,
 including trade secrets, belonging to Gaussian, Inc.
  
 This software is provided under written license and may be
 used, copied, transmitted, or stored only in accord with that
 written license.
  
 The following legend is applicable only to US Government
 contracts under FAR:
  
                    RESTRICTED RIGHTS LEGEND
  
 Use, reproduction and disclosure by the US Government is
 subject to restrictions as set forth in subparagraphs (a)
 and (c) of the Commercial Computer Software - Restricted
 Rights clause in FAR 52.227-19.
  
 Gaussian, Inc.
 340 Quinnipiac St., Bldg. 40, Wallingford CT 06492
  
  
 ---------------------------------------------------------------
 Warning -- This program may not be used in any manner that
 competes with the business of Gaussian, Inc. or will provide
 assistance to any competitor of Gaussian, Inc.  The licensee
 of this program is prohibited from giving any competitor of
 Gaussian, Inc. access to this program.  By using this program,
 the user acknowledges that Gaussian, Inc. is engaged in the
 business of creating and licensing software in the field of
 computational chemistry and represents and warrants to the
 licensee that it is not a competitor of Gaussian, Inc. and that
 it will not use this program in any manner prohibited above.
 ---------------------------------------------------------------
  

 Cite this work as:
 Gaussian 16, Revision C.01,
 M. J. Frisch, G. W. Trucks, H. B. Schlegel, G. E. Scuseria, 
 M. A. Robb, J. R. Cheeseman, G. Scalmani, V. Barone, 
 G. A. Petersson, H. Nakatsuji, X. Li, M. Caricato, A. V. Marenich, 
 J. Bloino, B. G. Janesko, R. Gomperts, B. Mennucci, H. P. Hratchian, 
 J. V. Ortiz, A. F. Izmaylov, J. L. Sonnenberg, D. Williams-Young, 
 F. Ding, F. Lipparini, F. Egidi, J. Goings, B. Peng, A. Petrone, 
 T. Henderson, D. Ranasinghe, V. G. Zakrzewski, J. Gao, N. Rega, 
 G. Zheng, W. Liang, M. Hada, M. Ehara, K. Toyota, R. Fukuda, 
 J. Hasegawa, M. Ishida, T. Nakajima, Y. Honda, O. Kitao, H. Nakai, 
 T. Vreven, K. Throssell, J. A. Montgomery, Jr., J. E. Peralta, 
 F. Ogliaro, M. J. Bearpark, J. J. Heyd, E. N. Brothers, K. N. Kudin, 
 V. N. Staroverov, T. A. Keith, R. Kobayashi, J. Normand, 
 K. Raghavachari, A. P. Rendell, J. C. Burant, S. S. Iyengar, 
 J. Tomasi, M. Cossi, J. M. Millam, M. Klene, C. Adamo, R. Cammi, 
 J. W. Ochterski, R. L. Martin, K. Morokuma, O. Farkas, 
 J. B. Foresman, and D. J. Fox, Gaussian, Inc., Wallingford CT, 2019.
 
 ******************************************
 Gaussian 16:  ES64L-G16RevC.01  3-Jul-2019
                 2-Nov-2023 
 ******************************************
 Default route: SCF=Direct
 ----------------------------------------------------------
 # m06/6-31g(d) scf=tight int=ultrafine 5d opt freq=noraman
 ----------------------------------------------------------
 1/18=20,19=15,26=4,38=1/1,3;
 2/9=110,12=2,17=6,18=5,40=1/2;
 3/5=1,6=6,7=1,8=1,11=2,25=1,30=1,71=1,74=-54,75=-5/1,2,3;
 4//1;
 5/5=2,32=2,38=5/2;
 6/7=2,8=2,9=2,10=2,28=1/1;
 7//1,2,3,16;
 1/18=20,19=15,26=4/3(2);
 2/9=110/2;
 99//99;
 2/9=110/2;
 3/5=1,6=6,7=1,8=1,11=2,25=1,30=1,71=1,74=-54,75=-5/1,2,3;
 4/5=5,16=3,69=1/1;
 5/5=2,32=2,38=5/2;
 7//1,2,3,16;
 1/18=20,19=15,26=4/3(-5);
 2/9=110/2;
 6/7=2,8=2,9=2,10=2,19=2,28=1/1;
 99/9=1/99;
 ------------
 optimization
 ------------
 Symbolic Z-matrix:
 Charge =  0 Multiplicity = 1
 C                     3.13476  -1.28762  -2.444 
 O                     3.75981  -2.34214  -2.47613 
 C                     3.79535  -0.00599  -1.97137 
 H                     3.9599    0.64049  -2.85085 
 H                     3.11944   0.56239  -1.31926 
 C                     0.92445  -0.10183  -2.66844 
 H                     1.46766   0.75403  -2.32589 
 H                     0.43066   0.13371  -3.588 
 N                     1.83515  -1.19467  -2.87958 
 C                     1.18512  -2.3719   -3.41283 
 H                     0.85007  -2.1888   -4.44444 
 H                     1.89454  -3.20251  -3.39927 
 C                     5.1025   -0.2479   -1.23986 
 H                     4.91543  -0.9327   -0.39512 
 H                     5.80823  -0.7812   -1.89244 
 C                     5.71165   1.04508  -0.72206 
 H                     6.01427   1.68509  -1.56912 
 H                     4.9417    1.6216   -0.17626 
 C                     6.90033   0.82411   0.20007 
 H                     6.58598   0.17824   1.03862 
 H                     7.68116   0.25881  -0.3336 
 C                     7.46961   2.12529   0.73902 
 H                     7.81482   2.77373  -0.07821 
 H                     6.70313   2.68546   1.29505 
 H                     8.31871   1.9594    1.41377 
 H                     0.19745  -0.38013  -1.93432 
 C                    -2.16153  -3.70452  -3.35343 
 C                    -1.33704  -4.81809  -2.72368 
 C                    -3.47384  -3.50363  -2.57299 
 H                    -4.01131  -2.67574  -2.98605 
 H                    -4.07102  -4.38851  -2.64558 
 H                    -3.25099  -3.30707  -1.54508 
 C                    -2.54606  -4.06695  -4.79994 
 H                    -3.20338  -4.91121  -4.79339 
 H                    -3.03909  -3.23461  -5.25715 
 H                    -1.66288  -4.30683  -5.35433 
 C                    -2.11754  -5.48376  -1.57507 
 H                    -3.0347   -5.88513  -1.95271 
 H                    -1.52948  -6.27251  -1.1544 
 H                    -2.33072  -4.75617  -0.82005 
 C                    -1.03539  -5.91497  -3.76169 
 H                    -0.39629  -6.65353  -3.32467 
 H                    -1.95083  -6.37394  -4.07187 
 H                    -0.54946  -5.47956  -4.60974 
 O                    -1.3285   -2.43124  -3.32388 
 O                    -0.04201  -4.20818  -2.20649 
 B                    -0.04642  -2.72749  -2.55932 
 

 GradGradGradGradGradGradGradGradGradGradGradGradGradGradGradGradGradGrad
 Berny optimization.
 Initialization pass.
                           ----------------------------
                           !    Initial Parameters    !
                           ! (Angstroms and Degrees)  !
 --------------------------                            --------------------------
 ! Name  Definition              Value          Derivative Info.                !
 --------------------------------------------------------------------------------
 ! R1    R(1,2)                  1.2263         estimate D2E/DX2                !
 ! R2    R(1,3)                  1.5174         estimate D2E/DX2                !
 ! R3    R(1,9)                  1.3738         estimate D2E/DX2                !
 ! R4    R(3,4)                  1.1039         estimate D2E/DX2                !
 ! R5    R(3,5)                  1.0978         estimate D2E/DX2                !
 ! R6    R(3,13)                 1.5173         estimate D2E/DX2                !
 ! R7    R(6,7)                  1.07           estimate D2E/DX2                !
 ! R8    R(6,8)                  1.07           estimate D2E/DX2                !
 ! R9    R(6,9)                  1.4381         estimate D2E/DX2                !
 ! R10   R(6,26)                 1.07           estimate D2E/DX2                !
 ! R11   R(9,10)                 1.4466         estimate D2E/DX2                !
 ! R12   R(10,11)                1.1            estimate D2E/DX2                !
 ! R13   R(10,12)                1.0924         estimate D2E/DX2                !
 ! R14   R(10,47)                1.54           estimate D2E/DX2                !
 ! R15   R(13,14)                1.1034         estimate D2E/DX2                !
 ! R16   R(13,15)                1.0992         estimate D2E/DX2                !
 ! R17   R(13,16)                1.5202         estimate D2E/DX2                !
 ! R18   R(16,17)                1.104          estimate D2E/DX2                !
 ! R19   R(16,18)                1.1059         estimate D2E/DX2                !
 ! R20   R(16,19)                1.5206         estimate D2E/DX2                !
 ! R21   R(19,20)                1.1041         estimate D2E/DX2                !
 ! R22   R(19,21)                1.1018         estimate D2E/DX2                !
 ! R23   R(19,22)                1.5191         estimate D2E/DX2                !
 ! R24   R(22,23)                1.0989         estimate D2E/DX2                !
 ! R25   R(22,24)                1.1002         estimate D2E/DX2                !
 ! R26   R(22,25)                1.0972         estimate D2E/DX2                !
 ! R27   R(27,28)                1.522          estimate D2E/DX2                !
 ! R28   R(27,29)                1.54           estimate D2E/DX2                !
 ! R29   R(27,33)                1.54           estimate D2E/DX2                !
 ! R30   R(27,45)                1.5219         estimate D2E/DX2                !
 ! R31   R(28,37)                1.54           estimate D2E/DX2                !
 ! R32   R(28,41)                1.54           estimate D2E/DX2                !
 ! R33   R(28,46)                1.522          estimate D2E/DX2                !
 ! R34   R(29,30)                1.07           estimate D2E/DX2                !
 ! R35   R(29,31)                1.07           estimate D2E/DX2                !
 ! R36   R(29,32)                1.07           estimate D2E/DX2                !
 ! R37   R(33,34)                1.07           estimate D2E/DX2                !
 ! R38   R(33,35)                1.07           estimate D2E/DX2                !
 ! R39   R(33,36)                1.07           estimate D2E/DX2                !
 ! R40   R(37,38)                1.07           estimate D2E/DX2                !
 ! R41   R(37,39)                1.07           estimate D2E/DX2                !
 ! R42   R(37,40)                1.07           estimate D2E/DX2                !
 ! R43   R(41,42)                1.07           estimate D2E/DX2                !
 ! R44   R(41,43)                1.07           estimate D2E/DX2                !
 ! R45   R(41,44)                1.07           estimate D2E/DX2                !
 ! R46   R(45,47)                1.5219         estimate D2E/DX2                !
 ! R47   R(46,47)                1.5222         estimate D2E/DX2                !
 ! A1    A(2,1,3)              120.8374         estimate D2E/DX2                !
 ! A2    A(2,1,9)              122.1451         estimate D2E/DX2                !
 ! A3    A(3,1,9)              116.9655         estimate D2E/DX2                !
 ! A4    A(1,3,4)              108.1438         estimate D2E/DX2                !
 ! A5    A(1,3,5)              110.75           estimate D2E/DX2                !
 ! A6    A(1,3,13)             112.989          estimate D2E/DX2                !
 ! A7    A(4,3,5)              105.1791         estimate D2E/DX2                !
 ! A8    A(4,3,13)             110.4304         estimate D2E/DX2                !
 ! A9    A(5,3,13)             109.0613         estimate D2E/DX2                !
 ! A10   A(7,6,8)              109.4712         estimate D2E/DX2                !
 ! A11   A(7,6,9)              109.4712         estimate D2E/DX2                !
 ! A12   A(7,6,26)             109.4712         estimate D2E/DX2                !
 ! A13   A(8,6,9)              109.4712         estimate D2E/DX2                !
 ! A14   A(8,6,26)             109.4712         estimate D2E/DX2                !
 ! A15   A(9,6,26)             109.4712         estimate D2E/DX2                !
 ! A16   A(1,9,6)              127.1505         estimate D2E/DX2                !
 ! A17   A(1,9,10)             119.1359         estimate D2E/DX2                !
 ! A18   A(6,9,10)             112.8273         estimate D2E/DX2                !
 ! A19   A(9,10,11)            110.3103         estimate D2E/DX2                !
 ! A20   A(9,10,12)            108.8058         estimate D2E/DX2                !
 ! A21   A(9,10,47)            110.0559         estimate D2E/DX2                !
 ! A22   A(11,10,12)           109.6336         estimate D2E/DX2                !
 ! A23   A(11,10,47)           108.3382         estimate D2E/DX2                !
 ! A24   A(12,10,47)           109.6874         estimate D2E/DX2                !
 ! A25   A(3,13,14)            108.7827         estimate D2E/DX2                !
 ! A26   A(3,13,15)            110.1346         estimate D2E/DX2                !
 ! A27   A(3,13,16)            111.9505         estimate D2E/DX2                !
 ! A28   A(14,13,15)           105.2032         estimate D2E/DX2                !
 ! A29   A(14,13,16)           109.5739         estimate D2E/DX2                !
 ! A30   A(15,13,16)           110.953          estimate D2E/DX2                !
 ! A31   A(13,16,17)           109.9735         estimate D2E/DX2                !
 ! A32   A(13,16,18)           109.4215         estimate D2E/DX2                !
 ! A33   A(13,16,19)           113.3413         estimate D2E/DX2                !
 ! A34   A(17,16,18)           105.5038         estimate D2E/DX2                !
 ! A35   A(17,16,19)           109.5892         estimate D2E/DX2                !
 ! A36   A(18,16,19)           108.7059         estimate D2E/DX2                !
 ! A37   A(16,19,20)           108.8448         estimate D2E/DX2                !
 ! A38   A(16,19,21)           109.5619         estimate D2E/DX2                !
 ! A39   A(16,19,22)           112.5592         estimate D2E/DX2                !
 ! A40   A(20,19,21)           105.6335         estimate D2E/DX2                !
 ! A41   A(20,19,22)           109.7725         estimate D2E/DX2                !
 ! A42   A(21,19,22)           110.2261         estimate D2E/DX2                !
 ! A43   A(19,22,23)           111.0583         estimate D2E/DX2                !
 ! A44   A(19,22,24)           110.7531         estimate D2E/DX2                !
 ! A45   A(19,22,25)           112.253          estimate D2E/DX2                !
 ! A46   A(23,22,24)           107.1138         estimate D2E/DX2                !
 ! A47   A(23,22,25)           107.6664         estimate D2E/DX2                !
 ! A48   A(24,22,25)           107.7784         estimate D2E/DX2                !
 ! A49   A(28,27,29)           110.3269         estimate D2E/DX2                !
 ! A50   A(28,27,33)           110.5928         estimate D2E/DX2                !
 ! A51   A(28,27,45)           107.9138         estimate D2E/DX2                !
 ! A52   A(29,27,33)           107.094          estimate D2E/DX2                !
 ! A53   A(29,27,45)           110.3329         estimate D2E/DX2                !
 ! A54   A(33,27,45)           110.5985         estimate D2E/DX2                !
 ! A55   A(27,28,37)           110.5072         estimate D2E/DX2                !
 ! A56   A(27,28,41)           110.3864         estimate D2E/DX2                !
 ! A57   A(27,28,46)           107.9592         estimate D2E/DX2                !
 ! A58   A(37,28,41)           107.1046         estimate D2E/DX2                !
 ! A59   A(37,28,46)           110.5486         estimate D2E/DX2                !
 ! A60   A(41,28,46)           110.3522         estimate D2E/DX2                !
 ! A61   A(27,29,30)           109.4712         estimate D2E/DX2                !
 ! A62   A(27,29,31)           109.4712         estimate D2E/DX2                !
 ! A63   A(27,29,32)           109.4712         estimate D2E/DX2                !
 ! A64   A(30,29,31)           109.4713         estimate D2E/DX2                !
 ! A65   A(30,29,32)           109.4712         estimate D2E/DX2                !
 ! A66   A(31,29,32)           109.4712         estimate D2E/DX2                !
 ! A67   A(27,33,34)           109.4712         estimate D2E/DX2                !
 ! A68   A(27,33,35)           109.4712         estimate D2E/DX2                !
 ! A69   A(27,33,36)           109.4712         estimate D2E/DX2                !
 ! A70   A(34,33,35)           109.4713         estimate D2E/DX2                !
 ! A71   A(34,33,36)           109.4712         estimate D2E/DX2                !
 ! A72   A(35,33,36)           109.4712         estimate D2E/DX2                !
 ! A73   A(28,37,38)           109.4712         estimate D2E/DX2                !
 ! A74   A(28,37,39)           109.4712         estimate D2E/DX2                !
 ! A75   A(28,37,40)           109.4712         estimate D2E/DX2                !
 ! A76   A(38,37,39)           109.4713         estimate D2E/DX2                !
 ! A77   A(38,37,40)           109.4712         estimate D2E/DX2                !
 ! A78   A(39,37,40)           109.4712         estimate D2E/DX2                !
 ! A79   A(28,41,42)           109.4712         estimate D2E/DX2                !
 ! A80   A(28,41,43)           109.4712         estimate D2E/DX2                !
 ! A81   A(28,41,44)           109.4712         estimate D2E/DX2                !
 ! A82   A(42,41,43)           109.4713         estimate D2E/DX2                !
 ! A83   A(42,41,44)           109.4712         estimate D2E/DX2                !
 ! A84   A(43,41,44)           109.4712         estimate D2E/DX2                !
 ! A85   A(27,45,47)           107.9403         estimate D2E/DX2                !
 ! A86   A(28,46,47)           107.9735         estimate D2E/DX2                !
 ! A87   A(10,47,45)           110.5067         estimate D2E/DX2                !
 ! A88   A(10,47,46)           110.5339         estimate D2E/DX2                !
 ! A89   A(45,47,46)           107.9539         estimate D2E/DX2                !
 ! D1    D(2,1,3,4)            107.6322         estimate D2E/DX2                !
 ! D2    D(2,1,3,5)           -137.6088         estimate D2E/DX2                !
 ! D3    D(2,1,3,13)           -14.9188         estimate D2E/DX2                !
 ! D4    D(9,1,3,4)            -69.8016         estimate D2E/DX2                !
 ! D5    D(9,1,3,5)             44.9574         estimate D2E/DX2                !
 ! D6    D(9,1,3,13)           167.6475         estimate D2E/DX2                !
 ! D7    D(2,1,9,6)            167.4618         estimate D2E/DX2                !
 ! D8    D(2,1,9,10)            -0.9422         estimate D2E/DX2                !
 ! D9    D(3,1,9,6)            -15.1406         estimate D2E/DX2                !
 ! D10   D(3,1,9,10)           176.4554         estimate D2E/DX2                !
 ! D11   D(1,3,13,14)          -56.1638         estimate D2E/DX2                !
 ! D12   D(1,3,13,15)           58.6527         estimate D2E/DX2                !
 ! D13   D(1,3,13,16)         -177.4014         estimate D2E/DX2                !
 ! D14   D(4,3,13,14)         -177.4294         estimate D2E/DX2                !
 ! D15   D(4,3,13,15)          -62.6129         estimate D2E/DX2                !
 ! D16   D(4,3,13,16)           61.3329         estimate D2E/DX2                !
 ! D17   D(5,3,13,14)           67.4623         estimate D2E/DX2                !
 ! D18   D(5,3,13,15)         -177.7212         estimate D2E/DX2                !
 ! D19   D(5,3,13,16)          -53.7753         estimate D2E/DX2                !
 ! D20   D(7,6,9,1)             14.0654         estimate D2E/DX2                !
 ! D21   D(7,6,9,10)          -176.9163         estimate D2E/DX2                !
 ! D22   D(8,6,9,1)            134.0654         estimate D2E/DX2                !
 ! D23   D(8,6,9,10)           -56.9163         estimate D2E/DX2                !
 ! D24   D(26,6,9,1)          -105.9346         estimate D2E/DX2                !
 ! D25   D(26,6,9,10)           63.0837         estimate D2E/DX2                !
 ! D26   D(1,9,10,11)         -121.4784         estimate D2E/DX2                !
 ! D27   D(1,9,10,12)           -1.1786         estimate D2E/DX2                !
 ! D28   D(1,9,10,47)          119.0324         estimate D2E/DX2                !
 ! D29   D(6,9,10,11)           68.5322         estimate D2E/DX2                !
 ! D30   D(6,9,10,12)         -171.1681         estimate D2E/DX2                !
 ! D31   D(6,9,10,47)          -50.9571         estimate D2E/DX2                !
 ! D32   D(9,10,47,45)         108.9131         estimate D2E/DX2                !
 ! D33   D(9,10,47,46)        -131.6459         estimate D2E/DX2                !
 ! D34   D(11,10,47,45)        -11.7699         estimate D2E/DX2                !
 ! D35   D(11,10,47,46)        107.671          estimate D2E/DX2                !
 ! D36   D(12,10,47,45)       -131.4103         estimate D2E/DX2                !
 ! D37   D(12,10,47,46)        -11.9693         estimate D2E/DX2                !
 ! D38   D(3,13,16,17)         -66.0486         estimate D2E/DX2                !
 ! D39   D(3,13,16,18)          49.4007         estimate D2E/DX2                !
 ! D40   D(3,13,16,19)         170.9019         estimate D2E/DX2                !
 ! D41   D(14,13,16,17)        173.1716         estimate D2E/DX2                !
 ! D42   D(14,13,16,18)        -71.3791         estimate D2E/DX2                !
 ! D43   D(14,13,16,19)         50.1221         estimate D2E/DX2                !
 ! D44   D(15,13,16,17)         57.4377         estimate D2E/DX2                !
 ! D45   D(15,13,16,18)        172.887          estimate D2E/DX2                !
 ! D46   D(15,13,16,19)        -65.6118         estimate D2E/DX2                !
 ! D47   D(13,16,19,20)        -56.3978         estimate D2E/DX2                !
 ! D48   D(13,16,19,21)         58.6556         estimate D2E/DX2                !
 ! D49   D(13,16,19,22)       -178.3254         estimate D2E/DX2                !
 ! D50   D(17,16,19,20)       -179.6589         estimate D2E/DX2                !
 ! D51   D(17,16,19,21)        -64.6054         estimate D2E/DX2                !
 ! D52   D(17,16,19,22)         58.4135         estimate D2E/DX2                !
 ! D53   D(18,16,19,20)         65.5038         estimate D2E/DX2                !
 ! D54   D(18,16,19,21)       -179.4428         estimate D2E/DX2                !
 ! D55   D(18,16,19,22)        -56.4238         estimate D2E/DX2                !
 ! D56   D(16,19,22,23)        -60.144          estimate D2E/DX2                !
 ! D57   D(16,19,22,24)         58.7447         estimate D2E/DX2                !
 ! D58   D(16,19,22,25)        179.2651         estimate D2E/DX2                !
 ! D59   D(20,19,22,23)        178.4554         estimate D2E/DX2                !
 ! D60   D(20,19,22,24)        -62.6559         estimate D2E/DX2                !
 ! D61   D(20,19,22,25)         57.8645         estimate D2E/DX2                !
 ! D62   D(21,19,22,23)         62.5025         estimate D2E/DX2                !
 ! D63   D(21,19,22,24)       -178.6089         estimate D2E/DX2                !
 ! D64   D(21,19,22,25)        -58.0884         estimate D2E/DX2                !
 ! D65   D(29,27,28,37)          4.8358         estimate D2E/DX2                !
 ! D66   D(29,27,28,41)        123.1299         estimate D2E/DX2                !
 ! D67   D(29,27,28,46)       -116.1737         estimate D2E/DX2                !
 ! D68   D(33,27,28,37)       -113.4615         estimate D2E/DX2                !
 ! D69   D(33,27,28,41)          4.8327         estimate D2E/DX2                !
 ! D70   D(33,27,28,46)        125.5291         estimate D2E/DX2                !
 ! D71   D(45,27,28,37)        125.4449         estimate D2E/DX2                !
 ! D72   D(45,27,28,41)       -116.2609         estimate D2E/DX2                !
 ! D73   D(45,27,28,46)          4.4355         estimate D2E/DX2                !
 ! D74   D(28,27,29,30)        176.2088         estimate D2E/DX2                !
 ! D75   D(28,27,29,31)        -63.7912         estimate D2E/DX2                !
 ! D76   D(28,27,29,32)         56.2088         estimate D2E/DX2                !
 ! D77   D(33,27,29,30)        -63.3708         estimate D2E/DX2                !
 ! D78   D(33,27,29,31)         56.6292         estimate D2E/DX2                !
 ! D79   D(33,27,29,32)        176.6292         estimate D2E/DX2                !
 ! D80   D(45,27,29,30)         57.0598         estimate D2E/DX2                !
 ! D81   D(45,27,29,31)        177.0598         estimate D2E/DX2                !
 ! D82   D(45,27,29,32)        -62.9402         estimate D2E/DX2                !
 ! D83   D(28,27,33,34)         65.6215         estimate D2E/DX2                !
 ! D84   D(28,27,33,35)       -174.3785         estimate D2E/DX2                !
 ! D85   D(28,27,33,36)        -54.3785         estimate D2E/DX2                !
 ! D86   D(29,27,33,34)        -54.6293         estimate D2E/DX2                !
 ! D87   D(29,27,33,35)         65.3708         estimate D2E/DX2                !
 ! D88   D(29,27,33,36)       -174.6293         estimate D2E/DX2                !
 ! D89   D(45,27,33,34)       -174.8906         estimate D2E/DX2                !
 ! D90   D(45,27,33,35)        -54.8906         estimate D2E/DX2                !
 ! D91   D(45,27,33,36)         65.1094         estimate D2E/DX2                !
 ! D92   D(28,27,45,47)         -5.2768         estimate D2E/DX2                !
 ! D93   D(29,27,45,47)        115.3286         estimate D2E/DX2                !
 ! D94   D(33,27,45,47)       -126.3669         estimate D2E/DX2                !
 ! D95   D(27,28,37,38)         59.1593         estimate D2E/DX2                !
 ! D96   D(27,28,37,39)        179.1593         estimate D2E/DX2                !
 ! D97   D(27,28,37,40)        -60.8407         estimate D2E/DX2                !
 ! D98   D(41,28,37,38)        -61.1209         estimate D2E/DX2                !
 ! D99   D(41,28,37,39)         58.8791         estimate D2E/DX2                !
 ! D100  D(41,28,37,40)        178.8791         estimate D2E/DX2                !
 ! D101  D(46,28,37,38)        178.6167         estimate D2E/DX2                !
 ! D102  D(46,28,37,39)        -61.3833         estimate D2E/DX2                !
 ! D103  D(46,28,37,40)         58.6167         estimate D2E/DX2                !
 ! D104  D(27,28,41,42)        175.876          estimate D2E/DX2                !
 ! D105  D(27,28,41,43)        -64.124          estimate D2E/DX2                !
 ! D106  D(27,28,41,44)         55.876          estimate D2E/DX2                !
 ! D107  D(37,28,41,42)        -63.7668         estimate D2E/DX2                !
 ! D108  D(37,28,41,43)         56.2333         estimate D2E/DX2                !
 ! D109  D(37,28,41,44)        176.2332         estimate D2E/DX2                !
 ! D110  D(46,28,41,42)         56.6209         estimate D2E/DX2                !
 ! D111  D(46,28,41,43)        176.6209         estimate D2E/DX2                !
 ! D112  D(46,28,41,44)        -63.3791         estimate D2E/DX2                !
 ! D113  D(27,28,46,47)         -1.9007         estimate D2E/DX2                !
 ! D114  D(37,28,46,47)       -122.8844         estimate D2E/DX2                !
 ! D115  D(41,28,46,47)        118.8171         estimate D2E/DX2                !
 ! D116  D(27,45,47,10)        125.0901         estimate D2E/DX2                !
 ! D117  D(27,45,47,46)          4.1024         estimate D2E/DX2                !
 ! D118  D(28,46,47,10)       -122.3312         estimate D2E/DX2                !
 ! D119  D(28,46,47,45)         -1.3604         estimate D2E/DX2                !
 --------------------------------------------------------------------------------
 Trust Radius=3.00D-01 FncErr=1.00D-07 GrdErr=1.00D-06 EigMax=2.50D+02 EigMin=1.00D-04
 Number of steps in this run=    265 maximum allowed number of steps=    282.
 GradGradGradGradGradGradGradGradGradGradGradGradGradGradGradGradGradGrad

                          Input orientation:                          
 ---------------------------------------------------------------------
 Center     Atomic      Atomic             Coordinates (Angstroms)
 Number     Number       Type             X           Y           Z
 ---------------------------------------------------------------------
      1          6           0        3.134760   -1.287623   -2.444000
      2          8           0        3.759813   -2.342144   -2.476128
      3          6           0        3.795353   -0.005986   -1.971370
      4          1           0        3.959896    0.640492   -2.850849
      5          1           0        3.119443    0.562389   -1.319255
      6          6           0        0.924450   -0.101827   -2.668436
      7          1           0        1.467659    0.754029   -2.325895
      8          1           0        0.430663    0.133709   -3.588000
      9          7           0        1.835153   -1.194671   -2.879577
     10          6           0        1.185120   -2.371903   -3.412831
     11          1           0        0.850072   -2.188802   -4.444442
     12          1           0        1.894539   -3.202508   -3.399272
     13          6           0        5.102503   -0.247902   -1.239862
     14          1           0        4.915434   -0.932696   -0.395120
     15          1           0        5.808228   -0.781204   -1.892442
     16          6           0        5.711647    1.045078   -0.722058
     17          1           0        6.014267    1.685094   -1.569120
     18          1           0        4.941697    1.621596   -0.176256
     19          6           0        6.900329    0.824108    0.200066
     20          1           0        6.585975    0.178239    1.038621
     21          1           0        7.681159    0.258806   -0.333596
     22          6           0        7.469607    2.125294    0.739022
     23          1           0        7.814817    2.773730   -0.078213
     24          1           0        6.703126    2.685462    1.295046
     25          1           0        8.318706    1.959399    1.413767
     26          1           0        0.197453   -0.380129   -1.934322
     27          6           0       -2.161534   -3.704515   -3.353434
     28          6           0       -1.337042   -4.818086   -2.723681
     29          6           0       -3.473842   -3.503634   -2.572989
     30          1           0       -4.011315   -2.675743   -2.986050
     31          1           0       -4.071016   -4.388515   -2.645582
     32          1           0       -3.250993   -3.307072   -1.545078
     33          6           0       -2.546058   -4.066946   -4.799941
     34          1           0       -3.203378   -4.911214   -4.793389
     35          1           0       -3.039088   -3.234608   -5.257145
     36          1           0       -1.662879   -4.306834   -5.354331
     37          6           0       -2.117536   -5.483765   -1.575072
     38          1           0       -3.034703   -5.885131   -1.952711
     39          1           0       -1.529478   -6.272511   -1.154397
     40          1           0       -2.330719   -4.756169   -0.820051
     41          6           0       -1.035391   -5.914969   -3.761686
     42          1           0       -0.396291   -6.653526   -3.324665
     43          1           0       -1.950831   -6.373943   -4.071866
     44          1           0       -0.549461   -5.479558   -4.609736
     45          8           0       -1.328496   -2.431238   -3.323884
     46          8           0       -0.042007   -4.208176   -2.206492
     47          5           0       -0.046415   -2.727487   -2.559320
 ---------------------------------------------------------------------
                    Distance matrix (angstroms):
                    1          2          3          4          5
     1  C    0.000000
     2  O    1.226270   0.000000
     3  C    1.517352   2.390330   0.000000
     4  H    2.136353   3.012734   1.103853   0.000000
     5  H    2.165140   3.191354   1.097797   1.748783   0.000000
     6  C    2.518324   3.618741   2.955871   3.130215   2.660727
     7  H    2.638469   3.855234   2.474160   2.549453   1.943821
     8  H    3.262064   4.295270   3.735524   3.640838   3.544080
     9  N    1.373807   2.276792   2.465805   2.807700   2.677922
    10  C    2.432158   2.739953   3.806401   4.133973   4.090811
    11  H    3.167600   3.516300   4.422155   4.496159   4.741929
    12  H    2.473353   2.252036   3.983686   4.397171   4.472282
    13  C    2.530411   2.777952   1.517323   2.165658   2.143689
    14  H    2.737642   2.766333   2.144280   3.068970   2.512944
    15  H    2.776348   2.640687   2.158439   2.521130   3.059959
    16  C    3.879037   4.284821   2.517479   2.786409   2.703545
    17  H    4.230133   4.703602   2.818712   2.637132   3.114949
    18  H    4.107461   4.732599   2.680590   3.013295   2.397702
    19  C    5.062608   5.200962   3.878797   4.241220   4.083128
    20  H    5.117449   5.166525   4.108717   4.715713   4.209987
    21  H    5.245473   5.170333   4.225152   4.508885   4.676851
    22  C    6.369500   6.637602   5.038722   5.235445   5.059951
    23  H    6.632833   6.954511   5.240893   5.205635   5.336361
    24  H    6.519134   6.939861   5.135028   5.375468   4.917804
    25  H    7.231792   7.376860   5.981857   6.239046   6.037664
    26  H    3.116262   4.102861   3.617491   4.004706   3.131242
    27  C    5.892297   6.139061   7.146588   7.523535   7.087529
    28  C    5.704332   5.671817   7.075575   7.607220   7.126162
    29  C    6.971439   7.326951   8.089294   8.515366   7.847025
    30  H    7.299800   7.794981   8.312716   8.634576   8.006960
    31  H    7.847253   8.095569   9.029999   9.477795   8.830249
    32  H    6.757520   7.137881   7.792938   8.323774   7.456955
    33  C    6.748836   6.938232   8.043986   8.263557   8.102088
    34  H    7.669552   7.775336   9.000405   9.268624   9.055827
    35  H    7.058395   7.399703   8.241960   8.354187   8.237212
    36  H    6.372048   6.445902   7.728778   7.896775   7.928542
    37  C    6.778588   6.724947   8.070029   8.721772   8.002960
    38  H    7.709781   7.680636   9.011901   9.608060   8.935620
    39  H    6.947467   6.720964   8.263813   8.988926   8.267739
    40  H    6.673791   6.757565   7.836998   8.533460   7.631549
    41  C    6.367007   6.116512   7.839477   8.291959   8.073678
    42  H    6.483580   6.048242   7.974401   8.509028   8.273541
    43  H    7.374540   7.170302   8.830719   9.253641   9.022042
    44  H    5.986335   5.741558   7.469831   7.802755   7.797002
    45  O    4.690704   5.159217   5.827947   6.134034   5.724028
    46  O    4.321792   4.243656   5.695526   6.319810   5.791394
    47  B    3.493764   3.826589   4.744622   5.242023   4.731142
                    6          7          8          9         10
     6  C    0.000000
     7  H    1.070000   0.000000
     8  H    1.070000   1.747303   0.000000
     9  N    1.438148   2.058895   2.058895   0.000000
    10  C    2.403189   3.321552   2.622590   1.446644   0.000000
    11  H    2.741385   3.678303   2.510668   2.099401   1.100002
    12  H    3.330078   4.121717   3.648136   2.074854   1.092412
    13  C    4.417951   3.923700   5.242658   3.776323   4.957728
    14  H    4.667576   4.296520   5.607572   3.966017   5.009305
    15  H    4.991493   4.624431   5.712284   4.114695   5.120062
    16  C    5.293490   4.546255   6.077253   4.969766   6.277377
    17  H    5.505254   4.702258   6.136717   5.241692   6.571085
    18  H    5.031841   4.176429   5.848353   4.988980   6.366736
    19  C    6.693040   5.991602   7.528789   6.262242   7.478711
    20  H    6.773003   6.152126   7.700355   6.309316   7.449019
    21  H    7.157838   6.543858   7.948363   6.539908   7.655119
    22  C    7.707783   6.877315   8.499191   7.474189   8.772539
    23  H    7.902863   7.029771   8.591510   7.704040   9.030509
    24  H    7.541304   6.652199   8.348615   7.495337   8.842479
    25  H    8.694139   7.897774   9.516934   8.391509   9.640761
    26  H    1.070000   1.747303   1.747303   2.058895   2.669951
    27  C    4.792899   5.839991   4.637507   4.743139   3.602704
    28  C    5.230726   6.250844   5.328424   4.818326   3.580509
    29  C    5.561149   6.527418   5.431913   5.797477   4.867451
    30  H    5.575634   6.497561   5.290230   6.032089   5.222777
    31  H    6.582621   7.564713   6.450099   6.718499   5.681757
    32  H    5.382365   6.274384   5.437564   5.666746   4.903279
    33  C    5.684181   6.743340   5.289156   5.579675   4.326539
    34  H    6.684653   7.746102   6.333282   6.546920   5.254803
    35  H    5.676739   6.694193   5.115738   5.794169   4.689316
    36  H    5.620533   6.677127   5.217401   5.295866   3.952781
    37  C    6.278087   7.233770   6.488545   5.976773   4.895772
    38  H    7.045123   8.030503   7.135080   6.824588   5.681693
    39  H    6.811124   7.728357   7.127708   6.330991   5.261588
    40  H    5.972902   6.859849   6.260805   5.854947   4.976782
    41  C    6.231275   7.266518   6.226234   5.594582   4.195913
    42  H    6.715635   7.703487   6.842496   5.914097   4.565186
    43  H    7.041044   8.095831   6.946595   6.525342   5.126874
    44  H    5.904324   6.938466   5.789072   5.200008   3.754846
    45  O    3.306287   4.354353   3.121434   3.425665   2.515889
    46  O    4.243764   5.188143   4.580824   3.613583   2.516544
    47  B    2.801531   3.803665   3.077699   2.447936   1.540000
                   11         12         13         14         15
    11  H    0.000000
    12  H    1.791896   0.000000
    13  C    5.667415   4.866599   0.000000
    14  H    5.873839   4.827296   1.103416   0.000000
    15  H    5.751291   4.842542   1.099236   1.749858   0.000000
    16  C    6.924524   6.307121   1.520189   2.156950   2.171274
    17  H    7.067068   6.649080   2.162452   3.072220   2.495920
    18  H    7.034056   6.553242   2.156882   2.563786   3.077274
    19  C    8.200896   7.363885   2.540625   2.716692   2.854523
    20  H    8.280546   7.289301   2.752048   2.465866   3.180653
    21  H    8.339879   7.407026   2.779845   3.012092   2.649432
    22  C    9.449760   8.751705   3.892457   4.142630   4.258229
    23  H    9.601997   9.044034   4.223309   4.716402   4.467145
    24  H    9.537212   8.934614   4.194327   4.375337   4.793610
    25  H   10.358894   9.543613   4.717826   4.818563   4.974377
    26  H    3.161947   3.604442   4.955732   4.993377   5.625248
    27  C    3.543650   4.087278   8.317547   8.155861   8.613788
    28  C    3.828528   3.675545   8.034677   7.720875   8.248773
    29  C    4.891559   5.439939   9.269882   9.040619   9.696989
    30  H    5.098735   5.943681   9.591937   9.457165  10.060252
    31  H    5.682582   6.128826  10.162390   9.887545  10.544163
    32  H    5.145442   5.470418   8.901268   8.581992   9.411172
    33  C    3.897115   4.735824   9.260656   9.214111   9.436300
    34  H    4.895278   5.554457  10.166695  10.054277  10.328675
    35  H    4.108499   5.271944   9.557431   9.602734   9.778314
    36  H    3.410115   4.206782   8.897987   8.902403   8.957242
    37  C    5.281738   4.962720   8.924998   8.459739   9.221309
    38  H    5.912956   5.795380   9.924748   9.495124  10.210344
    39  H    5.758761   5.117448   8.960267   8.403988   9.194623
    40  H    5.463059   5.188357   8.703649   8.204039   9.121010
    41  C    4.231483   4.009149   8.726338   8.459853   8.756982
    42  H    4.768761   4.142824   8.695698   8.338138   8.662072
    43  H    5.049681   5.029637   9.762077   9.501117   9.809771
    44  H    3.579817   3.552930   8.406603   8.264503   8.359331
    45  O    2.461825   3.314890   7.104073   7.057616   7.463542
    46  O    3.143580   2.486826   6.563850   6.211768   6.787342
    47  B    2.155819   2.167595   5.865209   5.703068   6.205610
                   16         17         18         19         20
    16  C    0.000000
    17  H    1.103954   0.000000
    18  H    1.105937   1.759122   0.000000
    19  C    1.520561   2.157874   2.147986   0.000000
    20  H    2.148453   3.065579   2.502570   1.104147   0.000000
    21  H    2.155946   2.517806   3.063757   1.101843   1.757526
    22  C    2.528249   2.763930   2.735283   1.519091   2.159071
    23  H    2.797516   2.578742   3.097070   2.171348   3.081224
    24  H    2.782553   3.111062   2.529659   2.168527   2.523023
    25  H    3.492061   3.779325   3.747863   2.184891   2.513090
    26  H    5.822983   6.183352   5.441098   7.136830   7.068478
    27  C    9.563982   9.953662   9.429624  10.735602  10.530187
    28  C    9.384413   9.882616   9.347804  10.403698  10.094175
    29  C   10.415850  10.860703  10.140691  11.577677  11.304859
    30  H   10.653927  11.024377  10.320779  11.893875  11.689557
    31  H   11.354487  11.822032  11.110716  12.475559  12.165527
    32  H    9.997374  10.524607   9.658448  11.097816  10.751225
    33  C   10.533357  10.807559  10.478762  11.754009  11.640637
    34  H   11.468689  11.784403  11.416557  12.645687  12.479836
    35  H   10.745143  10.943867  10.634429  12.043518  11.996918
    36  H   10.221768  10.448426  10.275172  11.423941  11.359107
    37  C   10.229836  10.840609  10.113141  11.147299  10.707044
    38  H   11.226796  11.804207  11.096382  12.180033  11.758825
    39  H   10.303782  10.972856  10.254257  11.102172  10.596324
    40  H    9.916841  10.568338   9.694246  10.834777  10.359077
    41  C   10.158942  10.595564  10.265510  11.139402  10.874527
    42  H   10.166070  10.663479  10.338483  11.026305  10.698753
    43  H   11.179296  11.604077  11.252172  12.182133  11.913237
    44  H    9.843088  10.181361  10.011740  10.879787  10.715831
    45  O    8.271510   8.598811   8.102367   9.525180   9.406363
    46  O    7.931252   8.474393   7.933814   8.905697   8.584960
    47  B    7.124820   7.561960   7.033832   8.275585   8.085606
                   21         22         23         24         25
    21  H    0.000000
    22  C    2.163109   0.000000
    23  H    2.531388   1.098869   0.000000
    24  H    3.081831   1.100202   1.769036   0.000000
    25  H    2.520270   1.097165   1.772863   1.775207   0.000000
    26  H    7.679611   8.142981   8.450811   7.883556   9.090536
    27  C   11.032041  11.978887  12.337840  11.875284  12.831272
    28  C   10.621454  11.737031  12.181572  11.708873  12.501450
    29  C   11.983526  12.744149  13.155342  12.523469  13.594232
    30  H   12.343461  12.989907  13.342026  12.722796  13.887849
    31  H   12.847431  13.677399  14.112483  13.477828  14.501019
    32  H   11.562661  12.233519  12.711412  11.960822  13.051759
    33  C   11.968974  13.012974  13.282970  12.972714  13.891368
    34  H   12.848813  13.929559  14.236989  13.889469  14.781493
    35  H   12.303210  13.233111  13.443538  13.148733  14.159035
    36  H   11.548329  12.724132  12.953707  12.770922  13.590617
    37  C   11.425096  12.456570  13.003017  12.360337  13.162409
    38  H   12.457897  13.481575  14.007202  13.372670  14.204567
    39  H   11.321115  12.453582  13.050230  12.410513  13.089940
    40  H   11.208226  12.076077  12.656287  11.893774  12.786675
    41  C   11.218089  12.539425  12.937837  12.626266  13.277428
    42  H   11.044095  12.468103  12.916459  12.607940  13.137214
    43  H   12.277754  13.569316  13.964135  13.629656  14.317826
    44  H   10.906754  12.277965  12.594149  12.415072  13.048565
    45  O    9.866714  10.708679  11.010279  10.584049  11.609976
    46  O    9.116412  10.257351  10.724098  10.260596  11.002126
    47  B    8.578298   9.535153   9.910513   9.471667  10.379190
                   26         27         28         29         30
    26  H    0.000000
    27  C    4.316276   0.000000
    28  C    4.761641   1.521977   0.000000
    29  C    4.862364   1.540000   2.513246   0.000000
    30  H    4.908126   2.148263   3.436598   1.070000   0.000000
    31  H    5.898549   2.148263   2.768618   1.070000   1.747303
    32  H    4.539855   2.148263   2.708408   1.070000   1.747303
    33  C    5.415833   1.540000   2.517299   2.477382   2.715257
    34  H    6.345916   2.148263   2.788472   2.642841   2.986062
    35  H    5.446503   2.148263   3.438431   2.732413   2.532870
    36  H    5.529585   2.148263   2.699605   3.414759   3.712730
    37  C    5.615633   2.515995   1.540000   2.599292   3.669092
    38  H    6.383747   2.734874   2.148263   2.499823   3.510233
    39  H    6.189567   3.439456   2.148263   3.668737   4.738270
    40  H    5.175228   2.748204   2.148263   2.438927   3.441529
    41  C    5.957652   2.514155   1.540000   3.629543   4.466578
    42  H    6.452991   3.437087   2.148263   4.467454   5.385704
    43  H    6.716400   2.772433   2.148263   3.578389   4.370500
    44  H    5.806883   2.707000   2.148263   4.074876   4.741536
    45  O    2.909717   1.521861   2.461171   2.513243   2.715038
    46  O    3.845174   2.462020   1.522035   3.522526   4.325675
    47  B    2.441349   2.461488   2.462384   3.514234   3.988133
                   31         32         33         34         35
    31  H    0.000000
    32  H    1.747303   0.000000
    33  C    2.658979   3.415916   0.000000
    34  H    2.374676   3.623129   1.070000   0.000000
    35  H    3.035892   3.718817   1.070000   1.747303   0.000000
    36  H    3.625344   4.246415   1.070000   1.747303   1.747303
    37  C    2.482267   2.454305   3.548350   3.444478   4.411987
    38  H    1.947788   2.619033   3.413400   3.007727   4.236105
    39  H    3.497498   3.451097   4.380405   4.230524   5.323562
    40  H    2.548798   1.863451   4.044865   4.070994   4.743916
    41  C    3.576419   4.077177   2.602937   2.602327   3.665452
    42  H    4.369786   4.744998   3.672647   3.615596   4.733693
    43  H    3.235954   4.181002   2.491310   2.056465   3.527693
    44  H    4.177275   4.627105   2.453172   2.720298   3.414262
    45  O    3.436924   2.761745   2.517289   3.438736   2.703521
    46  O    4.056875   3.398095   3.607797   4.144944   4.385979
    47  B    4.354752   3.410854   3.614242   4.441411   4.060975
                   36         37         38         39         40
    36  H    0.000000
    37  C    3.984303   0.000000
    38  H    3.992986   1.070000   0.000000
    39  H    4.639086   1.070000   1.747303   0.000000
    40  H    4.605172   1.070000   1.747303   1.747303   0.000000
    41  C    2.348693   2.477550   2.696392   2.677669   3.416710
    42  H    3.351230   2.718842   3.071466   2.477771   3.689860
    43  H    2.449606   2.655972   2.429925   2.949483   3.651823
    44  H    1.780281   3.415854   3.660697   3.678121   4.249457
    45  O    2.784311   3.605392   4.089088   4.416157   3.560750
    46  O    3.542012   2.516672   3.439885   2.753353   2.731432
    47  B    3.594353   3.585436   4.389596   4.091513   3.515487
                   41         42         43         44         45
    41  C    0.000000
    42  H    1.070000   0.000000
    43  H    1.070000   1.747303   0.000000
    44  H    1.070000   1.747303   1.747303   0.000000
    45  O    3.523346   4.323970   4.060998   3.398907   0.000000
    46  O    2.513679   2.712114   3.437117   2.765773   2.461936
    47  B    3.547364   4.015214   4.383062   3.468595   1.521858
                   46         47
    46  O    0.000000
    47  B    1.522152   0.000000
 Stoichiometry    C14H28BNO3
 Framework group  C1[X(C14H28BNO3)]
 Deg. of freedom   135
 Full point group                 C1      NOp   1
 Largest Abelian subgroup         C1      NOp   1
 Largest concise Abelian subgroup C1      NOp   1
                         Standard orientation:                         
 ---------------------------------------------------------------------
 Center     Atomic      Atomic             Coordinates (Angstroms)
 Number     Number       Type             X           Y           Z
 ---------------------------------------------------------------------
      1          6           0        1.810335   -0.039783   -0.727333
      2          8           0        1.748929   -1.186428   -1.157650
      3          6           0        3.145890    0.588210   -0.374813
      4          1           0        3.383851    1.344063   -1.143286
      5          1           0        3.075992    1.147946    0.566977
      6          6           0        0.594596    1.997032    0.118432
      7          1           0        1.575946    2.362753    0.337749
      8          1           0        0.074347    2.711332   -0.484906
      9          7           0        0.695177    0.751249   -0.593029
     10          6           0       -0.593023    0.225781   -0.989516
     11          1           0       -1.043058    0.863034   -1.765004
     12          1           0       -0.456006   -0.785462   -1.379359
     13          6           0        4.267866   -0.427416   -0.265532
     14          1           0        3.982214   -1.194096    0.474826
     15          1           0        4.380179   -0.970749   -1.214476
     16          6           0        5.580058    0.217928    0.149992
     17          1           0        5.934583    0.897120   -0.644819
     18          1           0        5.410157    0.860508    1.033915
     19          6           0        6.668726   -0.790349    0.482082
     20          1           0        6.299373   -1.466506    1.272986
     21          1           0        6.856571   -1.432287   -0.393525
     22          6           0        7.958791   -0.127527    0.933786
     23          1           0        8.360084    0.530260    0.150337
     24          1           0        7.785798    0.496509    1.823222
     25          1           0        8.736504   -0.859738    1.184385
     26          1           0        0.058661    1.843888    1.031789
     27          6           0       -3.977623    0.561657    0.198400
     28          6           0       -3.731965   -0.938130    0.280286
     29          6           0       -4.719961    1.051579    1.455584
     30          1           0       -4.826964    2.115431    1.414722
     31          1           0       -5.687732    0.597146    1.498131
     32          1           0       -4.160968    0.782560    2.327396
     33          6           0       -4.866711    0.899571   -1.012772
     34          1           0       -5.840297    0.479712   -0.868728
     35          1           0       -4.947385    1.962028   -1.110628
     36          1           0       -4.430192    0.491756   -1.900487
     37          6           0       -4.404310   -1.527276    1.534264
     38          1           0       -5.456593   -1.336879    1.497533
     39          1           0       -4.233837   -2.583081    1.567645
     40          1           0       -3.989648   -1.071209    2.408883
     41          6           0       -4.346111   -1.649724   -0.939574
     42          1           0       -4.103631   -2.691290   -0.904335
     43          1           0       -5.409317   -1.530319   -0.924219
     44          1           0       -3.952098   -1.221980   -1.837733
     45          8           0       -2.626317    1.251543    0.079700
     46          8           0       -2.227655   -1.165597    0.323891
     47          5           0       -1.544357    0.190670    0.220992
 ---------------------------------------------------------------------
 Rotational constants (GHZ):           1.0322314           0.1103084           0.1077236
 Standard basis: 6-31G(d) (5D, 7F)
 There are   341 symmetry adapted cartesian basis functions of A   symmetry.
 There are   322 symmetry adapted basis functions of A   symmetry.
   322 basis functions,   644 primitive gaussians,   341 cartesian basis functions
    74 alpha electrons       74 beta electrons
       nuclear repulsion energy      1477.9024893480 Hartrees.
 NAtoms=   47 NActive=   47 NUniq=   47 SFac= 1.00D+00 NAtFMM=   60 NAOKFM=F Big=F
 Integral buffers will be    131072 words long.
 Raffenetti 2 integral format.
 Two-electron integral symmetry is turned on.
 One-electron integrals computed using PRISM.
 NBasis=   322 RedAO= T EigKep=  1.68D-03  NBF=   322
 NBsUse=   322 1.00D-06 EigRej= -1.00D+00 NBFU=   322
 ExpMin= 1.27D-01 ExpMax= 5.48D+03 ExpMxC= 8.25D+02 IAcc=3 IRadAn=         5 AccDes= 0.00D+00
 Harris functional with IExCor= 1009 and IRadAn=       5 diagonalized for initial guess.
 HarFok:  IExCor= 1009 AccDes= 0.00D+00 IRadAn=         5 IDoV= 1 UseB2=F ITyADJ=14
 ICtDFT=  3500011 ScaDFX=  1.000000  1.000000  1.000000  1.000000
 FoFCou: FMM=F IPFlag=           0 FMFlag=      100000 FMFlg1=           0
         NFxFlg=           0 DoJE=T BraDBF=F KetDBF=T FulRan=T
         wScrn=  0.000000 ICntrl=       500 IOpCl=  0 I1Cent=   200000004 NGrid=           0
         NMat0=    1 NMatS0=      1 NMatT0=    0 NMatD0=    1 NMtDS0=    0 NMtDT0=    0
 Petite list used in FoFCou.
 Requested convergence on RMS density matrix=1.00D-08 within 128 cycles.
 Requested convergence on MAX density matrix=1.00D-06.
 Requested convergence on             energy=1.00D-06.
 No special actions if energy rises.
 Integral accuracy reduced to 1.0D-05 until final iterations.
 Initial convergence to 1.0D-05 achieved.  Increase integral accuracy.
 SCF Done:  E(RM06) =  -855.038872799     A.U. after   15 cycles
            NFock= 15  Conv=0.50D-08     -V/T= 2.0061

 **********************************************************************

            Population analysis using the SCF Density.

 **********************************************************************

 Orbital symmetries:
       Occupied  (A) (A) (A) (A) (A) (A) (A) (A) (A) (A) (A) (A)
                 (A) (A) (A) (A) (A) (A) (A) (A) (A) (A) (A) (A)
                 (A) (A) (A) (A) (A) (A) (A) (A) (A) (A) (A) (A)
                 (A) (A) (A) (A) (A) (A) (A) (A) (A) (A) (A) (A)
                 (A) (A) (A) (A) (A) (A) (A) (A) (A) (A) (A) (A)
                 (A) (A) (A) (A) (A) (A) (A) (A) (A) (A) (A) (A)
                 (A) (A)
       Virtual   (A) (A) (A) (A) (A) (A) (A) (A) (A) (A) (A) (A)
                 (A) (A) (A) (A) (A) (A) (A) (A) (A) (A) (A) (A)
                 (A) (A) (A) (A) (A) (A) (A) (A) (A) (A) (A) (A)
                 (A) (A) (A) (A) (A) (A) (A) (A) (A) (A) (A) (A)
                 (A) (A) (A) (A) (A) (A) (A) (A) (A) (A) (A) (A)
                 (A) (A) (A) (A) (A) (A) (A) (A) (A) (A) (A) (A)
                 (A) (A) (A) (A) (A) (A) (A) (A) (A) (A) (A) (A)
                 (A) (A) (A) (A) (A) (A) (A) (A) (A) (A) (A) (A)
                 (A) (A) (A) (A) (A) (A) (A) (A) (A) (A) (A) (A)
                 (A) (A) (A) (A) (A) (A) (A) (A) (A) (A) (A) (A)
                 (A) (A) (A) (A) (A) (A) (A) (A) (A) (A) (A) (A)
                 (A) (A) (A) (A) (A) (A) (A) (A) (A) (A) (A) (A)
                 (A) (A) (A) (A) (A) (A) (A) (A) (A) (A) (A) (A)
                 (A) (A) (A) (A) (A) (A) (A) (A) (A) (A) (A) (A)
                 (A) (A) (A) (A) (A) (A) (A) (A) (A) (A) (A) (A)
                 (A) (A) (A) (A) (A) (A) (A) (A) (A) (A) (A) (A)
                 (A) (A) (A) (A) (A) (A) (A) (A) (A) (A) (A) (A)
                 (A) (A) (A) (A) (A) (A) (A) (A) (A) (A) (A) (A)
                 (A) (A) (A) (A) (A) (A) (A) (A) (A) (A) (A) (A)
                 (A) (A) (A) (A) (A) (A) (A) (A) (A) (A) (A) (A)
                 (A) (A) (A) (A) (A) (A) (A) (A)
 The electronic state is 1-A.
 Alpha  occ. eigenvalues --  -19.23279 -19.23251 -19.17992 -14.41980 -10.33918
 Alpha  occ. eigenvalues --  -10.31569 -10.31481 -10.27578 -10.25113 -10.24718
 Alpha  occ. eigenvalues --  -10.23497 -10.23469 -10.23466 -10.23252 -10.23234
 Alpha  occ. eigenvalues --  -10.23205 -10.23171 -10.22812  -6.86561  -1.03927
 Alpha  occ. eigenvalues --   -1.03013  -0.97831  -0.94533  -0.83736  -0.81396
 Alpha  occ. eigenvalues --   -0.77220  -0.75808  -0.73543  -0.73293  -0.71744
 Alpha  occ. eigenvalues --   -0.68523  -0.67796  -0.63628  -0.61046  -0.57935
 Alpha  occ. eigenvalues --   -0.55041  -0.54270  -0.53309  -0.50267  -0.49970
 Alpha  occ. eigenvalues --   -0.48971  -0.48579  -0.47681  -0.46786  -0.44863
 Alpha  occ. eigenvalues --   -0.44758  -0.44092  -0.43325  -0.42885  -0.42251
 Alpha  occ. eigenvalues --   -0.41648  -0.41069  -0.40932  -0.40392  -0.40081
 Alpha  occ. eigenvalues --   -0.39843  -0.39614  -0.38992  -0.37825  -0.37331
 Alpha  occ. eigenvalues --   -0.36563  -0.35920  -0.35496  -0.34213  -0.33578
 Alpha  occ. eigenvalues --   -0.33403  -0.32850  -0.32774  -0.32494  -0.32167
 Alpha  occ. eigenvalues --   -0.31150  -0.27458  -0.25171  -0.24084
 Alpha virt. eigenvalues --   -0.04936   0.04526   0.07010   0.09133   0.10055
 Alpha virt. eigenvalues --    0.11029   0.11554   0.12060   0.13079   0.13274
 Alpha virt. eigenvalues --    0.13590   0.14368   0.15154   0.15500   0.15666
 Alpha virt. eigenvalues --    0.15943   0.16063   0.17055   0.17693   0.18114
 Alpha virt. eigenvalues --    0.18206   0.18333   0.19123   0.19398   0.19599
 Alpha virt. eigenvalues --    0.20206   0.20256   0.20534   0.20825   0.21382
 Alpha virt. eigenvalues --    0.21917   0.22311   0.22670   0.23836   0.23883
 Alpha virt. eigenvalues --    0.24645   0.25298   0.25782   0.26932   0.27551
 Alpha virt. eigenvalues --    0.28274   0.29189   0.31103   0.32208   0.33032
 Alpha virt. eigenvalues --    0.33591   0.35916   0.37249   0.40301   0.44643
 Alpha virt. eigenvalues --    0.46603   0.49256   0.50426   0.51418   0.51909
 Alpha virt. eigenvalues --    0.52773   0.53163   0.53936   0.55529   0.56145
 Alpha virt. eigenvalues --    0.56216   0.57183   0.57445   0.57665   0.58197
 Alpha virt. eigenvalues --    0.58483   0.60291   0.61256   0.61752   0.63068
 Alpha virt. eigenvalues --    0.63321   0.65301   0.66086   0.66685   0.67900
 Alpha virt. eigenvalues --    0.68630   0.70120   0.71142   0.71411   0.71847
 Alpha virt. eigenvalues --    0.72606   0.72978   0.74170   0.74717   0.77041
 Alpha virt. eigenvalues --    0.77407   0.78691   0.78927   0.80390   0.81079
 Alpha virt. eigenvalues --    0.82429   0.82908   0.83250   0.83259   0.84462
 Alpha virt. eigenvalues --    0.84743   0.86178   0.86836   0.87417   0.87458
 Alpha virt. eigenvalues --    0.87620   0.88608   0.88769   0.89647   0.89799
 Alpha virt. eigenvalues --    0.90121   0.90564   0.91055   0.91405   0.91494
 Alpha virt. eigenvalues --    0.91808   0.92050   0.92173   0.93792   0.94458
 Alpha virt. eigenvalues --    0.94625   0.94884   0.96362   0.97264   0.98305
 Alpha virt. eigenvalues --    0.99536   1.00045   1.00862   1.01317   1.03638
 Alpha virt. eigenvalues --    1.04546   1.05491   1.07346   1.11387   1.12667
 Alpha virt. eigenvalues --    1.13486   1.14621   1.15558   1.19316   1.21134
 Alpha virt. eigenvalues --    1.24399   1.27124   1.30874   1.32754   1.32977
 Alpha virt. eigenvalues --    1.33713   1.35083   1.38018   1.39567   1.41862
 Alpha virt. eigenvalues --    1.42907   1.45213   1.45957   1.46421   1.49098
 Alpha virt. eigenvalues --    1.51805   1.53444   1.55011   1.56589   1.58451
 Alpha virt. eigenvalues --    1.60333   1.60991   1.62776   1.64571   1.67881
 Alpha virt. eigenvalues --    1.69329   1.71103   1.72692   1.75531   1.75704
 Alpha virt. eigenvalues --    1.76311   1.78773   1.79850   1.80642   1.80995
 Alpha virt. eigenvalues --    1.81513   1.83255   1.83328   1.85161   1.87760
 Alpha virt. eigenvalues --    1.89328   1.89977   1.90487   1.91285   1.92068
 Alpha virt. eigenvalues --    1.92577   1.92958   1.93946   1.95758   1.96226
 Alpha virt. eigenvalues --    1.97199   1.98850   1.99825   2.00343   2.01759
 Alpha virt. eigenvalues --    2.02103   2.03297   2.04025   2.06078   2.07377
 Alpha virt. eigenvalues --    2.08096   2.09397   2.10392   2.11384   2.15301
 Alpha virt. eigenvalues --    2.16402   2.17000   2.17942   2.18655   2.20440
 Alpha virt. eigenvalues --    2.20888   2.21040   2.21110   2.22340   2.23013
 Alpha virt. eigenvalues --    2.23740   2.25815   2.29412   2.30911   2.32722
 Alpha virt. eigenvalues --    2.35131   2.36858   2.37564   2.37846   2.38069
 Alpha virt. eigenvalues --    2.40335   2.40483   2.42280   2.43531   2.44586
 Alpha virt. eigenvalues --    2.46949   2.51143   2.55363   2.58580   2.59279
 Alpha virt. eigenvalues --    2.61044   2.61365   2.62325   2.64684   2.67409
 Alpha virt. eigenvalues --    2.70405   2.71060   2.73539   2.76858   2.78531
 Alpha virt. eigenvalues --    2.78625   2.80844   2.83806   2.85264   2.98109
 Alpha virt. eigenvalues --    3.04622   3.10249   3.20563
          Condensed to atoms (all electrons):
               1          2          3          4          5          6
     1  C    4.307369   0.616938   0.316483  -0.021476  -0.022100  -0.033792
     2  O    0.616938   8.055367  -0.102235   0.000139   0.002126   0.002831
     3  C    0.316483  -0.102235   5.385009   0.359905   0.354162  -0.003270
     4  H   -0.021476   0.000139   0.359905   0.549699  -0.037176  -0.000436
     5  H   -0.022100   0.002126   0.354162  -0.037176   0.585262  -0.004669
     6  C   -0.033792   0.002831  -0.003270  -0.000436  -0.004669   5.045675
     7  H   -0.008197   0.000077   0.007993   0.000184   0.003201   0.373389
     8  H    0.001545  -0.000070  -0.000276   0.000077   0.000216   0.384259
     9  N    0.304608  -0.093949  -0.119317  -0.000327   0.000817   0.299059
    10  C   -0.028070  -0.009058   0.007080  -0.000243  -0.000161  -0.067391
    11  H    0.001931   0.000581  -0.000112   0.000037  -0.000011  -0.003868
    12  H   -0.003096   0.022415   0.001554  -0.000035  -0.000033   0.004840
    13  C   -0.029007   0.007183   0.343244  -0.031183  -0.038939   0.000491
    14  H   -0.001647   0.001948  -0.042657   0.005112  -0.005093  -0.000018
    15  H   -0.002309   0.005091  -0.034168  -0.005090   0.005206  -0.000019
    16  C    0.004404   0.000700  -0.042474  -0.002775  -0.003913  -0.000008
    17  H   -0.000001  -0.000000  -0.002983   0.003638  -0.000378  -0.000000
    18  H    0.000064  -0.000004  -0.005561  -0.000399   0.005748  -0.000010
    19  C   -0.000080   0.000003   0.003391   0.000013   0.000024   0.000000
    20  H   -0.000003  -0.000001   0.000059   0.000003   0.000014   0.000000
    21  H    0.000001  -0.000002   0.000054   0.000001   0.000004  -0.000000
    22  C    0.000001   0.000000  -0.000130   0.000003  -0.000003  -0.000000
    23  H    0.000000  -0.000000  -0.000001  -0.000001   0.000001   0.000000
    24  H    0.000000  -0.000000   0.000000   0.000001  -0.000004   0.000000
    25  H   -0.000000   0.000000   0.000001   0.000000   0.000000   0.000000
    26  H    0.000671   0.000071  -0.000258  -0.000010   0.000372   0.366330
    27  C    0.000001  -0.000000  -0.000000   0.000000  -0.000000  -0.000050
    28  C   -0.000004  -0.000000  -0.000000  -0.000000   0.000000   0.000009
    29  C   -0.000000  -0.000000   0.000000   0.000000   0.000000   0.000006
    30  H   -0.000000  -0.000000  -0.000000  -0.000000  -0.000000   0.000000
    31  H    0.000000   0.000000  -0.000000  -0.000000   0.000000  -0.000000
    32  H    0.000000  -0.000000  -0.000000   0.000000  -0.000000  -0.000002
    33  C    0.000000   0.000000  -0.000000   0.000000  -0.000000  -0.000001
    34  H    0.000000   0.000000   0.000000  -0.000000   0.000000   0.000000
    35  H   -0.000000  -0.000000  -0.000000   0.000000  -0.000000   0.000000
    36  H    0.000000  -0.000000   0.000000   0.000000  -0.000000  -0.000000
    37  C    0.000000   0.000000  -0.000000   0.000000   0.000000  -0.000000
    38  H   -0.000000  -0.000000  -0.000000  -0.000000  -0.000000   0.000000
    39  H   -0.000000  -0.000000   0.000000  -0.000000  -0.000000   0.000000
    40  H    0.000000  -0.000000   0.000000   0.000000  -0.000000   0.000000
    41  C    0.000000  -0.000000   0.000000   0.000000  -0.000000   0.000000
    42  H   -0.000000  -0.000000  -0.000000  -0.000000   0.000000   0.000000
    43  H   -0.000000   0.000000  -0.000000  -0.000000   0.000000   0.000000
    44  H   -0.000000  -0.000000  -0.000000   0.000000   0.000000  -0.000000
    45  O   -0.000053  -0.000000   0.000000   0.000000  -0.000000  -0.000296
    46  O    0.000044  -0.000010   0.000000   0.000000   0.000000  -0.000133
    47  B    0.001499   0.000915  -0.000258  -0.000008  -0.000024   0.006997
               7          8          9         10         11         12
     1  C   -0.008197   0.001545   0.304608  -0.028070   0.001931  -0.003096
     2  O    0.000077  -0.000070  -0.093949  -0.009058   0.000581   0.022415
     3  C    0.007993  -0.000276  -0.119317   0.007080  -0.000112   0.001554
     4  H    0.000184   0.000077  -0.000327  -0.000243   0.000037  -0.000035
     5  H    0.003201   0.000216   0.000817  -0.000161  -0.000011  -0.000033
     6  C    0.373389   0.384259   0.299059  -0.067391  -0.003868   0.004840
     7  H    0.520104  -0.024396  -0.032976   0.006296  -0.000053  -0.000198
     8  H   -0.024396   0.534159  -0.044251  -0.003016   0.006466  -0.000045
     9  N   -0.032976  -0.044251   7.047976   0.234425  -0.041797  -0.035244
    10  C    0.006296  -0.003016   0.234425   5.151301   0.373234   0.363276
    11  H   -0.000053   0.006466  -0.041797   0.373234   0.545267  -0.024534
    12  H   -0.000198  -0.000045  -0.035244   0.363276  -0.024534   0.465461
    13  C    0.000039  -0.000017   0.003803  -0.000097  -0.000002  -0.000033
    14  H    0.000011   0.000000   0.000187  -0.000007   0.000000  -0.000004
    15  H    0.000003   0.000001   0.000204  -0.000000  -0.000000  -0.000003
    16  C   -0.000003   0.000000  -0.000025   0.000001  -0.000000  -0.000000
    17  H    0.000002   0.000000   0.000000  -0.000000   0.000000  -0.000000
    18  H   -0.000003  -0.000000  -0.000003   0.000000  -0.000000   0.000000
    19  C   -0.000000  -0.000000   0.000001  -0.000000   0.000000  -0.000000
    20  H    0.000000   0.000000  -0.000000   0.000000   0.000000   0.000000
    21  H    0.000000  -0.000000  -0.000000   0.000000   0.000000   0.000000
    22  C    0.000000   0.000000  -0.000000   0.000000  -0.000000   0.000000
    23  H    0.000000  -0.000000   0.000000   0.000000  -0.000000   0.000000
    24  H    0.000000  -0.000000  -0.000000   0.000000   0.000000   0.000000
    25  H   -0.000000   0.000000   0.000000  -0.000000   0.000000  -0.000000
    26  H   -0.028016  -0.045857  -0.057617  -0.005369  -0.001604  -0.000058
    27  C   -0.000000  -0.000018  -0.000007   0.003430  -0.000297  -0.000009
    28  C   -0.000000   0.000001  -0.000032   0.003572  -0.000252  -0.000332
    29  C   -0.000000  -0.000000  -0.000000  -0.000069  -0.000008   0.000002
    30  H    0.000000   0.000000  -0.000000  -0.000005   0.000001   0.000000
    31  H    0.000000  -0.000000  -0.000000   0.000003   0.000000  -0.000000
    32  H    0.000000   0.000000   0.000000   0.000008  -0.000000  -0.000000
    33  C    0.000000   0.000001   0.000001   0.000106   0.000071  -0.000005
    34  H   -0.000000  -0.000000  -0.000000  -0.000002  -0.000001  -0.000001
    35  H    0.000000   0.000001  -0.000000  -0.000010   0.000031   0.000001
    36  H   -0.000000   0.000000   0.000001  -0.000029   0.000190  -0.000004
    37  C   -0.000000  -0.000000   0.000002  -0.000063   0.000001  -0.000011
    38  H    0.000000  -0.000000  -0.000000   0.000003  -0.000000   0.000000
    39  H    0.000000   0.000000  -0.000000  -0.000006   0.000000   0.000001
    40  H   -0.000000   0.000000  -0.000000   0.000007   0.000000  -0.000000
    41  C   -0.000000  -0.000000  -0.000001   0.000117   0.000041   0.000058
    42  H    0.000000   0.000000  -0.000000  -0.000019   0.000002   0.000031
    43  H    0.000000  -0.000000   0.000000  -0.000001  -0.000005  -0.000000
    44  H   -0.000000   0.000000   0.000005   0.000178   0.000056   0.000022
    45  O    0.000058   0.000987   0.000569  -0.038810  -0.002924   0.001545
    46  O   -0.000001   0.000019   0.001748  -0.041752   0.001247  -0.000642
    47  B   -0.000263  -0.004457  -0.041535   0.364645  -0.032988  -0.022194
              13         14         15         16         17         18
     1  C   -0.029007  -0.001647  -0.002309   0.004404  -0.000001   0.000064
     2  O    0.007183   0.001948   0.005091   0.000700  -0.000000  -0.000004
     3  C    0.343244  -0.042657  -0.034168  -0.042474  -0.002983  -0.005561
     4  H   -0.031183   0.005112  -0.005090  -0.002775   0.003638  -0.000399
     5  H   -0.038939  -0.005093   0.005206  -0.003913  -0.000378   0.005748
     6  C    0.000491  -0.000018  -0.000019  -0.000008  -0.000000  -0.000010
     7  H    0.000039   0.000011   0.000003  -0.000003   0.000002  -0.000003
     8  H   -0.000017   0.000000   0.000001   0.000000   0.000000  -0.000000
     9  N    0.003803   0.000187   0.000204  -0.000025   0.000000  -0.000003
    10  C   -0.000097  -0.000007  -0.000000   0.000001  -0.000000   0.000000
    11  H   -0.000002   0.000000  -0.000000  -0.000000   0.000000  -0.000000
    12  H   -0.000033  -0.000004  -0.000003  -0.000000  -0.000000   0.000000
    13  C    5.013118   0.390442   0.382834   0.350153  -0.035047  -0.039714
    14  H    0.390442   0.570204  -0.033708  -0.044147   0.005369  -0.004162
    15  H    0.382834  -0.033708   0.546172  -0.036510  -0.006148   0.005116
    16  C    0.350153  -0.044147  -0.036510   5.056407   0.373937   0.375518
    17  H   -0.035047   0.005369  -0.006148   0.373937   0.600778  -0.041887
    18  H   -0.039714  -0.004162   0.005116   0.375518  -0.041887   0.614366
    19  C   -0.040884  -0.003778  -0.002376   0.381395  -0.038372  -0.041375
    20  H   -0.004004   0.005153  -0.000357  -0.041651   0.005700  -0.005975
    21  H   -0.002135  -0.000526   0.003283  -0.040014  -0.005957   0.005833
    22  C    0.003667   0.000122  -0.000026  -0.047240  -0.002781  -0.003601
    23  H    0.000047   0.000006   0.000004  -0.004846   0.004465  -0.000451
    24  H    0.000059   0.000005   0.000002  -0.005336  -0.000420   0.004999
    25  H   -0.000123  -0.000001   0.000002   0.004239  -0.000038  -0.000013
    26  H    0.000018   0.000001   0.000000  -0.000000  -0.000000   0.000001
    27  C    0.000000   0.000000   0.000000  -0.000000  -0.000000   0.000000
    28  C    0.000000   0.000000   0.000000   0.000000  -0.000000   0.000000
    29  C   -0.000000   0.000000   0.000000   0.000000  -0.000000  -0.000000
    30  H    0.000000  -0.000000   0.000000  -0.000000  -0.000000   0.000000
    31  H    0.000000  -0.000000   0.000000  -0.000000  -0.000000   0.000000
    32  H    0.000000   0.000000  -0.000000   0.000000   0.000000  -0.000000
    33  C    0.000000   0.000000  -0.000000   0.000000   0.000000  -0.000000
    34  H   -0.000000  -0.000000   0.000000  -0.000000  -0.000000   0.000000
    35  H   -0.000000   0.000000   0.000000  -0.000000   0.000000  -0.000000
    36  H   -0.000000   0.000000   0.000000   0.000000   0.000000  -0.000000
    37  C   -0.000000   0.000000  -0.000000  -0.000000   0.000000  -0.000000
    38  H    0.000000   0.000000   0.000000  -0.000000  -0.000000   0.000000
    39  H   -0.000000  -0.000000   0.000000  -0.000000  -0.000000  -0.000000
    40  H   -0.000000   0.000000  -0.000000   0.000000   0.000000  -0.000000
    41  C   -0.000000   0.000000  -0.000000   0.000000   0.000000  -0.000000
    42  H    0.000000  -0.000000   0.000000  -0.000000  -0.000000  -0.000000
    43  H    0.000000  -0.000000   0.000000  -0.000000  -0.000000   0.000000
    44  H    0.000000   0.000000   0.000000   0.000000   0.000000  -0.000000
    45  O   -0.000000   0.000000  -0.000000   0.000000   0.000000  -0.000000
    46  O   -0.000000   0.000000   0.000000   0.000000   0.000000  -0.000000
    47  B    0.000011   0.000001  -0.000000  -0.000000   0.000000  -0.000000
              19         20         21         22         23         24
     1  C   -0.000080  -0.000003   0.000001   0.000001   0.000000   0.000000
     2  O    0.000003  -0.000001  -0.000002   0.000000  -0.000000  -0.000000
     3  C    0.003391   0.000059   0.000054  -0.000130  -0.000001   0.000000
     4  H    0.000013   0.000003   0.000001   0.000003  -0.000001   0.000001
     5  H    0.000024   0.000014   0.000004  -0.000003   0.000001  -0.000004
     6  C    0.000000   0.000000  -0.000000  -0.000000   0.000000   0.000000
     7  H   -0.000000   0.000000   0.000000   0.000000   0.000000   0.000000
     8  H   -0.000000   0.000000  -0.000000   0.000000  -0.000000  -0.000000
     9  N    0.000001  -0.000000  -0.000000  -0.000000   0.000000  -0.000000
    10  C   -0.000000   0.000000   0.000000   0.000000   0.000000   0.000000
    11  H    0.000000   0.000000   0.000000  -0.000000  -0.000000   0.000000
    12  H   -0.000000   0.000000   0.000000   0.000000   0.000000   0.000000
    13  C   -0.040884  -0.004004  -0.002135   0.003667   0.000047   0.000059
    14  H   -0.003778   0.005153  -0.000526   0.000122   0.000006   0.000005
    15  H   -0.002376  -0.000357   0.003283  -0.000026   0.000004   0.000002
    16  C    0.381395  -0.041651  -0.040014  -0.047240  -0.004846  -0.005336
    17  H   -0.038372   0.005700  -0.005957  -0.002781   0.004465  -0.000420
    18  H   -0.041375  -0.005975   0.005833  -0.003601  -0.000451   0.004999
    19  C    4.997323   0.384322   0.383224   0.359138  -0.035014  -0.035426
    20  H    0.384322   0.587397  -0.038792  -0.037787   0.005033  -0.004883
    21  H    0.383224  -0.038792   0.582166  -0.037107  -0.004835   0.004996
    22  C    0.359138  -0.037787  -0.037107   5.126271   0.380124   0.379987
    23  H   -0.035014   0.005033  -0.004835   0.380124   0.559081  -0.032573
    24  H   -0.035426  -0.004883   0.004996   0.379987  -0.032573   0.561408
    25  H   -0.027251  -0.003035  -0.002776   0.377158  -0.029718  -0.029623
    26  H    0.000000  -0.000000   0.000000   0.000000  -0.000000  -0.000000
    27  C    0.000000  -0.000000   0.000000  -0.000000  -0.000000   0.000000
    28  C    0.000000  -0.000000  -0.000000   0.000000  -0.000000  -0.000000
    29  C    0.000000  -0.000000  -0.000000   0.000000   0.000000  -0.000000
    30  H    0.000000  -0.000000  -0.000000   0.000000   0.000000   0.000000
    31  H    0.000000  -0.000000   0.000000   0.000000   0.000000   0.000000
    32  H   -0.000000  -0.000000  -0.000000   0.000000  -0.000000   0.000000
    33  C   -0.000000   0.000000  -0.000000   0.000000   0.000000   0.000000
    34  H    0.000000   0.000000   0.000000   0.000000   0.000000   0.000000
    35  H    0.000000  -0.000000  -0.000000   0.000000   0.000000   0.000000
    36  H    0.000000   0.000000  -0.000000   0.000000   0.000000   0.000000
    37  C   -0.000000  -0.000000   0.000000   0.000000   0.000000   0.000000
    38  H    0.000000  -0.000000  -0.000000   0.000000   0.000000   0.000000
    39  H    0.000000  -0.000000  -0.000000  -0.000000   0.000000   0.000000
    40  H   -0.000000   0.000000  -0.000000  -0.000000   0.000000  -0.000000
    41  C    0.000000   0.000000   0.000000   0.000000   0.000000   0.000000
    42  H    0.000000  -0.000000  -0.000000  -0.000000   0.000000  -0.000000
    43  H    0.000000  -0.000000   0.000000   0.000000   0.000000   0.000000
    44  H   -0.000000  -0.000000  -0.000000   0.000000  -0.000000   0.000000
    45  O   -0.000000  -0.000000  -0.000000   0.000000  -0.000000   0.000000
    46  O   -0.000000   0.000000  -0.000000   0.000000  -0.000000   0.000000
    47  B    0.000000  -0.000000  -0.000000  -0.000000  -0.000000  -0.000000
              25         26         27         28         29         30
     1  C   -0.000000   0.000671   0.000001  -0.000004  -0.000000  -0.000000
     2  O    0.000000   0.000071  -0.000000  -0.000000  -0.000000  -0.000000
     3  C    0.000001  -0.000258  -0.000000  -0.000000   0.000000  -0.000000
     4  H    0.000000  -0.000010   0.000000  -0.000000   0.000000  -0.000000
     5  H    0.000000   0.000372  -0.000000   0.000000   0.000000  -0.000000
     6  C    0.000000   0.366330  -0.000050   0.000009   0.000006   0.000000
     7  H   -0.000000  -0.028016  -0.000000  -0.000000  -0.000000   0.000000
     8  H    0.000000  -0.045857  -0.000018   0.000001  -0.000000   0.000000
     9  N    0.000000  -0.057617  -0.000007  -0.000032  -0.000000  -0.000000
    10  C   -0.000000  -0.005369   0.003430   0.003572  -0.000069  -0.000005
    11  H    0.000000  -0.001604  -0.000297  -0.000252  -0.000008   0.000001
    12  H   -0.000000  -0.000058  -0.000009  -0.000332   0.000002   0.000000
    13  C   -0.000123   0.000018   0.000000   0.000000  -0.000000   0.000000
    14  H   -0.000001   0.000001   0.000000   0.000000   0.000000  -0.000000
    15  H    0.000002   0.000000   0.000000   0.000000   0.000000   0.000000
    16  C    0.004239  -0.000000  -0.000000   0.000000   0.000000  -0.000000
    17  H   -0.000038  -0.000000  -0.000000  -0.000000  -0.000000  -0.000000
    18  H   -0.000013   0.000001   0.000000   0.000000  -0.000000   0.000000
    19  C   -0.027251   0.000000   0.000000   0.000000   0.000000   0.000000
    20  H   -0.003035  -0.000000  -0.000000  -0.000000  -0.000000  -0.000000
    21  H   -0.002776   0.000000   0.000000  -0.000000  -0.000000  -0.000000
    22  C    0.377158   0.000000  -0.000000   0.000000   0.000000   0.000000
    23  H   -0.029718  -0.000000  -0.000000  -0.000000   0.000000   0.000000
    24  H   -0.029623  -0.000000   0.000000  -0.000000  -0.000000   0.000000
    25  H    0.546069   0.000000   0.000000   0.000000   0.000000   0.000000
    26  H    0.000000   0.574051  -0.000001   0.000030  -0.000009   0.000001
    27  C    0.000000  -0.000001   4.771829   0.340489   0.373752  -0.025263
    28  C    0.000000   0.000030   0.340489   4.775714  -0.067884   0.005959
    29  C    0.000000  -0.000009   0.373752  -0.067884   5.234052   0.370573
    30  H    0.000000   0.000001  -0.025263   0.005959   0.370573   0.528136
    31  H    0.000000   0.000000  -0.021104  -0.005612   0.358559  -0.028905
    32  H    0.000000   0.000002  -0.026759  -0.007764   0.373594  -0.026323
    33  C    0.000000  -0.000000   0.378358  -0.062709  -0.087237  -0.005052
    34  H    0.000000  -0.000000  -0.024963  -0.002687  -0.003163   0.000072
    35  H    0.000000   0.000000  -0.024335   0.005785  -0.004784   0.002675
    36  H    0.000000  -0.000001  -0.024860  -0.011119   0.006664  -0.000035
    37  C    0.000000  -0.000000  -0.064834   0.372615  -0.022618   0.001355
    38  H    0.000000   0.000000  -0.004758  -0.023176  -0.005221   0.000247
    39  H    0.000000  -0.000000   0.005825  -0.025481   0.001318  -0.000036
    40  H    0.000000  -0.000000  -0.009042  -0.023724  -0.000924   0.000176
    41  C    0.000000  -0.000000  -0.064306   0.377000   0.006720  -0.000210
    42  H    0.000000   0.000000   0.005843  -0.024082  -0.000215   0.000003
    43  H    0.000000   0.000000  -0.006026  -0.021327  -0.000277  -0.000002
    44  H    0.000000  -0.000000  -0.006986  -0.027041   0.000035  -0.000003
    45  O    0.000000  -0.001377   0.219757  -0.044395  -0.042358  -0.000098
[...]
 00217,-0.00001220,-0.00002284,0.00002749,0.00000078,0.00000141,-0.0000
 0083,0.00001155,0.00000017,-0.00000809,-0.00000801,-0.00002484,-0.0001
 1843,0.00004599,0.00002611,-0.00001703,0.00003364,0.00005819,0.0000214
 4,0.00007322,-0.00000078,-0.00000594,-0.00000524,-0.00000040,0.0000013
 8,0.00000198,-0.00000432,-0.00000420,-0.00000305,0.00000029,-0.0000011
 4,-0.00000115,-0.00000271,-0.00000095,0.00000354,0.00000111,-0.0000004
 9,-0.00000043,0.00000206,0.00000025,-0.00000104,0.00000060,-0.00000037
 ,0.00000166,-0.00000108,-0.00000115,-0.00000110,0.00000068,-0.00000004
 ,-0.00000055,-0.00000134,0.00000069,0.00000150,0.00000023,-0.00000076,
 -0.00000048,0.00000112,-0.00000038,0.00000036,0.00000034,0.00000135,-0
 .00000515,0.00000722,-0.00000321,0.00074692,-0.00001068,0.00044750,-0.
 00275014,0.00865371,-0.00908544,-0.00007473,0.00031089,0.00002998,0.00
 003462,0.00006531,0.00008629,0.00001162,-0.00000753,0.00001421,-0.0000
 0372,-0.00000030,0.00002158,0.00055748,-0.00060700,-0.00038572,-0.0000
 5509,-0.00006495,-0.00008231,-0.00007390,0.00006921,-0.00001811,0.0006
 7249,-0.00068745,-0.00126523,-0.00120117,-0.00053343,-0.00125831,-0.00
 001864,-0.00012474,-0.00002590,-0.00030281,0.00033332,-0.00005374,-0.0
 0027216,0.00065822,-0.00042333,0.02945009,-0.16640974,0.13064714,0.002
 57455,-0.01536226,0.01908339,0.00212322,-0.00493043,0.00334982,-0.0323
 7632,0.17845685,-0.00005274,-0.00003430,-0.00001588,0.00016232,-0.0000
 1711,0.00004570,-0.00000919,0.00001605,0.00000022,0.00000336,0.0000014
 3,0.00000122,0.00000199,-0.00000007,0.00000510,-0.00001497,-0.00000504
 ,0.00002319,0.00000183,0.00000533,-0.00000107,0.00000497,-0.00000409,-
 0.00000493,0.00003510,-0.00002404,0.00000823,0.00003621,-0.00013450,0.
 00001642,-0.00008866,-0.00004623,0.00003191,0.00004708,0.00001367,-0.0
 0003521,-0.00000325,0.00001036,-0.00000845,-0.00000139,0.00000087,-0.0
 0000364,0.00000459,-0.00000312,0.00000040,-0.00000227,-0.00000337,0.00
 000398,0.00000127,0.00000079,-0.00000011,0.00000034,-0.00000359,0.0000
 0095,-0.00000022,0.00000643,-0.00000391,-0.00000084,0.00000118,-0.0000
 0028,0.00000295,-0.00000310,0.00000102,-0.00000016,-0.00000100,0.00000
 278,0.00000015,0.00000023,-0.00000095,0.00000004,-0.00000171,-0.000000
 28,0.00000092,0.00000150,0.00000241,-0.00000169,-0.00000202,0.00000349
 ,-0.00011867,0.00177252,-0.00038479,-0.00131307,0.01678325,-0.01787506
 ,0.00019126,-0.00003814,0.00002876,0.00003012,-0.00010083,0.00001439,-
 0.00007685,0.00003552,0.00010660,0.00011825,0.00008908,0.00005845,-0.0
 0018158,0.00007432,-0.00040319,-0.00013621,-0.00002334,0.00025419,0.00
 015203,-0.00004023,0.00037868,0.00088656,-0.00080944,-0.00042696,-0.00
 410566,-0.00315156,-0.00237322,0.00017251,-0.00018035,0.00032821,0.000
 09101,0.00000578,0.00024761,-0.00042394,0.00116532,-0.00108347,-0.0326
 5157,0.12817355,-0.18631822,0.00226767,-0.00956308,0.01062891,-0.00332
 533,0.00720726,-0.00846347,0.03732718,-0.13998752,0.20175929,0.0019373
 8,0.00626168,-0.00624556,-0.01737035,-0.00528651,-0.00244739,0.0005944
 7,-0.00137150,0.00021879,-0.00014196,-0.00010496,-0.00010725,-0.000376
 69,-0.00053647,-0.00020276,0.00025403,0.00096967,-0.00157678,-0.000234
 91,-0.00038741,0.00003389,-0.00008428,0.00003277,0.00034600,0.00096409
 ,0.00068914,0.00186256,-0.01248447,0.00954217,0.00915093,-0.00005888,-
 0.00018273,0.00018335,-0.00202971,-0.00148397,0.00268578,-0.00032418,-
 0.00026529,0.00064522,0.00007026,0.00002811,-0.00002580,0.00013025,0.0
 0005250,0.00008041,0.00016350,0.00022243,-0.00027487,0.00001492,-0.000
 01215,-0.00000529,-0.00003450,-0.00006144,0.00000481,-0.00018098,-0.00
 018021,0.00019099,0.00006454,-0.00000846,-0.00005090,-0.00000881,0.000
 02204,-0.00001049,0.00003089,0.00006884,-0.00014807,0.00001283,-0.0000
 0043,0.00002583,0.00000107,-0.00002355,0.00003860,-0.00006077,-0.00004
 982,-0.00010148,0.00010181,-0.00007219,0.00034767,-0.08888420,-0.02615
 685,0.02852468,-0.01856956,-0.00875623,0.01658919,0.00434943,0.0002984
 6,0.00163655,-0.00050643,0.00023374,-0.00072387,0.00151175,-0.00027058
 ,0.00019969,0.00093374,0.00017066,0.00177566,-0.02339644,-0.03172332,0
 .03477937,-0.00974917,0.00183365,0.00194169,0.00327409,0.00016267,-0.0
 0061633,0.00399483,-0.00015988,-0.00019246,0.00186325,-0.00150632,-0.0
 0262425,0.00027496,0.00099897,-0.00082379,0.00024098,-0.00118095,0.000
 69120,0.00001364,0.00000493,0.00053052,0.00206331,0.00021058,-0.001477
 74,-0.00010665,-0.00098354,-0.00044925,0.00124199,0.00032122,0.0006615
 7,-0.00018198,-0.00020783,0.00104987,0.33307381,0.00121198,0.00014556,
 0.00085927,-0.00179758,0.00264559,0.00045175,0.00027615,0.00000720,-0.
 00008748,-0.00004986,0.00003530,-0.00001661,0.00010190,0.00010734,-0.0
 0007434,0.00039128,0.00023731,-0.00009487,0.00005218,-0.00000989,-0.00
 006413,-0.00008521,0.00004999,0.00006211,0.00057836,0.00119920,-0.0013
 3764,-0.00620011,0.00932647,0.00288314,0.00063744,0.00023519,-0.000917
 81,-0.00227530,-0.00105050,0.00257895,0.00008368,-0.00009754,0.0000196
 3,0.00000167,-0.00001599,0.00011940,-0.00007231,0.00003784,-0.00001919
 ,0.00002074,0.00005484,-0.00002868,-0.00003760,-0.00001380,0.00000059,
 0.00000637,0.00003884,-0.00000757,-0.00000295,-0.00006267,0.00004862,0
 .00000245,-0.00000703,0.00000939,-0.00002292,0.00002661,-0.00001305,0.
 00000699,0.00001698,-0.00003417,-0.00000823,-0.00000362,0.00001350,0.0
 0000200,0.00000990,0.00000801,-0.00001404,-0.00001620,-0.00003528,0.00
 001941,-0.00000416,-0.00010642,-0.01426116,-0.12277109,0.03965083,0.00
 122490,-0.03890755,0.02249645,0.00007134,0.00337118,0.00432930,0.00049
 381,0.00212046,0.00107069,-0.00003343,0.00155466,-0.00133373,-0.000245
 63,-0.00068572,-0.00058552,-0.00313367,0.00316971,0.00031451,0.0016050
 7,0.00134301,-0.00045933,-0.00143767,0.00128383,0.00024607,0.00005293,
 -0.00033326,-0.00006071,0.00114145,-0.00502129,-0.00518687,-0.00059527
 ,0.00006879,0.00024690,0.00046246,-0.00157729,0.00197453,0.00032387,0.
 00000593,0.00000878,0.00006353,0.00030422,0.00029551,-0.00003390,0.000
 16082,-0.00012729,-0.00041611,-0.00022501,0.00004583,-0.00033961,-0.00
 063830,-0.00048492,-0.09028429,0.33174694,-0.00113573,0.00239639,-0.00
 800345,-0.00446095,-0.00177352,0.00565718,0.00023673,-0.00012842,0.000
 41633,-0.00002471,0.00006711,0.00012741,0.00007407,-0.00004192,0.00001
 139,0.00017529,0.00020110,0.00134784,0.00025771,0.00044786,-0.00016081
 ,-0.00015860,-0.00019635,0.00005391,0.00231889,-0.00066138,0.00280049,
 0.01742890,-0.01196665,-0.00668849,-0.00141276,-0.00035732,0.00238146,
 0.00379749,0.00229565,-0.00304127,0.00034421,0.00020432,-0.00036333,-0
 .00007732,0.00009621,0.00012856,0.00001376,-0.00003384,0.00001765,-0.0
 0008795,-0.00009654,0.00022200,-0.00007692,-0.00002656,0.00000579,0.00
 001499,-0.00000746,-0.00001763,0.00012941,0.00009016,-0.00010133,-0.00
 006348,0.00002701,0.00004931,0.00002237,-0.00001920,0.00000650,-0.0000
 1269,-0.00001617,0.00007727,-0.00002962,-0.00000613,-0.00000430,0.0000
 0466,-0.00000239,-0.00001775,0.00003018,0.00002186,0.00003877,-0.00013
 341,-0.00024358,0.00003407,0.02340767,0.04850739,-0.12207406,0.0095508
 7,0.01434905,-0.01172532,0.02176627,0.02996331,-0.04312333,0.00147698,
 0.00097044,0.00340036,-0.00418057,-0.00152034,-0.00960968,0.00002916,0
 .00058452,0.00236987,0.01054209,0.01030317,-0.00860955,0.00291797,-0.0
 0062514,0.00071068,-0.00177434,-0.00014324,0.00017613,0.00043627,-0.00
 049350,0.00170661,-0.00071588,0.00241726,0.00248264,-0.00042811,-0.000
 83324,0.00046518,-0.00004684,0.00127593,-0.00042494,0.00053020,-0.0005
 1826,-0.00009017,-0.00234925,0.00166185,-0.00038853,0.00038424,0.00024
 330,0.00102247,-0.00061576,-0.00082786,0.00000983,0.00083152,-0.000893
 53,0.00113199,-0.16460896,-0.03379130,0.26055548,0.00063514,0.00240211
 ,-0.00206760,-0.00311775,-0.00825203,-0.00112756,-0.00062933,-0.000437
 46,0.00034081,-0.00015928,-0.00022502,-0.00011252,-0.00013784,-0.00021
 879,-0.00003696,-0.00034922,-0.00002134,-0.00149565,-0.00038314,-0.000
 43703,0.00020171,-0.00006473,0.00005386,0.00022156,-0.00081430,-0.0030
 4573,0.00330125,0.00448538,-0.01587574,0.00456525,-0.00141258,-0.00180
 209,0.00257981,0.00111089,0.00074054,-0.00257610,-0.00019622,-0.000136
 03,0.00041379,0.00005213,0.00002125,-0.00004366,0.00008705,0.00003026,
 0.00005005,0.00010810,0.00015971,-0.00017611,0.00001587,-0.00000537,-0
 .00000511,-0.00001922,-0.00005245,0.00000639,-0.00011611,-0.00011790,0
 .00012665,0.00004250,-0.00000510,-0.00003451,-0.00000267,0.00001140,-0
 .00000270,0.00002259,0.00004767,-0.00009756,0.00000697,-0.00000017,0.0
 0001947,0.00000148,-0.00001936,0.00002742,-0.00004232,-0.00003404,-0.0
 0007469,0.00009271,0.00001121,0.00017808,-0.03283777,0.00874436,0.0141
 8488,-0.15745489,0.00186461,0.04028283,-0.00062248,0.00136821,-0.00097
 400,0.00052527,0.00036324,0.00053068,0.00029527,-0.00022043,-0.0004106
 6,0.00053648,-0.00021532,0.00111674,0.00139022,0.00596590,0.00242481,0
 .00050001,-0.00036334,-0.00027610,-0.00210330,0.00077447,0.00033606,0.
 00025056,-0.00048835,-0.00000652,-0.00609972,-0.00389024,0.00898174,0.
 00152909,-0.00079968,0.00057707,0.00033495,-0.00023343,-0.00086563,0.0
 0135001,0.00015367,0.00073993,-0.04619346,-0.01322527,0.01793638,0.002
 08902,0.00045346,0.00123019,-0.00547903,-0.00341410,-0.00569366,0.0021
 0247,0.00172546,0.00164069,0.00366555,0.02204063,0.00859480,0.30079262
 ,0.00178716,0.00339703,-0.00426239,-0.00880837,-0.00791937,-0.00206394
 ,-0.00006446,-0.00090898,0.00035774,-0.00021919,-0.00020987,-0.0000621
 6,-0.00021284,-0.00026997,-0.00014174,0.00008151,0.00037936,-0.0017182
 1,-0.00027624,-0.00038741,0.00015590,-0.00018531,0.00003773,0.00034244
 ,-0.00070448,-0.00027537,0.00389768,-0.00274409,-0.01116073,0.00259535
 ,-0.00040635,-0.00068332,0.00056386,-0.00056957,0.00036558,-0.00013908
 ,-0.00003215,-0.00026293,0.00045955,0.00002535,0.00006864,0.00006517,0
 .00003980,0.00006292,0.00001199,0.00011747,0.00019882,-0.00018937,-0.0
 0004411,-0.00003422,0.00000600,-0.00001813,-0.00000682,-0.00000579,-0.
 00007678,-0.00018289,0.00014816,0.00002253,-0.00000195,-0.00001113,-0.
 00002487,0.00004273,-0.00002099,0.00002384,0.00006287,-0.00011714,-0.0
 0001187,-0.00000809,0.00003365,0.00000332,-0.00000338,0.00002801,-0.00
 004590,-0.00004726,-0.00009622,0.00010980,-0.00001113,0.00017997,0.010
 81468,-0.01781253,0.00622089,-0.01257184,-0.08334086,0.00518654,0.0003
 8335,0.00227165,-0.00112821,-0.00002897,0.00080205,0.00073135,0.000106
 93,0.00007725,-0.00143839,-0.00039664,-0.00083844,0.00008650,-0.000092
 16,-0.00133121,-0.00147773,0.00111560,0.00018397,-0.00084741,0.0006204
 6,0.00041202,0.00042416,-0.00002432,-0.00056980,0.00022912,-0.03046468
 ,-0.00229117,0.01911870,-0.00008724,-0.00485269,0.00610632,-0.00020138
 ,0.00268160,-0.00248593,0.00084778,0.00112660,-0.00155526,-0.02500485,
 -0.00215100,0.01132460,0.00142027,0.00202621,0.00262250,-0.00543018,-0
 .00087814,-0.00366260,0.00050895,0.00062681,-0.00149837,0.04624617,-0.
 04976347,-0.01806703,0.01528971,0.46357808,-0.00109571,0.00101385,-0.0
 0631884,-0.00133876,-0.00322808,0.00538095,0.00002962,-0.00010529,0.00
 050895,-0.00003077,0.00001312,0.00005744,0.00004962,-0.00003966,0.0000
 2814,0.00066512,0.00061570,0.00187255,0.00038997,0.00053449,-0.0003687
 2,-0.00007397,-0.00013302,-0.00005520,0.00276945,0.00171238,-0.0014880
 0,0.00153723,0.01657413,0.00169182,0.00021297,0.00069881,-0.00075574,-
 0.00097096,-0.00081711,0.00158788,0.00015974,0.00022507,-0.00023260,-0
 .00004625,0.00003717,0.00005157,0.00003427,-0.00003005,0.00001879,-0.0
 0005483,-0.00010512,0.00016461,-0.00002919,-0.00000498,-0.00000043,0.0
 0000652,-0.00001220,-0.00000825,0.00007212,0.00009455,-0.00007978,-0.0
 0003511,0.00001342,0.00002453,0.00002181,-0.00002216,0.00000885,-0.000
 00755,-0.00002329,0.00006327,-0.00001222,-0.00000028,-0.00000965,0.000
 00137,-0.00000290,-0.00001449,0.00002429,0.00002188,0.00004059,-0.0001
 0275,-0.00016605,-0.00001601,0.02961452,0.00260699,-0.01608356,0.04512
 014,-0.00311265,-0.09321422,-0.00119490,-0.00081309,0.00117473,0.00019
 554,-0.00059175,-0.00040736,0.00036387,-0.00009335,0.00077546,0.000908
 00,0.00032557,-0.00019628,-0.00170569,-0.00522597,-0.00093220,-0.00076
 744,0.00031540,0.00009642,0.00202218,-0.00053234,0.00000297,0.00042837
 ,-0.00003511,0.00029923,0.03340322,0.00739996,-0.01989426,-0.00021907,
 0.00571497,-0.00410572,-0.00058717,-0.00058174,0.00160439,0.00060221,-
 0.00199990,0.00277496,-0.00988419,-0.00122324,0.00946555,-0.00016644,0
 .00114856,0.00093339,-0.00221098,-0.00139669,-0.00008748,0.00102329,-0
 .00048264,0.00227896,-0.00227021,0.00340057,0.02095595,-0.11159186,-0.
 07904756,0.16342298,-0.00811226,-0.01945403,0.01611840,0.01559369,0.01
 980122,0.00887934,0.00125507,0.00215651,-0.00090775,0.00051248,0.00062
 406,0.00024320,0.00058856,0.00094052,0.00017858,-0.00143454,-0.0022009
 3,0.00136632,0.00060012,0.00034682,0.00027582,0.00033716,0.00023660,-0
 .00086649,-0.01220729,-0.00659361,0.00061771,-0.10071731,-0.02748161,0
 .06492627,0.01053969,0.00771729,-0.01462617,-0.00762969,-0.00514503,0.
 01133298,0.00061143,0.00044468,-0.00125247,-0.00010702,-0.00012859,0.0
 0007088,-0.00033277,-0.00005591,-0.00018821,-0.00030431,-0.00039485,0.
 00045823,-0.00002019,0.00003682,0.00001442,0.00007584,0.00014950,-0.00
 000095,0.00029877,0.00033161,-0.00033330,-0.00010716,0.00001177,0.0000
 9036,0.00001235,-0.00004096,0.00001474,-0.00005585,-0.00012323,0.00026
 138,-0.00001792,0.00000143,-0.00004805,-0.00000188,0.00004016,-0.00006
 456,0.00010416,0.00008951,0.00017599,0.00008614,0.00024109,-0.00073987
 ,-0.03656209,-0.01613145,0.03919923,-0.00310786,-0.02730701,0.00779820
 ,0.00353027,0.00364305,-0.00344296,0.00023986,0.00005058,0.00079441,-0
 .00105410,0.00019123,-0.00324112,0.00041204,0.00080198,-0.00119338,-0.
 00034518,0.00087985,0.00007923,0.00124148,0.00026629,-0.00076396,-0.00
 017623,-0.00011104,0.00016672,-0.00062861,-0.00031199,0.00016483,-0.00
 390550,0.00194765,0.00304575,0.00009415,-0.00105667,0.00081923,-0.0001
 7907,0.00118764,-0.00078040,0.00019166,0.00002383,-0.00059634,-0.00414
 485,-0.00126447,0.00327006,0.00039875,0.00118094,0.00031383,-0.0009059
 4,0.00003964,-0.00110006,-0.00115484,-0.00077783,-0.00172200,-0.186056
 45,0.09047430,0.07707712,-0.06378694,0.00918227,0.01474057,0.39633222,
 -0.01016879,-0.00964105,0.00611453,0.01518145,0.00090297,0.00486589,-0
 .00086582,0.00132568,0.00028286,0.00021455,0.00001693,0.00005154,0.000
 24502,0.00037807,0.00026324,-0.00273430,-0.00346818,-0.00031358,-0.000
 40644,-0.00025638,0.00072870,0.00023125,0.00009323,-0.00047577,-0.0138
 4811,-0.01546794,0.01323254,-0.02476333,-0.07090330,0.03597039,-0.0038
 7527,-0.00264378,0.00525096,0.01273962,0.00803769,-0.01661526,0.000150
 02,0.00042709,-0.00050854,-0.00001534,-0.00008696,-0.00015575,-0.00006
 935,-0.00007252,-0.00004721,-0.00016159,-0.00024856,0.00023251,0.00007
 954,0.00004761,-0.00000682,0.00002433,0.00000648,0.00001723,0.00009969
 ,0.00024242,-0.00019213,-0.00002571,0.00000189,0.00000810,0.00003410,-
 0.00005779,0.00002891,-0.00002993,-0.00008083,0.00015204,0.00001713,0.
 00001068,-0.00004269,-0.00000475,0.00000154,-0.00003478,0.00005799,0.0
 0006071,0.00012028,-0.00006924,0.00020191,-0.00039907,0.00533008,0.027
 03731,-0.01236735,-0.04642196,-0.02158778,0.03651393,-0.00219037,-0.00
 490686,0.00361441,0.00044236,-0.00107130,-0.00173241,0.00038887,-0.000
 13072,0.00274152,0.00093103,0.00158745,0.00033347,-0.00239690,-0.00844
 836,0.00284165,-0.00318103,0.00035769,0.00119748,0.00192741,-0.0007620
 1,-0.00059182,0.00034482,0.00077683,-0.00022905,0.00442011,-0.00259454
 ,-0.00377538,0.00103191,0.00236827,-0.00222725,-0.00015824,-0.00120586
 ,0.00075084,-0.00062853,0.00016798,0.00073012,0.00624397,-0.00028101,-
 0.00425042,-0.00103330,-0.00133117,-0.00056920,0.00367346,0.00156375,0
 .00138501,-0.00050135,0.00016429,0.00079663,0.10288646,-0.13809933,-0.
 04283299,-0.00868591,-0.29219892,0.05735963,-0.03445964,0.52976671,-0.
 00406974,-0.01750128,0.03380035,0.01759926,0.01696319,-0.01710153,0.00
 010426,0.00223694,-0.00248748,0.00043655,0.00024057,-0.00008784,0.0001
 6039,0.00067023,0.00008823,-0.00225008,-0.00320475,-0.00456676,-0.0009
 4646,-0.00163415,0.00109834,0.00063306,0.00057812,-0.00060637,-0.01129
 151,0.00036490,-0.00236533,0.07043491,0.04217709,-0.12920387,0.0079638
 0,0.00322383,-0.01074658,-0.00022957,0.00115405,-0.00442121,-0.0003601
 0,-0.00045874,-0.00003208,0.00006033,-0.00019198,-0.00026872,-0.000206
 71,0.00002878,-0.00017591,-0.00000315,0.00006337,-0.00028218,0.0001169
 1,0.00005962,0.00001598,0.00002303,0.00006965,0.00004271,-0.00006831,-
 0.00004522,0.00000802,0.00003975,-0.00002430,-0.00003502,-0.00002507,0
 .00000968,-0.00000419,-0.00000884,-0.00001225,-0.00002032,0.00003057,0
 .00000582,-0.00000794,-0.00000595,0.00001387,0.00000227,-0.00000370,-0
 .00000061,0.00000591,0.00041618,0.00076184,-0.00028760,0.03198400,-0.0
 0048348,-0.02249696,0.01056968,0.02052989,-0.00815459,0.00250677,0.000
 71294,-0.00195902,-0.00018767,0.00019248,0.00009345,-0.00084248,-0.000
 00845,0.00038766,-0.00040732,-0.00010889,-0.00211458,0.00022861,0.0009
 0269,-0.00112494,-0.00009688,-0.00019231,0.00038846,-0.00025257,0.0000
 3519,-0.00010741,-0.00033541,0.00010685,-0.00003843,0.00372298,-0.0006
 4646,-0.00245998,-0.00000950,0.00085516,-0.00079583,0.00000915,-0.0006
 0629,0.00035841,-0.00014652,0.00023706,-0.00019654,-0.00092381,-0.0017
 8738,0.00151962,-0.00008073,-0.00025594,-0.00006812,-0.00060831,0.0000
 0447,-0.00050446,-0.00090283,0.00030803,0.00004001,0.08078869,-0.03626
 742,-0.09391919,0.01706013,0.05914053,-0.07101615,-0.22062579,-0.08821
 695,0.33980769\\-0.00000466,0.00000399,0.00000262,0.00000237,-0.000000
 60,-0.00000139,0.00000583,-0.00000473,0.00000323,-0.00000080,0.0000020
 9,0.00000011,-0.00000168,0.00000073,-0.00000141,-0.00000530,-0.0000058
 7,0.00000906,0.00000009,-0.00000174,-0.00000154,0.00000227,-0.00000088
 ,-0.00000164,-0.00000423,-0.00000728,-0.00001438,0.00000784,0.00001009
 ,0.00000495,-0.00000234,-0.00000243,-0.00000016,0.00000094,-0.00000368
 ,-0.00000003,-0.00000163,0.00000207,-0.00000203,-0.00000162,-0.0000007
 3,0.00000002,0.00000056,0.00000021,-0.00000007,-0.00000028,0.00000076,
 -0.00000047,-0.00000005,0.00000063,-0.00000025,-0.00000024,0.00000090,
 -0.00000155,-0.00000032,0.00000123,-0.00000081,-0.00000096,0.00000214,
 -0.00000098,-0.00000093,0.00000131,0.00000027,-0.00000117,0.00000195,-
 0.00000087,-0.00000084,0.00000185,-0.00000103,-0.00000097,0.00000156,-
 0.00000100,-0.00000068,0.00000180,-0.00000095,0.00000148,-0.00000123,-
 0.00000094,0.00000575,0.00000380,-0.00000782,0.00000016,0.00000119,0.0
 0000390,-0.00000149,-0.00000051,-0.00000148,0.00000145,0.00000157,0.00
 000010,-0.00000031,0.00000042,0.00000002,-0.00000056,-0.00000213,0.000
 00029,-0.00000284,-0.00000030,0.00000248,0.,-0.00000056,0.00000012,-0.
 00000020,-0.00000038,-0.00000073,0.,-0.00000049,0.00000075,0.00000033,
 0.00000041,-0.00000095,0.00000013,0.00000079,0.00000154,0.00000096,0.0
 0000037,0.00000131,0.00000018,0.00000089,0.00000291,0.00000108,-0.0000
 0123,0.00000087,0.00000062,-0.00000094,0.00000135,0.00000063,-0.000000
 40,0.00000046,0.00000043,-0.00000187,0.00000011,-0.00000921,-0.0000025
 1,0.00000357,0.00000041,-0.00000063,-0.00000195,0.00000978,-0.00000163
 ,0.00000441\\\@
 The archive entry for this job was punched.


 IT WAS A GAME, A VERY INTERESTING GAME ONE COULD
 PLAY.  WHENEVER ONE SOLVED ONE OF THE LITTLE PROBLEMS,
 ONE COULD WRITE A PAPER ABOUT IT.  IT WAS VERY EASY IN
 THOSE DAYS FOR ANY SECOND-RATE PHYSICIST TO DO
 FIRST-RATE WORK.  THERE HAS NOT BEEN SUCH A GLORIOUS
 TIME SINCE.  IT IS VERY DIFFICULT NOW FOR A FIRST-RATE
 PHYSICIST TO DO SECOND-RATE WORK.
     P.A.M. DIRAC, ON THE EARLY DAYS OF QUANTUM MECHANICS
                   DIRECTIONS IN PHYSICS, 1978, P. 7
 Job cpu time:       0 days  1 hours 29 minutes 23.3 seconds.
 Elapsed time:       0 days  0 hours  5 minutes 41.1 seconds.
 File lengths (MBytes):  RWF=    593 Int=      0 D2E=      0 Chk=     11 Scr=      1
 Normal termination of Gaussian 16 at Thu Nov  2 21:49:01 2023.
