/mnt/lustre/scratch/nvme/SLURM/9663544/usccqdma.eu2gVxrX05
OMP_STACKSIZE=0m
GAUSS_PDEF=16
GAUSS_MDEF=65536MB
GAUSS_RDEF=SCF=Direct
 Entering Gaussian System, Link 0=g16.exe
 Initial command:
 /opt/cesga/2020/software/Core/g16/c1/l1.exe "/mnt/lustre/scratch/nvme/SLURM/9663544/usccqdma.eu2gVxrX05/Gau-3504043.inp" -scrdir="/mnt/lustre/scratch/nvme/SLURM/9663544/usccqdma.eu2gVxrX05/"
 Default is to use a total of  16 processors:
                               16 via shared-memory
                                1 via Linda
 Entering Link 1 = /opt/cesga/2020/software/Core/g16/c1/l1.exe PID=   3504070.
  
 Copyright (c) 1988-2019, Gaussian, Inc.  All Rights Reserved.
  
 This is part of the Gaussian(R) 16 program.  It is based on
 the Gaussian(R) 09 system (copyright 2009, Gaussian, Inc.),
 the Gaussian(R) 03 system (copyright 2003, Gaussian, Inc.),
 the Gaussian(R) 98 system (copyright 1998, Gaussian, Inc.),
 the Gaussian(R) 94 system (copyright 1995, Gaussian, Inc.),
 the Gaussian 92(TM) system (copyright 1992, Gaussian, Inc.),
 the Gaussian 90(TM) system (copyright 1990, Gaussian, Inc.),
 the Gaussian 88(TM) system (copyright 1988, Gaussian, Inc.),
 the Gaussian 86(TM) system (copyright 1986, Carnegie Mellon
 University), and the Gaussian 82(TM) system (copyright 1983,
 Carnegie Mellon University). Gaussian is a federally registered
 trademark of Gaussian, Inc.
  
 This software contains proprietary and confidential information,
 including trade secrets, belonging to Gaussian, Inc.
  
 This software is provided under written license and may be
 used, copied, transmitted, or stored only in accord with that
 written license.
  
 The following legend is applicable only to US Government
 contracts under FAR:
  
                    RESTRICTED RIGHTS LEGEND
  
 Use, reproduction and disclosure by the US Government is
 subject to restrictions as set forth in subparagraphs (a)
 and (c) of the Commercial Computer Software - Restricted
 Rights clause in FAR 52.227-19.
  
 Gaussian, Inc.
 340 Quinnipiac St., Bldg. 40, Wallingford CT 06492
  
  
 ---------------------------------------------------------------
 Warning -- This program may not be used in any manner that
 competes with the business of Gaussian, Inc. or will provide
 assistance to any competitor of Gaussian, Inc.  The licensee
 of this program is prohibited from giving any competitor of
 Gaussian, Inc. access to this program.  By using this program,
 the user acknowledges that Gaussian, Inc. is engaged in the
 business of creating and licensing software in the field of
 computational chemistry and represents and warrants to the
 licensee that it is not a competitor of Gaussian, Inc. and that
 it will not use this program in any manner prohibited above.
 ---------------------------------------------------------------
  

 Cite this work as:
 Gaussian 16, Revision C.01,
 M. J. Frisch, G. W. Trucks, H. B. Schlegel, G. E. Scuseria, 
 M. A. Robb, J. R. Cheeseman, G. Scalmani, V. Barone, 
 G. A. Petersson, H. Nakatsuji, X. Li, M. Caricato, A. V. Marenich, 
 J. Bloino, B. G. Janesko, R. Gomperts, B. Mennucci, H. P. Hratchian, 
 J. V. Ortiz, A. F. Izmaylov, J. L. Sonnenberg, D. Williams-Young, 
 F. Ding, F. Lipparini, F. Egidi, J. Goings, B. Peng, A. Petrone, 
 T. Henderson, D. Ranasinghe, V. G. Zakrzewski, J. Gao, N. Rega, 
 G. Zheng, W. Liang, M. Hada, M. Ehara, K. Toyota, R. Fukuda, 
 J. Hasegawa, M. Ishida, T. Nakajima, Y. Honda, O. Kitao, H. Nakai, 
 T. Vreven, K. Throssell, J. A. Montgomery, Jr., J. E. Peralta, 
 F. Ogliaro, M. J. Bearpark, J. J. Heyd, E. N. Brothers, K. N. Kudin, 
 V. N. Staroverov, T. A. Keith, R. Kobayashi, J. Normand, 
 K. Raghavachari, A. P. Rendell, J. C. Burant, S. S. Iyengar, 
 J. Tomasi, M. Cossi, J. M. Millam, M. Klene, C. Adamo, R. Cammi, 
 J. W. Ochterski, R. L. Martin, K. Morokuma, O. Farkas, 
 J. B. Foresman, and D. J. Fox, Gaussian, Inc., Wallingford CT, 2019.
 
 ******************************************
 Gaussian 16:  ES64L-G16RevC.01  3-Jul-2019
                 7-Dec-2024 
 ******************************************
 Default route: SCF=Direct
 ----------------------------------------------------
 # m06/genecp scf=tight int=ultrafine 5d freq=noraman
 ----------------------------------------------------
 1/10=4,30=1,38=1/1,3;
 2/12=2,17=6,18=5,40=1/2;
 3/5=7,8=1,11=2,16=1,17=8,25=1,30=1,71=2,74=-54,75=-5,140=1/1,2,3;
 4//1;
 5/5=2,32=2,38=5,98=1/2;
 8/6=4,10=90,11=11/1;
 11/6=1,8=1,9=11,15=111,16=1/1,2,10;
 10/6=1/2;
 6/7=2,8=2,9=2,10=2,28=1/1;
 7/8=1,10=1,25=1/1,2,3,16;
 1/10=4,30=1/3;
 99//99;
 ------
 OPT-TS
 ------
 Symbolic Z-matrix:
 Charge =  0 Multiplicity = 1
 Ir                   -0.2062   -0.03348  -0.38909 
 B                     0.14148  -2.1473   -0.34456 
 C                    -1.09      0.26938  -3.45848 
 C                    -0.94956   0.42595  -4.83014 
 C                     1.41705   0.25999  -4.52485 
 C                     1.19871   0.10585  -3.1553 
 C                     2.29866  -0.04539  -2.18568 
 C                     3.63415  -0.16284  -2.5741 
 C                     4.25709  -0.29981  -0.27943 
 C                     2.91389  -0.18402   0.04915 
 B                     0.35854   2.11024  -0.33866 
 N                    -0.04582   0.10964  -2.64413 
 N                     1.96049  -0.06037  -0.87547 
 O                     0.69527   2.85681   0.76726 
 O                     0.86446   2.68192  -1.49369 
 O                    -1.00483  -0.78196   2.51961 
 O                     1.04057   0.19761   2.31863 
 O                    -2.41345   2.15708  -0.86979 
 O                    -2.02187   1.80994   1.34895 
 C                     0.33036   0.41933  -5.37089 
 C                     4.62822  -0.28851  -1.61644 
 C                     1.45407   3.94888  -1.15437 
 C                     1.70482   3.80237   0.37808 
 C                    -2.95204   2.8915    1.30126 
 C                    -3.46956   2.8486   -0.17652 
 C                    -0.37423  -0.89149   3.79734 
 C                     0.7319    0.19936   3.71923 
 C                     1.4936   -3.94362  -0.7573 
 B                    -1.6476    1.45955   0.06786 
 H                    -2.06532   0.27358  -2.97667 
 B                    -0.10524  -0.22801   1.63355 
 C                     0.33832  -4.36599   0.18761 
 O                    -0.17808  -3.09353   0.61678 
 O                     1.00167  -2.70453  -1.28869 
 C                    -0.77755  -5.0935   -0.54758 
 H                    -1.6278   -5.22217   0.1357 
 H                    -1.12025  -4.51181  -1.41385 
 H                    -0.46203  -6.09017  -0.88439 
 C                     0.75723  -5.16294   1.40609 
 H                    -0.12563  -5.38591   2.01979 
 H                     1.2159   -6.11758   1.10975 
 H                     1.46734  -4.61252   2.03324 
 C                     2.78533  -3.63009  -0.01139 
 H                     3.27494  -4.53742   0.36736 
 H                     3.47863  -3.12896  -0.70174 
 H                     2.60701  -2.95183   0.83619 
 C                     1.77716  -4.89729  -1.89959 
 H                     2.60683  -4.51082  -2.50606 
 H                     2.06718  -5.8885   -1.52199 
 H                     0.90658  -5.01051  -2.55439 
 C                    -1.41471  -0.66351   4.87607 
 H                    -2.14631  -1.48196   4.86062 
 H                    -0.95258  -0.63737   5.874 
 H                    -1.95758   0.27389   4.71018 
 C                     0.18466  -2.30506   3.90038 
 H                    -0.63264  -3.0144    3.7147 
 H                     0.94762  -2.48232   3.12971 
 H                     0.61565  -2.51021   4.89025 
 C                     0.21737   1.59444   4.05366 
 H                     0.02906   1.71471   5.12961 
 H                     0.97141   2.33061   3.7429 
 H                    -0.70154   1.81117   3.49249 
 C                     1.99835  -0.09868   4.49572 
 H                     2.71838   0.71904   4.35293 
 H                     1.79237  -0.18514   5.57237 
 H                     2.47382  -1.02625   4.15448 
 C                    -4.01196   2.64351   2.35889 
 H                    -3.54593   2.69076   3.3524 
 H                    -4.80515   3.40422   2.31826 
 H                    -4.45799   1.64845   2.24782 
 C                    -4.73502   2.02342  -0.33935 
 H                    -5.6024    2.50532   0.13155 
 H                    -4.94948   1.90966  -1.4111 
 H                    -4.59315   1.02938   0.09642 
 C                    -3.6741    4.20596  -0.82231 
 H                    -4.01646   4.0724   -1.85657 
 H                    -4.44138   4.77985  -0.28246 
 H                    -2.75264   4.7977   -0.84862 
 C                    -2.18664   4.16477   1.6356 
 H                    -1.65909   4.02328   2.5885 
 H                    -1.42378   4.37538   0.87823 
 H                    -2.85426   5.03263   1.72546 
 C                     1.53097   5.07095   1.1891 
 H                     1.67641   4.84339   2.25356 
 H                     2.27507   5.82594   0.89662 
 H                     0.53186   5.5042    1.0736 
 C                     0.43403   5.0214   -1.50464 
 H                     0.82204   6.03318  -1.32555 
 H                     0.1762    4.92988  -2.567 
 H                    -0.49172   4.89019  -0.92942 
 C                     2.70467   4.1391   -1.99105 
 H                     2.42944   4.23636  -3.04936 
 H                     3.24248   5.05134  -1.69497 
 H                     3.38664   3.28535  -1.89837 
 C                     3.04821   3.16732   0.71371 
 H                     3.87992   3.87662   0.60469 
 H                     3.01928   2.81024   1.75228 
 H                     3.25394   2.29851   0.07613 
 B                    -2.06928  -0.96147  -0.3582 
 O                    -2.39304  -1.88984  -1.35884 
 O                    -3.14436  -0.81485   0.50336 
 C                    -3.78025  -2.24008  -1.21172 
 C                    -4.0355   -1.91773   0.28503 
 C                    -4.56226  -1.34719  -2.16684 
 C                    -3.98959  -3.69084  -1.59321 
 C                    -5.45829  -1.5115    0.61685 
 C                    -3.5898   -3.02043   1.23932 
 H                    -4.43943  -0.28706  -1.90694 
 H                    -5.63441  -1.58583  -2.17589 
 H                    -4.1715   -1.49754  -3.1825 
 H                    -3.73064  -3.84035  -2.65001 
 H                    -5.04383  -3.97377  -1.45904 
 H                    -3.37191  -4.36618  -0.99377 
 H                    -5.51061  -1.196     1.66739 
 H                    -6.13879  -2.36525   0.48548 
 H                    -5.82351  -0.68628  -0.00366 
 H                    -2.54397  -3.30084   1.0569 
 H                    -4.23248  -3.90966   1.17481 
 H                    -3.63904  -2.62467   2.26215 
 H                     2.57445  -0.16668   1.08841 
 H                    -1.8298    0.55425  -5.45491 
 H                     0.48388   0.54292  -6.44107 
 H                     2.42431   0.26873  -4.93274 
 H                     5.67298  -0.38045  -1.90353 
 H                     3.90192  -0.16488  -3.62661 
 C                     5.23958  -0.39171   0.84377 
 F                     4.92338  -1.38312   1.68394 
 F                     5.2523    0.73856   1.56078 
 F                     6.48234  -0.60793   0.40313 
 

 GradGradGradGradGradGradGradGradGradGradGradGradGradGradGradGradGradGrad
 Berny optimization.
 Initialization pass.
 Trust Radius=3.00D-01 FncErr=1.00D-07 GrdErr=1.00D-07 EigMax=2.50D+02 EigMin=1.00D-04
 Number of steps in this run=      2 maximum allowed number of steps=      2.
 GradGradGradGradGradGradGradGradGradGradGradGradGradGradGradGradGradGrad

 Stoichiometry    C41H67B5F3IrN2O10
 Framework group  C1[X(C41H67B5F3IrN2O10)]
 Deg. of freedom   381
 Full point group                 C1      NOp   1
 Largest Abelian subgroup         C1      NOp   1
 Largest concise Abelian subgroup C1      NOp   1
                         Standard orientation:                         
 ---------------------------------------------------------------------
 Center     Atomic      Atomic             Coordinates (Angstroms)
 Number     Number       Type             X           Y           Z
 ---------------------------------------------------------------------
      1         77           0       -0.206200   -0.033479   -0.389090
      2          5           0        0.141478   -2.147300   -0.344560
      3          6           0       -1.090000    0.269381   -3.458480
      4          6           0       -0.949560    0.425951   -4.830140
      5          6           0        1.417050    0.259989   -4.524850
      6          6           0        1.198710    0.105849   -3.155300
      7          6           0        2.298660   -0.045391   -2.185680
      8          6           0        3.634149   -0.162843   -2.574100
      9          6           0        4.257089   -0.299813   -0.279430
     10          6           0        2.913889   -0.184022    0.049150
     11          5           0        0.358541    2.110240   -0.338660
     12          7           0       -0.045820    0.109640   -2.644130
     13          7           0        1.960490   -0.060371   -0.875470
     14          8           0        0.695272    2.856810    0.767260
     15          8           0        0.864462    2.681920   -1.493690
     16          8           0       -1.004831   -0.781959    2.519610
     17          8           0        1.040570    0.197610    2.318630
     18          8           0       -2.413449    2.157082   -0.869790
     19          8           0       -2.021869    1.809942    1.348950
     20          6           0        0.330360    0.419330   -5.370890
     21          6           0        4.628219   -0.288513   -1.616440
     22          6           0        1.454073    3.948879   -1.154370
     23          6           0        1.704823    3.802369    0.378080
     24          6           0       -2.952038    2.891503    1.301260
     25          6           0       -3.469558    2.848603   -0.176520
     26          6           0       -0.374231   -0.891489    3.797340
     27          6           0        0.731900    0.199360    3.719230
     28          6           0        1.493596   -3.943621   -0.757300
     29          5           0       -1.647599    1.459552    0.067860
     30          1           0       -2.065320    0.273582   -2.976670
     31          5           0       -0.105241   -0.228009    1.633550
     32          6           0        0.338316   -4.365990    0.187610
     33          8           0       -0.178083   -3.093529    0.616780
     34          8           0        1.001667   -2.704530   -1.288690
     35          6           0       -0.777555   -5.093499   -0.547580
     36          1           0       -1.627805   -5.222168    0.135700
     37          1           0       -1.120254   -4.511809   -1.413850
     38          1           0       -0.462036   -6.090169   -0.884390
     39          6           0        0.757225   -5.162940    1.406090
     40          1           0       -0.125635   -5.385909    2.019790
     41          1           0        1.215894   -6.117581    1.109750
     42          1           0        1.467336   -4.612521    2.033240
     43          6           0        2.785327   -3.630092   -0.011390
     44          1           0        3.274936   -4.537422    0.367360
     45          1           0        3.478627   -3.128962   -0.701740
     46          1           0        2.607007   -2.951832    0.836190
     47          6           0        1.777155   -4.897291   -1.899590
     48          1           0        2.606826   -4.510822   -2.506060
     49          1           0        2.067175   -5.888501   -1.521990
     50          1           0        0.906575   -5.010510   -2.554390
     51          6           0       -1.414711   -0.663508    4.876070
     52          1           0       -2.146312   -1.481958    4.860620
     53          1           0       -0.952581   -0.637369    5.874000
     54          1           0       -1.957580    0.273892    4.710180
     55          6           0        0.184658   -2.305060    3.900380
     56          1           0       -0.632643   -3.014399    3.714700
     57          1           0        0.947617   -2.482320    3.129710
     58          1           0        0.615647   -2.510210    4.890250
     59          6           0        0.217371    1.594440    4.053660
     60          1           0        0.029061    1.714710    5.129610
     61          1           0        0.971411    2.330610    3.742900
     62          1           0       -0.701539    1.811171    3.492490
     63          6           0        1.998349   -0.098681    4.495720
     64          1           0        2.718380    0.719038    4.352930
     65          1           0        1.792369   -0.185141    5.572370
     66          1           0        2.473819   -1.026252    4.154480
     67          6           0       -4.011958    2.643514    2.358890
     68          1           0       -3.545928    2.690763    3.352400
     69          1           0       -4.805148    3.404224    2.318260
     70          1           0       -4.457989    1.648454    2.247820
     71          6           0       -4.735019    2.023424   -0.339350
     72          1           0       -5.602398    2.505325    0.131550
     73          1           0       -4.949479    1.909665   -1.411100
     74          1           0       -4.593150    1.029384    0.096420
     75          6           0       -3.674097    4.205963   -0.822310
     76          1           0       -4.016457    4.072404   -1.856570
     77          1           0       -4.441376    4.779854   -0.282460
     78          1           0       -2.752636    4.797703   -0.848620
     79          6           0       -2.186637    4.164772    1.635600
     80          1           0       -1.659087    4.023282    2.588500
     81          1           0       -1.423777    4.375382    0.878230
     82          1           0       -2.854256    5.032633    1.725460
     83          6           0        1.530974    5.070949    1.189100
     84          1           0        1.676414    4.843389    2.253560
     85          1           0        2.275074    5.825939    0.896620
     86          1           0        0.531864    5.504200    1.073600
     87          6           0        0.434034    5.021400   -1.504640
     88          1           0        0.822045    6.033180   -1.325550
     89          1           0        0.176204    4.929880   -2.567000
     90          1           0       -0.491716    4.890191   -0.929420
     91          6           0        2.704673    4.139098   -1.991050
     92          1           0        2.429443    4.236358   -3.049360
     93          1           0        3.242484    5.051338   -1.694970
     94          1           0        3.386642    3.285348   -1.898370
     95          6           0        3.048212    3.167318    0.713710
     96          1           0        3.879923    3.876617    0.604690
     97          1           0        3.019282    2.810238    1.752280
     98          1           0        3.253941    2.298508    0.076130
     99          5           0       -2.069281   -0.961468   -0.358200
    100          8           0       -2.393042   -1.889838   -1.358840
    101          8           0       -3.144361   -0.814847    0.503360
    102          6           0       -3.780252   -2.240076   -1.211720
    103          6           0       -4.035502   -1.917726    0.285030
    104          6           0       -4.562262   -1.347186   -2.166840
    105          6           0       -3.989594   -3.690836   -1.593210
    106          6           0       -5.458292   -1.511495    0.616850
    107          6           0       -3.589803   -3.020427    1.239320
    108          1           0       -4.439431   -0.287056   -1.906940
    109          1           0       -5.634412   -1.585825   -2.175890
    110          1           0       -4.171502   -1.497536   -3.182500
    111          1           0       -3.730644   -3.840346   -2.650010
    112          1           0       -5.043834   -3.973765   -1.459040
    113          1           0       -3.371914   -4.366177   -0.993770
    114          1           0       -5.510611   -1.195995    1.667390
    115          1           0       -6.138792   -2.365244    0.485480
    116          1           0       -5.823511   -0.686275   -0.003660
    117          1           0       -2.543973   -3.300837    1.056900
    118          1           0       -4.232484   -3.909656    1.174810
    119          1           0       -3.639043   -2.624667    2.262150
    120          1           0        2.574449   -0.166682    1.088410
    121          1           0       -1.829800    0.554252   -5.454910
    122          1           0        0.483880    0.542920   -6.441070
    123          1           0        2.424310    0.268728   -4.932740
    124          1           0        5.672979   -0.380454   -1.903530
    125          1           0        3.901919   -0.164883   -3.626610
    126          6           0        5.239579   -0.391714    0.843770
    127          9           0        4.923378   -1.383124    1.683940
    128          9           0        5.252300    0.738556    1.560780
    129          9           0        6.482339   -0.607935    0.403130
 ---------------------------------------------------------------------
 Rotational constants (GHZ):           0.0506541           0.0451210           0.0391751
 General basis read from cards:  (5D, 7F)
 ======================================================================================================
                                       Pseudopotential Parameters
 ======================================================================================================
  Center     Atomic      Valence      Angular      Power
  Number     Number     Electrons     Momentum     of R      Exponent        Coefficient   SO-Coeffient
 ======================================================================================================
    1         77           17
                                      G and up 
                                                     1      823.5880147       -0.15780140    0.00000000
                                                     2      364.6613336    -1517.52704460    0.00000000
                                                     2       55.7082801     -316.53065290    0.00000000
                                                     2       12.0464544      -91.88809410    0.00000000
                                                     2        3.5120610       -9.22417730    0.00000000
                                      S - G
                                                     0      188.0490770        3.15780140    0.00000000
                                                     1      340.4194712       26.83225770    0.00000000
                                                     2      128.2373673      800.42500070    0.00000000
                                                     2       33.8644961      369.40506830    0.00000000
                                                     2        4.7560005      242.41718990    0.00000000
                                                     2        3.9649974     -118.21732820    0.00000000
                                      P - G
                                                     0      289.7291139        2.15780140    0.00000000
                                                     1       87.4633789       61.96786100    0.00000000
                                                     2       30.4363766      269.05819860    0.00000000
                                                     2        4.0553412      231.16547930    0.00000000
                                                     2        3.5525341     -133.69526670    0.00000000
                                      D - G
                                                     0      136.4017106        3.15780140    0.00000000
                                                     1       95.0776925       45.93498030    0.00000000
                                                     2       49.2258410      359.03446680    0.00000000
                                                     2       15.0874145      176.47401190    0.00000000
                                                     2        4.0405764       54.51552860    0.00000000
                                      F - G
                                                     0      127.3507908        3.95461970    0.00000000
                                                     1       66.2364374       52.97736550    0.00000000
                                                     2       34.4299229      274.86433830    0.00000000
                                                     2       10.1995721      137.20473380    0.00000000
                                                     2        2.5409702       14.86333050    0.00000000
    2          5
                                   No pseudopotential on this center.
    3          6
                                   No pseudopotential on this center.
    4          6
                                   No pseudopotential on this center.
    5          6
                                   No pseudopotential on this center.
    6          6
                                   No pseudopotential on this center.
    7          6
                                   No pseudopotential on this center.
    8          6
                                   No pseudopotential on this center.
    9          6
                                   No pseudopotential on this center.
   10          6
                                   No pseudopotential on this center.
   11          5
                                   No pseudopotential on this center.
   12          7
                                   No pseudopotential on this center.
   13          7
                                   No pseudopotential on this center.
   14          8
                                   No pseudopotential on this center.
   15          8
                                   No pseudopotential on this center.
   16          8
                                   No pseudopotential on this center.
   17          8
                                   No pseudopotential on this center.
   18          8
                                   No pseudopotential on this center.
   19          8
                                   No pseudopotential on this center.
   20          6
                                   No pseudopotential on this center.
   21          6
                                   No pseudopotential on this center.
   22          6
                                   No pseudopotential on this center.
   23          6
                                   No pseudopotential on this center.
   24          6
                                   No pseudopotential on this center.
   25          6
                                   No pseudopotential on this center.
   26          6
                                   No pseudopotential on this center.
   27          6
                                   No pseudopotential on this center.
   28          6
                                   No pseudopotential on this center.
   29          5
                                   No pseudopotential on this center.
   30          1
                                   No pseudopotential on this center.
   31          5
                                   No pseudopotential on this center.
   32          6
                                   No pseudopotential on this center.
   33          8
                                   No pseudopotential on this center.
   34          8
                                   No pseudopotential on this center.
   35          6
                                   No pseudopotential on this center.
   36          1
                                   No pseudopotential on this center.
   37          1
                                   No pseudopotential on this center.
   38          1
                                   No pseudopotential on this center.
   39          6
                                   No pseudopotential on this center.
   40          1
                                   No pseudopotential on this center.
   41          1
                                   No pseudopotential on this center.
   42          1
                                   No pseudopotential on this center.
   43          6
                                   No pseudopotential on this center.
   44          1
                                   No pseudopotential on this center.
   45          1
                                   No pseudopotential on this center.
   46          1
                                   No pseudopotential on this center.
   47          6
                                   No pseudopotential on this center.
   48          1
                                   No pseudopotential on this center.
   49          1
                                   No pseudopotential on this center.
   50          1
                                   No pseudopotential on this center.
   51          6
                                   No pseudopotential on this center.
   52          1
                                   No pseudopotential on this center.
   53          1
                                   No pseudopotential on this center.
   54          1
                                   No pseudopotential on this center.
   55          6
                                   No pseudopotential on this center.
   56          1
                                   No pseudopotential on this center.
   57          1
                                   No pseudopotential on this center.
   58          1
                                   No pseudopotential on this center.
   59          6
                                   No pseudopotential on this center.
   60          1
                                   No pseudopotential on this center.
   61          1
                                   No pseudopotential on this center.
   62          1
                                   No pseudopotential on this center.
   63          6
                                   No pseudopotential on this center.
   64          1
                                   No pseudopotential on this center.
   65          1
                                   No pseudopotential on this center.
   66          1
                                   No pseudopotential on this center.
   67          6
                                   No pseudopotential on this center.
   68          1
                                   No pseudopotential on this center.
   69          1
                                   No pseudopotential on this center.
   70          1
                                   No pseudopotential on this center.
   71          6
                                   No pseudopotential on this center.
   72          1
                                   No pseudopotential on this center.
   73          1
                                   No pseudopotential on this center.
   74          1
                                   No pseudopotential on this center.
   75          6
                                   No pseudopotential on this center.
   76          1
                                   No pseudopotential on this center.
   77          1
                                   No pseudopotential on this center.
   78          1
                                   No pseudopotential on this center.
   79          6
                                   No pseudopotential on this center.
   80          1
                                   No pseudopotential on this center.
   81          1
                                   No pseudopotential on this center.
   82          1
                                   No pseudopotential on this center.
   83          6
                                   No pseudopotential on this center.
   84          1
                                   No pseudopotential on this center.
   85          1
                                   No pseudopotential on this center.
   86          1
                                   No pseudopotential on this center.
   87          6
                                   No pseudopotential on this center.
   88          1
                                   No pseudopotential on this center.
   89          1
                                   No pseudopotential on this center.
   90          1
                                   No pseudopotential on this center.
   91          6
                                   No pseudopotential on this center.
   92          1
                                   No pseudopotential on this center.
   93          1
                                   No pseudopotential on this center.
   94          1
                                   No pseudopotential on this center.
   95          6
                                   No pseudopotential on this center.
   96          1
                                   No pseudopotential on this center.
   97          1
                                   No pseudopotential on this center.
   98          1
                                   No pseudopotential on this center.
   99          5
                                   No pseudopotential on this center.
  100          8
                                   No pseudopotential on this center.
  101          8
                                   No pseudopotential on this center.
  102          6
                                   No pseudopotential on this center.
  103          6
                                   No pseudopotential on this center.
  104          6
                                   No pseudopotential on this center.
  105          6
                                   No pseudopotential on this center.
  106          6
                                   No pseudopotential on this center.
  107          6
                                   No pseudopotential on this center.
  108          1
                                   No pseudopotential on this center.
  109          1
                                   No pseudopotential on this center.
  110          1
                                   No pseudopotential on this center.
  111          1
                                   No pseudopotential on this center.
  112          1
                                   No pseudopotential on this center.
  113          1
                                   No pseudopotential on this center.
  114          1
                                   No pseudopotential on this center.
  115          1
                                   No pseudopotential on this center.
  116          1
                                   No pseudopotential on this center.
  117          1
                                   No pseudopotential on this center.
  118          1
                                   No pseudopotential on this center.
  119          1
                                   No pseudopotential on this center.
  120          1
                                   No pseudopotential on this center.
  121          1
                                   No pseudopotential on this center.
  122          1
                                   No pseudopotential on this center.
  123          1
                                   No pseudopotential on this center.
  124          1
                                   No pseudopotential on this center.
  125          1
                                   No pseudopotential on this center.
  126          6
                                   No pseudopotential on this center.
  127          9
                                   No pseudopotential on this center.
  128          9
                                   No pseudopotential on this center.
  129          9
                                   No pseudopotential on this center.
 ======================================================================================================
 There are  1073 symmetry adapted cartesian basis functions of A   symmetry.
 There are  1010 symmetry adapted basis functions of A   symmetry.
  1010 basis functions,  2019 primitive gaussians,  1073 cartesian basis functions
   238 alpha electrons      238 beta electrons
       nuclear repulsion energy     12112.9356066215 Hartrees.
 NAtoms=  129 NActive=  129 NUniq=  129 SFac= 1.00D+00 NAtFMM=   60 NAOKFM=T Big=T
 Integral buffers will be    131072 words long.
 Raffenetti 2 integral format.
 Two-electron integral symmetry is turned on.
 One-electron integrals computed using PRISM.
   1 Symmetry operations used in ECPInt.
 ECPInt:  NShTT=   74691 NPrTT=  457800 LenC2=   57023 LenP2D=  172479.
 LDataN:  DoStor=T MaxTD1= 6 Len=  172
 NBasis=  1010 RedAO= T EigKep=  4.59D-04  NBF=  1010
 NBsUse=  1010 1.00D-06 EigRej= -1.00D+00 NBFU=  1010
 Defaulting to unpruned grid for atomic number  77.
 ExpMin= 2.90D-02 ExpMax= 7.00D+03 ExpMxC= 1.05D+03 IAcc=3 IRadAn=         5 AccDes= 0.00D+00
 Harris functional with IExCor= 1009 and IRadAn=       5 diagonalized for initial guess.
 HarFok:  IExCor= 1009 AccDes= 0.00D+00 IRadAn=         5 IDoV= 1 UseB2=F ITyADJ=14
 ICtDFT=  3500011 ScaDFX=  1.000000  1.000000  1.000000  1.000000
 Defaulting to unpruned grid for atomic number  77.
 FoFCou: FMM=F IPFlag=           0 FMFlag=      100000 FMFlg1=        2001
         NFxFlg=           0 DoJE=T BraDBF=F KetDBF=T FulRan=T
         wScrn=  0.000000 ICntrl=       500 IOpCl=  0 I1Cent=   200000004 NGrid=           0
         NMat0=    1 NMatS0=      1 NMatT0=    0 NMatD0=    1 NMtDS0=    0 NMtDT0=    0
 Petite list used in FoFCou.
 Requested convergence on RMS density matrix=1.00D-08 within 128 cycles.
 Requested convergence on MAX density matrix=1.00D-06.
 Requested convergence on             energy=1.00D-06.
 No special actions if energy rises.
 Defaulting to unpruned grid for atomic number  77.
 Defaulting to unpruned grid for atomic number  77.
 Defaulting to unpruned grid for atomic number  77.
 Defaulting to unpruned grid for atomic number  77.
 Defaulting to unpruned grid for atomic number  77.
 Defaulting to unpruned grid for atomic number  77.
 Defaulting to unpruned grid for atomic number  77.
 Defaulting to unpruned grid for atomic number  77.
 Defaulting to unpruned grid for atomic number  77.
 Defaulting to unpruned grid for atomic number  77.
 Defaulting to unpruned grid for atomic number  77.
 Defaulting to unpruned grid for atomic number  77.
 Defaulting to unpruned grid for atomic number  77.
 Defaulting to unpruned grid for atomic number  77.
 Defaulting to unpruned grid for atomic number  77.
 Defaulting to unpruned grid for atomic number  77.
 SCF Done:  E(RM06) =  -2991.74921656     A.U. after   14 cycles
            NFock= 14  Conv=0.94D-08     -V/T= 2.0308
 DoSCS=F DFT=T ScalE2(SS,OS)=  1.000000  1.000000
 Range of M.O.s used for correlation:     1  1010
 NBasis=  1010 NAE=   238 NBE=   238 NFC=     0 NFV=     0
 NROrb=   1010 NOA=   238 NOB=   238 NVA=   772 NVB=   772

 **** Warning!!: The largest alpha MO coefficient is  0.18424929D+02

   1 Symmetry operations used in ECPInt.
 ECPInt:  NShTT=   74691 NPrTT=  457800 LenC2=   57023 LenP2D=  172479.
 LDataN:  DoStor=T MaxTD1= 7 Len=  274
 Number of processors reduced to   6 by ecpmxn.
 Symmetrizing basis deriv contribution to polar:
 IMax=3 JMax=2 DiffMx= 0.00D+00
 G2DrvN: will do   130 centers at a time, making    1 passes.
 Calling FoFCou, ICntrl=  3107 FMM=T I1Cent=   0 AccDes= 0.00D+00.
 Defaulting to unpruned grid for atomic number  77.
 Defaulting to unpruned grid for atomic number  77.
 Defaulting to unpruned grid for atomic number  77.
 Defaulting to unpruned grid for atomic number  77.
 Defaulting to unpruned grid for atomic number  77.
 Defaulting to unpruned grid for atomic number  77.
 Defaulting to unpruned grid for atomic number  77.
 Defaulting to unpruned grid for atomic number  77.
 Defaulting to unpruned grid for atomic number  77.
 Defaulting to unpruned grid for atomic number  77.
 Defaulting to unpruned grid for atomic number  77.
 Defaulting to unpruned grid for atomic number  77.
 Defaulting to unpruned grid for atomic number  77.
 Defaulting to unpruned grid for atomic number  77.
 Defaulting to unpruned grid for atomic number  77.
 Defaulting to unpruned grid for atomic number  77.
 End of G2Drv F.D. properties file   721 does not exist.
 End of G2Drv F.D. properties file   722 does not exist.
 End of G2Drv F.D. properties file   788 does not exist.
          IDoAtm=11111111111111111111111111111111111111111111111111
          IDoAtm=11111111111111111111111111111111111111111111111111
          IDoAtm=11111111111111111111111111111
          Differentiating once with respect to electric field.
                with respect to dipole field.
          Differentiating once with respect to nuclear coordinates.
 Defaulting to unpruned grid for atomic number  77.
 CalDSu exits because no D1Ps are significant.
 Defaulting to unpruned grid for atomic number  77.
 Defaulting to unpruned grid for atomic number  77.
 Defaulting to unpruned grid for atomic number  77.
 Defaulting to unpruned grid for atomic number  77.
 Defaulting to unpruned grid for atomic number  77.
 Defaulting to unpruned grid for atomic number  77.
 Defaulting to unpruned grid for atomic number  77.
 Defaulting to unpruned grid for atomic number  77.
 Defaulting to unpruned grid for atomic number  77.
 Defaulting to unpruned grid for atomic number  77.
 Defaulting to unpruned grid for atomic number  77.
 Defaulting to unpruned grid for atomic number  77.
 Defaulting to unpruned grid for atomic number  77.
 Defaulting to unpruned grid for atomic number  77.
 Defaulting to unpruned grid for atomic number  77.
 Defaulting to unpruned grid for atomic number  77.
          There are   390 degrees of freedom in the 1st order CPHF.  IDoFFX=6 NUNeed=     3.
    387 vectors produced by pass  0 Test12= 1.84D-13 1.00D-09 XBig12= 5.37D+02 7.46D+00.
 AX will form    72 AO Fock derivatives at one time.
    387 vectors produced by pass  1 Test12= 1.84D-13 1.00D-09 XBig12= 8.05D+01 9.88D-01.
    387 vectors produced by pass  2 Test12= 1.84D-13 1.00D-09 XBig12= 9.06D-01 8.04D-02.
    387 vectors produced by pass  3 Test12= 1.84D-13 1.00D-09 XBig12= 6.01D-03 5.53D-03.
    387 vectors produced by pass  4 Test12= 1.84D-13 1.00D-09 XBig12= 2.03D-05 3.39D-04.
    339 vectors produced by pass  5 Test12= 1.84D-13 1.00D-09 XBig12= 3.76D-08 1.32D-05.
     91 vectors produced by pass  6 Test12= 1.84D-13 1.00D-09 XBig12= 5.59D-11 4.15D-07.
      3 vectors produced by pass  7 Test12= 1.84D-13 1.00D-09 XBig12= 7.26D-14 1.84D-08.
 InvSVY:  IOpt=1 It=  1 EMax= 2.84D-14
 Solved reduced A of dimension  2368 with   390 vectors.
 Isotropic polarizability for W=    0.000000      563.67 Bohr**3.
 End of Minotr F.D. properties file   721 does not exist.
 End of Minotr F.D. properties file   722 does not exist.
 End of Minotr F.D. properties file   788 does not exist.
 Hyperfine terms turned off by default for NAtoms > 100.

 **********************************************************************

            Population analysis using the SCF Density.

 **********************************************************************

 Orbital symmetries:
       Occupied  (A) (A) (A) (A) (A) (A) (A) (A) (A) (A) (A) (A)
                 (A) (A) (A) (A) (A) (A) (A) (A) (A) (A) (A) (A)
                 (A) (A) (A) (A) (A) (A) (A) (A) (A) (A) (A) (A)
                 (A) (A) (A) (A) (A) (A) (A) (A) (A) (A) (A) (A)
                 (A) (A) (A) (A) (A) (A) (A) (A) (A) (A) (A) (A)
                 (A) (A) (A) (A) (A) (A) (A) (A) (A) (A) (A) (A)
                 (A) (A) (A) (A) (A) (A) (A) (A) (A) (A) (A) (A)
                 (A) (A) (A) (A) (A) (A) (A) (A) (A) (A) (A) (A)
                 (A) (A) (A) (A) (A) (A) (A) (A) (A) (A) (A) (A)
                 (A) (A) (A) (A) (A) (A) (A) (A) (A) (A) (A) (A)
                 (A) (A) (A) (A) (A) (A) (A) (A) (A) (A) (A) (A)
                 (A) (A) (A) (A) (A) (A) (A) (A) (A) (A) (A) (A)
                 (A) (A) (A) (A) (A) (A) (A) (A) (A) (A) (A) (A)
                 (A) (A) (A) (A) (A) (A) (A) (A) (A) (A) (A) (A)
                 (A) (A) (A) (A) (A) (A) (A) (A) (A) (A) (A) (A)
                 (A) (A) (A) (A) (A) (A) (A) (A) (A) (A) (A) (A)
                 (A) (A) (A) (A) (A) (A) (A) (A) (A) (A) (A) (A)
                 (A) (A) (A) (A) (A) (A) (A) (A) (A) (A) (A) (A)
                 (A) (A) (A) (A) (A) (A) (A) (A) (A) (A) (A) (A)
                 (A) (A) (A) (A) (A) (A) (A) (A) (A) (A)
       Virtual   (A) (A) (A) (A) (A) (A) (A) (A) (A) (A) (A) (A)
                 (A) (A) (A) (A) (A) (A) (A) (A) (A) (A) (A) (A)
                 (A) (A) (A) (A) (A) (A) (A) (A) (A) (A) (A) (A)
                 (A) (A) (A) (A) (A) (A) (A) (A) (A) (A) (A) (A)
                 (A) (A) (A) (A) (A) (A) (A) (A) (A) (A) (A) (A)
                 (A) (A) (A) (A) (A) (A) (A) (A) (A) (A) (A) (A)
                 (A) (A) (A) (A) (A) (A) (A) (A) (A) (A) (A) (A)
                 (A) (A) (A) (A) (A) (A) (A) (A) (A) (A) (A) (A)
                 (A) (A) (A) (A) (A) (A) (A) (A) (A) (A) (A) (A)
                 (A) (A) (A) (A) (A) (A) (A) (A) (A) (A) (A) (A)
                 (A) (A) (A) (A) (A) (A) (A) (A) (A) (A) (A) (A)
                 (A) (A) (A) (A) (A) (A) (A) (A) (A) (A) (A) (A)
                 (A) (A) (A) (A) (A) (A) (A) (A) (A) (A) (A) (A)
                 (A) (A) (A) (A) (A) (A) (A) (A) (A) (A) (A) (A)
                 (A) (A) (A) (A) (A) (A) (A) (A) (A) (A) (A) (A)
                 (A) (A) (A) (A) (A) (A) (A) (A) (A) (A) (A) (A)
                 (A) (A) (A) (A) (A) (A) (A) (A) (A) (A) (A) (A)
                 (A) (A) (A) (A) (A) (A) (A) (A) (A) (A) (A) (A)
                 (A) (A) (A) (A) (A) (A) (A) (A) (A) (A) (A) (A)
                 (A) (A) (A) (A) (A) (A) (A) (A) (A) (A) (A) (A)
                 (A) (A) (A) (A) (A) (A) (A) (A) (A) (A) (A) (A)
                 (A) (A) (A) (A) (A) (A) (A) (A) (A) (A) (A) (A)
                 (A) (A) (A) (A) (A) (A) (A) (A) (A) (A) (A) (A)
                 (A) (A) (A) (A) (A) (A) (A) (A) (A) (A) (A) (A)
                 (A) (A) (A) (A) (A) (A) (A) (A) (A) (A) (A) (A)
                 (A) (A) (A) (A) (A) (A) (A) (A) (A) (A) (A) (A)
                 (A) (A) (A) (A) (A) (A) (A) (A) (A) (A) (A) (A)
                 (A) (A) (A) (A) (A) (A) (A) (A) (A) (A) (A) (A)
                 (A) (A) (A) (A) (A) (A) (A) (A) (A) (A) (A) (A)
                 (A) (A) (A) (A) (A) (A) (A) (A) (A) (A) (A) (A)
                 (A) (A) (A) (A) (A) (A) (A) (A) (A) (A) (A) (A)
                 (A) (A) (A) (A) (A) (A) (A) (A) (A) (A) (A) (A)
                 (A) (A) (A) (A) (A) (A) (A) (A) (A) (A) (A) (A)
                 (A) (A) (A) (A) (A) (A) (A) (A) (A) (A) (A) (A)
                 (A) (A) (A) (A) (A) (A) (A) (A) (A) (A) (A) (A)
                 (A) (A) (A) (A) (A) (A) (A) (A) (A) (A) (A) (A)
                 (A) (A) (A) (A) (A) (A) (A) (A) (A) (A) (A) (A)
                 (A) (A) (A) (A) (A) (A) (A) (A) (A) (A) (A) (A)
                 (A) (A) (A) (A) (A) (A) (A) (A) (A) (A) (A) (A)
                 (A) (A) (A) (A) (A) (A) (A) (A) (A) (A) (A) (A)
                 (A) (A) (A) (A) (A) (A) (A) (A) (A) (A) (A) (A)
                 (A) (A) (A) (A) (A) (A) (A) (A) (A) (A) (A) (A)
                 (A) (A) (A) (A) (A) (A) (A) (A) (A) (A) (A) (A)
                 (A) (A) (A) (A) (A) (A) (A) (A) (A) (A) (A) (A)
                 (A) (A) (A) (A) (A) (A) (A) (A) (A) (A) (A) (A)
                 (A) (A) (A) (A) (A) (A) (A) (A) (A) (A) (A) (A)
                 (A) (A) (A) (A) (A) (A) (A) (A) (A) (A) (A) (A)
                 (A) (A) (A) (A) (A) (A) (A) (A) (A) (A) (A) (A)
                 (A) (A) (A) (A) (A) (A) (A) (A) (A) (A) (A) (A)
                 (A) (A) (A) (A) (A) (A) (A) (A) (A) (A) (A) (A)
                 (A) (A) (A) (A) (A) (A) (A) (A) (A) (A) (A) (A)
                 (A) (A) (A) (A) (A) (A) (A) (A) (A) (A) (A) (A)
                 (A) (A) (A) (A) (A) (A) (A) (A) (A) (A) (A) (A)
                 (A) (A) (A) (A) (A) (A) (A) (A) (A) (A) (A) (A)
                 (A) (A) (A) (A) (A) (A) (A) (A) (A) (A) (A) (A)
                 (A) (A) (A) (A) (A) (A) (A) (A) (A) (A) (A) (A)
                 (A) (A) (A) (A) (A) (A) (A) (A) (A) (A) (A) (A)
                 (A) (A) (A) (A) (A) (A) (A) (A) (A) (A) (A) (A)
                 (A) (A) (A) (A) (A) (A) (A) (A) (A) (A) (A) (A)
                 (A) (A) (A) (A) (A) (A) (A) (A) (A) (A) (A) (A)
                 (A) (A) (A) (A) (A) (A) (A) (A) (A) (A) (A) (A)
                 (A) (A) (A) (A) (A) (A) (A) (A) (A) (A) (A) (A)
                 (A) (A) (A) (A) (A) (A) (A) (A) (A) (A) (A) (A)
                 (A) (A) (A) (A) (A) (A) (A) (A) (A) (A) (A) (A)
                 (A) (A) (A) (A)
 The electronic state is 1-A.
 Alpha  occ. eigenvalues --  -24.83250 -24.82617 -24.82477 -19.21102 -19.20855
 Alpha  occ. eigenvalues --  -19.20326 -19.20273 -19.20134 -19.20009 -19.19468
 Alpha  occ. eigenvalues --  -19.19058 -19.19019 -19.17942 -14.46141 -14.44029
 Alpha  occ. eigenvalues --  -10.51299 -10.32830 -10.31553 -10.30870 -10.30031
 Alpha  occ. eigenvalues --  -10.29949 -10.29885 -10.29689 -10.29445 -10.29284
 Alpha  occ. eigenvalues --  -10.29205 -10.28902 -10.28880 -10.28871 -10.28638
 Alpha  occ. eigenvalues --  -10.28622 -10.28385 -10.27955 -10.27895 -10.27672
 Alpha  occ. eigenvalues --  -10.27255 -10.23566 -10.23076 -10.22997 -10.22938
 Alpha  occ. eigenvalues --  -10.22866 -10.22731 -10.22713 -10.22398 -10.22378
 Alpha  occ. eigenvalues --  -10.22320 -10.22277 -10.22248 -10.21866 -10.21742
 Alpha  occ. eigenvalues --  -10.21573 -10.21511 -10.21262 -10.20924 -10.20799
 Alpha  occ. eigenvalues --  -10.20507  -6.81065  -6.80714  -6.80425  -6.79893
 Alpha  occ. eigenvalues --   -6.78170  -3.63394  -2.05846  -2.05445  -2.04435
 Alpha  occ. eigenvalues --   -1.35643  -1.27209  -1.26587  -1.06970  -1.06272
 Alpha  occ. eigenvalues --   -1.05730  -1.05419  -1.04711  -1.00471  -0.99974
 Alpha  occ. eigenvalues --   -0.99173  -0.98730  -0.98622  -0.97704  -0.97519
 Alpha  occ. eigenvalues --   -0.86312  -0.83625  -0.83249  -0.81027  -0.80577
 Alpha  occ. eigenvalues --   -0.79950  -0.79777  -0.78886  -0.78816  -0.75469
 Alpha  occ. eigenvalues --   -0.75023  -0.74395  -0.74206  -0.73669  -0.73366
 Alpha  occ. eigenvalues --   -0.70975  -0.70563  -0.69954  -0.69604  -0.68947
 Alpha  occ. eigenvalues --   -0.68657  -0.68589  -0.68096  -0.67761  -0.67025
 Alpha  occ. eigenvalues --   -0.66792  -0.66215  -0.65011  -0.64135  -0.62309
 Alpha  occ. eigenvalues --   -0.61881  -0.61609  -0.61557  -0.61152  -0.60681
 Alpha  occ. eigenvalues --   -0.60616  -0.59954  -0.56911  -0.55383  -0.54698
 Alpha  occ. eigenvalues --   -0.54615  -0.54383  -0.54058  -0.53775  -0.53600
 Alpha  occ. eigenvalues --   -0.53140  -0.52967  -0.52633  -0.52044  -0.51762
 Alpha  occ. eigenvalues --   -0.50053  -0.49141  -0.48957  -0.48695  -0.48376
 Alpha  occ. eigenvalues --   -0.47607  -0.47438  -0.47278  -0.46872  -0.46752
 Alpha  occ. eigenvalues --   -0.46665  -0.46412  -0.46091  -0.45605  -0.45600
 Alpha  occ. eigenvalues --   -0.45453  -0.45091  -0.44856  -0.44779  -0.44639
 Alpha  occ. eigenvalues --   -0.44438  -0.44347  -0.44187  -0.43959  -0.43808
 Alpha  occ. eigenvalues --   -0.43744  -0.43553  -0.42925  -0.42887  -0.42830
 Alpha  occ. eigenvalues --   -0.42434  -0.42247  -0.42062  -0.41746  -0.40612
 Alpha  occ. eigenvalues --   -0.40352  -0.40142  -0.40122  -0.39902  -0.39849
 Alpha  occ. eigenvalues --   -0.39758  -0.39712  -0.39623  -0.39431  -0.39360
 Alpha  occ. eigenvalues --   -0.39253  -0.39184  -0.39019  -0.38954  -0.38821
 Alpha  occ. eigenvalues --   -0.38691  -0.38462  -0.38339  -0.38013  -0.37862
 Alpha  occ. eigenvalues --   -0.37774  -0.37436  -0.37372  -0.37253  -0.37028
 Alpha  occ. eigenvalues --   -0.36888  -0.36676  -0.36590  -0.36237  -0.36109
 Alpha  occ. eigenvalues --   -0.35957  -0.35835  -0.35778  -0.35299  -0.35143
 Alpha  occ. eigenvalues --   -0.35080  -0.34928  -0.34756  -0.34735  -0.34481
 Alpha  occ. eigenvalues --   -0.34304  -0.34228  -0.33665  -0.33420  -0.33056
 Alpha  occ. eigenvalues --   -0.32853  -0.32373  -0.31977  -0.31861  -0.31719
 Alpha  occ. eigenvalues --   -0.31531  -0.31333  -0.31139  -0.30811  -0.30626
 Alpha  occ. eigenvalues --   -0.30417  -0.30229  -0.29977  -0.29456  -0.29095
 Alpha  occ. eigenvalues --   -0.28639  -0.28264  -0.27010  -0.26686  -0.26420
 Alpha  occ. eigenvalues --   -0.25872  -0.25585  -0.25366  -0.25059  -0.24129
 Alpha  occ. eigenvalues --   -0.23011  -0.22224  -0.20324
 Alpha virt. eigenvalues --   -0.07356  -0.04387  -0.02654   0.01045   0.02346
 Alpha virt. eigenvalues --    0.04131   0.06144   0.06811   0.07031   0.07349
 Alpha virt. eigenvalues --    0.08120   0.08730   0.09390   0.09834   0.10359
 Alpha virt. eigenvalues --    0.10443   0.10901   0.11123   0.11382   0.11584
 Alpha virt. eigenvalues --    0.12080   0.12266   0.12505   0.12725   0.12872
 Alpha virt. eigenvalues --    0.13154   0.13372   0.13558   0.13761   0.13972
 Alpha virt. eigenvalues --    0.14332   0.14486   0.14649   0.14823   0.14935
 Alpha virt. eigenvalues --    0.15081   0.15152   0.15455   0.15586   0.15829
 Alpha virt. eigenvalues --    0.15941   0.16091   0.16177   0.16443   0.16568
 Alpha virt. eigenvalues --    0.16844   0.16976   0.17029   0.17301   0.17354
 Alpha virt. eigenvalues --    0.17663   0.17750   0.17996   0.18391   0.18531
 Alpha virt. eigenvalues --    0.18709   0.18888   0.18968   0.19150   0.19222
 Alpha virt. eigenvalues --    0.19364   0.19698   0.19724   0.19762   0.19945
 Alpha virt. eigenvalues --    0.19999   0.20232   0.20486   0.20578   0.20746
 Alpha virt. eigenvalues --    0.20826   0.21141   0.21185   0.21383   0.21541
 Alpha virt. eigenvalues --    0.21705   0.21738   0.21997   0.22456   0.22554
 Alpha virt. eigenvalues --    0.22830   0.23002   0.23121   0.23225   0.23340
 Alpha virt. eigenvalues --    0.23564   0.23803   0.24042   0.24286   0.24383
 Alpha virt. eigenvalues --    0.24492   0.24622   0.24977   0.25267   0.25309
 Alpha virt. eigenvalues --    0.25444   0.25545   0.25687   0.25786   0.26115
 Alpha virt. eigenvalues --    0.26337   0.26543   0.27059   0.27140   0.27242
 Alpha virt. eigenvalues --    0.27427   0.27856   0.28181   0.28246   0.28612
 Alpha virt. eigenvalues --    0.29028   0.29071   0.29335   0.29438   0.30107
 Alpha virt. eigenvalues --    0.30406   0.30522   0.30804   0.31293   0.31390
 Alpha virt. eigenvalues --    0.31622   0.32518   0.32640   0.33083   0.33223
 Alpha virt. eigenvalues --    0.33970   0.34202   0.34640   0.34855   0.35731
 Alpha virt. eigenvalues --    0.36114   0.36432   0.37116   0.37843   0.37885
 Alpha virt. eigenvalues --    0.38472   0.39278   0.39690   0.40457   0.41922
 Alpha virt. eigenvalues --    0.42095   0.42639   0.43576   0.44458   0.45285
 Alpha virt. eigenvalues --    0.46920   0.47481   0.48381   0.48456   0.48933
 Alpha virt. eigenvalues --    0.49545   0.49977   0.50310   0.50573   0.50773
 Alpha virt. eigenvalues --    0.51142   0.51358   0.51452   0.52034   0.52272
 Alpha virt. eigenvalues --    0.52440   0.52792   0.53419   0.53501   0.53674
 Alpha virt. eigenvalues --    0.54164   0.54518   0.54904   0.55415   0.55753
 Alpha virt. eigenvalues --    0.56290   0.56375   0.56401   0.56659   0.57055
 Alpha virt. eigenvalues --    0.57183   0.57422   0.57814   0.57936   0.58160
 Alpha virt. eigenvalues --    0.58340   0.58534   0.58704   0.59037   0.59273
 Alpha virt. eigenvalues --    0.59379   0.59411   0.59692   0.59888   0.60142
 Alpha virt. eigenvalues --    0.60626   0.60699   0.60938   0.61275   0.61379
 Alpha virt. eigenvalues --    0.61740   0.61995   0.62128   0.62430   0.62567
 Alpha virt. eigenvalues --    0.62802   0.63196   0.63466   0.63951   0.64254
 Alpha virt. eigenvalues --    0.64601   0.64890   0.65254   0.65672   0.65966
 Alpha virt. eigenvalues --    0.66396   0.66569   0.66710   0.67176   0.67453
 Alpha virt. eigenvalues --    0.67525   0.67961   0.68396   0.68840   0.69098
 Alpha virt. eigenvalues --    0.69582   0.69681   0.70023   0.70147   0.70562
 Alpha virt. eigenvalues --    0.70791   0.70965   0.71119   0.71398   0.71660
 Alpha virt. eigenvalues --    0.71703   0.72463   0.72777   0.72923   0.72992
 Alpha virt. eigenvalues --    0.73182   0.73624   0.73971   0.74084   0.74409
 Alpha virt. eigenvalues --    0.74664   0.74911   0.75277   0.75699   0.75782
 Alpha virt. eigenvalues --    0.75979   0.76329   0.76843   0.77137   0.77426
 Alpha virt. eigenvalues --    0.78098   0.78220   0.78471   0.78960   0.79392
 Alpha virt. eigenvalues --    0.79642   0.80093   0.80562   0.80660   0.80854
 Alpha virt. eigenvalues --    0.81118   0.81630   0.82066   0.82446   0.82816
 Alpha virt. eigenvalues --    0.82950   0.83056   0.83425   0.83547   0.83960
 Alpha virt. eigenvalues --    0.84501   0.84566   0.84756   0.84993   0.85100
 Alpha virt. eigenvalues --    0.85232   0.85404   0.85611   0.85751   0.85959
 Alpha virt. eigenvalues --    0.86242   0.86468   0.86622   0.86799   0.86849
 Alpha virt. eigenvalues --    0.87142   0.87488   0.87712   0.87895   0.88185
 Alpha virt. eigenvalues --    0.88622   0.88815   0.88943   0.89151   0.89454
 Alpha virt. eigenvalues --    0.89731   0.89837   0.90199   0.90320   0.90626
 Alpha virt. eigenvalues --    0.90720   0.90894   0.91028   0.91226   0.91302
 Alpha virt. eigenvalues --    0.91495   0.91666   0.91739   0.92425   0.92546
 Alpha virt. eigenvalues --    0.92793   0.93029   0.93396   0.93520   0.93967
 Alpha virt. eigenvalues --    0.94315   0.94652   0.94783   0.95128   0.95296
 Alpha virt. eigenvalues --    0.95588   0.95859   0.96011   0.96058   0.96739
 Alpha virt. eigenvalues --    0.96841   0.97568   0.97791   0.98183   0.98225
 Alpha virt. eigenvalues --    0.98546   0.98916   0.99475   0.99567   0.99910
 Alpha virt. eigenvalues --    1.00307   1.00648   1.01037   1.01385   1.01660
 Alpha virt. eigenvalues --    1.02004   1.02105   1.02504   1.02788   1.03141
 Alpha virt. eigenvalues --    1.03287   1.03677   1.04066   1.04721   1.04986
 Alpha virt. eigenvalues --    1.05398   1.05977   1.06243   1.07034   1.07237
 Alpha virt. eigenvalues --    1.07615   1.08058   1.08775   1.09578   1.09774
 Alpha virt. eigenvalues --    1.10481   1.10889   1.11251   1.11603   1.11920
 Alpha virt. eigenvalues --    1.12840   1.13194   1.13605   1.14591   1.14743
 Alpha virt. eigenvalues --    1.14978   1.15503   1.15865   1.16780   1.17160
 Alpha virt. eigenvalues --    1.17658   1.18171   1.18561   1.18701   1.19210
 Alpha virt. eigenvalues --    1.19538   1.19877   1.20146   1.20397   1.20938
 Alpha virt. eigenvalues --    1.21234   1.21658   1.21877   1.22571   1.23491
 Alpha virt. eigenvalues --    1.23887   1.24074   1.24450   1.24846   1.25480
 Alpha virt. eigenvalues --    1.25957   1.26343   1.27378   1.27748   1.27894
 Alpha virt. eigenvalues --    1.28342   1.28752   1.29041   1.30024   1.30727
 Alpha virt. eigenvalues --    1.31044   1.31427   1.32478   1.32906   1.33595
 Alpha virt. eigenvalues --    1.33915   1.34250   1.34538   1.35275   1.35553
 Alpha virt. eigenvalues --    1.35914   1.36282   1.36709   1.36878   1.37505
 Alpha virt. eigenvalues --    1.37641   1.38279   1.38552   1.39456   1.39815
 Alpha virt. eigenvalues --    1.40688   1.40798   1.41003   1.41584   1.42323
 Alpha virt. eigenvalues --    1.42573   1.42704   1.43201   1.43751   1.44402
 Alpha virt. eigenvalues --    1.44522   1.44993   1.45798   1.46434   1.46782
 Alpha virt. eigenvalues --    1.46935   1.47450   1.48211   1.48878   1.49353
 Alpha virt. eigenvalues --    1.49583   1.50330   1.50810   1.51848   1.51965
 Alpha virt. eigenvalues --    1.52534   1.52795   1.53434   1.54386   1.54606
 Alpha virt. eigenvalues --    1.54956   1.55784   1.56497   1.56935   1.57913
 Alpha virt. eigenvalues --    1.58248   1.59674   1.60645   1.60734   1.61546
 Alpha virt. eigenvalues --    1.62283   1.63398   1.63542   1.63717   1.64518
 Alpha virt. eigenvalues --    1.64863   1.64957   1.66004   1.66242   1.66807
 Alpha virt. eigenvalues --    1.66934   1.67763   1.68109   1.68390   1.68928
 Alpha virt. eigenvalues --    1.69153   1.69690   1.70198   1.70411   1.70829
 Alpha virt. eigenvalues --    1.71313   1.71571   1.71851   1.71889   1.72838
 Alpha virt. eigenvalues --    1.73933   1.74469   1.75470   1.76030   1.76162
 Alpha virt. eigenvalues --    1.76455   1.77078   1.77487   1.77982   1.78220
 Alpha virt. eigenvalues --    1.78740   1.78805   1.79323   1.79955   1.80584
 Alpha virt. eigenvalues --    1.80898   1.81547   1.81831   1.82163   1.82536
 Alpha virt. eigenvalues --    1.82838   1.83458   1.83809   1.84351   1.84814
 Alpha virt. eigenvalues --    1.85136   1.85523   1.85789   1.86059   1.86267
 Alpha virt. eigenvalues --    1.86750   1.87113   1.87248   1.88129   1.88358
 Alpha virt. eigenvalues --    1.89189   1.89536   1.89719   1.89892   1.90306
 Alpha virt. eigenvalues --    1.90854   1.91235   1.91421   1.91555   1.91863
 Alpha virt. eigenvalues --    1.91948   1.92139   1.92235   1.92508   1.92658
 Alpha virt. eigenvalues --    1.92910   1.93032   1.93372   1.93557   1.93737
 Alpha virt. eigenvalues --    1.94187   1.94666   1.94746   1.95032   1.95133
 Alpha virt. eigenvalues --    1.95777   1.96232   1.96639   1.97091   1.97463
 Alpha virt. eigenvalues --    1.97759   1.98608   1.99064   1.99339   2.00035
 Alpha virt. eigenvalues --    2.00692   2.01077   2.01257   2.02109   2.02416
 Alpha virt. eigenvalues --    2.02471   2.03047   2.03393   2.03709   2.04256
 Alpha virt. eigenvalues --    2.04580   2.05050   2.05477   2.05796   2.06051
 Alpha virt. eigenvalues --    2.06088   2.06508   2.06529   2.06776   2.07170
 Alpha virt. eigenvalues --    2.07505   2.07994   2.08305   2.08557   2.08633
 Alpha virt. eigenvalues --    2.09188   2.09460   2.09634   2.09893   2.10092
 Alpha virt. eigenvalues --    2.10924   2.11253   2.11538   2.11595   2.11857
 Alpha virt. eigenvalues --    2.12498   2.12806   2.13402   2.13484   2.13934
 Alpha virt. eigenvalues --    2.14377   2.14431   2.14837   2.15100   2.15750
 Alpha virt. eigenvalues --    2.15963   2.16293   2.16689   2.16939   2.17166
 Alpha virt. eigenvalues --    2.17648   2.18096   2.18574   2.18618   2.19111
 Alpha virt. eigenvalues --    2.19253   2.19650   2.20009   2.20191   2.20504
 Alpha virt. eigenvalues --    2.20698   2.20907   2.21195   2.21501   2.21971
 Alpha virt. eigenvalues --    2.22291   2.22578   2.22867   2.23146   2.23372
 Alpha virt. eigenvalues --    2.23702   2.24046   2.24484   2.24620   2.25010
 Alpha virt. eigenvalues --    2.25193   2.25663   2.25850   2.26175   2.26686
 Alpha virt. eigenvalues --    2.26845   2.26953   2.27209   2.27522   2.27722
 Alpha virt. eigenvalues --    2.27962   2.28256   2.28482   2.29343   2.29485
 Alpha virt. eigenvalues --    2.29943   2.30620   2.31183   2.31395   2.32051
 Alpha virt. eigenvalues --    2.32507   2.33023   2.33669   2.34013   2.34561
 Alpha virt. eigenvalues --    2.34852   2.35158   2.35800   2.35945   2.36400
 Alpha virt. eigenvalues --    2.37448   2.38274   2.38874   2.39475   2.39577
 Alpha virt. eigenvalues --    2.40552   2.41030   2.41474   2.42092   2.42720
 Alpha virt. eigenvalues --    2.42959   2.43748   2.45702   2.46201   2.46629
 Alpha virt. eigenvalues --    2.46926   2.47233   2.47893   2.48431   2.49548
 Alpha virt. eigenvalues --    2.49580   2.49961   2.50023   2.50609   2.51047
 Alpha virt. eigenvalues --    2.51254   2.52554   2.53236   2.53610   2.54305
 Alpha virt. eigenvalues --    2.55285   2.58352   2.59699   2.61043   2.61175
 Alpha virt. eigenvalues --    2.61781   2.62067   2.62630   2.63085   2.63866
 Alpha virt. eigenvalues --    2.64467   2.64985   2.65537   2.66082   2.66865
 Alpha virt. eigenvalues --    2.67070   2.68738   2.69106   2.69682   2.71548
 Alpha virt. eigenvalues --    2.74031   2.77025   2.77208   2.78238   2.78425
 Alpha virt. eigenvalues --    2.78703   2.79151   2.79373   2.79895   2.80456
 Alpha virt. eigenvalues --    2.80822   2.81110   2.81412   2.81631   2.81847
 Alpha virt. eigenvalues --    2.82352   2.82599   2.82924   2.83181   2.83374
 Alpha virt. eigenvalues --    2.84251   2.85017   2.85767   2.87223   2.88329
 Alpha virt. eigenvalues --    2.89834   2.91296   2.93457   2.94225   2.94817
 Alpha virt. eigenvalues --    2.95376   2.95870   2.96140   2.97282   2.97703
 Alpha virt. eigenvalues --    2.98464   2.98749   2.99221   3.01216   3.04545
 Alpha virt. eigenvalues --    3.05475   3.06376   3.06654   3.08701   3.10068
 Alpha virt. eigenvalues --    3.10465   3.10886   3.13102   3.13899   3.14969
 Alpha virt. eigenvalues --    3.16165   3.16722   3.17526   3.27461   3.32404
 Alpha virt. eigenvalues --    3.45533  18.30375
          Condensed to atoms (all electrons):
 Mulliken charges:
               1
     1  Ir  -0.424626
     2  B    0.548413
     3  C    0.090836
     4  C   -0.173319
     5  C   -0.180700
     6  C    0.330796
     7  C    0.334590
     8  C   -0.187007
     9  C   -0.062751
    10  C    0.001222
    11  B    0.574042
    12  N   -0.461449
    13  N   -0.504933
    14  O   -0.484079
    15  O   -0.502405
    16  O   -0.508920
    17  O   -0.542574
    18  O   -0.530620
    19  O   -0.488962
    20  C   -0.142738
    21  C   -0.170461
    22  C    0.291702
    23  C    0.289722
    24  C    0.285337
    25  C    0.282631
    26  C    0.291313
    27  C    0.297714
    28  C    0.299762
    29  B    0.526455
    30  H    0.199960
    31  B    0.573351
    32  C    0.290535
    33  O   -0.513705
    34  O   -0.522565
    35  C   -0.508504
    36  H    0.159894
    37  H    0.187230
    38  H    0.150376
    39  C   -0.505957
    40  H    0.169585
    41  H    0.149244
    42  H    0.168738
    43  C   -0.495231
    44  H    0.156824
    45  H    0.149050
    46  H    0.163917
    47  C   -0.514140
    48  H    0.164082
    49  H    0.150492
    50  H    0.177840
    51  C   -0.505392
    52  H    0.164068
    53  H    0.141360
    54  H    0.171945
    55  C   -0.480812
    56  H    0.165660
    57  H    0.151666
    58  H    0.139621
    59  C   -0.497469
    60  H    0.138280
    61  H    0.154491
    62  H    0.187768
    63  C   -0.510698
    64  H    0.161399
    65  H    0.150362
    66  H    0.162975
    67  C   -0.497862
    68  H    0.163206
    69  H    0.140888
    70  H    0.177401
    71  C   -0.509364
    72  H    0.147381
    73  H    0.155355
    74  H    0.189769
    75  C   -0.501211
    76  H    0.166980
    77  H    0.148582
    78  H    0.162452
    79  C   -0.476787
    80  H    0.164845
    81  H    0.145363
    82  H    0.142828
    83  C   -0.506799
    84  H    0.173439
    85  H    0.149889
    86  H    0.169487
    87  C   -0.501732
    88  H    0.152077
    89  H    0.176723
    90  H    0.165938
    91  C   -0.505035
    92  H    0.168531
    93  H    0.154035
    94  H    0.159364
    95  C   -0.486189
    96  H    0.151372
    97  H    0.180109
    98  H    0.140268
    99  B    0.560835
   100  O   -0.536972
   101  O   -0.511063
   102  C    0.307760
   103  C    0.292248
   104  C   -0.509695
   105  C   -0.508616
   106  C   -0.520514
   107  C   -0.507069
   108  H    0.164292
   109  H    0.151856
   110  H    0.161035
   111  H    0.165359
   112  H    0.150013
   113  H    0.165296
   114  H    0.174555
   115  H    0.151879
   116  H    0.163377
   117  H    0.190675
   118  H    0.134280
   119  H    0.173230
   120  H    0.257175
   121  H    0.180545
   122  H    0.178251
   123  H    0.166071
   124  H    0.198010
   125  H    0.176239
   126  C    0.976587
   127  F   -0.307423
   128  F   -0.305479
   129  F   -0.319268
 Sum of Mulliken charges =  -0.00000
 Mulliken charges with hydrogens summed into heavy atoms:
               1
     1  Ir  -0.424626
     2  B    0.548413
     3  C    0.290796
     4  C    0.007226
     5  C   -0.014630
     6  C    0.330796
     7  C    0.334590
     8  C   -0.010769
     9  C   -0.062751
    10  C    0.258397
    11  B    0.574042
    12  N   -0.461449
    13  N   -0.504933
    14  O   -0.484079
    15  O   -0.502405
    16  O   -0.508920
    17  O   -0.542574
    18  O   -0.530620
    19  O   -0.488962
    20  C    0.035513
    21  C    0.027549
    22  C    0.291702
    23  C    0.289722
    24  C    0.285337
    25  C    0.282631
    26  C    0.291313
    27  C    0.297714
    28  C    0.299762
    29  B    0.526455
    31  B    0.573351
    32  C    0.290535
    33  O   -0.513705
    34  O   -0.522565
    35  C   -0.011003
    39  C   -0.018390
    43  C   -0.025441
    47  C   -0.021727
    51  C   -0.028019
    55  C   -0.023865
    59  C   -0.016930
    63  C   -0.035961
    67  C   -0.016367
    71  C   -0.016858
    75  C   -0.023198
    79  C   -0.023751
    83  C   -0.013985
    87  C   -0.006993
    91  C   -0.023105
    95  C   -0.014440
    99  B    0.560835
   100  O   -0.536972
   101  O   -0.511063
   102  C    0.307760
   103  C    0.292248
   104  C   -0.032513
   105  C   -0.027948
   106  C   -0.030703
   107  C   -0.008885
   126  C    0.976587
   127  F   -0.307423
   128  F   -0.305479
   129  F   -0.319268
 APT charges:
               1
     1  Ir  -1.239807
     2  B    1.191276
     3  C    0.075701
     4  C   -0.025789
     5  C   -0.151045
     6  C    0.135796
     7  C    0.290771
     8  C   -0.205862
     9  C   -0.226722
    10  C    0.040091
    11  B    1.084323
    12  N   -0.141941
    13  N   -0.129282
    14  O   -0.869862
    15  O   -0.864889
    16  O   -0.912935
    17  O   -0.966366
    18  O   -0.978487
    19  O   -0.962960
    20  C    0.080551
    21  C    0.110744
    22  C    0.449229
    23  C    0.434143
    24  C    0.495757
    25  C    0.502270
    26  C    0.473043
    27  C    0.481353
    28  C    0.433182
    29  B    1.345173
    30  H    0.059595
    31  B    1.235769
    32  C    0.470889
    33  O   -0.944625
    34  O   -0.893779
    35  C   -0.047071
    36  H    0.008685
    37  H    0.018380
    38  H   -0.026198
    39  C   -0.005900
    40  H    0.007683
    41  H   -0.019345
    42  H    0.004218
    43  C   -0.022033
    44  H   -0.016157
    45  H   -0.012561
    46  H   -0.003748
    47  C   -0.004588
    48  H   -0.004802
    49  H   -0.015656
    50  H    0.007202
    51  C    0.002452
    52  H   -0.001683
    53  H   -0.022942
    54  H   -0.001773
    55  C   -0.018270
    56  H   -0.001694
    57  H   -0.005980
    58  H   -0.032106
    59  C   -0.018050
    60  H   -0.035785
    61  H   -0.020906
    62  H    0.032990
    63  C   -0.003736
    64  H   -0.004240
    65  H   -0.017343
    66  H   -0.005563
    67  C    0.003653
    68  H    0.003961
    69  H   -0.026585
    70  H    0.006709
    71  C   -0.064270
    72  H   -0.027257
    73  H   -0.000347
    74  H    0.045406
    75  C   -0.006467
    76  H   -0.003846
    77  H   -0.019555
    78  H   -0.001341
    79  C   -0.023294
    80  H    0.004911
    81  H   -0.003072
    82  H   -0.031867
    83  C    0.001771
    84  H    0.009537
    85  H   -0.020253
    86  H    0.005449
    87  C   -0.010572
    88  H   -0.023654
    89  H    0.002542
    90  H   -0.006041
    91  C    0.000875
    92  H   -0.000148
    93  H   -0.010098
    94  H   -0.016409
    95  C   -0.009425
    96  H   -0.022377
    97  H    0.013606
    98  H   -0.013448
    99  B    1.280016
   100  O   -0.968162
   101  O   -0.958421
   102  C    0.476811
   103  C    0.481378
   104  C   -0.023567
   105  C   -0.006876
   106  C   -0.012317
   107  C   -0.035877
   108  H    0.007177
   109  H   -0.024162
   110  H   -0.006423
   111  H   -0.001193
   112  H   -0.021466
   113  H    0.013724
   114  H    0.005407
   115  H   -0.019111
   116  H    0.002818
   117  H    0.040841
   118  H   -0.031358
   119  H   -0.003401
   120  H    0.172143
   121  H    0.035810
   122  H    0.025192
   123  H    0.035963
   124  H    0.065494
   125  H    0.042710
   126  C    1.741485
   127  F   -0.531121
   128  F   -0.552369
   129  F   -0.578025
 Sum of APT charges =   0.00000
 APT charges with hydrogens summed into heavy atoms:
               1
     1  Ir  -1.239807
     2  B    1.191276
     3  C    0.135297
     4  C    0.010021
     5  C   -0.115082
     6  C    0.135796
     7  C    0.290771
     8  C   -0.163153
     9  C   -0.226722
    10  C    0.212234
    11  B    1.084323
    12  N   -0.141941
    13  N   -0.129282
    14  O   -0.869862
    15  O   -0.864889
    16  O   -0.912935
    17  O   -0.966366
    18  O   -0.978487
    19  O   -0.962960
    20  C    0.105743
    21  C    0.176238
    22  C    0.449229
    23  C    0.434143
    24  C    0.495757
    25  C    0.502270
    26  C    0.473043
    27  C    0.481353
    28  C    0.433182
    29  B    1.345173
    31  B    1.235769
    32  C    0.470889
    33  O   -0.944625
    34  O   -0.893779
    35  C   -0.046204
    39  C   -0.013343
    43  C   -0.054499
    47  C   -0.017844
    51  C   -0.023946
    55  C   -0.058050
    59  C   -0.041751
    63  C   -0.030882
    67  C   -0.012262
    71  C   -0.046467
    75  C   -0.031210
    79  C   -0.053322
    83  C   -0.003496
    87  C   -0.037725
    91  C   -0.025780
    95  C   -0.031644
    99  B    1.280016
   100  O   -0.968162
   101  O   -0.958421
   102  C    0.476811
   103  C    0.481378
   104  C   -0.046975
   105  C   -0.015811
   106  C   -0.023203
   107  C   -0.029795
   126  C    1.741485
   127  F   -0.531121
   128  F   -0.552369
   129  F   -0.578025
 Electronic spatial extent (au):  <R**2>=          34528.1449
 Charge=             -0.0000 electrons
 Dipole moment (field-independent basis, Debye):
    X=              2.2339    Y=              0.5792    Z=             -5.6640  Tot=              6.1161
 Quadrupole moment (field-independent basis, Debye-Ang):
   XX=           -364.6282   YY=           -366.2829   ZZ=           -355.4102
   XY=              1.4976   XZ=            -10.7583   YZ=             -1.6947
 Traceless Quadrupole moment (field-independent basis, Debye-Ang):
   XX=             -2.5211   YY=             -4.1758   ZZ=              6.6969
   XY=              1.4976   XZ=            -10.7583   YZ=             -1.6947
 Octapole moment (field-independent basis, Debye-Ang**2):
  XXX=             14.3421  YYY=            -12.1507  ZZZ=           -145.5506  XYY=             28.4888
  XXY=              0.4781  XXZ=            -85.8819  XZZ=             46.8998  YZZ=             11.1804
  YYZ=              9.2063  XYZ=             -4.4034
 Hexadecapole moment (field-independent basis, Debye-Ang**3):
 XXXX=         -17441.2037 YYYY=         -15823.1434 ZZZZ=         -10352.0422 XXXY=             21.1045
 XXXZ=           -177.0258 YYYX=            -14.0614 YYYZ=             -0.3660 ZZZX=             70.6382
 ZZZY=           -112.2100 XXYY=          -5493.7334 XXZZ=          -4688.5643 YYZZ=          -4736.4272
 XXYZ=             44.3236 YYXZ=             21.8037 ZZXY=            -13.5960
 N-N= 1.211293560662D+04 E-N=-3.119046765398D+04  KE= 2.902453424313D+03
  Exact polarizability:     599.415      -4.074     525.620      -2.951      -5.462     565.977
 Approx polarizability:     878.659     -13.930     703.170       4.061     -11.101     862.149
   1 Symmetry operations used in ECPInt.
 ECPInt:  NShTT=   74691 NPrTT=  457800 LenC2=   57023 LenP2D=  172479.
 LDataN:  DoStor=T MaxTD1= 8 Len=  415
 Calling FoFJK, ICntrl=    100127 FMM=F ISym2X=0 I1Cent= 0 IOpClX= 0 NMat=1 NMatS=1 NMatT=0.
 Defaulting to unpruned grid for atomic number  77.
 Defaulting to unpruned grid for atomic number  77.
 Defaulting to unpruned grid for atomic number  77.
 Defaulting to unpruned grid for atomic number  77.
 Defaulting to unpruned grid for atomic number  77.
 Defaulting to unpruned grid for atomic number  77.
 Defaulting to unpruned grid for atomic number  77.
 Defaulting to unpruned grid for atomic number  77.
 Defaulting to unpruned grid for atomic number  77.
 Defaulting to unpruned grid for atomic number  77.
 Defaulting to unpruned grid for atomic number  77.
 Defaulting to unpruned grid for atomic number  77.
 Defaulting to unpruned grid for atomic number  77.
 Defaulting to unpruned grid for atomic number  77.
 Defaulting to unpruned grid for atomic number  77.
 Defaulting to unpruned grid for atomic number  77.
 Full mass-weighted force constant matrix:
 Low frequencies ---   -9.1093   -4.8811   -0.0007   -0.0002    0.0005    4.6329
 Low frequencies ---   25.8357   31.3872   32.2194
 Diagonal vibrational polarizability:
       75.1287043     139.7858565      49.1740924
 Harmonic frequencies (cm**-1), IR intensities (KM/Mole), Raman scattering
 activities (A**4/AMU), depolarization ratios for plane and unpolarized
 incident light, reduced masses (AMU), force constants (mDyne/A),
 and normal coordinates:
                      1                      2                      3
                      A                      A                      A
 Frequencies --     25.7665                31.3480                32.1868
 Red. masses --      5.1618                 4.8346                 4.7621
 Frc consts  --      0.0020                 0.0028                 0.0029
 IR Inten    --      1.1450                 0.3324                 0.1564
  Atom AN      X      Y      Z        X      Y      Z        X      Y      Z
     1  77    -0.00  -0.02  -0.00     0.00   0.01  -0.00    -0.00  -0.00  -0.01
     2   5     0.02  -0.01   0.03     0.01   0.01   0.02    -0.00   0.00  -0.01
     3   6     0.01   0.08   0.00    -0.03   0.01   0.01     0.04  -0.02  -0.02
     4   6     0.02   0.22   0.02    -0.05  -0.07   0.00     0.06  -0.04  -0.03
     5   6     0.02   0.25   0.03    -0.05  -0.12  -0.03     0.05  -0.04   0.01
     6   6     0.01   0.09   0.01    -0.03  -0.04  -0.02     0.04  -0.03   0.00
     7   6     0.00   0.03   0.00    -0.02  -0.02  -0.03     0.02  -0.02   0.02
     8   6    -0.00  -0.01  -0.00    -0.02  -0.03  -0.04     0.03  -0.02   0.04
     9   6    -0.00  -0.04  -0.01     0.00   0.02  -0.05    -0.00   0.00   0.05
    10   6     0.00  -0.03  -0.00     0.01   0.03  -0.03    -0.01   0.01   0.03
    11   5    -0.02  -0.01  -0.02     0.01   0.00   0.01    -0.01   0.00  -0.04
    12   7     0.00   0.02  -0.00    -0.02   0.01   0.00     0.03  -0.02  -0.01
    13   7     0.00   0.00   0.00    -0.00   0.01  -0.02     0.01  -0.00   0.01
    14   8     0.01  -0.02  -0.03     0.02  -0.02   0.03     0.01   0.01  -0.06
    15   8    -0.05  -0.00  -0.03    -0.01   0.02   0.02    -0.04  -0.01  -0.06
    16   8    -0.01   0.01   0.01    -0.02   0.01  -0.01    -0.00  -0.01  -0.01
    17   8     0.01  -0.01  -0.01     0.01  -0.06   0.01    -0.02   0.02  -0.01
    18   8    -0.01  -0.02  -0.00    -0.00   0.01   0.03    -0.05  -0.01   0.07
    19   8     0.00  -0.01  -0.00     0.01  -0.01   0.02     0.05  -0.01   0.05
    20   6     0.02   0.32   0.03    -0.06  -0.14  -0.02     0.06  -0.05  -0.01
    21   6    -0.00  -0.04  -0.01    -0.01  -0.01  -0.05     0.02  -0.01   0.05
    22   6    -0.03  -0.01  -0.04    -0.01   0.02   0.03    -0.04  -0.00  -0.09
    23   6     0.00  -0.02  -0.05     0.01  -0.01   0.03    -0.00   0.02  -0.09
    24   6     0.00  -0.01  -0.00     0.01  -0.01   0.04     0.06  -0.01   0.10
    25   6    -0.01  -0.02   0.00     0.00   0.00   0.04    -0.01  -0.00   0.12
    26   6    -0.01   0.02   0.01    -0.04   0.00  -0.00     0.00   0.00  -0.01
    27   6     0.01   0.00  -0.01     0.00  -0.04   0.00    -0.01   0.02  -0.01
    28   6     0.02  -0.02   0.08     0.04   0.01   0.10    -0.00   0.00  -0.01
[...]
 0.00010993,-0.00001565,-0.00006856,-0.00004333,-0.00010572,0.00026976,
 0.00011538,-0.00079515,0.00007691,0.00022337,-0.00006655,-0.00067528,0
 .00035536,0.00046858,-0.00110540,0.00066824,-0.00106773,0.00050246,0.0
 0011229,-0.00029507,-0.00034816,-0.00016480,0.00006389,-0.00036969,-0.
 00010968,0.00018719,0.00018296,0.00004847,-0.00003566,0.00006734,0.000
 08824,-0.00002409,-0.00002717,-0.00000339,-0.00000955,-0.00001950,-0.0
 0000695,0.00000085,-0.00000295,-0.00001233,0.00000686,-0.00000678,-0.0
 0002004,-0.00000972,0.00002174,-0.00001716,-0.00001666,-0.00003058,-0.
 00001000,0.00000337,0.00001290,0.00002009,0.00002763,0.00000982,0.0000
 0684,0.00000793,-0.00002305,-0.00001075,-0.00000016,0.00001312,-0.0000
 0056,-0.00000246,-0.00000493,0.00000814,0.00001917,-0.00001292,-0.0000
 0542,-0.00000320,0.00000393,-0.00000084,-0.00000709,0.00001239,0.00000
 416,-0.00002412,-0.00000355,-0.00001795,0.00000603,-0.00001488,0.00001
 348,0.00002523,-0.00100089,-0.00104911,-0.00027921,-0.00002854,0.00000
 808,-0.00000801,-0.00000918,0.00000070,-0.00005785,0.00001357,0.000011
 69,0.00010382,0.00012496,-0.00096793,0.00024976,-0.00022195,0.00018967
 ,-0.00030876,-0.01444070,-0.10704210,-0.15574878,0.00237535,0.01579406
 ,0.02274678,0.00039012,0.15557343,0.17673141,-0.00003868,-0.00001259,-
 0.00015331,0.00023773,0.00086900,-0.00018044,0.00009742,0.00004885,-0.
 00030323,-0.00022832,0.00000213,0.00005781,-0.00038929,0.00004592,-0.0
 0018698,0.00020414,0.00002957,0.00004254,0.00050861,-0.00004689,0.0008
 2046,-0.00079230,-0.00008857,-0.00106058,-0.04667185,0.00916772,0.0125
 4434,-0.00137192,0.00099132,-0.00866626,0.00012982,-0.00068149,0.00000
 270,0.00005439,-0.00000693,-0.00025695,-0.00345054,-0.00014722,0.00016
 338,0.00007747,0.00043026,0.00004520,0.00012037,0.00059689,-0.00013571
 ,-0.00030821,-0.00022778,0.00041403,-0.00072192,0.00005629,0.00054777,
 -0.00048259,0.00039658,0.00000548,-0.00038456,0.00033966,0.00024511,0.
 00009930,-0.00003218,0.00013083,-0.00159272,-0.00020227,0.00520952,-0.
 00019106,-0.00034585,0.00006146,0.00012607,-0.00013153,0.00004309,0.00
 017527,-0.00019119,-0.00001764,0.00022369,-0.00013447,-0.00010676,0.00
 000307,0.00010243,-0.00016443,0.00015608,-0.00003850,-0.00045103,0.000
 01371,0.00029775,-0.00011026,0.00060614,-0.00059055,-0.00022759,-0.000
 01896,0.00000459,0.00000846,0.00073069,0.00026721,-0.00023816,-0.00002
 612,0.00024903,0.00005444,-0.00001057,-0.00057654,0.00011690,0.0000808
 9,-0.00069380,-0.00000919,-0.00000169,-0.00002027,-0.00000529,-0.00001
 552,0.00000689,0.00000517,0.00000867,0.00001890,0.00001309,0.00000356,
 -0.00004758,-0.00001696,0.00000499,-0.00000103,0.00003805,-0.00001822,
 0.00000173,0.00001445,0.00001021,-0.00004626,-0.00001891,-0.00001031,0
 .00002984,-0.00002177,-0.00013488,0.00005102,0.00021490,-0.00004134,-0
 .00016784,0.00004547,-0.00013135,0.00018196,0.00002742,0.00019803,-0.0
 0000902,-0.00020552,-0.00008391,-0.00003442,-0.00001226,-0.00000355,0.
 00005798,-0.00002528,-0.00000356,-0.00006354,0.00001964,0.00000274,-0.
 00001117,-0.00003592,-0.00002851,-0.00002907,-0.00000572,-0.00003449,-
 0.00002092,0.00000360,0.00001788,0.00000627,0.00002396,0.00000093,0.00
 001397,-0.00000787,0.00002105,-0.00004009,-0.00003948,-0.00004721,-0.0
 0001320,0.00000101,0.00000797,0.00006284,0.00001848,0.00001923,0.00000
 288,0.00003206,-0.00005101,0.00001622,0.00001647,-0.00001918,0.0000181
 0,0.00006507,0.00001371,-0.00003204,-0.00002674,-0.00000991,0.00000786
 ,-0.00001002,0.00008996,-0.00016545,0.00004978,0.00000728,-0.00009662,
 -0.00011195,-0.00011073,0.00002821,0.00010348,0.00002535,0.00022555,-0
 .00008816,-0.00001081,0.00001280,0.00001278,0.00001375,-0.00001212,0.0
 0000528,-0.00002982,0.00002206,0.00000020,0.00001036,-0.00000725,-0.00
 000417,-0.00003336,0.00002060,0.00001485,-0.00003569,0.00000989,0.0000
 1510,0.00001113,-0.00000780,-0.00001057,0.00002852,-0.00000520,-0.0000
 0433,-0.00002492,0.00001674,0.00000573,0.00000509,-0.00000786,-0.00001
 623,-0.00002227,0.00002336,0.00001317,0.00001027,-0.00001130,0.0000004
 9,-0.00001160,0.00003210,-0.00000037,0.00001442,-0.00001787,-0.0000087
 5,0.00000953,-0.00002511,0.00001006,-0.00002642,0.00003630,0.00000188,
 -0.00008691,0.00000817,-0.00001191,0.00000040,-0.00002715,0.00000068,0
 .00002632,0.00003382,-0.00001610,-0.00002941,0.00003769,0.00001179,0.0
 0001926,0.00003309,-0.00004481,0.00000328,0.00005442,0.00001186,-0.000
 01867,-0.00001142,-0.00001647,0.00001478,-0.00001511,0.00000200,0.0000
 7442,-0.00000208,-0.00004076,-0.00001986,-0.00001222,-0.00003062,-0.00
 000325,0.00007208,0.00002674,-0.00008634,-0.00004479,0.00002970,-0.000
 12024,-0.00010381,-0.00004979,0.00001368,0.00016388,0.00001626,0.00008
 529,-0.00011044,-0.00017868,0.00001546,-0.00012260,0.00026222,0.000697
 24,0.00046428,0.00000600,-0.00048588,-0.00034153,-0.00011069,-0.000567
 92,-0.00026542,0.00009458,0.00024925,0.00007088,-0.00000384,0.00014821
 ,0.00017484,0.00002196,-0.00003400,0.00000067,-0.00000555,-0.00002558,
 -0.00000835,-0.00000233,-0.00001599,-0.00001843,0.00000753,-0.00001008
 ,-0.00002171,0.00000242,0.00002235,-0.00001999,-0.00000545,-0.00004232
 ,-0.00000789,0.00000093,0.00001975,0.00001452,0.00000756,0.00001342,0.
 00000384,-0.00001229,-0.00003048,-0.00001629,0.00000237,0.00001198,0.0
 0000471,0.00000526,0.00000685,0.00001126,0.00000928,-0.00002526,-0.000
 01966,-0.00000421,0.00000538,0.00000995,-0.00000453,0.00001349,0.00002
 590,0.00000251,-0.00002480,-0.00003725,-0.00000111,0.00001543,0.000008
 97,-0.00000179,0.00088303,-0.00011169,-0.00032344,-0.00002673,0.000000
 77,-0.00001683,-0.00001562,0.00000989,-0.00006191,0.00003823,0.0000025
 1,0.00004359,0.00007151,0.00017498,-0.00271648,-0.00013394,0.00002982,
 -0.00024192,-0.28976656,0.03577352,0.04078553,-0.03233624,-0.02365100,
 0.03718793,-0.01087761,0.03177289,0.02624335,0.38577506,0.00002850,0.0
 0019334,0.00002190,0.00015759,-0.00043797,-0.00002274,-0.00001065,0.00
 001009,0.00003823,0.00002775,0.00000348,-0.00000876,0.00004615,0.00000
 393,0.00002947,-0.00002724,0.00004095,-0.00000717,-0.00012907,-0.00005
 053,-0.00005057,0.00016948,0.00001118,0.00015489,0.00724369,0.00827870
 ,-0.00189079,0.00048023,0.00151491,0.00137518,-0.00021991,-0.00022076,
 -0.00010881,-0.00000425,-0.00001951,0.00001832,0.00038987,-0.00075721,
 -0.00023315,0.00028470,0.00019424,0.00009239,0.00012095,0.00008504,0.0
 0005258,0.00006601,0.00010105,-0.00008743,0.00014891,0.00012404,-0.000
 04814,0.00006289,-0.00000684,-0.00000086,0.00005111,0.00001161,-0.0000
 1471,-0.00001386,0.00000893,-0.00001768,0.00010955,-0.00030022,-0.0008
 3307,-0.00000690,-0.00006143,-0.00008157,-0.00037775,-0.00003474,0.000
 01945,-0.00002939,-0.00000826,-0.00000230,-0.00003623,0.00000748,0.000
 00940,0.00001167,-0.00008202,0.00005440,-0.00001647,-0.00000554,0.0000
 8500,0.00023569,-0.00019003,0.00019031,-0.00008391,-0.00002124,0.00000
 799,0.00000144,-0.00000804,-0.00000141,-0.00014492,-0.00015180,0.00002
 123,0.00006782,-0.00010175,-0.00008293,-0.00011984,0.00024972,-0.00001
 738,-0.00025172,0.00036862,-0.00000115,-0.00003434,0.00001993,0.000027
 10,-0.00001581,-0.00001470,0.00000456,0.00000271,-0.00000512,-0.000014
 62,0.00000479,0.00001506,0.00000338,0.00000073,0.00002376,0.00001622,-
 0.00002243,-0.00001266,-0.00000264,0.00000290,0.00002347,0.00000133,0.
 00001539,-0.00001553,-0.00003093,-0.00015982,0.00004848,-0.00014254,0.
 00002992,0.00009974,-0.00001476,0.00006343,-0.00007317,0.00012009,0.00
 008284,-0.00003115,0.00000814,-0.00005350,0.00001852,-0.00003412,0.000
 00790,-0.00001218,0.00003368,0.00000719,0.00002587,0.00000241,-0.00001
 972,-0.00001936,-0.00002238,0.00000012,0.00002554,-0.00000539,0.000012
 45,0.00000581,-0.00000305,-0.00000167,-0.00000520,-0.00000284,-0.00001
 360,0.00000611,0.00000557,0.00002906,0.00002008,-0.00002872,0.00000357
 ,0.00000985,0.00000488,-0.00000103,-0.00000739,0.00001797,-0.00000336,
 0.00000005,-0.00000849,-0.00003670,-0.00002864,-0.00000557,0.00000591,
 0.00000317,-0.00001118,0.00001121,0.00003675,0.00000342,-0.00000065,0.
 00000870,0.00000038,-0.00000322,-0.00019246,-0.00005038,-0.00000075,0.
 00004364,0.00004514,0.00000673,0.00003522,-0.00001230,0.00000695,0.000
 07812,-0.00000556,0.00000211,0.00000576,0.00000037,-0.00000260,-0.0000
 0188,0.00000071,0.00000270,-0.00000291,-0.00000032,0.00000471,0.000004
 71,-0.00000047,0.00000464,0.00000219,0.00000087,0.00000499,-0.00000066
 ,-0.00000175,0.00000031,-0.00000070,0.00000503,-0.00000155,-0.00000108
 ,-0.00000267,-0.00000290,-0.00000594,-0.00000144,0.00000019,0.00000159
 ,0.00000394,0.00000354,-0.00000158,-0.00000333,0.00000049,0.00000712,-
 0.00000082,-0.00000122,0.00000249,0.00001203,-0.00000447,-0.00000063,0
 .00000832,-0.00000411,0.00000679,-0.00001508,0.00000738,-0.00000252,-0
 .00000115,0.00008280,-0.00000432,0.00002448,-0.00002385,0.00000930,0.0
 0001260,-0.00000481,0.00001613,-0.00000297,0.00002655,-0.00003795,-0.0
 0000628,0.00001295,0.00002000,0.00004175,-0.00000331,0.00000211,-0.000
 00650,0.00001021,-0.00000980,0.00001789,0.00000708,-0.00000392,-0.0000
 0973,-0.00001177,0.00003790,0.00001247,0.00002287,-0.00001481,0.000024
 29,0.00000011,0.00001773,-0.00001137,0.00000471,-0.00003717,-0.0000418
 6,0.00024800,-0.00001382,-0.00003494,-0.00000149,0.00008310,-0.0000090
 5,-0.00013037,0.00004019,0.00015594,-0.00010508,0.00000570,-0.00015764
 ,-0.00011342,-0.00014745,-0.00001474,0.00006741,0.00010119,0.00002764,
 0.00008692,0.00007914,-0.00000735,-0.00002730,-0.00001997,0.00000269,-
 0.00002519,-0.00005175,0.00000095,0.00000523,0.00000135,-0.00000152,0.
 00000499,-0.00000303,0.00000532,0.00000440,0.00000791,-0.00000258,0.00
 000370,0.00000707,-0.00000579,-0.00000324,0.00000606,0.00000051,0.0000
 0497,0.00000086,-0.00000046,-0.00000243,-0.00000310,-0.00000097,0.0000
 0055,-0.00000086,0.00000484,0.00000040,0.00000515,-0.00000003,0.000004
 03,0.00000297,-0.00000591,-0.00000113,-0.00000331,0.00000182,0.0000055
 5,0.00000437,0.00000068,-0.00000570,0.00000033,-0.00000322,0.00000353,
 -0.00000605,-0.00000003,0.00000563,0.00000745,-0.00000121,-0.00000306,
 -0.00000101,0.00000228,-0.00010904,-0.00016756,0.00007214,0.00000293,-
 0.00000831,0.00000093,0.00000144,-0.00000585,0.00000673,-0.00000446,-0
 .00001149,-0.00000886,0.00001996,-0.00031139,0.00034274,0.00001526,-0.
 00001044,0.00003209,0.03573655,-0.08113261,-0.00682011,-0.03583207,0.0
 0551184,0.01953652,0.04559208,-0.02184468,-0.03054970,-0.05374636,0.08
 899038,-0.00006146,-0.00000401,0.00022767,0.00005843,0.00044123,-0.000
 30539,0.00002175,0.00000849,-0.00005350,-0.00005650,0.00000280,-0.0000
 0350,-0.00005751,0.00001819,-0.00006753,0.00001926,-0.00001130,0.00023
 451,-0.00028676,0.00000655,0.00049001,-0.00078078,0.00005164,0.0013969
 6,-0.02029009,0.00294581,0.01039853,0.00008324,0.00019686,-0.00349138,
 -0.00009842,-0.00047440,-0.00039989,-0.00017465,0.00000659,-0.00006822
 ,-0.00185404,0.00009363,-0.00024400,0.00027191,0.00030769,0.00026407,0
 .00003102,0.00027608,0.00015189,0.00013293,-0.00002480,0.00042280,0.00
 032386,0.00007447,0.00074734,-0.00014297,0.00012745,0.00007216,-0.0001
 0121,0.00011956,0.00020369,-0.00001582,-0.00000626,0.00005537,-0.00024
 019,0.00031902,-0.00312654,0.00001261,-0.00016030,-0.00013885,-0.00033
 783,-0.00005578,0.00004581,0.00002318,-0.00004608,-0.00001444,0.000062
 14,-0.00004497,-0.00005646,-0.00015826,-0.00002429,-0.00012609,-0.0001
 8642,0.00004621,-0.00036770,-0.00023835,0.00019710,-0.00007983,0.00024
 410,-0.00022058,-0.00026386,-0.00001076,0.00000013,-0.00001099,-0.0002
 1502,-0.00000357,-0.00084908,-0.00002962,0.00007537,-0.00001760,0.0000
 3468,-0.00023757,0.00019417,0.00003877,-0.00032048,0.00013821,0.000013
 28,-0.00002428,0.00000739,-0.00000522,0.00000392,0.00000094,0.00001222
 ,0.00000380,0.00001488,-0.00000134,-0.00000435,-0.00000611,-0.00004080
 ,-0.00003773,-0.00002778,0.00000136,-0.00000258,0.00001136,0.00000469,
 -0.00000433,0.00000679,0.00000724,0.00000888,0.00001639,0.00031671,-0.
 00006636,-0.00011449,-0.00002220,-0.00008949,-0.00001119,-0.00003312,0
 .00001592,0.00003346,-0.00015471,0.00010292,0.00002124,0.00010151,-0.0
 0000611,0.00001820,-0.00002107,0.00000045,0.00000831,0.00000091,-0.000
 02107,-0.00000231,0.00000321,0.00002335,0.00002657,0.00001448,-0.00000
 584,0.00001864,0.00000944,0.00001451,-0.00000698,-0.00000809,-0.000001
 53,0.00002899,0.00000400,-0.00001525,-0.00000674,0.00000690,0.00001060
 ,0.00004028,0.00004368,0.00001223,-0.00001307,-0.00003255,-0.00002776,
 -0.00005536,-0.00000608,-0.00002277,0.00004617,0.00005504,-0.00002287,
 0.00009847,-0.00001418,0.00001665,0.00001373,-0.00001783,0.00002839,-0
 .00001838,0.00003647,-0.00002908,-0.00002266,-0.00005963,0.00011806,0.
 00004840,-0.00001405,0.00014789,0.00006265,0.00009613,-0.00002765,-0.0
 0002456,-0.00005987,-0.00022601,0.00003410,-0.00000430,0.00000752,-0.0
 0000732,-0.00000068,0.00000624,0.00001411,-0.00000406,-0.00000053,0.00
 000536,0.,0.00000118,-0.00000621,-0.00001206,0.00000894,0.00001061,-0.
 00001166,0.00000302,0.00000191,0.00000646,-0.00000079,0.00000596,0.000
 00632,-0.00000307,-0.00000490,-0.00001053,0.00000505,0.00000847,0.0000
 0642,-0.00000136,0.00000380,-0.00000791,0.00000803,0.00000112,0.000003
 07,-0.00000128,-0.00000552,-0.00001033,0.00001286,-0.00000999,0.000000
 32,0.00000300,0.00001355,-0.00000416,-0.00000566,-0.00000442,0.0000022
 3,0.00000731,0.00000308,0.00004769,0.00000508,0.00000150,-0.00001784,0
 .00001005,0.00003206,-0.00000244,0.00001425,-0.00000407,0.00001415,-0.
 00001946,-0.00000328,0.00000112,0.00002695,0.00005806,0.00000063,0.000
 01780,-0.00000737,0.00001488,-0.00001677,0.00001935,-0.00001192,-0.000
 00198,-0.00000597,0.00004287,-0.00002236,0.00004396,0.00001284,-0.0000
 1720,0.00002557,0.00000124,0.00003370,-0.00000792,-0.00001851,-0.00000
 085,-0.00004682,0.00026259,-0.00003307,-0.00018584,0.00000117,0.000066
 04,-0.00001393,-0.00015736,0.00005652,0.00021824,-0.00006612,0.0000160
 5,-0.00013123,0.00019686,0.00012120,-0.00010694,-0.00013427,-0.0000917
 7,0.00002359,-0.00016823,-0.00007862,0.00008575,0.00006532,0.00001791,
 -0.00001556,0.00002438,0.00005279,-0.00001410,-0.00001113,-0.00000229,
 -0.00000081,-0.00000956,0.00000075,-0.00000269,-0.00000183,-0.00001108
 ,0.00000275,-0.00000544,-0.00001321,-0.00000362,0.00000826,-0.00000746
 ,-0.00000565,-0.00001023,-0.00000338,0.00000032,0.00000378,0.00000707,
 0.00001108,0.00000218,0.00000208,0.00000335,-0.00000639,-0.00000602,-0
 .00000084,0.00000214,-0.00000260,0.00000080,-0.00000315,0.00000437,0.0
 0000705,-0.00000664,-0.00000151,-0.00000098,0.00000435,-0.00000217,-0.
 00000073,0.00000155,0.00000078,-0.00001426,-0.00000013,-0.00000776,0.0
 0000496,-0.00000992,0.00000678,0.00001245,-0.00026931,0.00000382,-0.00
 012983,-0.00001135,-0.00000044,-0.00000450,-0.00000143,0.00000091,-0.0
 0001480,-0.00000108,-0.00001265,0.00006148,-0.00240853,0.00024566,0.00
 073416,0.00011183,-0.00001216,0.00001591,0.04800485,-0.00814129,-0.093
 81037,0.04956283,0.01553079,-0.01976881,0.03794932,-0.03015107,-0.0140
 3135,-0.10922093,0.01881232,0.12133460\\-0.00001127,0.00000715,-0.0000
 0255,0.00000334,0.00000596,0.00001265,-0.00000476,-0.00000008,0.000005
 71,-0.00000526,0.00000037,-0.00000438,-0.00000189,0.00000045,-0.000004
 01,-0.00000062,-0.00000288,0.00000809,0.00000069,0.00000110,0.00001316
 ,-0.00000126,0.00000457,0.00000100,-0.00000388,0.00000944,0.00000428,0
 .00000444,0.00000691,0.00000971,-0.00000226,-0.00000195,0.00000328,0.0
 0000152,-0.00000441,-0.00001333,0.00000342,0.00000043,-0.00002201,-0.0
 0000587,0.00000609,-0.00000341,0.00000020,0.00000605,-0.00000493,0.000
 01173,-0.00000362,-0.00000242,0.00000259,-0.00000715,0.00000064,0.0000
 0130,-0.00000088,0.00000486,-0.00000634,0.00000278,-0.00000230,0.00000
 538,0.00000068,0.00000252,0.00000389,0.00000175,-0.00000528,0.00000145
 ,0.00000400,0.00000035,0.00000712,0.00000540,-0.00000670,0.00000495,-0
 .00000415,-0.00000730,0.00000037,-0.00000459,-0.00000163,-0.00000786,-
 0.00000510,-0.00000994,0.00000441,0.00001250,0.00000196,0.00000836,0.0
 0000422,-0.00000582,-0.00001266,-0.00000479,0.00000882,0.00000556,-0.0
 0000263,-0.00000153,-0.00001286,0.00000525,0.00001283,-0.00000286,0.00
 000210,0.00000858,0.00000418,-0.00000253,-0.00000421,0.00000036,0.0000
 0065,0.00000237,0.00001013,-0.00000568,0.00000027,0.00000389,-0.000002
 47,0.00000114,0.00000199,-0.00000062,-0.00000160,0.00000127,0.00000018
 ,0.00000047,0.00000796,0.00000612,0.00000230,0.00000134,0.00000092,0.0
 0000136,0.00000378,-0.00000017,-0.00000005,0.00000203,0.00000095,-0.00
 000087,0.00000049,-0.00001266,0.00000826,0.00000151,0.00000710,-0.0000
 0011,0.00000059,0.00000291,-0.00000193,0.00000857,0.00000660,-0.000000
 65,0.00000292,-0.00000318,0.00000015,0.00000327,0.00000314,0.00000137,
 0.00000296,0.00000119,0.00000122,0.00000389,0.00000091,0.00000202,0.00
 000779,-0.00000068,0.00000095,-0.00000108,-0.00000278,0.00000036,-0.00
 000004,0.00000024,-0.00000205,-0.00000254,0.00000469,-0.00000177,-0.00
 000197,0.00000153,0.00001291,0.00000217,-0.00000042,-0.00000014,0.0000
 0445,-0.00000023,-0.00000299,0.00000019,0.00000048,-0.00000442,-0.0000
 0515,-0.00000263,0.00000541,-0.00000078,0.00000012,-0.00000418,0.00000
 166,0.00000252,-0.00000131,-0.00000305,0.00000121,0.00000084,0.0000066
 8,-0.00000129,-0.00000082,-0.00000223,0.00000076,0.00000242,-0.0000012
 8,0.00000260,-0.00000089,0.00000051,0.00000520,-0.00000105,-0.00000408
 ,-0.00000298,0.00000824,-0.00000317,-0.00000066,-0.00000055,-0.0000018
 0,-0.00000351,-0.00000091,0.00000306,-0.00000037,-0.00000101,-0.000002
 65,-0.00000361,-0.00000332,0.00000141,-0.00000361,-0.00000320,-0.00000
 176,-0.00000406,0.00000100,-0.00000258,-0.00000205,-0.00000220,-0.0000
 0639,0.00000315,-0.00000028,-0.00000262,-0.00000468,-0.00000476,-0.000
 00148,-0.00000322,-0.00000259,-0.00000128,-0.00000116,-0.00000183,0.00
 000455,-0.00000336,0.00000291,-0.00000311,0.00000101,0.00000035,-0.000
 00419,-0.00000323,-0.00000081,-0.00000371,-0.00000205,-0.00000029,-0.0
 0000227,-0.00000201,0.00000554,-0.00000378,0.00000302,-0.00000386,-0.0
 0000270,0.00000429,-0.00000196,-0.00000601,0.00000116,-0.00000141,-0.0
 0000755,0.00000044,-0.00000169,-0.00000435,-0.00000336,-0.00000187,-0.
 00000167,0.00000066,0.00000219,-0.00000554,-0.00000162,-0.00000291,-0.
 00000634,-0.00000228,-0.00000009,-0.00000359,0.00000225,-0.00000273,-0
 .00000365,0.00000108,-0.00000032,0.00000055,0.00000571,-0.00000311,-0.
 00000583,-0.00000200,0.00000119,-0.00000232,0.00000266,-0.00000126,-0.
 00000242,0.00000368,0.00000023,-0.00000247,-0.00000206,0.00000242,0.00
 000472,-0.00000469,-0.00000378,0.00000138,-0.00000192,-0.00000144,-0.0
 0000299,-0.00000347,0.00000340,-0.00000180,-0.00000378,-0.00001043,0.0
 0000104,0.00000551,0.00000488,0.00000053,0.00000038,0.00000822,0.00000
 120,-0.00000558,0.00000029,0.00000208,-0.00000382,0.00000628,-0.000004
 33,-0.00000822,-0.00000260,0.00000009,-0.00000629,0.00000032,0.0000049
 5,-0.00000428,-0.00000106,-0.00000002,-0.00000498,-0.00000286,0.000003
 18,-0.00000255,0.00000001,0.00000467,-0.00000186,0.00000016,0.00000295
 ,-0.00000011,-0.00000122,-0.00000056,-0.00000301,-0.00000164,0.0000025
 6,-0.00000519,-0.00000137,0.00000091,-0.00000206,-0.00000227,0.0000006
 3,0.00000204,0.00000362,0.00000511,0.00000099,0.00000165,0.00000386,0.
 00000280,0.00000583,0.00000062,0.00000138,-0.00000282,0.00000142,-0.00
 000176,-0.00000030,-0.00000037,-0.00000100,-0.00000178,0.00000221,0.00
 000011,-0.00000081,-0.00000333,0.00000316,0.00000256,0.00000128,0.0000
 0181,-0.00000265,-0.00000458,-0.00001360,0.00000001,0.00000337,0.00000
 572,-0.00000468,0.00000632,0.00001152,0.00000361,-0.00000489,0.0000058
 5,0.00000409\\\@
 The archive entry for this job was punched.


 This summer one third of the nation will be ill-housed
 ill-nourished and ill-clad. Only they call it a vacation.
 -- Jonas Salk
 Job cpu time:       3 days 16 hours 30 minutes 18.5 seconds.
 Elapsed time:       0 days  5 hours 37 minutes 19.9 seconds.
 File lengths (MBytes):  RWF=  14805 Int=      0 D2E=      0 Chk=     71 Scr=      1
 Normal termination of Gaussian 16 at Sun Dec  8 00:26:25 2024.
