/mnt/lustre/scratch/nvme/SLURM/9663620/usccqdma.Lq1mb36bnz
OMP_STACKSIZE=0m
GAUSS_PDEF=16
GAUSS_MDEF=65536MB
GAUSS_RDEF=SCF=Direct
 Entering Gaussian System, Link 0=g16.exe
 Initial command:
 /opt/cesga/2020/software/Core/g16/c1/l1.exe "/mnt/lustre/scratch/nvme/SLURM/9663620/usccqdma.Lq1mb36bnz/Gau-214518.inp" -scrdir="/mnt/lustre/scratch/nvme/SLURM/9663620/usccqdma.Lq1mb36bnz/"
 Default is to use a total of  16 processors:
                               16 via shared-memory
                                1 via Linda
 Entering Link 1 = /opt/cesga/2020/software/Core/g16/c1/l1.exe PID=    214544.
  
 Copyright (c) 1988-2019, Gaussian, Inc.  All Rights Reserved.
  
 This is part of the Gaussian(R) 16 program.  It is based on
 the Gaussian(R) 09 system (copyright 2009, Gaussian, Inc.),
 the Gaussian(R) 03 system (copyright 2003, Gaussian, Inc.),
 the Gaussian(R) 98 system (copyright 1998, Gaussian, Inc.),
 the Gaussian(R) 94 system (copyright 1995, Gaussian, Inc.),
 the Gaussian 92(TM) system (copyright 1992, Gaussian, Inc.),
 the Gaussian 90(TM) system (copyright 1990, Gaussian, Inc.),
 the Gaussian 88(TM) system (copyright 1988, Gaussian, Inc.),
 the Gaussian 86(TM) system (copyright 1986, Carnegie Mellon
 University), and the Gaussian 82(TM) system (copyright 1983,
 Carnegie Mellon University). Gaussian is a federally registered
 trademark of Gaussian, Inc.
  
 This software contains proprietary and confidential information,
 including trade secrets, belonging to Gaussian, Inc.
  
 This software is provided under written license and may be
 used, copied, transmitted, or stored only in accord with that
 written license.
  
 The following legend is applicable only to US Government
 contracts under FAR:
  
                    RESTRICTED RIGHTS LEGEND
  
 Use, reproduction and disclosure by the US Government is
 subject to restrictions as set forth in subparagraphs (a)
 and (c) of the Commercial Computer Software - Restricted
 Rights clause in FAR 52.227-19.
  
 Gaussian, Inc.
 340 Quinnipiac St., Bldg. 40, Wallingford CT 06492
  
  
 ---------------------------------------------------------------
 Warning -- This program may not be used in any manner that
 competes with the business of Gaussian, Inc. or will provide
 assistance to any competitor of Gaussian, Inc.  The licensee
 of this program is prohibited from giving any competitor of
 Gaussian, Inc. access to this program.  By using this program,
 the user acknowledges that Gaussian, Inc. is engaged in the
 business of creating and licensing software in the field of
 computational chemistry and represents and warrants to the
 licensee that it is not a competitor of Gaussian, Inc. and that
 it will not use this program in any manner prohibited above.
 ---------------------------------------------------------------
  

 Cite this work as:
 Gaussian 16, Revision C.01,
 M. J. Frisch, G. W. Trucks, H. B. Schlegel, G. E. Scuseria, 
 M. A. Robb, J. R. Cheeseman, G. Scalmani, V. Barone, 
 G. A. Petersson, H. Nakatsuji, X. Li, M. Caricato, A. V. Marenich, 
 J. Bloino, B. G. Janesko, R. Gomperts, B. Mennucci, H. P. Hratchian, 
 J. V. Ortiz, A. F. Izmaylov, J. L. Sonnenberg, D. Williams-Young, 
 F. Ding, F. Lipparini, F. Egidi, J. Goings, B. Peng, A. Petrone, 
 T. Henderson, D. Ranasinghe, V. G. Zakrzewski, J. Gao, N. Rega, 
 G. Zheng, W. Liang, M. Hada, M. Ehara, K. Toyota, R. Fukuda, 
 J. Hasegawa, M. Ishida, T. Nakajima, Y. Honda, O. Kitao, H. Nakai, 
 T. Vreven, K. Throssell, J. A. Montgomery, Jr., J. E. Peralta, 
 F. Ogliaro, M. J. Bearpark, J. J. Heyd, E. N. Brothers, K. N. Kudin, 
 V. N. Staroverov, T. A. Keith, R. Kobayashi, J. Normand, 
 K. Raghavachari, A. P. Rendell, J. C. Burant, S. S. Iyengar, 
 J. Tomasi, M. Cossi, J. M. Millam, M. Klene, C. Adamo, R. Cammi, 
 J. W. Ochterski, R. L. Martin, K. Morokuma, O. Farkas, 
 J. B. Foresman, and D. J. Fox, Gaussian, Inc., Wallingford CT, 2019.
 
 ******************************************
 Gaussian 16:  ES64L-G16RevC.01  3-Jul-2019
                 7-Dec-2024 
 ******************************************
 Default route: SCF=Direct
 ----------------------------------------------------
 # m06/genecp scf=tight int=ultrafine 5d freq=noraman
 ----------------------------------------------------
 1/10=4,30=1,38=1/1,3;
 2/12=2,17=6,18=5,40=1/2;
 3/5=7,8=1,11=2,16=1,17=8,25=1,30=1,71=2,74=-54,75=-5,140=1/1,2,3;
 4//1;
 5/5=2,32=2,38=5,98=1/2;
 8/6=4,10=90,11=11/1;
 11/6=1,8=1,9=11,15=111,16=1/1,2,10;
 10/6=1/2;
 6/7=2,8=2,9=2,10=2,28=1/1;
 7/8=1,10=1,25=1/1,2,3,16;
 1/10=4,30=1/3;
 99//99;
 ------
 OPT-TS
 ------
 Symbolic Z-matrix:
 Charge =  0 Multiplicity = 1
 C                    -1.07143  -2.12061  -1.2221 
 C                    -2.76164  -0.73391  -0.47368 
 C                    -3.73163  -1.52211  -1.07003 
 C                    -3.3475   -2.65951  -1.76968 
 C                    -1.99893  -2.9578   -1.8376 
 C                     0.36945  -2.39131  -1.25293 
 C                     2.4302   -1.84198  -0.39476 
 C                     3.08313  -2.63164  -1.32643 
 C                     2.32822  -3.34391  -2.25495 
 C                     0.95257  -3.22392  -2.21374 
 H                    -3.03346   0.16526   0.06586 
 H                    -4.09065  -3.30649  -2.23047 
 H                    -1.66598  -3.86685  -2.32973 
 H                     2.97995  -1.23678   0.32133 
 H                     2.816    -3.96487  -3.00458 
 H                     0.33796  -3.73476  -2.94998 
 N                    -1.45321  -1.00811  -0.55592 
 N                     1.1031   -1.72673  -0.34926 
 Ir                   -0.08222   0.1893    0.54991 
 O                     1.04563   0.40155  -2.29373 
 O                     2.78519   0.42458   1.51219 
 O                    -2.00241   2.01751  -0.89307 
 B                     1.48059   0.59508   1.93847 
 B                     0.88005   1.08376  -1.09416 
 B                    -1.04707   1.9263    0.12145 
 O                    -0.93804   3.13361   0.79347 
 O                     1.61179   2.26155  -1.1 
 C                     2.52207   2.19931  -2.21029 
 C                     1.77453   1.25403  -3.19281 
 C                    -2.72712   3.24177  -0.69153 
 C                    -1.68124   4.11675   0.05724 
 C                     3.58836   0.20889   2.69447 
 C                     2.7707    0.97422   3.77109 
 O                     1.42152   0.80349   3.29786 
 C                     0.74644   1.97546  -4.05321 
 H                     0.12507   1.2276   -4.56142 
 H                     0.08043   2.5947   -3.43689 
 H                     1.21775   2.60998  -4.81583 
 C                     2.66934   0.39586  -4.06419 
 H                     3.32081  -0.25298  -3.4681 
 H                     2.0515   -0.24572  -4.70659 
 H                     3.29953   1.01945  -4.71481 
 C                     2.76856   3.60082  -2.73069 
 H                     3.41278   3.58006  -3.62171 
 H                     1.83379   4.11155  -2.98791 
 H                     3.27458   4.19627  -1.96001 
 C                     3.82343   1.60777  -1.68006 
 H                     4.6042    1.56604  -2.45149 
 H                     4.18063   2.2347   -0.85322 
 H                     3.66889   0.59731  -1.27553 
 C                     3.63802  -1.29217   2.95244 
 H                     2.62829  -1.71019   3.07582 
 H                     4.11943  -1.79719   2.1053 
 H                     4.22471  -1.52611   3.84997 
 C                     4.98103   0.73494   2.42141 
 H                     5.61927   0.63486   3.3107 
 H                     5.4348    0.15142   1.60816 
 H                     4.96594   1.78615   2.1144 
 C                     2.87118   0.41236   5.17372 
 H                     2.26851   1.02137   5.85884 
 H                     2.50026  -0.61696   5.2244 
 H                     3.91176   0.43228   5.52773 
 C                     3.0554    2.46918   3.7812 
 H                     2.29563   2.96852   4.39449 
 H                     4.04361   2.68975   4.20649 
 H                     3.00373   2.89318   2.76988 
 C                    -0.70448   4.80993  -0.88237 
 H                    -1.17569   5.63989  -1.42606 
 H                     0.13019   5.20616  -0.29048 
 H                    -0.28098   4.09786  -1.60177 
 C                    -2.26993   5.11903   1.02886 
 H                    -2.85015   4.62662   1.81705 
 H                    -1.46244   5.68527   1.50981 
 H                    -2.92108   5.8342    0.50571 
 C                    -3.94978   2.90695   0.15449 
 H                    -4.59669   3.78056   0.30933 
 H                    -4.54005   2.13801  -0.363 
 H                    -3.65894   2.51326   1.13897 
 C                    -3.17013   3.77912  -2.03687 
 H                    -3.89181   3.08807  -2.49153 
 H                    -3.66015   4.75679  -1.92364 
 H                    -2.32736   3.88865  -2.72782 
 H                     0.48146   1.47552   1.39611 
 C                    -2.65871  -2.54427   1.91196 
 O                    -1.92901  -3.36847   1.36074 
 C                    -4.12964  -2.85472   2.16228 
 H                    -4.3132   -2.84054   3.24889 
 H                    -4.76636  -2.05692   1.75402 
 C                    -0.76216  -1.04265   2.29958 
 H                    -0.52166  -0.54918   3.24857 
 H                    -0.2369   -2.00518   2.26547 
 N                    -2.19358  -1.33587   2.33441 
 C                    -3.01164  -0.32321   2.96137 
 H                    -2.57014   0.65753   2.7312 
 H                    -4.04033  -0.3283    2.58294 
 H                    -3.03969  -0.43061   4.05802 
 C                    -4.53699  -4.18875   1.56727 
 H                    -4.43048  -4.17564   0.47463 
 H                    -3.9018   -4.9983    1.94156 
 C                    -5.16306  -1.09602  -0.9924 
 F                    -5.48211  -0.26888  -1.99427 
 F                    -5.98975  -2.14326  -1.05517 
 F                    -5.42554  -0.43719   0.14759 
 C                     4.57557  -2.65715  -1.39614 
 F                     5.03913  -3.90707  -1.49794 
 F                     5.01717  -1.99225  -2.47415 
 F                     5.14173  -2.09462  -0.32268 
 H                    -5.58303  -4.41774   1.8048 
 

 GradGradGradGradGradGradGradGradGradGradGradGradGradGradGradGradGradGrad
 Berny optimization.
 Initialization pass.
 Trust Radius=3.00D-01 FncErr=1.00D-07 GrdErr=1.00D-07 EigMax=2.50D+02 EigMin=1.00D-04
 Number of steps in this run=      2 maximum allowed number of steps=      2.
 GradGradGradGradGradGradGradGradGradGradGradGradGradGradGradGradGradGrad

 Stoichiometry    C35H53B3F6IrN3O7
 Framework group  C1[X(C35H53B3F6IrN3O7)]
 Deg. of freedom   318
 Full point group                 C1      NOp   1
 Largest Abelian subgroup         C1      NOp   1
 Largest concise Abelian subgroup C1      NOp   1
                         Standard orientation:                         
 ---------------------------------------------------------------------
 Center     Atomic      Atomic             Coordinates (Angstroms)
 Number     Number       Type             X           Y           Z
 ---------------------------------------------------------------------
      1          6           0       -1.071430   -2.120610   -1.222100
      2          6           0       -2.761640   -0.733909   -0.473680
      3          6           0       -3.731630   -1.522109   -1.070030
      4          6           0       -3.347500   -2.659509   -1.769680
      5          6           0       -1.998930   -2.957799   -1.837600
      6          6           0        0.369450   -2.391310   -1.252930
      7          6           0        2.430200   -1.841981   -0.394760
      8          6           0        3.083130   -2.631641   -1.326430
      9          6           0        2.328219   -3.343911   -2.254950
     10          6           0        0.952569   -3.223920   -2.213740
     11          1           0       -3.033459    0.165261    0.065860
     12          1           0       -4.090651   -3.306488   -2.230470
     13          1           0       -1.665981   -3.866849   -2.329730
     14          1           0        2.979950   -1.236781    0.321330
     15          1           0        2.815999   -3.964871   -3.004580
     16          1           0        0.337959   -3.734760   -2.949980
     17          7           0       -1.453210   -1.008109   -0.555920
     18          7           0        1.103100   -1.726730   -0.349260
     19         77           0       -0.082219    0.189300    0.549910
     20          8           0        1.045631    0.401550   -2.293730
     21          8           0        2.785191    0.424579    1.512190
     22          8           0       -2.002409    2.017511   -0.893070
     23          5           0        1.480591    0.595079    1.938470
     24          5           0        0.880051    1.083760   -1.094160
     25          5           0       -1.047069    1.926300    0.121450
     26          8           0       -0.938038    3.133610    0.793470
     27          8           0        1.611792    2.261549   -1.100000
     28          6           0        2.522071    2.199309   -2.210290
     29          6           0        1.774531    1.254029   -3.192810
     30          6           0       -2.727118    3.241771   -0.691530
     31          6           0       -1.681238    4.116751    0.057240
     32          6           0        3.588361    0.208889    2.694470
     33          6           0        2.770701    0.974219    3.771090
     34          8           0        1.421521    0.803489    3.297860
     35          6           0        0.746441    1.975460   -4.053210
     36          1           0        0.125071    1.227600   -4.561420
     37          1           0        0.080432    2.594700   -3.436890
     38          1           0        1.217752    2.609980   -4.815830
     39          6           0        2.669341    0.395859   -4.064190
     40          1           0        3.320811   -0.252981   -3.468100
     41          1           0        2.051501   -0.245721   -4.706590
     42          1           0        3.299531    1.019449   -4.714810
     43          6           0        2.768562    3.600819   -2.730690
     44          1           0        3.412782    3.580059   -3.621710
     45          1           0        1.833792    4.111549   -2.987910
     46          1           0        3.274582    4.196269   -1.960010
     47          6           0        3.823431    1.607769   -1.680060
     48          1           0        4.604201    1.566038   -2.451490
     49          1           0        4.180631    2.234698   -0.853220
     50          1           0        3.668891    0.597309   -1.275530
     51          6           0        3.638020   -1.292171    2.952440
     52          1           0        2.628290   -1.710191    3.075820
     53          1           0        4.119430   -1.797192    2.105300
     54          1           0        4.224710   -1.526112    3.849970
     55          6           0        4.981031    0.734938    2.421410
     56          1           0        5.619271    0.634858    3.310700
     57          1           0        5.434801    0.151418    1.608160
     58          1           0        4.965941    1.786148    2.114400
     59          6           0        2.871181    0.412359    5.173720
     60          1           0        2.268511    1.021369    5.858840
     61          1           0        2.500260   -0.616961    5.224400
     62          1           0        3.911761    0.432279    5.527730
     63          6           0        3.055402    2.469179    3.781200
     64          1           0        2.295632    2.968519    4.394490
     65          1           0        4.043612    2.689748    4.206490
     66          1           0        3.003732    2.893179    2.769880
     67          6           0       -0.704478    4.809930   -0.882370
     68          1           0       -1.175687    5.639890   -1.426060
     69          1           0        0.130193    5.206160   -0.290480
     70          1           0       -0.280978    4.097860   -1.601770
     71          6           0       -2.269927    5.119031    1.028860
     72          1           0       -2.850148    4.626621    1.817050
     73          1           0       -1.462437    5.685271    1.509810
     74          1           0       -2.921077    5.834201    0.505710
     75          6           0       -3.949778    2.906952    0.154490
     76          1           0       -4.596688    3.780562    0.309330
     77          1           0       -4.540049    2.138012   -0.363000
     78          1           0       -3.658938    2.513261    1.138970
     79          6           0       -3.170128    3.779121   -2.036870
     80          1           0       -3.891808    3.088072   -2.491530
     81          1           0       -3.660148    4.756791   -1.923640
     82          1           0       -2.327358    3.888651   -2.727820
     83          1           0        0.481461    1.475520    1.396110
     84          6           0       -2.658710   -2.544269    1.911960
     85          8           0       -1.929011   -3.368469    1.360740
     86          6           0       -4.129640   -2.854718    2.162280
     87          1           0       -4.313200   -2.840538    3.248890
     88          1           0       -4.766360   -2.056918    1.754020
     89          6           0       -0.762160   -1.042650    2.299580
     90          1           0       -0.521660   -0.549180    3.248570
     91          1           0       -0.236900   -2.005180    2.265470
     92          7           0       -2.193580   -1.335869    2.334410
     93          6           0       -3.011639   -0.323209    2.961370
     94          1           0       -2.570139    0.657531    2.731200
     95          1           0       -4.040329   -0.328298    2.582940
     96          1           0       -3.039690   -0.430609    4.058020
     97          6           0       -4.536991   -4.188748    1.567270
     98          1           0       -4.430481   -4.175638    0.474630
     99          1           0       -3.901801   -4.998298    1.941560
    100          6           0       -5.163060   -1.096018   -0.992400
    101          9           0       -5.482109   -0.268878   -1.994270
    102          9           0       -5.989750   -2.143258   -1.055170
    103          9           0       -5.425540   -0.437188    0.147590
    104          6           0        4.575570   -2.657152   -1.396140
    105          9           0        5.039129   -3.907072   -1.497940
    106          9           0        5.017170   -1.992252   -2.474150
    107          9           0        5.141730   -2.094622   -0.322680
    108          1           0       -5.583031   -4.417738    1.804800
 ---------------------------------------------------------------------
 Rotational constants (GHZ):           0.0623016           0.0428612           0.0396866
 General basis read from cards:  (5D, 7F)
 ======================================================================================================
                                       Pseudopotential Parameters
 ======================================================================================================
  Center     Atomic      Valence      Angular      Power
  Number     Number     Electrons     Momentum     of R      Exponent        Coefficient   SO-Coeffient
 ======================================================================================================
    1          6
                                   No pseudopotential on this center.
    2          6
                                   No pseudopotential on this center.
    3          6
                                   No pseudopotential on this center.
    4          6
                                   No pseudopotential on this center.
    5          6
                                   No pseudopotential on this center.
    6          6
                                   No pseudopotential on this center.
    7          6
                                   No pseudopotential on this center.
    8          6
                                   No pseudopotential on this center.
    9          6
                                   No pseudopotential on this center.
   10          6
                                   No pseudopotential on this center.
   11          1
                                   No pseudopotential on this center.
   12          1
                                   No pseudopotential on this center.
   13          1
                                   No pseudopotential on this center.
   14          1
                                   No pseudopotential on this center.
   15          1
                                   No pseudopotential on this center.
   16          1
                                   No pseudopotential on this center.
   17          7
                                   No pseudopotential on this center.
   18          7
                                   No pseudopotential on this center.
   19         77           17
                                      G and up 
                                                     1      823.5880147       -0.15780140    0.00000000
                                                     2      364.6613336    -1517.52704460    0.00000000
                                                     2       55.7082801     -316.53065290    0.00000000
                                                     2       12.0464544      -91.88809410    0.00000000
                                                     2        3.5120610       -9.22417730    0.00000000
                                      S - G
                                                     0      188.0490770        3.15780140    0.00000000
                                                     1      340.4194712       26.83225770    0.00000000
                                                     2      128.2373673      800.42500070    0.00000000
                                                     2       33.8644961      369.40506830    0.00000000
                                                     2        4.7560005      242.41718990    0.00000000
                                                     2        3.9649974     -118.21732820    0.00000000
                                      P - G
                                                     0      289.7291139        2.15780140    0.00000000
                                                     1       87.4633789       61.96786100    0.00000000
                                                     2       30.4363766      269.05819860    0.00000000
                                                     2        4.0553412      231.16547930    0.00000000
                                                     2        3.5525341     -133.69526670    0.00000000
                                      D - G
                                                     0      136.4017106        3.15780140    0.00000000
                                                     1       95.0776925       45.93498030    0.00000000
                                                     2       49.2258410      359.03446680    0.00000000
                                                     2       15.0874145      176.47401190    0.00000000
                                                     2        4.0405764       54.51552860    0.00000000
                                      F - G
                                                     0      127.3507908        3.95461970    0.00000000
                                                     1       66.2364374       52.97736550    0.00000000
                                                     2       34.4299229      274.86433830    0.00000000
                                                     2       10.1995721      137.20473380    0.00000000
                                                     2        2.5409702       14.86333050    0.00000000
   20          8
                                   No pseudopotential on this center.
   21          8
                                   No pseudopotential on this center.
   22          8
                                   No pseudopotential on this center.
   23          5
                                   No pseudopotential on this center.
   24          5
                                   No pseudopotential on this center.
   25          5
                                   No pseudopotential on this center.
   26          8
                                   No pseudopotential on this center.
   27          8
                                   No pseudopotential on this center.
   28          6
                                   No pseudopotential on this center.
   29          6
                                   No pseudopotential on this center.
   30          6
                                   No pseudopotential on this center.
   31          6
                                   No pseudopotential on this center.
   32          6
                                   No pseudopotential on this center.
   33          6
                                   No pseudopotential on this center.
   34          8
                                   No pseudopotential on this center.
   35          6
                                   No pseudopotential on this center.
   36          1
                                   No pseudopotential on this center.
   37          1
                                   No pseudopotential on this center.
   38          1
                                   No pseudopotential on this center.
   39          6
                                   No pseudopotential on this center.
   40          1
                                   No pseudopotential on this center.
   41          1
                                   No pseudopotential on this center.
   42          1
                                   No pseudopotential on this center.
   43          6
                                   No pseudopotential on this center.
   44          1
                                   No pseudopotential on this center.
   45          1
                                   No pseudopotential on this center.
   46          1
                                   No pseudopotential on this center.
   47          6
                                   No pseudopotential on this center.
   48          1
                                   No pseudopotential on this center.
   49          1
                                   No pseudopotential on this center.
   50          1
                                   No pseudopotential on this center.
   51          6
                                   No pseudopotential on this center.
   52          1
                                   No pseudopotential on this center.
   53          1
                                   No pseudopotential on this center.
   54          1
                                   No pseudopotential on this center.
   55          6
                                   No pseudopotential on this center.
   56          1
                                   No pseudopotential on this center.
   57          1
                                   No pseudopotential on this center.
   58          1
                                   No pseudopotential on this center.
   59          6
                                   No pseudopotential on this center.
   60          1
                                   No pseudopotential on this center.
   61          1
                                   No pseudopotential on this center.
   62          1
                                   No pseudopotential on this center.
   63          6
                                   No pseudopotential on this center.
   64          1
                                   No pseudopotential on this center.
   65          1
                                   No pseudopotential on this center.
   66          1
                                   No pseudopotential on this center.
   67          6
                                   No pseudopotential on this center.
   68          1
                                   No pseudopotential on this center.
   69          1
                                   No pseudopotential on this center.
   70          1
                                   No pseudopotential on this center.
   71          6
                                   No pseudopotential on this center.
   72          1
                                   No pseudopotential on this center.
   73          1
                                   No pseudopotential on this center.
   74          1
                                   No pseudopotential on this center.
   75          6
                                   No pseudopotential on this center.
   76          1
                                   No pseudopotential on this center.
   77          1
                                   No pseudopotential on this center.
   78          1
                                   No pseudopotential on this center.
   79          6
                                   No pseudopotential on this center.
   80          1
                                   No pseudopotential on this center.
   81          1
                                   No pseudopotential on this center.
   82          1
                                   No pseudopotential on this center.
   83          1
                                   No pseudopotential on this center.
   84          6
                                   No pseudopotential on this center.
   85          8
                                   No pseudopotential on this center.
   86          6
                                   No pseudopotential on this center.
   87          1
                                   No pseudopotential on this center.
   88          1
                                   No pseudopotential on this center.
   89          6
                                   No pseudopotential on this center.
   90          1
                                   No pseudopotential on this center.
   91          1
                                   No pseudopotential on this center.
   92          7
                                   No pseudopotential on this center.
   93          6
                                   No pseudopotential on this center.
   94          1
                                   No pseudopotential on this center.
   95          1
                                   No pseudopotential on this center.
   96          1
                                   No pseudopotential on this center.
   97          6
                                   No pseudopotential on this center.
   98          1
                                   No pseudopotential on this center.
   99          1
                                   No pseudopotential on this center.
  100          6
                                   No pseudopotential on this center.
  101          9
                                   No pseudopotential on this center.
  102          9
                                   No pseudopotential on this center.
  103          9
                                   No pseudopotential on this center.
  104          6
                                   No pseudopotential on this center.
  105          9
                                   No pseudopotential on this center.
  106          9
                                   No pseudopotential on this center.
  107          9
                                   No pseudopotential on this center.
  108          1
                                   No pseudopotential on this center.
 ======================================================================================================
 There are   940 symmetry adapted cartesian basis functions of A   symmetry.
 There are   884 symmetry adapted basis functions of A   symmetry.
   884 basis functions,  1767 primitive gaussians,   940 cartesian basis functions
   213 alpha electrons      213 beta electrons
       nuclear repulsion energy      9739.6048030027 Hartrees.
 NAtoms=  108 NActive=  108 NUniq=  108 SFac= 1.00D+00 NAtFMM=   60 NAOKFM=T Big=T
 Integral buffers will be    131072 words long.
 Raffenetti 2 integral format.
 Two-electron integral symmetry is turned on.
 One-electron integrals computed using PRISM.
   1 Symmetry operations used in ECPInt.
 ECPInt:  NShTT=   54615 NPrTT=  339395 LenC2=   41007 LenP2D=  126915.
 LDataN:  DoStor=T MaxTD1= 6 Len=  172
 NBasis=   884 RedAO= T EigKep=  4.86D-04  NBF=   884
 NBsUse=   884 1.00D-06 EigRej= -1.00D+00 NBFU=   884
 Defaulting to unpruned grid for atomic number  77.
 ExpMin= 2.90D-02 ExpMax= 7.00D+03 ExpMxC= 1.05D+03 IAcc=3 IRadAn=         5 AccDes= 0.00D+00
 Harris functional with IExCor= 1009 and IRadAn=       5 diagonalized for initial guess.
 HarFok:  IExCor= 1009 AccDes= 0.00D+00 IRadAn=         5 IDoV= 1 UseB2=F ITyADJ=14
 ICtDFT=  3500011 ScaDFX=  1.000000  1.000000  1.000000  1.000000
 Defaulting to unpruned grid for atomic number  77.
 FoFCou: FMM=F IPFlag=           0 FMFlag=      100000 FMFlg1=        2001
         NFxFlg=           0 DoJE=T BraDBF=F KetDBF=T FulRan=T
         wScrn=  0.000000 ICntrl=       500 IOpCl=  0 I1Cent=   200000004 NGrid=           0
         NMat0=    1 NMatS0=      1 NMatT0=    0 NMatD0=    1 NMtDS0=    0 NMtDT0=    0
 Petite list used in FoFCou.
 Requested convergence on RMS density matrix=1.00D-08 within 128 cycles.
 Requested convergence on MAX density matrix=1.00D-06.
 Requested convergence on             energy=1.00D-06.
 No special actions if energy rises.
 Defaulting to unpruned grid for atomic number  77.
 Defaulting to unpruned grid for atomic number  77.
 Defaulting to unpruned grid for atomic number  77.
 Defaulting to unpruned grid for atomic number  77.
 Defaulting to unpruned grid for atomic number  77.
 Defaulting to unpruned grid for atomic number  77.
 Defaulting to unpruned grid for atomic number  77.
 Defaulting to unpruned grid for atomic number  77.
 Defaulting to unpruned grid for atomic number  77.
 Defaulting to unpruned grid for atomic number  77.
 Defaulting to unpruned grid for atomic number  77.
 Defaulting to unpruned grid for atomic number  77.
 Defaulting to unpruned grid for atomic number  77.
 Defaulting to unpruned grid for atomic number  77.
 Defaulting to unpruned grid for atomic number  77.
 Defaulting to unpruned grid for atomic number  77.
 SCF Done:  E(RM06) =  -2833.53142149     A.U. after   16 cycles
            NFock= 16  Conv=0.53D-08     -V/T= 2.0320
 DoSCS=F DFT=T ScalE2(SS,OS)=  1.000000  1.000000
 Range of M.O.s used for correlation:     1   884
 NBasis=   884 NAE=   213 NBE=   213 NFC=     0 NFV=     0
 NROrb=    884 NOA=   213 NOB=   213 NVA=   671 NVB=   671

 **** Warning!!: The smallest alpha delta epsilon is  0.92061326D-01

   1 Symmetry operations used in ECPInt.
 ECPInt:  NShTT=   54615 NPrTT=  339395 LenC2=   41007 LenP2D=  126915.
 LDataN:  DoStor=T MaxTD1= 7 Len=  274
 Number of processors reduced to   7 by ecpmxn.
 Symmetrizing basis deriv contribution to polar:
 IMax=3 JMax=2 DiffMx= 0.00D+00
 G2DrvN: will do   109 centers at a time, making    1 passes.
 Calling FoFCou, ICntrl=  3107 FMM=T I1Cent=   0 AccDes= 0.00D+00.
 Defaulting to unpruned grid for atomic number  77.
 Defaulting to unpruned grid for atomic number  77.
 Defaulting to unpruned grid for atomic number  77.
 Defaulting to unpruned grid for atomic number  77.
 Defaulting to unpruned grid for atomic number  77.
 Defaulting to unpruned grid for atomic number  77.
 Defaulting to unpruned grid for atomic number  77.
 Defaulting to unpruned grid for atomic number  77.
 Defaulting to unpruned grid for atomic number  77.
 Defaulting to unpruned grid for atomic number  77.
 Defaulting to unpruned grid for atomic number  77.
 Defaulting to unpruned grid for atomic number  77.
 Defaulting to unpruned grid for atomic number  77.
 Defaulting to unpruned grid for atomic number  77.
 Defaulting to unpruned grid for atomic number  77.
 Defaulting to unpruned grid for atomic number  77.
 End of G2Drv F.D. properties file   721 does not exist.
 End of G2Drv F.D. properties file   722 does not exist.
 End of G2Drv F.D. properties file   788 does not exist.
          IDoAtm=11111111111111111111111111111111111111111111111111
          IDoAtm=11111111111111111111111111111111111111111111111111
          IDoAtm=11111111
          Differentiating once with respect to electric field.
                with respect to dipole field.
          Differentiating once with respect to nuclear coordinates.
 Defaulting to unpruned grid for atomic number  77.
 CalDSu exits because no D1Ps are significant.
 Defaulting to unpruned grid for atomic number  77.
 Defaulting to unpruned grid for atomic number  77.
 Defaulting to unpruned grid for atomic number  77.
 Defaulting to unpruned grid for atomic number  77.
 Defaulting to unpruned grid for atomic number  77.
 Defaulting to unpruned grid for atomic number  77.
 Defaulting to unpruned grid for atomic number  77.
 Defaulting to unpruned grid for atomic number  77.
 Defaulting to unpruned grid for atomic number  77.
 Defaulting to unpruned grid for atomic number  77.
 Defaulting to unpruned grid for atomic number  77.
 Defaulting to unpruned grid for atomic number  77.
 Defaulting to unpruned grid for atomic number  77.
 Defaulting to unpruned grid for atomic number  77.
 Defaulting to unpruned grid for atomic number  77.
 Defaulting to unpruned grid for atomic number  77.
          There are   327 degrees of freedom in the 1st order CPHF.  IDoFFX=6 NUNeed=     3.
    324 vectors produced by pass  0 Test12= 1.43D-13 1.00D-09 XBig12= 5.21D+02 9.59D+00.
 AX will form    72 AO Fock derivatives at one time.
    324 vectors produced by pass  1 Test12= 1.43D-13 1.00D-09 XBig12= 7.45D+01 7.20D-01.
    324 vectors produced by pass  2 Test12= 1.43D-13 1.00D-09 XBig12= 9.65D-01 9.55D-02.
    324 vectors produced by pass  3 Test12= 1.43D-13 1.00D-09 XBig12= 7.54D-03 6.14D-03.
    324 vectors produced by pass  4 Test12= 1.43D-13 1.00D-09 XBig12= 3.32D-05 3.10D-04.
    295 vectors produced by pass  5 Test12= 1.43D-13 1.00D-09 XBig12= 6.80D-08 1.48D-05.
     85 vectors produced by pass  6 Test12= 1.43D-13 1.00D-09 XBig12= 1.02D-10 5.60D-07.
      3 vectors produced by pass  7 Test12= 1.43D-13 1.00D-09 XBig12= 1.36D-13 2.17D-08.
 InvSVY:  IOpt=1 It=  1 EMax= 1.42D-14
 Solved reduced A of dimension  2003 with   327 vectors.
 Isotropic polarizability for W=    0.000000      490.93 Bohr**3.
 End of Minotr F.D. properties file   721 does not exist.
 End of Minotr F.D. properties file   722 does not exist.
 End of Minotr F.D. properties file   788 does not exist.
 Hyperfine terms turned off by default for NAtoms > 100.

 **********************************************************************

            Population analysis using the SCF Density.

 **********************************************************************

 Orbital symmetries:
       Occupied  (A) (A) (A) (A) (A) (A) (A) (A) (A) (A) (A) (A)
                 (A) (A) (A) (A) (A) (A) (A) (A) (A) (A) (A) (A)
                 (A) (A) (A) (A) (A) (A) (A) (A) (A) (A) (A) (A)
                 (A) (A) (A) (A) (A) (A) (A) (A) (A) (A) (A) (A)
                 (A) (A) (A) (A) (A) (A) (A) (A) (A) (A) (A) (A)
                 (A) (A) (A) (A) (A) (A) (A) (A) (A) (A) (A) (A)
                 (A) (A) (A) (A) (A) (A) (A) (A) (A) (A) (A) (A)
                 (A) (A) (A) (A) (A) (A) (A) (A) (A) (A) (A) (A)
                 (A) (A) (A) (A) (A) (A) (A) (A) (A) (A) (A) (A)
                 (A) (A) (A) (A) (A) (A) (A) (A) (A) (A) (A) (A)
                 (A) (A) (A) (A) (A) (A) (A) (A) (A) (A) (A) (A)
                 (A) (A) (A) (A) (A) (A) (A) (A) (A) (A) (A) (A)
                 (A) (A) (A) (A) (A) (A) (A) (A) (A) (A) (A) (A)
                 (A) (A) (A) (A) (A) (A) (A) (A) (A) (A) (A) (A)
                 (A) (A) (A) (A) (A) (A) (A) (A) (A) (A) (A) (A)
                 (A) (A) (A) (A) (A) (A) (A) (A) (A) (A) (A) (A)
                 (A) (A) (A) (A) (A) (A) (A) (A) (A) (A) (A) (A)
                 (A) (A) (A) (A) (A) (A) (A) (A) (A)
       Virtual   (A) (A) (A) (A) (A) (A) (A) (A) (A) (A) (A) (A)
                 (A) (A) (A) (A) (A) (A) (A) (A) (A) (A) (A) (A)
                 (A) (A) (A) (A) (A) (A) (A) (A) (A) (A) (A) (A)
                 (A) (A) (A) (A) (A) (A) (A) (A) (A) (A) (A) (A)
                 (A) (A) (A) (A) (A) (A) (A) (A) (A) (A) (A) (A)
                 (A) (A) (A) (A) (A) (A) (A) (A) (A) (A) (A) (A)
                 (A) (A) (A) (A) (A) (A) (A) (A) (A) (A) (A) (A)
                 (A) (A) (A) (A) (A) (A) (A) (A) (A) (A) (A) (A)
                 (A) (A) (A) (A) (A) (A) (A) (A) (A) (A) (A) (A)
                 (A) (A) (A) (A) (A) (A) (A) (A) (A) (A) (A) (A)
                 (A) (A) (A) (A) (A) (A) (A) (A) (A) (A) (A) (A)
                 (A) (A) (A) (A) (A) (A) (A) (A) (A) (A) (A) (A)
                 (A) (A) (A) (A) (A) (A) (A) (A) (A) (A) (A) (A)
                 (A) (A) (A) (A) (A) (A) (A) (A) (A) (A) (A) (A)
                 (A) (A) (A) (A) (A) (A) (A) (A) (A) (A) (A) (A)
                 (A) (A) (A) (A) (A) (A) (A) (A) (A) (A) (A) (A)
                 (A) (A) (A) (A) (A) (A) (A) (A) (A) (A) (A) (A)
                 (A) (A) (A) (A) (A) (A) (A) (A) (A) (A) (A) (A)
                 (A) (A) (A) (A) (A) (A) (A) (A) (A) (A) (A) (A)
                 (A) (A) (A) (A) (A) (A) (A) (A) (A) (A) (A) (A)
                 (A) (A) (A) (A) (A) (A) (A) (A) (A) (A) (A) (A)
                 (A) (A) (A) (A) (A) (A) (A) (A) (A) (A) (A) (A)
                 (A) (A) (A) (A) (A) (A) (A) (A) (A) (A) (A) (A)
                 (A) (A) (A) (A) (A) (A) (A) (A) (A) (A) (A) (A)
                 (A) (A) (A) (A) (A) (A) (A) (A) (A) (A) (A) (A)
                 (A) (A) (A) (A) (A) (A) (A) (A) (A) (A) (A) (A)
                 (A) (A) (A) (A) (A) (A) (A) (A) (A) (A) (A) (A)
                 (A) (A) (A) (A) (A) (A) (A) (A) (A) (A) (A) (A)
                 (A) (A) (A) (A) (A) (A) (A) (A) (A) (A) (A) (A)
                 (A) (A) (A) (A) (A) (A) (A) (A) (A) (A) (A) (A)
                 (A) (A) (A) (A) (A) (A) (A) (A) (A) (A) (A) (A)
                 (A) (A) (A) (A) (A) (A) (A) (A) (A) (A) (A) (A)
                 (A) (A) (A) (A) (A) (A) (A) (A) (A) (A) (A) (A)
                 (A) (A) (A) (A) (A) (A) (A) (A) (A) (A) (A) (A)
                 (A) (A) (A) (A) (A) (A) (A) (A) (A) (A) (A) (A)
                 (A) (A) (A) (A) (A) (A) (A) (A) (A) (A) (A) (A)
                 (A) (A) (A) (A) (A) (A) (A) (A) (A) (A) (A) (A)
                 (A) (A) (A) (A) (A) (A) (A) (A) (A) (A) (A) (A)
                 (A) (A) (A) (A) (A) (A) (A) (A) (A) (A) (A) (A)
                 (A) (A) (A) (A) (A) (A) (A) (A) (A) (A) (A) (A)
                 (A) (A) (A) (A) (A) (A) (A) (A) (A) (A) (A) (A)
                 (A) (A) (A) (A) (A) (A) (A) (A) (A) (A) (A) (A)
                 (A) (A) (A) (A) (A) (A) (A) (A) (A) (A) (A) (A)
                 (A) (A) (A) (A) (A) (A) (A) (A) (A) (A) (A) (A)
                 (A) (A) (A) (A) (A) (A) (A) (A) (A) (A) (A) (A)
                 (A) (A) (A) (A) (A) (A) (A) (A) (A) (A) (A) (A)
                 (A) (A) (A) (A) (A) (A) (A) (A) (A) (A) (A) (A)
                 (A) (A) (A) (A) (A) (A) (A) (A) (A) (A) (A) (A)
                 (A) (A) (A) (A) (A) (A) (A) (A) (A) (A) (A) (A)
                 (A) (A) (A) (A) (A) (A) (A) (A) (A) (A) (A) (A)
                 (A) (A) (A) (A) (A) (A) (A) (A) (A) (A) (A) (A)
                 (A) (A) (A) (A) (A) (A) (A) (A) (A) (A) (A) (A)
                 (A) (A) (A) (A) (A) (A) (A) (A) (A) (A) (A) (A)
                 (A) (A) (A) (A) (A) (A) (A) (A) (A) (A) (A) (A)
                 (A) (A) (A) (A) (A) (A) (A) (A) (A) (A) (A) (A)
                 (A) (A) (A) (A) (A) (A) (A) (A) (A) (A) (A)
 The electronic state is 1-A.
 Alpha  occ. eigenvalues --  -24.83718 -24.83611 -24.83507 -24.83177 -24.83003
 Alpha  occ. eigenvalues --  -24.82916 -19.22765 -19.22182 -19.21057 -19.20748
 Alpha  occ. eigenvalues --  -19.20599 -19.20561 -19.16321 -14.46657 -14.44528
 Alpha  occ. eigenvalues --  -14.40322 -10.51784 -10.51726 -10.32765 -10.32586
 Alpha  occ. eigenvalues --  -10.31932 -10.31507 -10.31086 -10.30818 -10.30760
 Alpha  occ. eigenvalues --  -10.29970 -10.29942 -10.29732 -10.29677 -10.29621
 Alpha  occ. eigenvalues --  -10.29617 -10.29406 -10.29359 -10.28900 -10.28632
 Alpha  occ. eigenvalues --  -10.26014 -10.23969 -10.23808 -10.23743 -10.23700
 Alpha  occ. eigenvalues --  -10.23268 -10.23208 -10.23171 -10.23163 -10.23045
 Alpha  occ. eigenvalues --  -10.22929 -10.22749 -10.22577 -10.22229 -10.22111
 Alpha  occ. eigenvalues --  -10.21577  -6.83853  -6.81259  -6.80028  -3.65272
 Alpha  occ. eigenvalues --   -2.08464  -2.07430  -2.05379  -1.36142  -1.36103
 Alpha  occ. eigenvalues --   -1.27647  -1.27641  -1.27154  -1.27085  -1.08493
 Alpha  occ. eigenvalues --   -1.06817  -1.06529  -1.02166  -1.01530  -1.00917
 Alpha  occ. eigenvalues --   -0.99886  -0.99605  -0.98390  -0.91692  -0.86785
 Alpha  occ. eigenvalues --   -0.85957  -0.84152  -0.81977  -0.80863  -0.80695
 Alpha  occ. eigenvalues --   -0.80444  -0.77039  -0.76319  -0.75857  -0.75288
 Alpha  occ. eigenvalues --   -0.75196  -0.72738  -0.71612  -0.70788  -0.70634
 Alpha  occ. eigenvalues --   -0.69656  -0.69370  -0.68937  -0.68837  -0.68002
 Alpha  occ. eigenvalues --   -0.67927  -0.67135  -0.66524  -0.65374  -0.63399
 Alpha  occ. eigenvalues --   -0.62365  -0.62275  -0.62123  -0.62091  -0.61759
 Alpha  occ. eigenvalues --   -0.61711  -0.60933  -0.60624  -0.60375  -0.56947
 Alpha  occ. eigenvalues --   -0.56398  -0.56130  -0.55199  -0.54942  -0.54444
 Alpha  occ. eigenvalues --   -0.54259  -0.53443  -0.51808  -0.51252  -0.50228
 Alpha  occ. eigenvalues --   -0.50008  -0.49891  -0.49573  -0.49406  -0.49213
 Alpha  occ. eigenvalues --   -0.48984  -0.48532  -0.48097  -0.47969  -0.47783
 Alpha  occ. eigenvalues --   -0.47552  -0.47264  -0.47072  -0.46738  -0.46716
 Alpha  occ. eigenvalues --   -0.46331  -0.45943  -0.45531  -0.45456  -0.45410
 Alpha  occ. eigenvalues --   -0.45355  -0.45266  -0.45018  -0.44797  -0.44608
 Alpha  occ. eigenvalues --   -0.44283  -0.44009  -0.43897  -0.43701  -0.43507
 Alpha  occ. eigenvalues --   -0.43413  -0.43374  -0.42999  -0.42601  -0.41187
 Alpha  occ. eigenvalues --   -0.41120  -0.40957  -0.40614  -0.40354  -0.40339
 Alpha  occ. eigenvalues --   -0.40235  -0.40148  -0.39945  -0.39823  -0.39747
 Alpha  occ. eigenvalues --   -0.39745  -0.39400  -0.39246  -0.39176  -0.38736
 Alpha  occ. eigenvalues --   -0.38418  -0.37920  -0.37763  -0.37713  -0.37282
 Alpha  occ. eigenvalues --   -0.37025  -0.36904  -0.36885  -0.36759  -0.36585
 Alpha  occ. eigenvalues --   -0.36288  -0.36236  -0.35822  -0.35603  -0.35342
 Alpha  occ. eigenvalues --   -0.35172  -0.35059  -0.34434  -0.34100  -0.34039
 Alpha  occ. eigenvalues --   -0.33810  -0.33454  -0.33293  -0.32976  -0.32613
 Alpha  occ. eigenvalues --   -0.32402  -0.32207  -0.31879  -0.31678  -0.31585
 Alpha  occ. eigenvalues --   -0.30665  -0.30627  -0.29257  -0.28234  -0.27885
 Alpha  occ. eigenvalues --   -0.27226  -0.26851  -0.26639  -0.25145  -0.23738
 Alpha  occ. eigenvalues --   -0.23505  -0.21472  -0.17301
 Alpha virt. eigenvalues --   -0.08094  -0.04299  -0.03973  -0.00298   0.00959
 Alpha virt. eigenvalues --    0.02339   0.05061   0.05468   0.05997   0.06588
 Alpha virt. eigenvalues --    0.07272   0.07909   0.08339   0.09122   0.09488
 Alpha virt. eigenvalues --    0.09877   0.10410   0.10782   0.11016   0.11313
 Alpha virt. eigenvalues --    0.12007   0.12107   0.12391   0.12651   0.13416
 Alpha virt. eigenvalues --    0.13542   0.13832   0.13881   0.14128   0.14316
 Alpha virt. eigenvalues --    0.14443   0.14821   0.14999   0.15070   0.15384
 Alpha virt. eigenvalues --    0.15519   0.15617   0.15849   0.16137   0.16266
 Alpha virt. eigenvalues --    0.16351   0.16604   0.16739   0.17050   0.17325
 Alpha virt. eigenvalues --    0.17410   0.17728   0.17815   0.18032   0.18264
 Alpha virt. eigenvalues --    0.18412   0.18742   0.18872   0.19184   0.19237
 Alpha virt. eigenvalues --    0.19385   0.19540   0.19585   0.19819   0.19959
 Alpha virt. eigenvalues --    0.20112   0.20353   0.20695   0.21072   0.21442
 Alpha virt. eigenvalues --    0.21631   0.21905   0.21966   0.22425   0.22581
 Alpha virt. eigenvalues --    0.22636   0.22922   0.23153   0.23392   0.23625
 Alpha virt. eigenvalues --    0.23828   0.24028   0.24074   0.24405   0.24442
 Alpha virt. eigenvalues --    0.24577   0.24653   0.24825   0.24980   0.25112
 Alpha virt. eigenvalues --    0.25817   0.26102   0.26325   0.26585   0.26652
 Alpha virt. eigenvalues --    0.26956   0.27213   0.27557   0.28184   0.28265
 Alpha virt. eigenvalues --    0.28556   0.29111   0.29526   0.30214   0.30542
 Alpha virt. eigenvalues --    0.30675   0.31151   0.31311   0.32115   0.32992
 Alpha virt. eigenvalues --    0.33299   0.34110   0.34445   0.34972   0.35634
 Alpha virt. eigenvalues --    0.36180   0.36505   0.37065   0.37449   0.38043
 Alpha virt. eigenvalues --    0.38260   0.39649   0.40093   0.41733   0.42444
 Alpha virt. eigenvalues --    0.43351   0.44401   0.45339   0.45699   0.46753
 Alpha virt. eigenvalues --    0.47244   0.47687   0.48093   0.48412   0.48873
 Alpha virt. eigenvalues --    0.49745   0.49951   0.50203   0.50741   0.50930
 Alpha virt. eigenvalues --    0.51171   0.51645   0.51776   0.51999   0.52529
 Alpha virt. eigenvalues --    0.52938   0.53182   0.53757   0.54141   0.54368
 Alpha virt. eigenvalues --    0.54922   0.55232   0.55638   0.56092   0.56165
 Alpha virt. eigenvalues --    0.56543   0.56570   0.57051   0.57179   0.57439
 Alpha virt. eigenvalues --    0.57746   0.57958   0.58223   0.58434   0.58841
 Alpha virt. eigenvalues --    0.58956   0.59546   0.60033   0.60242   0.60366
 Alpha virt. eigenvalues --    0.61064   0.61224   0.61538   0.61866   0.62221
 Alpha virt. eigenvalues --    0.62560   0.62810   0.63371   0.63590   0.63975
 Alpha virt. eigenvalues --    0.64057   0.64416   0.64868   0.64982   0.65425
 Alpha virt. eigenvalues --    0.65537   0.65923   0.65938   0.66482   0.66761
 Alpha virt. eigenvalues --    0.67354   0.67643   0.68368   0.68454   0.68529
 Alpha virt. eigenvalues --    0.69064   0.69579   0.69806   0.70317   0.70428
 Alpha virt. eigenvalues --    0.71052   0.71240   0.71648   0.71838   0.72244
 Alpha virt. eigenvalues --    0.72593   0.72940   0.73052   0.73602   0.73705
 Alpha virt. eigenvalues --    0.74197   0.74437   0.74913   0.75537   0.75860
 Alpha virt. eigenvalues --    0.76438   0.77053   0.77378   0.77578   0.78202
 Alpha virt. eigenvalues --    0.78547   0.79181   0.79268   0.80070   0.80111
 Alpha virt. eigenvalues --    0.80653   0.80802   0.81427   0.81853   0.82101
 Alpha virt. eigenvalues --    0.82407   0.82675   0.83176   0.83220   0.83466
 Alpha virt. eigenvalues --    0.83607   0.83818   0.84282   0.84482   0.84675
 Alpha virt. eigenvalues --    0.85011   0.85280   0.85775   0.86043   0.86611
 Alpha virt. eigenvalues --    0.86857   0.86971   0.87228   0.87522   0.87674
 Alpha virt. eigenvalues --    0.87950   0.88023   0.88559   0.88892   0.88948
 Alpha virt. eigenvalues --    0.89345   0.89473   0.89626   0.90083   0.90150
 Alpha virt. eigenvalues --    0.90539   0.90706   0.90820   0.91124   0.91431
 Alpha virt. eigenvalues --    0.91626   0.91737   0.92144   0.92410   0.92726
 Alpha virt. eigenvalues --    0.93392   0.93454   0.93662   0.94032   0.94439
 Alpha virt. eigenvalues --    0.94554   0.94919   0.95648   0.95911   0.95965
 Alpha virt. eigenvalues --    0.96331   0.96963   0.97045   0.97440   0.97706
 Alpha virt. eigenvalues --    0.98310   0.98756   0.99170   0.99591   1.00023
 Alpha virt. eigenvalues --    1.00529   1.01124   1.01396   1.01688   1.02111
 Alpha virt. eigenvalues --    1.02249   1.03064   1.03307   1.03415   1.04270
 Alpha virt. eigenvalues --    1.05099   1.05292   1.06080   1.06555   1.06830
 Alpha virt. eigenvalues --    1.07789   1.08484   1.08703   1.09616   1.09934
 Alpha virt. eigenvalues --    1.10283   1.11442   1.11784   1.12050   1.12803
 Alpha virt. eigenvalues --    1.13189   1.13636   1.14052   1.14660   1.15688
 Alpha virt. eigenvalues --    1.15858   1.16179   1.16670   1.16935   1.17367
 Alpha virt. eigenvalues --    1.17862   1.18101   1.18765   1.19080   1.19477
 Alpha virt. eigenvalues --    1.19943   1.20728   1.21273   1.21900   1.22016
 Alpha virt. eigenvalues --    1.22540   1.23317   1.23603   1.24094   1.24903
 Alpha virt. eigenvalues --    1.25255   1.25827   1.26290   1.26730   1.26972
 Alpha virt. eigenvalues --    1.27548   1.27951   1.28819   1.29623   1.30446
 Alpha virt. eigenvalues --    1.30895   1.31437   1.32183   1.33322   1.34061
 Alpha virt. eigenvalues --    1.34337   1.34575   1.35318   1.35404   1.35639
 Alpha virt. eigenvalues --    1.35759   1.36302   1.36969   1.37065   1.37480
 Alpha virt. eigenvalues --    1.38454   1.38771   1.39070   1.39239   1.39940
 Alpha virt. eigenvalues --    1.40208   1.40709   1.41197   1.41909   1.42310
 Alpha virt. eigenvalues --    1.42732   1.42929   1.43584   1.43699   1.44150
 Alpha virt. eigenvalues --    1.44772   1.45001   1.45290   1.45670   1.46330
 Alpha virt. eigenvalues --    1.46679   1.47318   1.47567   1.48341   1.49085
 Alpha virt. eigenvalues --    1.49559   1.49782   1.50257   1.51112   1.52202
 Alpha virt. eigenvalues --    1.53268   1.53673   1.53848   1.54284   1.55255
 Alpha virt. eigenvalues --    1.56498   1.57507   1.57696   1.57838   1.58684
 Alpha virt. eigenvalues --    1.59591   1.60862   1.61378   1.62083   1.62480
 Alpha virt. eigenvalues --    1.63116   1.64634   1.65122   1.65557   1.65951
 Alpha virt. eigenvalues --    1.66049   1.66890   1.67054   1.68040   1.68310
 Alpha virt. eigenvalues --    1.69164   1.69669   1.70127   1.70535   1.70803
 Alpha virt. eigenvalues --    1.71687   1.72854   1.73264   1.73370   1.73721
 Alpha virt. eigenvalues --    1.74930   1.75528   1.75945   1.76468   1.76922
 Alpha virt. eigenvalues --    1.77397   1.77785   1.77901   1.78360   1.78993
 Alpha virt. eigenvalues --    1.79182   1.80086   1.80721   1.81063   1.81103
 Alpha virt. eigenvalues --    1.81973   1.82083   1.82950   1.83033   1.83941
 Alpha virt. eigenvalues --    1.84190   1.84694   1.85112   1.85547   1.85938
 Alpha virt. eigenvalues --    1.86184   1.87027   1.87261   1.87632   1.87803
 Alpha virt. eigenvalues --    1.87932   1.88241   1.88816   1.89322   1.89948
 Alpha virt. eigenvalues --    1.90141   1.90468   1.90692   1.90897   1.91054
 Alpha virt. eigenvalues --    1.91283   1.91576   1.91743   1.92251   1.92381
 Alpha virt. eigenvalues --    1.92535   1.92770   1.93099   1.93389   1.93897
 Alpha virt. eigenvalues --    1.94749   1.95816   1.96049   1.96149   1.97426
 Alpha virt. eigenvalues --    1.97832   1.98122   1.98244   1.98321   1.99501
 Alpha virt. eigenvalues --    2.00191   2.00782   2.00874   2.00945   2.01283
 Alpha virt. eigenvalues --    2.01792   2.02140   2.02475   2.02982   2.03293
 Alpha virt. eigenvalues --    2.03360   2.03806   2.04066   2.04527   2.05271
 Alpha virt. eigenvalues --    2.05605   2.05708   2.06257   2.06448   2.06520
 Alpha virt. eigenvalues --    2.06806   2.07371   2.07601   2.08078   2.08833
 Alpha virt. eigenvalues --    2.09088   2.09295   2.09378   2.09535   2.09941
 Alpha virt. eigenvalues --    2.10523   2.10689   2.11279   2.11815   2.11894
 Alpha virt. eigenvalues --    2.12269   2.12844   2.13270   2.13531   2.14049
 Alpha virt. eigenvalues --    2.14230   2.14669   2.14898   2.15251   2.15754
 Alpha virt. eigenvalues --    2.16452   2.16967   2.17192   2.17451   2.17881
 Alpha virt. eigenvalues --    2.18247   2.18555   2.18684   2.19018   2.19335
 Alpha virt. eigenvalues --    2.19459   2.19578   2.20299   2.20858   2.21077
 Alpha virt. eigenvalues --    2.21483   2.21966   2.22567   2.23204   2.23260
 Alpha virt. eigenvalues --    2.23544   2.23836   2.24475   2.24697   2.24909
 Alpha virt. eigenvalues --    2.25468   2.25860   2.26010   2.26429   2.26874
 Alpha virt. eigenvalues --    2.27860   2.27988   2.28462   2.29431   2.29719
 Alpha virt. eigenvalues --    2.30463   2.30748   2.31174   2.31725   2.32118
 Alpha virt. eigenvalues --    2.32232   2.32615   2.32956   2.33393   2.33996
 Alpha virt. eigenvalues --    2.34987   2.35362   2.35820   2.37798   2.38639
 Alpha virt. eigenvalues --    2.38884   2.39232   2.40204   2.41966   2.42870
 Alpha virt. eigenvalues --    2.43394   2.44207   2.44787   2.45875   2.46393
 Alpha virt. eigenvalues --    2.47175   2.47530   2.47642   2.48267   2.49005
 Alpha virt. eigenvalues --    2.49275   2.50644   2.51633   2.52699   2.53630
 Alpha virt. eigenvalues --    2.54560   2.55371   2.56540   2.57517   2.58869
 Alpha virt. eigenvalues --    2.59844   2.60132   2.61267   2.62224   2.62651
 Alpha virt. eigenvalues --    2.63423   2.64137   2.64549   2.65770   2.67236
 Alpha virt. eigenvalues --    2.67848   2.69126   2.69292   2.71508   2.73331
 Alpha virt. eigenvalues --    2.75140   2.76843   2.77136   2.77296   2.77656
 Alpha virt. eigenvalues --    2.77844   2.78082   2.78699   2.79377   2.79659
 Alpha virt. eigenvalues --    2.79748   2.80389   2.80616   2.80993   2.82263
 Alpha virt. eigenvalues --    2.82621   2.83257   2.83898   2.85911   2.87690
 Alpha virt. eigenvalues --    2.88682   2.89472   2.90080   2.92078   2.93274
 Alpha virt. eigenvalues --    2.94190   2.94612   2.95813   2.96182   2.99110
 Alpha virt. eigenvalues --    3.00426   3.02465   3.03277   3.04472   3.05927
 Alpha virt. eigenvalues --    3.07085   3.07501   3.08071   3.08915   3.09829
 Alpha virt. eigenvalues --    3.11210   3.11834   3.12627   3.12947   3.13388
 Alpha virt. eigenvalues --    3.14631   3.22578   3.26422   3.33175   3.45489
 Alpha virt. eigenvalues --   13.33587
          Condensed to atoms (all electrons):
 Mulliken charges:
               1
     1  C    0.367806
     2  C    0.084626
     3  C   -0.072334
     4  C   -0.153327
     5  C   -0.169648
     6  C    0.302174
     7  C    0.035530
     8  C   -0.072663
     9  C   -0.154119
    10  C   -0.179641
    11  H    0.195132
    12  H    0.199915
    13  H    0.181555
    14  H    0.205211
    15  H    0.199927
    16  H    0.178275
    17  N   -0.555828
    18  N   -0.433602
    19  Ir  -0.149646
    20  O   -0.518637
    21  O   -0.494650
    22  O   -0.532446
    23  B    0.520860
    24  B    0.505270
    25  B    0.375362
    26  O   -0.504076
    27  O   -0.509319
    28  C    0.284415
    29  C    0.299331
    30  C    0.294740
    31  C    0.291314
    32  C    0.289385
    33  C    0.294678
    34  O   -0.492688
    35  C   -0.503236
    36  H    0.172074
    37  H    0.168178
    38  H    0.150215
    39  C   -0.506147
    40  H    0.157922
    41  H    0.162018
    42  H    0.152734
    43  C   -0.511157
    44  H    0.151034
    45  H    0.168237
    46  H    0.172643
    47  C   -0.476769
    48  H    0.150141
    49  H    0.172040
    50  H    0.142603
    51  C   -0.524884
    52  H    0.191810
    53  H    0.164876
    54  H    0.165134
    55  C   -0.507721
    56  H    0.157864
    57  H    0.170463
    58  H    0.177583
    59  C   -0.517406
    60  H    0.178132
    61  H    0.179929
    62  H    0.153705
    63  C   -0.519825
    64  H    0.182525
    65  H    0.154297
    66  H    0.188584
    67  C   -0.493040
    68  H    0.145306
    69  H    0.176253
    70  H    0.162565
    71  C   -0.513725
    72  H    0.172327
    73  H    0.174464
    74  H    0.149572
    75  C   -0.512419
    76  H    0.160200
    77  H    0.161395
    78  H    0.165945
    79  C   -0.508648
    80  H    0.172732
    81  H    0.152650
    82  H    0.171363
    83  H    0.185490
    84  C    0.569117
    85  O   -0.535942
    86  C   -0.410146
    87  H    0.175333
    88  H    0.152246
    89  C   -0.347096
    90  H    0.169841
    91  H    0.188463
    92  N   -0.366881
    93  C   -0.380018
    94  H    0.205212
    95  H    0.160472
    96  H    0.176105
    97  C   -0.467090
    98  H    0.142719
    99  H    0.181965
   100  C    0.975449
   101  F   -0.304576
   102  F   -0.313589
   103  F   -0.312430
   104  C    0.965543
   105  F   -0.313575
   106  F   -0.304485
   107  F   -0.312386
   108  H    0.152842
 Sum of Mulliken charges =  -0.00000
 Mulliken charges with hydrogens summed into heavy atoms:
               1
     1  C    0.367806
     2  C    0.279758
     3  C   -0.072334
     4  C    0.046589
     5  C    0.011906
     6  C    0.302174
     7  C    0.240741
     8  C   -0.072663
     9  C    0.045807
    10  C   -0.001366
    17  N   -0.555828
    18  N   -0.433602
    19  Ir  -0.149646
    20  O   -0.518637
    21  O   -0.494650
    22  O   -0.532446
    23  B    0.706351
    24  B    0.505270
    25  B    0.375362
    26  O   -0.504076
    27  O   -0.509319
    28  C    0.284415
    29  C    0.299331
    30  C    0.294740
    31  C    0.291314
    32  C    0.289385
    33  C    0.294678
    34  O   -0.492688
    35  C   -0.012770
    39  C   -0.033473
    43  C   -0.019243
    47  C   -0.011985
    51  C   -0.003064
    55  C   -0.001810
    59  C   -0.005640
    63  C    0.005581
    67  C   -0.008916
    71  C   -0.017362
    75  C   -0.024879
    79  C   -0.011903
    84  C    0.569117
    85  O   -0.535942
    86  C   -0.082566
    89  C    0.011208
    92  N   -0.366881
    93  C    0.161772
    97  C    0.010436
   100  C    0.975449
   101  F   -0.304576
   102  F   -0.313589
   103  F   -0.312430
   104  C    0.965543
   105  F   -0.313575
   106  F   -0.304485
   107  F   -0.312386
 APT charges:
               1
     1  C    0.154726
     2  C    0.095690
     3  C   -0.218927
     4  C    0.100829
     5  C   -0.166283
     6  C    0.263506
     7  C    0.062756
     8  C   -0.227207
     9  C    0.128435
    10  C   -0.206834
    11  H    0.100966
    12  H    0.066582
    13  H    0.050072
    14  H    0.134917
    15  H    0.055777
    16  H    0.047712
    17  N   -0.012952
    18  N   -0.257917
    19  Ir  -0.894019
    20  O   -0.872602
    21  O   -1.003768
    22  O   -0.982008
    23  B    1.418043
    24  B    1.128804
    25  B    1.282528
    26  O   -0.998068
    27  O   -0.913765
    28  C    0.443334
    29  C    0.454674
    30  C    0.523761
    31  C    0.512078
    32  C    0.516467
    33  C    0.531157
    34  O   -1.011332
    35  C   -0.017106
    36  H   -0.001592
    37  H   -0.004123
    38  H   -0.022411
    39  C   -0.009901
    40  H   -0.000429
    41  H   -0.002323
    42  H   -0.011320
    43  C    0.005669
    44  H   -0.017887
    45  H    0.000239
    46  H    0.000512
    47  C   -0.014298
    48  H   -0.019357
    49  H    0.009928
    50  H   -0.016607
    51  C   -0.053486
    52  H    0.005027
    53  H    0.013980
    54  H   -0.008945
    55  C   -0.018247
    56  H   -0.011832
    57  H    0.010796
    58  H    0.005635
    59  C   -0.012836
    60  H    0.003901
    61  H    0.008382
    62  H   -0.012127
    63  C   -0.040570
    64  H    0.009680
    65  H   -0.017120
    66  H    0.007928
    67  C   -0.034361
    68  H   -0.026072
    69  H    0.007394
    70  H    0.004593
    71  C   -0.008946
    72  H    0.001754
    73  H    0.000415
    74  H   -0.015782
    75  C   -0.044289
    76  H   -0.015815
    77  H    0.000581
    78  H    0.002404
    79  C   -0.013157
    80  H    0.003950
    81  H   -0.016210
    82  H    0.003747
    83  H    0.078003
    84  C    0.801689
    85  O   -0.662588
    86  C    0.010058
    87  H   -0.034613
    88  H   -0.006053
    89  C    0.266751
    90  H   -0.044020
    91  H   -0.031470
    92  N   -0.747559
    93  C    0.293295
    94  H    0.021632
    95  H   -0.004181
    96  H   -0.056856
    97  C    0.067967
    98  H   -0.015316
    99  H    0.014793
   100  C    1.749255
   101  F   -0.581295
   102  F   -0.566922
   103  F   -0.528335
   104  C    1.835251
   105  F   -0.623430
   106  F   -0.593343
   107  F   -0.534866
   108  H   -0.034342
 Sum of APT charges =  -0.00000
 APT charges with hydrogens summed into heavy atoms:
               1
     1  C    0.154726
     2  C    0.196655
     3  C   -0.218927
     4  C    0.167411
     5  C   -0.116211
     6  C    0.263506
     7  C    0.197674
     8  C   -0.227207
     9  C    0.184212
    10  C   -0.159121
    17  N   -0.012952
    18  N   -0.257917
    19  Ir  -0.894019
    20  O   -0.872602
    21  O   -1.003768
    22  O   -0.982008
    23  B    1.496046
    24  B    1.128804
    25  B    1.282528
    26  O   -0.998068
    27  O   -0.913765
    28  C    0.443334
    29  C    0.454674
    30  C    0.523761
    31  C    0.512078
    32  C    0.516467
    33  C    0.531157
    34  O   -1.011332
    35  C   -0.045231
    39  C   -0.023973
    43  C   -0.011467
    47  C   -0.040333
    51  C   -0.043424
    55  C   -0.013648
    59  C   -0.012680
    63  C   -0.040083
    67  C   -0.048445
    71  C   -0.022560
    75  C   -0.057119
    79  C   -0.021670
    84  C    0.801689
    85  O   -0.662588
    86  C   -0.030608
    89  C    0.191261
    92  N   -0.747559
    93  C    0.253890
    97  C    0.033102
   100  C    1.749255
   101  F   -0.581295
   102  F   -0.566922
   103  F   -0.528335
   104  C    1.835251
   105  F   -0.623430
   106  F   -0.593343
   107  F   -0.534866
 Electronic spatial extent (au):  <R**2>=          32066.6476
 Charge=             -0.0000 electrons
 Dipole moment (field-independent basis, Debye):
    X=              0.9378    Y=             -0.0080    Z=             -2.3437  Tot=              2.5244
 Quadrupole moment (field-independent basis, Debye-Ang):
   XX=           -329.3255   YY=           -329.0629   ZZ=           -319.1840
   XY=             -0.3529   XZ=              6.9759   YZ=             13.2337
 Traceless Quadrupole moment (field-independent basis, Debye-Ang):
   XX=             -3.4680   YY=             -3.2055   ZZ=              6.6735
   XY=             -0.3529   XZ=              6.9759   YZ=             13.2337
 Octapole moment (field-independent basis, Debye-Ang**2):
  XXX=             -1.3967  YYY=             10.7419  ZZZ=             43.4511  XYY=            -24.8640
  XXY=             29.7131  XXZ=             72.8414  XZZ=             33.8463  YZZ=            -35.1659
  YYZ=            -70.8505  XYZ=            -13.7731
 Hexadecapole moment (field-independent basis, Debye-Ang**3):
 XXXX=         -19276.6269 YYYY=         -11752.3307 ZZZZ=          -9411.1746 XXXY=             17.1516
 XXXZ=             98.6581 YYYX=           -268.2140 YYYZ=            330.8307 ZZZX=             26.8789
 ZZZY=            171.8791 XXYY=          -5045.3397 XXZZ=          -4511.9720 YYZZ=          -3414.8249
 XXYZ=             28.4641 YYXZ=             52.0134 ZZXY=             54.6294
 N-N= 9.739604803003D+03 E-N=-2.608511660495D+04  KE= 2.745603010712D+03
  Exact polarizability:     552.906       6.406     474.963      -3.036      34.467     444.908
 Approx polarizability:     790.487      -8.558     697.522       3.100      87.772     666.799
   1 Symmetry operations used in ECPInt.
 ECPInt:  NShTT=   54615 NPrTT=  339395 LenC2=   41007 LenP2D=  126915.
 LDataN:  DoStor=T MaxTD1= 8 Len=  415
 Calling FoFJK, ICntrl=    100127 FMM=F ISym2X=0 I1Cent= 0 IOpClX= 0 NMat=1 NMatS=1 NMatT=0.
 Defaulting to unpruned grid for atomic number  77.
 Defaulting to unpruned grid for atomic number  77.
 Defaulting to unpruned grid for atomic number  77.
 Defaulting to unpruned grid for atomic number  77.
 Defaulting to unpruned grid for atomic number  77.
 Defaulting to unpruned grid for atomic number  77.
 Defaulting to unpruned grid for atomic number  77.
 Defaulting to unpruned grid for atomic number  77.
 Defaulting to unpruned grid for atomic number  77.
 Defaulting to unpruned grid for atomic number  77.
 Defaulting to unpruned grid for atomic number  77.
 Defaulting to unpruned grid for atomic number  77.
 Defaulting to unpruned grid for atomic number  77.
 Defaulting to unpruned grid for atomic number  77.
 Defaulting to unpruned grid for atomic number  77.
 Defaulting to unpruned grid for atomic number  77.
 Full mass-weighted force constant matrix:
 Low frequencies ---  -85.5367   -2.3330   -0.0004   -0.0001    0.0005    8.7427
 Low frequencies ---   11.1042   25.7217   30.3390
 ******    1 imaginary frequencies (negative Signs) ****** 
 Diagonal vibrational polarizability:
       97.7564229      83.1631863      82.6552095
 Harmonic frequencies (cm**-1), IR intensities (KM/Mole), Raman scattering
 activities (A**4/AMU), depolarization ratios for plane and unpolarized
 incident light, reduced masses (AMU), force constants (mDyne/A),
 and normal coordinates:
                      1                      2                      3
                      A                      A                      A
 Frequencies --    -85.5250                25.5716                30.2768
 Red. masses --      4.3074                 4.6491                 5.0937
 Frc consts  --      0.0186                 0.0018                 0.0028
 IR Inten    --      2.4275                 0.1860                 0.1405
  Atom AN      X      Y      Z        X      Y      Z        X      Y      Z
     1   6    -0.04  -0.01  -0.04    -0.01   0.04  -0.04    -0.01  -0.02  -0.01
     2   6    -0.03  -0.00  -0.05    -0.01   0.02   0.01    -0.01  -0.00  -0.03
     3   6    -0.03  -0.01  -0.03    -0.01   0.04  -0.01    -0.00   0.01  -0.05
     4   6    -0.04  -0.02  -0.02    -0.01   0.07  -0.06    -0.00   0.01  -0.05
     5   6    -0.04  -0.02  -0.03    -0.01   0.07  -0.07    -0.01  -0.00  -0.03
     6   6    -0.04  -0.00  -0.04    -0.01   0.03  -0.03    -0.01  -0.02   0.01
     7   6    -0.05   0.01  -0.02    -0.02  -0.02   0.03    -0.02  -0.01   0.03
     8   6    -0.03  -0.00   0.00    -0.01  -0.02   0.02    -0.01  -0.02   0.04
     9   6    -0.02  -0.01  -0.00    -0.01   0.01  -0.01     0.00  -0.04   0.05
    10   6    -0.02  -0.01  -0.02    -0.01   0.04  -0.03     0.00  -0.04   0.03
    11   1    -0.02   0.00  -0.05    -0.00  -0.00   0.05    -0.00  -0.00  -0.03
    12   1    -0.04  -0.02  -0.00    -0.01   0.09  -0.08    -0.00   0.02  -0.06
    13   1    -0.04  -0.03  -0.02    -0.01   0.09  -0.11    -0.01  -0.00  -0.03
    14   1    -0.06   0.03  -0.02    -0.02  -0.05   0.05    -0.03   0.00   0.02
    15   1    -0.01  -0.02   0.01    -0.00   0.02  -0.01     0.01  -0.05   0.06
    16   1    -0.02  -0.03  -0.02     0.00   0.06  -0.05     0.01  -0.06   0.04
    17   7    -0.03  -0.01  -0.06    -0.01   0.02  -0.00    -0.01  -0.01  -0.02
    18   7    -0.05   0.01  -0.04    -0.02  -0.00   0.00    -0.02  -0.01   0.01
    19  77     0.00  -0.01   0.06    -0.01   0.02   0.00     0.01  -0.03  -0.01
    20   8     0.00   0.05   0.10    -0.01  -0.02   0.00     0.01  -0.03  -0.00
    21   8     0.03   0.02  -0.06    -0.01  -0.01   0.01     0.02   0.02  -0.04
    22   8     0.06  -0.00  -0.06    -0.04   0.01   0.03    -0.00   0.02   0.06
    23   5     0.02  -0.04  -0.07    -0.01   0.02   0.01     0.02  -0.01  -0.03
    24   5     0.03   0.07   0.10    -0.01  -0.00  -0.01     0.00  -0.03  -0.01
    25   5     0.08   0.02  -0.08     0.00   0.02  -0.01    -0.01  -0.02   0.06
    26   8     0.04   0.02  -0.07     0.04   0.03  -0.04    -0.02  -0.05   0.11
    27   8     0.05   0.05   0.07    -0.00  -0.01  -0.02    -0.02  -0.01  -0.02
    28   6     0.02   0.03   0.05     0.00  -0.03  -0.02    -0.02  -0.01  -0.02
    29   6    -0.00   0.03   0.07    -0.00  -0.04  -0.01    -0.01  -0.03  -0.01
    30   6     0.03  -0.02  -0.05    -0.03   0.01   0.06     0.00   0.02   0.09
    31   6     0.01   0.01  -0.06     0.01   0.02  -0.03     0.00  -0.02   0.13
    32   6     0.03   0.03  -0.05    -0.01   0.01   0.01     0.04   0.07  -0.05
    33   6     0.02   0.02  -0.06    -0.01   0.04  -0.00     0.03   0.08  -0.06
    34   8     0.03  -0.01  -0.06    -0.01   0.04   0.00     0.03   0.01  -0.03
    35   6     0.00   0.02   0.06     0.01  -0.04  -0.02    -0.03  -0.05  -0.01
    36   1    -0.02   0.02   0.09     0.01  -0.05  -0.02    -0.02  -0.07   0.00
    37   1     0.02   0.06   0.05     0.00  -0.04  -0.03    -0.03  -0.06  -0.01
    38   1     0.01  -0.01   0.04     0.01  -0.05  -0.02    -0.04  -0.05  -0.02
    39   6    -0.02   0.01   0.07    -0.00  -0.06   0.00    -0.00  -0.03  -0.01
    40   1    -0.02   0.01   0.07    -0.01  -0.05   0.01     0.00  -0.02  -0.00
    41   1    -0.04   0.01   0.09    -0.01  -0.06   0.01     0.01  -0.04  -0.01
    42   1    -0.02  -0.01   0.05    -0.00  -0.07  -0.00    -0.01  -0.02  -0.01
    43   6     0.02   0.03   0.03     0.02  -0.04  -0.04    -0.04  -0.01  -0.04
    44   1    -0.00   0.01   0.01     0.03  -0.07  -0.03    -0.03  -0.02  -0.04
    45   1     0.02   0.03   0.05     0.03  -0.04  -0.05    -0.04  -0.03  -0.05
    46   1     0.04   0.03   0.01     0.03  -0.04  -0.04    -0.05   0.00  -0.04
    47   6     0.03   0.03   0.03    -0.01  -0.04  -0.00    -0.01   0.01  -0.02
    48   1     0.01   0.02   0.01    -0.00  -0.06   0.00    -0.01   0.02  -0.02
    49   1     0.05   0.03   0.02    -0.00  -0.03  -0.01    -0.02   0.02  -0.02
    50   1     0.03   0.03   0.04    -0.02  -0.03   0.01     0.00   0.01  -0.02
    51   6     0.04   0.03  -0.05    -0.02   0.02   0.04     0.08   0.08  -0.00
    52   1     0.04   0.03  -0.04    -0.02   0.02   0.06     0.09   0.06   0.02
    53   1     0.04   0.03  -0.05    -0.02  -0.00   0.05     0.08   0.07   0.00
    54   1     0.04   0.04  -0.05    -0.02   0.03   0.05     0.10   0.12  -0.01
    55   6     0.03   0.04  -0.05    -0.01  -0.00   0.00     0.03   0.10  -0.08
    56   1     0.02   0.04  -0.04    -0.01   0.01   0.01     0.04   0.14  -0.08
    57   1     0.04   0.04  -0.04    -0.01  -0.02   0.01     0.03   0.09  -0.07
    58   1     0.03   0.04  -0.05    -0.00  -0.01  -0.01    -0.00   0.09  -0.10
    59   6     0.03   0.03  -0.06    -0.01   0.07   0.01     0.08   0.14  -0.04
    60   1     0.02   0.03  -0.06    -0.01   0.08  -0.00     0.08   0.15  -0.05
    61   1     0.04   0.03  -0.05    -0.02   0.07   0.03     0.12   0.13   0.01
    62   1     0.02   0.04  -0.05    -0.01   0.07   0.01     0.09   0.19  -0.07
    63   6     0.00   0.03  -0.06     0.00   0.04  -0.03    -0.02   0.09  -0.13
    64   1    -0.01   0.02  -0.06     0.00   0.05  -0.04    -0.04   0.09  -0.14
    65   1    -0.00   0.04  -0.06     0.00   0.04  -0.03    -0.03   0.15  -0.15
    66   1    -0.00   0.02  -0.06     0.00   0.02  -0.04    -0.05   0.05  -0.14
    67   6    -0.01   0.03  -0.06    -0.03  -0.02  -0.11     0.02   0.01   0.17
    68   1    -0.03   0.02  -0.06    -0.06  -0.03  -0.10     0.03   0.03   0.19
    69   1    -0.01   0.05  -0.06     0.00  -0.01  -0.17     0.01  -0.01   0.20
    70   1     0.01   0.04  -0.06    -0.08  -0.04  -0.11     0.03   0.03   0.15
    71   6     0.00  -0.01  -0.05     0.08   0.05  -0.03    -0.00  -0.05   0.16
    72   1     0.02  -0.03  -0.05     0.12   0.08   0.02    -0.02  -0.07   0.14
    73   1    -0.01   0.00  -0.05     0.11   0.06  -0.09    -0.01  -0.07   0.19
    74   1    -0.02  -0.02  -0.04     0.05   0.04  -0.01     0.01  -0.02   0.18
    75   6     0.04  -0.04  -0.04     0.03   0.02   0.15    -0.01  -0.00   0.06
    76   1     0.04  -0.05  -0.03     0.03   0.02   0.17    -0.01  -0.00   0.07
    77   1     0.05  -0.04  -0.04    -0.01   0.00   0.20    -0.01   0.01   0.03
    78   1     0.06  -0.05  -0.05     0.10   0.04   0.13    -0.03  -0.03   0.05
    79   6     0.01  -0.03  -0.05    -0.13  -0.02   0.08     0.03   0.07   0.10
    80   1     0.02  -0.04  -0.04    -0.15  -0.04   0.14     0.03   0.09   0.07
    81   1    -0.01  -0.03  -0.04    -0.14  -0.03   0.10     0.03   0.07   0.13
    82   1     0.00  -0.01  -0.05    -0.18  -0.02   0.02     0.03   0.09   0.12
    83   1    -0.63  -0.07   0.42     0.02   0.02  -0.02    -0.03  -0.03   0.01
    84   6     0.00  -0.03  -0.02     0.07  -0.06  -0.06    -0.02   0.02  -0.02
    85   8    -0.01  -0.03  -0.03     0.10  -0.01  -0.09    -0.02   0.02  -0.02
    86   6    -0.00  -0.01  -0.01     0.08  -0.11  -0.07    -0.03   0.03  -0.04
    87   1     0.00  -0.00  -0.01     0.08  -0.16  -0.07    -0.04   0.02  -0.05
    88   1     0.01   0.00  -0.02     0.06  -0.11  -0.05    -0.02   0.03  -0.05
    89   6     0.03  -0.06  -0.02     0.03  -0.01  -0.00    -0.02   0.00   0.01
    90   1     0.05  -0.10  -0.01     0.01  -0.01   0.00    -0.03   0.02  -0.00
    91   1     0.01  -0.07  -0.04     0.06   0.01  -0.01    -0.02   0.00   0.03
    92   7     0.02  -0.04  -0.01     0.04  -0.06  -0.01    -0.02   0.01  -0.01
    93   6     0.04  -0.03  -0.01     0.01  -0.11   0.03    -0.02   0.01  -0.02
    94   1     0.05  -0.03  -0.01    -0.02  -0.09   0.07    -0.01   0.01  -0.00
    95   1     0.04  -0.01  -0.01     0.01  -0.12   0.03    -0.02   0.03  -0.04
    96   1     0.04  -0.02  -0.01     0.01  -0.15   0.03    -0.05   0.01  -0.02
    97   6    -0.02  -0.00  -0.01     0.13  -0.10  -0.13    -0.03   0.03  -0.06
    98   1    -0.02  -0.01  -0.01     0.12  -0.05  -0.13    -0.01   0.04  -0.05
    99   1    -0.03  -0.01  -0.01     0.16  -0.09  -0.16    -0.04   0.02  -0.05
   100   6    -0.03  -0.01  -0.01    -0.01   0.03   0.02    -0.00   0.02  -0.06
   101   9    -0.04  -0.01  -0.01    -0.02   0.08   0.06     0.02   0.04  -0.06
   102   9    -0.03  -0.00  -0.00    -0.00   0.03  -0.02    -0.01   0.03  -0.09
   103   9    -0.01  -0.01  -0.01     0.00  -0.02   0.05    -0.01   0.01  -0.06
   104   6    -0.03   0.00   0.01    -0.01  -0.04   0.05    -0.01  -0.01   0.05
   105   9    -0.03   0.01   0.02    -0.03  -0.04   0.05     0.01  -0.01   0.10
   106   9    -0.03   0.00   0.01     0.02  -0.04   0.06    -0.01  -0.04   0.04
   107   9    -0.04   0.01   0.01    -0.02  -0.05   0.06    -0.02   0.03   0.04
   108   1    -0.02   0.01  -0.00     0.14  -0.15  -0.13    -0.03   0.04  -0.07
                      4                      5                      6
                      A                      A                      A
 Frequencies --     34.6280                38.3407                46.4232
 Red. masses --      4.9779                 4.3475                 5.7878
 Frc consts  --      0.0035                 0.0038                 0.0073
 IR Inten    --      0.0705                 0.2472                 0.5831
  Atom AN      X      Y      Z        X      Y      Z        X      Y      Z
     1   6    -0.02   0.02  -0.02    -0.00   0.02   0.01    -0.02  -0.02   0.01
     2   6    -0.02   0.01   0.01     0.00   0.03   0.01    -0.01   0.01  -0.02
     3   6    -0.02  -0.00   0.03     0.00   0.04  -0.01    -0.02  -0.01   0.02
     4   6    -0.03   0.00   0.02     0.00   0.04  -0.02    -0.03  -0.03   0.04
     5   6    -0.03   0.02  -0.01     0.00   0.04  -0.01    -0.03  -0.03   0.04
     6   6    -0.02   0.02  -0.03    -0.00   0.01   0.02    -0.02  -0.03   0.02
     7   6    -0.02  -0.02  -0.00    -0.00   0.01   0.02    -0.02   0.04  -0.01
     8   6    -0.03  -0.02  -0.00    -0.00   0.01   0.02    -0.02  -0.00   0.03
     9   6    -0.03  -0.00  -0.02    -0.00   0.01   0.02    -0.02  -0.07   0.07
    10   6    -0.03   0.02  -0.03    -0.00   0.02   0.02    -0.02  -0.08   0.07
    11   1    -0.02   0.01   0.01     0.00   0.02   0.01    -0.00   0.02  -0.04
    12   1    -0.03  -0.00   0.03     0.00   0.05  -0.03    -0.04  -0.04   0.07
    13   1    -0.03   0.02  -0.02    -0.00   0.04  -0.02    -0.04  -0.05   0.06
    14   1    -0.02  -0.03   0.01     0.00   0.01   0.02    -0.03   0.08  -0.05
    15   1    -0.03  -0.00  -0.02    -0.01   0.02   0.01    -0.01  -0.11   0.11
    16   1    -0.03   0.03  -0.04    -0.00   0.02   0.02    -0.01  -0.13   0.10
    17   7    -0.02   0.02  -0.01    -0.00   0.02   0.02    -0.01   0.00  -0.03
[...]
 0.00000144,0.00000881,0.00000039,0.00000113,-0.00000440,0.00017952,-0.
 00010524,-0.00002917,-0.00006219,0.00005227,-0.00002482,-0.00003669,0.
 00000942,-0.00000044,-0.00004424,0.00005088,0.00004590,-0.04665186,-0.
 10971018,-0.06736398,-0.01361355,-0.05214617,-0.05093415,0.00606327,0.
 01742554,0.01002622,0.05952371,0.14395415,0.00031699,0.00022657,0.0002
 4414,0.00000579,-0.00005148,-0.00005313,-0.00018070,0.00009044,0.00009
 059,0.00018556,0.00002860,0.00001258,-0.00023742,-0.00004276,-0.000023
 91,0.00062855,0.00021157,0.00042242,0.00240835,-0.00371988,-0.00355026
 ,-0.01118988,-0.00989387,-0.01022601,-0.00324974,0.00076424,0.00212463
 ,0.00008696,-0.00032149,-0.00066390,-0.00002182,-0.00001267,-0.0000046
 3,-0.00000393,-0.00000375,-0.00001241,0.00004852,0.00006069,0.00000952
 ,0.00042884,0.00135756,0.00070322,0.00047214,0.00034611,0.00035412,-0.
 00034266,0.00011359,-0.00003004,-0.00040133,0.00005069,-0.00015030,-0.
 00063993,0.00076931,0.00111752,0.00083352,-0.00009362,0.00068135,-0.00
 022517,0.00040461,0.00053837,0.00181199,-0.00018653,0.00079174,0.00003
 495,0.00007738,0.00010242,-0.00226403,-0.00006377,-0.00098058,-0.00019
 749,-0.00046414,-0.00079133,-0.00012927,-0.00002449,-0.00024438,0.0000
 4524,0.00008620,0.00010107,0.00014871,0.00024961,0.00034048,-0.0002878
 0,-0.00017079,-0.00011108,0.00020835,-0.00019869,-0.00044847,0.0000118
 2,-0.00004440,-0.00001853,-0.00001395,0.00001063,-0.00003574,-0.000746
 26,0.00075656,-0.00076904,-0.00058195,0.00002474,0.00028282,0.00101607
 ,-0.00014600,0.00041305,-0.00007206,0.00010909,0.00015976,0.00005120,-
 0.00000411,0.00002131,-0.00008562,0.00005619,-0.00000432,0.00001476,-0
 .00002407,-0.00000395,0.00019875,-0.00009080,0.00045471,0.00014901,-0.
 00024578,-0.00024453,0.00002887,0.00003696,0.00003402,-0.00003281,0.00
 004496,-0.00003955,0.00011242,-0.00001811,0.00002944,-0.00002650,-0.00
 001949,0.00001158,0.00000276,-0.00004032,0.00001095,0.00001364,0.00005
 941,0.00002176,0.00035224,0.00022462,-0.00007766,-0.00008629,-0.000181
 96,0.00005959,-0.00003874,0.00022144,0.00004981,-0.00066582,0.00050079
 ,-0.00052788,-0.00043709,0.00053271,0.00096211,0.00024353,-0.00014837,
 -0.00031281,0.00023624,-0.00158320,-0.00208132,0.00009598,-0.00015582,
 -0.00012149,-0.00017638,0.00020627,0.00042256,0.00007527,0.00001189,-0
 .00005650,-0.00009908,0.00020061,0.00008236,0.00003171,-0.00017568,-0.
 00005566,0.00011036,-0.00004469,-0.00002228,0.00003092,-0.00008034,-0.
 00005743,-0.00008562,-0.00001674,0.00006725,0.00002674,0.00003089,0.00
 007609,0.00021678,-0.00005337,-0.00013029,0.00003261,-0.00008536,-0.00
 005593,0.00001656,0.00005035,0.00005612,-0.00005636,0.00001995,0.00001
 366,-0.00000589,-0.00001569,-0.00001244,0.00000220,-0.00000133,0.00000
 134,0.00000646,0.00001192,0.00000435,-0.00000610,-0.00000049,0.0000034
 1,-0.00000163,-0.00000776,0.00000243,-0.00001076,-0.00000272,-0.000000
 24,0.00000784,0.00001505,0.00000078,0.00000270,-0.00000251,0.00000408,
 -0.00000827,0.00000242,-0.00000200,-0.00000442,0.00000709,-0.00000113,
 0.00001109,0.00000250,0.00000727,-0.00000194,-0.00000820,0.00000207,0.
 00000647,0.00000769,-0.00000481,0.00001237,0.00000039,0.00000378,-0.00
 000585,0.00000620,0.00000364,-0.00000481,-0.00001176,-0.00000042,-0.00
 004404,0.00019474,0.00000553,0.00001867,-0.00008560,-0.00008275,-0.000
 01204,0.00003179,0.00016640,-0.00000160,0.00001626,-0.00002037,-0.0000
 0107,0.00000191,0.00001613,0.00000571,-0.00000315,-0.00001330,0.000113
 49,0.00001287,-0.00021297,-0.00008076,-0.00003141,0.00011241,-0.000047
 28,-0.00009899,0.00002680,-0.00004168,0.00000084,0.00011076,0.00004113
 ,-0.00004278,-0.00005440,-0.00000963,0.00001180,-0.00001635,0.00001277
 ,0.00000435,-0.00000161,-0.00001300,-0.00000134,0.00003398,0.00000231,
 0.00000267,-0.00001675,0.00000643,0.00000571,0.00001962,0.00000206,-0.
 00000448,-0.00000204,0.00032741,-0.00010317,-0.00011537,-0.00010193,0.
 00005907,-0.00001312,-0.00008307,-0.00001182,0.00000866,-0.00007980,0.
 00007201,0.00009491,-0.08886081,-0.06635288,-0.20115918,-0.00150297,-0
 .04063126,-0.01243268,-0.01311623,-0.00119098,-0.08447235,0.11531304,0
 .11861105,0.30904439,0.00004301,0.00003144,-0.00003747,-0.00000028,0.0
 0000071,-0.00007837,0.00000661,0.00005167,0.00002800,-0.00002307,-0.00
 005315,-0.00001286,0.00000322,-0.00002386,0.00001431,0.00005510,-0.000
 00221,-0.00002994,0.00001254,0.00001423,0.00000902,-0.00003706,-0.0000
 0862,-0.00002536,0.00003441,0.00000613,0.00001345,-0.00004252,0.000007
 83,0.00000713,-0.00000705,0.00002473,-0.00000886,-0.00002520,0.0000067
 0,-0.00001080,0.00000155,0.00000182,-0.00001849,0.00000271,0.00000126,
 0.00000198,-0.00000189,0.00000141,0.00000119,0.00000547,0.00000062,-0.
 00000601,-0.00001518,0.00000668,-0.00003911,-0.00001721,-0.00001818,0.
 00002441,-0.00000500,-0.00006370,0.00003062,-0.00005424,-0.00002914,0.
 00009034,-0.00009486,-0.00000866,-0.00003423,0.00008515,-0.00010522,0.
 00004129,0.00016270,0.00007124,0.00003543,0.00009846,0.00004147,-0.000
 08070,-0.00009196,0.00016748,-0.00001035,0.00003858,-0.00012383,0.0000
 0467,-0.00007468,-0.00005990,0.00006353,0.00002319,0.00000304,-0.00002
 943,0.00001658,0.00003161,-0.00003565,-0.00003118,0.00005962,0.0000036
 7,-0.00002875,0.00004835,-0.00002732,0.00002549,-0.00000318,0.00003357
 ,0.00006421,0.00001123,0.00003244,-0.00010355,-0.00003932,-0.00007724,
 -0.00000046,-0.00000548,0.00000372,0.00000096,0.00000264,-0.00000267,-
 0.00000070,0.00000324,-0.00000199,-0.00000265,-0.00000507,0.00000606,-
 0.00000333,-0.00000272,0.00000329,0.00000400,0.00000078,-0.00000101,0.
 00000162,0.00000330,-0.00000185,-0.00000467,-0.00000381,0.00000481,-0.
 00000285,0.00000003,0.00000165,-0.00000324,-0.00000132,0.00000489,0.00
 000259,-0.00000035,-0.00000050,-0.00000025,-0.00000149,-0.00000289,-0.
 00000311,0.00000414,0.00000451,-0.00000579,0.00000085,0.00000409,0.000
 00186,-0.00000067,-0.00000234,0.00000304,-0.00000356,-0.00000030,0.000
 00671,0.00000476,-0.00000640,-0.00000245,-0.00000365,0.00000582,0.0000
 0316,-0.00000115,0.00000205,-0.00000548,-0.00000041,-0.00000571,-0.000
 00269,0.00000040,0.00000006,-0.00000380,0.00000002,-0.00000429,0.00000
 096,0.00000084,0.00000242,0.00000067,-0.00000219,0.00000138,-0.0000049
 0,0.00000170,-0.00000391,0.00000429,-0.00000133,-0.00000003,0.00000367
 ,-0.00000227,0.00000470,-0.00000691,-0.00000015,-0.00000266,-0.0000094
 3,-0.00000272,-0.00000393,0.00000386,0.00000103,0.00000071,-0.00000756
 ,-0.00000428,-0.00000229,0.00000221,0.00000327,0.00000030,0.00000323,-
 0.00000493,0.00000476,0.00000201,-0.00000704,0.00000527,-0.00000158,0.
 00000238,-0.00000130,-0.00000042,0.00000297,-0.00000453,0.00000165,-0.
 00000453,-0.00000027,-0.00000212,0.00000401,0.00000031,-0.00000274,-0.
 00000026,-0.00000221,0.00000387,-0.00000533,0.00000284,0.00000415,-0.0
 0000805,-0.00001392,0.00000512,-0.00001149,0.00000110,-0.00000585,0.00
 000549,0.00000006,-0.00000193,0.00000709,0.00000850,0.00000116,-0.0000
 0459,0.00000038,-0.00000039,0.00000459,0.00000097,0.00000277,-0.000007
 06,0.00000091,-0.00000156,0.00000144,0.00000057,-0.00000047,0.00001161
 ,-0.00001492,0.00034005,0.00069833,0.00023448,-0.00032769,-0.00189609,
 -0.00052748,-0.00609291,0.00054365,0.00195514,0.00008226,0.00004614,-0
 .00034910,0.00028510,-0.00027958,0.00002146,0.00025073,-0.00005783,-0.
 00013450,-0.00007107,-0.00004634,0.00000979,0.00002964,-0.00000047,0.0
 0002508,-0.00071835,-0.00079163,0.00000668,-0.00019977,0.00016206,0.00
 010238,0.00000459,-0.00006020,-0.00002397,0.00000823,0.00002948,0.0000
 0727,0.00002456,-0.00004095,-0.00007530,-0.29073901,-0.05096406,0.0559
 9606,-0.00122316,0.00022974,-0.00047729,-0.01488745,-0.00520421,0.0048
 7430,-0.00050471,-0.00021413,-0.00009384,0.00010122,0.00001133,0.00002
 193,0.00020905,0.00015440,0.00004817,0.00010921,0.00001107,0.00007959,
 0.00012260,-0.00001537,-0.00002407,-0.00003728,0.00002558,0.00000753,-
 0.00003942,-0.00000842,0.00002518,-0.00002979,-0.00000200,-0.00000357,
 0.31330183,0.00000048,0.00000996,-0.00000587,0.00006418,0.00003342,-0.
 00008629,-0.00001040,-0.00000068,0.00000712,0.00002954,-0.00000369,-0.
 00003530,-0.00000505,-0.00000623,0.00000908,0.00002524,0.00000443,-0.0
 0000719,0.00000167,0.00000738,0.00000417,-0.00001321,-0.00000454,-0.00
 001247,0.00001284,0.00000875,0.00001169,-0.00001723,0.00000910,0.00000
 137,-0.00001108,0.00001537,-0.00000912,-0.00000710,0.00001135,0.000018
 80,-0.00000351,0.00000126,0.00001104,0.00000159,-0.00000310,-0.0000026
 4,-0.00000102,-0.00000021,0.00000129,0.00000153,-0.00000019,0.00000450
 ,-0.00007617,-0.00002915,-0.00004859,-0.00000090,-0.00001654,0.0000155
 6,0.00001346,-0.00004394,0.00006378,-0.00002411,-0.00000428,0.00004304
 ,-0.00005018,0.00000143,-0.00000639,0.00006705,-0.00005464,0.00002858,
 0.00010551,0.00005285,-0.00002182,0.00004277,-0.00000168,-0.00004082,-
 0.00007526,0.00009538,-0.00001511,0.00002769,-0.00006451,0.00000600,-0
 .00003463,-0.00002581,0.00003207,0.00000843,0.00000034,-0.00001328,0.0
 0000463,0.00001177,-0.00001433,-0.00002335,0.00003277,0.00000808,-0.00
 001924,0.00002366,-0.00001865,0.00001277,-0.00000548,0.00001408,0.0000
 3889,0.00000091,0.00001863,-0.00007341,-0.00003130,-0.00003756,-0.0000
 0063,-0.00000260,0.00000187,0.00000033,0.00000153,-0.00000025,-0.00000
 079,0.00000113,-0.00000135,-0.00000059,-0.00000187,0.00000245,-0.00000
 060,-0.00000200,0.00000179,0.00000108,-0.00000002,-0.00000058,0.000000
 69,0.00000145,0.00000002,-0.00000199,-0.00000082,0.00000183,-0.0000018
 9,0.00000078,0.00000091,-0.00000135,-0.00000103,0.00000199,0.00000112,
 -0.00000033,-0.00000007,0.,-0.00000042,-0.00000090,-0.00000160,0.00000
 098,0.00000318,-0.00000268,0.00000038,0.00000155,0.00000096,0.00000033
 ,-0.00000081,0.00000108,-0.00000146,-0.00000073,0.00000329,0.00000422,
 -0.00000339,0.00000022,-0.00000486,0.00000146,-0.00000099,-0.00000061,
 0.00000180,-0.00000285,-0.00000014,-0.00000221,-0.00000117,0.00000181,
 0.00000004,-0.00000166,-0.00000023,-0.00000158,-0.00000057,0.00000023,
 0.00000142,0.00000056,-0.00000056,0.00000030,-0.00000378,0.00000039,-0
 .00000145,0.00000184,0.00000005,0.00000038,0.00000256,-0.00000131,0.00
 000204,-0.00000332,-0.00000015,-0.00000195,-0.00000832,-0.00000063,-0.
 00000305,0.00000164,0.00000112,0.00000034,-0.00000372,-0.00000341,-0.0
 0000120,0.00000092,0.00000149,0.00000025,0.00000390,-0.00000218,0.0000
 0416,0.00000043,-0.00000371,0.00000246,0.00000053,0.00000189,-0.000000
 36,-0.00000080,0.00000149,-0.00000259,0.00000174,-0.00000249,0.0000011
 9,-0.00000170,0.00000179,-0.00000145,0.00000008,0.00000089,-0.00000079
 ,0.00000151,-0.00000357,0.00000129,0.00000287,-0.00000789,-0.00001508,
 0.00000325,-0.00000559,0.00000071,-0.00000186,0.00000309,0.00000734,-0
 .00000376,0.00000275,0.00000293,0.00000107,-0.00000384,-0.00000224,0.0
 0000055,0.00000235,0.00000282,0.00000107,-0.00000319,0.00000133,0.0000
 0044,0.00000120,-0.00000099,0.00000090,0.00001450,-0.00000863,0.001756
 11,-0.00587618,-0.00349842,0.00068135,0.00152101,0.00031332,-0.0292688
 6,-0.00608764,0.00726768,0.00053798,0.00132589,0.00005553,0.00044790,0
 .00089107,0.00081186,0.00026369,-0.00034323,-0.00024982,-0.00016344,-0
 .00005094,0.00002562,-0.00000040,0.00001311,0.00001285,-0.00247927,-0.
 00032131,0.00037044,-0.00026148,0.00035476,0.00014580,0.00002656,-0.00
 005310,-0.00001238,0.00006163,0.00001956,0.00004138,0.00001112,-0.0000
 2702,-0.00004952,-0.05055730,-0.05829932,0.01288032,-0.00041038,-0.001
 44778,0.00032894,0.02177322,0.00638584,-0.00724913,-0.00056941,-0.0003
 4259,0.00013479,0.00008297,0.00007713,-0.00006651,0.00028369,0.0002830
 5,-0.00013018,0.00013094,0.00003027,-0.00002436,0.00003187,-0.00001500
 ,-0.00000639,-0.00001065,0.00001195,0.00000205,-0.00001028,-0.00000032
 ,0.00000615,-0.00000646,0.00000224,0.00000129,0.05764848,0.06193345,-0
 .00010594,-0.00000778,0.00001625,-0.00008748,-0.00008778,-0.00006623,0
 .00009854,-0.00000399,-0.00010303,-0.00000359,0.00002562,0.00010679,-0
 .00005645,0.00006481,-0.00001134,-0.00002142,0.00001770,0.00000596,-0.
 00000100,-0.00000055,-0.00000374,0.00001522,0.00000111,0.00000388,-0.0
 0000842,0.00000496,0.00000501,0.00001657,0.00000020,-0.00000527,0.0000
 1129,0.00000427,0.00000021,0.00007628,-0.00000071,0.00006734,-0.000016
 11,-0.00000039,0.00002683,0.00000076,-0.00000269,-0.00000320,0.0000014
 2,-0.00000092,-0.00000032,-0.00000440,0.00000254,0.00000922,-0.0000226
 5,-0.00000956,-0.00002692,0.00001856,-0.00001280,0.00001053,0.00001457
 ,0.00001552,0.00007084,0.00001348,0.00001753,-0.00002016,0.00001229,0.
 00000337,0.00001437,-0.00001906,0.00003694,-0.00000753,-0.00000484,0.0
 0001056,-0.00004219,-0.00003033,-0.00003978,0.00001339,0.00001161,-0.0
 0004249,-0.00000109,-0.00001203,0.00002809,-0.00000062,0.00001206,0.00
 001564,-0.00001003,-0.00000510,-0.00000097,0.00000514,-0.00000506,-0.0
 0001191,0.00001197,0.00002111,-0.00002180,-0.00000518,0.00000568,-0.00
 000656,0.00000758,-0.00000450,0.00000024,-0.00000733,-0.00000132,-0.00
 000445,0.00000036,-0.00000325,-0.00000576,0.00001363,-0.00000010,0.000
 00126,-0.00000180,-0.00000002,-0.00000107,0.00000126,-0.00000005,-0.00
 000044,0.00000080,0.00000085,0.00000156,-0.00000143,0.00000148,0.00000
 104,-0.00000127,-0.00000175,-0.00000004,-0.00000006,-0.00000031,-0.000
 00096,0.00000118,0.00000122,0.00000121,-0.00000128,0.00000082,0.000000
 26,0.00000021,0.00000057,0.00000017,-0.00000086,-0.00000075,0.00000029
 ,-0.00000021,0.00000023,0.00000050,0.00000054,0.00000042,-0.00000141,-
 0.00000024,0.00000091,-0.00000006,-0.00000074,-0.00000023,0.00000050,0
 .00000048,-0.00000083,0.00000105,-0.00000047,0.00000228,-0.00000012,0.
 00000071,0.00000039,-0.00000033,-0.00000106,-0.00000193,0.00000036,-0.
 00000016,0.00000002,-0.00000014,0.00000118,0.00000094,-0.00000021,0.00
 000084,0.00000070,0.00000001,0.00000071,-0.00000077,-0.00000015,-0.000
 00025,-0.00000027,0.00000033,-0.00000029,-0.00000009,0.00000074,0.0000
 0021,-0.00000042,-0.00000026,0.00000049,0.00000016,0.00000032,0.000000
 18,0.00000043,-0.00000023,0.00000010,-0.00000100,0.00000070,-0.0000006
 1,-0.00000034,0.00000009,0.00000035,0.00000049,-0.00000030,0.00000026,
 -0.00000022,-0.00000056,-0.00000035,-0.00000144,0.00000025,-0.00000181
 ,-0.00000041,0.00000188,-0.00000089,-0.00000019,-0.00000085,0.00000006
 ,0.00000036,-0.00000066,0.00000134,0.00000025,0.00000085,-0.00000029,0
 .00000037,-0.00000020,0.00000091,-0.00000030,-0.00000019,0.00000061,-0
 .00000079,0.00000156,-0.00000045,-0.00000244,0.00000467,0.00000575,-0.
 00000122,0.00000274,0.00000121,0.00000254,-0.00000196,-0.00000336,0.00
 000032,-0.00000025,-0.00000159,-0.00000110,0.00000341,0.00000117,0.000
 00044,-0.00000199,-0.00000119,-0.00000065,0.00000227,-0.00000052,-0.00
 000033,-0.00000109,0.00000073,0.00000908,0.00000549,-0.00000003,0.0006
 5161,-0.00346019,-0.00121234,0.00040341,0.00067849,0.00083043,-0.01451
 734,-0.00280403,0.00232410,-0.00011489,0.00078405,0.00034932,0.0004680
 5,0.00049578,0.00019125,0.00014024,-0.00012296,-0.00012802,-0.00006640
 ,-0.00002136,0.00002440,-0.00001373,0.00000433,0.00000466,-0.00116006,
 -0.00010266,0.00030667,-0.00005179,0.00014835,0.00003587,0.00000957,-0
 .00001332,-0.00001223,0.00002512,0.00001783,0.00002452,-0.00000796,-0.
 00001567,-0.00002284,0.05653637,0.01308396,-0.06133553,0.03074266,0.00
 626805,-0.00486788,-0.01149056,-0.00376769,0.00201064,0.00072785,0.000
 34032,-0.00003944,-0.00012514,-0.00007923,0.00004444,-0.00037680,-0.00
 035767,0.00009404,-0.00012344,-0.00005315,0.00001685,-0.00004150,-0.00
 000059,0.00000582,0.00001202,-0.00000605,-0.00000214,0.00001304,0.0000
 0355,-0.00000793,0.00001089,0.00000261,0.00000379,-0.06157500,-0.01103
 097,0.06128635\\0.00000029,0.00000139,-0.00000235,0.00000383,0.0000018
 5,-0.00000653,-0.00000232,-0.00000113,-0.00000575,-0.00000229,0.000009
 79,-0.00000135,0.00000361,0.00000044,-0.00000108,-0.00000465,-0.000000
 32,0.00000551,-0.00000317,-0.00000485,0.00000360,-0.00000968,-0.000005
 44,0.00000132,0.00000576,0.00000127,0.00001262,-0.00000684,-0.00000325
 ,-0.00000393,0.00000010,0.00000405,0.00000105,-0.00000224,-0.00000096,
 -0.00000311,-0.00000078,0.00000109,0.00000060,0.00000062,0.00000009,0.
 00000347,0.00000184,-0.00000511,-0.00000211,0.00000282,0.00000188,0.00
 000517,0.00000043,-0.00000107,0.00000178,-0.00000132,-0.00000115,-0.00
 000204,-0.00000305,-0.00000178,-0.00000040,0.00000349,0.00000304,0.000
 00594,-0.00000740,-0.00000017,0.00000304,0.00000157,0.00000254,-0.0000
 0068,0.00000074,-0.00000225,0.00000370,0.00000042,-0.00000401,-0.00000
 339,0.00000135,0.00000229,-0.00000236,0.00000231,0.00000138,-0.0000036
 2,0.00000397,-0.00000436,-0.00000096,0.00000870,-0.00000153,0.00000908
 ,0.00000232,-0.00000405,-0.00000147,0.00000058,0.00000171,-0.00000912,
 0.00000872,0.00000072,-0.00000126,-0.00000506,-0.00000353,0.00000581,-
 0.00000206,0.00000457,0.00000794,-0.00000307,-0.00000137,-0.00000432,0
 .00000597,-0.00000763,0.00000032,0.00000463,0.00000166,0.00000069,0.00
 000193,-0.00000098,0.00000140,0.00000399,-0.00000004,-0.00000139,0.000
 00155,0.00000046,0.00000455,0.00000447,-0.00000613,0.00000228,0.000002
 17,-0.00000429,0.00000172,0.00000360,-0.00000237,0.00000108,0.00001262
 ,-0.00000732,-0.00000073,0.00000085,-0.00000182,0.00000343,0.00000066,
 0.00000028,-0.00000045,0.00000264,-0.00000135,0.00000160,-0.00000168,-
 0.00000191,-0.00000017,0.00000220,-0.00000272,0.00000208,0.00000167,-0
 .00000169,0.00000141,0.00000153,-0.00000039,0.00000308,0.00000338,-0.0
 0000423,0.00000591,-0.00000695,-0.00000258,0.00000143,-0.00000299,0.00
 000386,0.00000768,-0.00000404,-0.00000019,0.00000037,-0.00000046,0.000
 00012,0.00000548,-0.00000147,-0.00000140,0.00000275,-0.00000190,-0.000
 00380,0.00000298,-0.00000029,-0.00000268,0.00000177,0.00000119,-0.0000
 0036,0.00000114,-0.00000415,0.00000067,0.00000233,-0.00000383,-0.00000
 069,0.00000123,-0.00000696,-0.00000085,0.00000032,0.00000327,-0.000010
 64,-0.00000015,-0.00000518,0.00000297,0.00000433,-0.00000214,-0.000000
 57,0.00000156,-0.00000059,0.00000056,-0.00000008,0.00000734,0.00000363
 ,0.00000056,0.00000218,0.00000019,-0.00000183,0.00000043,-0.00000123,-
 0.00000218,0.00000846,-0.00000227,-0.00000730,-0.00000405,0.00000227,-
 0.00000090,0.00000393,0.00000397,-0.00000619,0.00000327,0.00000128,-0.
 00000212,0.00000349,0.00000006,-0.00000143,0.00000748,0.00000437,-0.00
 000486,0.00000003,0.00000287,-0.00000339,-0.00000193,-0.00000081,-0.00
 000433,0.00000023,0.00000169,-0.00000071,0.00000579,0.00000795,-0.0000
 0476,0.00000201,0.00000008,-0.00000288,0.00000414,-0.00000190,-0.00000
 267,0.00000213,-0.00000011,-0.00000206,-0.00000050,0.00000314,-0.00000
 033,-0.00000406,-0.00000496,-0.00000647,-0.00001105,0.00000753,0.,-0.0
 0000883,0.00001006,0.00000234,-0.00000120,0.00000213,-0.00000539,-0.00
 000183,0.00000387,-0.00000452,-0.00000639,0.00000446,-0.00000229,-0.00
 000183,-0.00000013,0.00000008,-0.00000195,-0.00000004,0.00000142,0.000
 00049,0.00000666,-0.00000137,-0.00000598,0.00000537,-0.00000335,-0.000
 00057,0.00000114,-0.00000073,-0.00000227,0.00000262,-0.00000391,-0.000
 00195,0.00000148,-0.00000129,-0.00000960,0.00000309,0.00000264,0.00000
 203,-0.00000008,-0.00000216,-0.00000082,-0.00000049,-0.00000130,-0.000
 00307,0.00000060,-0.00000472,0.00000161,0.00000737,-0.00001151,0.00000
 108,0.00000737,-0.00000704,-0.00000025,0.00000897,-0.00000473,0.000007
 69,-0.00001065,0.00000674,-0.00000622,-0.00000208,0.00001010,0.0000008
 2,-0.00000842,0.00000964,-0.00000283,-0.00001017,0.00000269,-0.0000026
 8,0.00000338,-0.00000227\\\@
 The archive entry for this job was punched.


 A CHEMICAL PHYSICIST MAKES PRECISE MEASUREMENTS ON IMPURE COMPOUNDS.
 A THEORETICAL PHYSICAL CHEMIST MAKES IMPRECISE
     MEASUREMENTS ON PURE COMPOUNDS.
 AN EXPERIMENTAL PHYSICAL CHEMIST MAKES IMPRECISE
     MEASUREMENTS ON IMPURE COMPOUNDS.
 Job cpu time:       2 days  1 hours 23 minutes 20.3 seconds.
 Elapsed time:       0 days  3 hours  8 minutes 39.3 seconds.
 File lengths (MBytes):  RWF=   9700 Int=      0 D2E=      0 Chk=     55 Scr=      1
 Normal termination of Gaussian 16 at Sat Dec  7 22:01:58 2024.
