/mnt/lustre/scratch/nvme/SLURM/9663521/usccqdma.Tcung4BtpP
OMP_STACKSIZE=0m
GAUSS_PDEF=16
GAUSS_MDEF=65536MB
GAUSS_RDEF=SCF=Direct
 Entering Gaussian System, Link 0=g16.exe
 Initial command:
 /opt/cesga/2020/software/Core/g16/c1/l1.exe "/mnt/lustre/scratch/nvme/SLURM/9663521/usccqdma.Tcung4BtpP/Gau-1785021.inp" -scrdir="/mnt/lustre/scratch/nvme/SLURM/9663521/usccqdma.Tcung4BtpP/"
 Default is to use a total of  16 processors:
                               16 via shared-memory
                                1 via Linda
 Entering Link 1 = /opt/cesga/2020/software/Core/g16/c1/l1.exe PID=   1785048.
  
 Copyright (c) 1988-2019, Gaussian, Inc.  All Rights Reserved.
  
 This is part of the Gaussian(R) 16 program.  It is based on
 the Gaussian(R) 09 system (copyright 2009, Gaussian, Inc.),
 the Gaussian(R) 03 system (copyright 2003, Gaussian, Inc.),
 the Gaussian(R) 98 system (copyright 1998, Gaussian, Inc.),
 the Gaussian(R) 94 system (copyright 1995, Gaussian, Inc.),
 the Gaussian 92(TM) system (copyright 1992, Gaussian, Inc.),
 the Gaussian 90(TM) system (copyright 1990, Gaussian, Inc.),
 the Gaussian 88(TM) system (copyright 1988, Gaussian, Inc.),
 the Gaussian 86(TM) system (copyright 1986, Carnegie Mellon
 University), and the Gaussian 82(TM) system (copyright 1983,
 Carnegie Mellon University). Gaussian is a federally registered
 trademark of Gaussian, Inc.
  
 This software contains proprietary and confidential information,
 including trade secrets, belonging to Gaussian, Inc.
  
 This software is provided under written license and may be
 used, copied, transmitted, or stored only in accord with that
 written license.
  
 The following legend is applicable only to US Government
 contracts under FAR:
  
                    RESTRICTED RIGHTS LEGEND
  
 Use, reproduction and disclosure by the US Government is
 subject to restrictions as set forth in subparagraphs (a)
 and (c) of the Commercial Computer Software - Restricted
 Rights clause in FAR 52.227-19.
  
 Gaussian, Inc.
 340 Quinnipiac St., Bldg. 40, Wallingford CT 06492
  
  
 ---------------------------------------------------------------
 Warning -- This program may not be used in any manner that
 competes with the business of Gaussian, Inc. or will provide
 assistance to any competitor of Gaussian, Inc.  The licensee
 of this program is prohibited from giving any competitor of
 Gaussian, Inc. access to this program.  By using this program,
 the user acknowledges that Gaussian, Inc. is engaged in the
 business of creating and licensing software in the field of
 computational chemistry and represents and warrants to the
 licensee that it is not a competitor of Gaussian, Inc. and that
 it will not use this program in any manner prohibited above.
 ---------------------------------------------------------------
  

 Cite this work as:
 Gaussian 16, Revision C.01,
 M. J. Frisch, G. W. Trucks, H. B. Schlegel, G. E. Scuseria, 
 M. A. Robb, J. R. Cheeseman, G. Scalmani, V. Barone, 
 G. A. Petersson, H. Nakatsuji, X. Li, M. Caricato, A. V. Marenich, 
 J. Bloino, B. G. Janesko, R. Gomperts, B. Mennucci, H. P. Hratchian, 
 J. V. Ortiz, A. F. Izmaylov, J. L. Sonnenberg, D. Williams-Young, 
 F. Ding, F. Lipparini, F. Egidi, J. Goings, B. Peng, A. Petrone, 
 T. Henderson, D. Ranasinghe, V. G. Zakrzewski, J. Gao, N. Rega, 
 G. Zheng, W. Liang, M. Hada, M. Ehara, K. Toyota, R. Fukuda, 
 J. Hasegawa, M. Ishida, T. Nakajima, Y. Honda, O. Kitao, H. Nakai, 
 T. Vreven, K. Throssell, J. A. Montgomery, Jr., J. E. Peralta, 
 F. Ogliaro, M. J. Bearpark, J. J. Heyd, E. N. Brothers, K. N. Kudin, 
 V. N. Staroverov, T. A. Keith, R. Kobayashi, J. Normand, 
 K. Raghavachari, A. P. Rendell, J. C. Burant, S. S. Iyengar, 
 J. Tomasi, M. Cossi, J. M. Millam, M. Klene, C. Adamo, R. Cammi, 
 J. W. Ochterski, R. L. Martin, K. Morokuma, O. Farkas, 
 J. B. Foresman, and D. J. Fox, Gaussian, Inc., Wallingford CT, 2019.
 
 ******************************************
 Gaussian 16:  ES64L-G16RevC.01  3-Jul-2019
                 7-Dec-2024 
 ******************************************
 Default route: SCF=Direct
 ----------------------------------------------------
 # m06/genecp scf=tight int=ultrafine 5d freq=noraman
 ----------------------------------------------------
 1/10=4,30=1,38=1/1,3;
 2/12=2,17=6,18=5,40=1/2;
 3/5=7,8=1,11=2,16=1,17=8,25=1,30=1,71=2,74=-54,75=-5,140=1/1,2,3;
 4//1;
 5/5=2,32=2,38=5,98=1/2;
 8/6=4,10=90,11=11/1;
 11/6=1,8=1,9=11,15=111,16=1/1,2,10;
 10/6=1/2;
 6/7=2,8=2,9=2,10=2,28=1/1;
 7/8=1,10=1,25=1/1,2,3,16;
 1/10=4,30=1/3;
 99//99;
 ------
 OPT-TS
 ------
 Symbolic Z-matrix:
 Charge =  0 Multiplicity = 1
 Ir                    0.06004   0.04424  -0.01281 
 B                    -0.34792   2.11345  -0.39074 
 C                     2.29807  -0.3699   -2.25108 
 C                     2.83688  -0.57802  -3.51305 
 C                     0.61144  -0.65579  -4.37189 
 C                     0.13782  -0.43202  -3.07803 
 C                    -1.2974   -0.34056  -2.75355 
 C                    -2.2946   -0.40446  -3.7268 
 C                    -3.9317   -0.14334  -2.01694 
 C                    -2.8989   -0.09485  -1.09042 
 B                    -0.38293  -2.12625   0.03387 
 N                     0.98657  -0.29295  -2.04208 
 N                    -1.61746  -0.1865   -1.44735 
 O                    -1.17115  -2.80365   0.9356 
 O                    -0.25383  -2.83807  -1.14609 
 O                    -0.57151   1.12642   2.82366 
 O                    -2.30722   0.04279   1.82632 
 O                     2.31483  -1.96561   0.84027 
 O                     0.94065  -1.44666   2.58351 
 C                     1.97667  -0.72334  -4.59489 
 C                    -3.62828  -0.30374  -3.36087 
 C                    -0.8644   -4.12814  -0.97028 
 C                    -1.81431  -3.88924   0.24425 
 C                     1.82924  -2.4413    3.09413 
 C                     2.96316  -2.49193   2.01508 
 C                    -1.70963   1.32234   3.66546 
 C                    -2.66175   0.17977   3.21083 
 C                    -1.4534    3.71524  -1.58438 
 B                     1.18239  -1.25399   1.2399 
 H                     2.93325  -0.26068  -1.37418 
 B                    -0.97121   0.44405   1.69574 
 C                    -0.85879   4.34235  -0.29644 
 O                    -0.52997   3.17505   0.47949 
 O                    -0.71284   2.48871  -1.68206 
 C                     0.43405   5.09944  -0.56187 
 H                     0.88786   5.37759   0.39877 
 H                     1.14938   4.47077  -1.10886 
 H                     0.25719   6.02234  -1.13016 
 C                    -1.81143   5.20974   0.50051 
 H                    -1.30813   5.56886   1.40792 
 H                    -2.12412   6.08628  -0.08545 
 H                    -2.70659   4.65992   0.8122 
 C                    -2.923     3.33728  -1.43799 
 H                    -3.57855   4.2185   -1.43146 
 H                    -3.20965   2.70433  -2.28981 
 H                    -3.10348   2.76242  -0.51696 
 C                    -1.25106   4.52111  -2.85076 
 H                    -1.70551   3.99462  -3.70038 
 H                    -1.72925   5.5079   -2.76952 
 H                    -0.18779   4.66218  -3.07239 
 C                    -1.26368   1.24014   5.11183 
 H                    -0.60629   2.08875   5.34246 
 H                    -2.12413   1.27936   5.79599 
 H                    -0.69959   0.31967   5.29992 
 C                    -2.25718   2.71105   3.36387 
 H                    -1.44228   3.43749   3.48046 
 H                    -2.60301   2.77662   2.32356 
 H                    -3.08077   2.98721   4.03697 
 C                    -2.34895  -1.15449   3.87686 
 H                    -2.6573   -1.16869   4.93142 
 H                    -2.88722  -1.94829   3.34182 
 H                    -1.27623  -1.37823   3.80395 
 C                    -4.14193   0.48653   3.30859 
 H                    -4.72111  -0.37351   2.9452 
 H                    -4.43718   0.67804   4.35027 
 H                    -4.41711   1.35698   2.70119 
 C                     2.27772  -2.00113   4.47532 
 H                     1.4102   -1.99421   5.14898 
 H                     3.02779  -2.68893   4.89206 
 H                     2.6894   -0.98554   4.4533 
 C                     4.13126  -1.57544   2.33658 
 H                     4.70388  -1.93058   3.20389 
 H                     4.80783  -1.54522   1.47127 
 H                     3.77001  -0.56122   2.53361 
 C                     3.49124  -3.8795    1.70497 
 H                     4.25924  -3.81324   0.92378 
 H                     3.95276  -4.32559   2.59797 
 H                     2.7067   -4.55469   1.3467 
 C                     1.04193  -3.73989   3.20321 
 H                     0.14163  -3.56138   3.80642 
 H                     0.70379  -4.07763   2.21735 
 H                     1.63089  -4.53775   3.67572 
 C                    -1.96077  -5.06424   1.19103 
 H                    -2.60253  -4.77521   2.03356 
 H                    -2.43165  -5.91692   0.68073 
 H                    -0.99996  -5.39304   1.60059 
 C                     0.25739  -5.11414  -0.68291 
 H                    -0.11296  -6.14382  -0.58947 
 H                     0.98024  -5.07706  -1.50719 
 H                     0.79418  -4.84673   0.23649 
 C                    -1.56316  -4.5101   -2.26109 
 H                    -0.81824  -4.65313  -3.05467 
 H                    -2.12013  -5.45097  -2.14526 
 H                    -2.25995  -3.72963  -2.59014 
 C                    -3.19699  -3.39257  -0.15656 
 H                    -3.81885  -4.19652  -0.57315 
 H                    -3.69723  -2.98599   0.73255 
 H                    -3.1382   -2.58572  -0.89785 
 B                     1.66903   1.14263   0.7191 
 O                     2.37687   1.96621  -0.16889 
 O                     2.25375   1.19609   1.97153 
 C                     3.55551   2.44082   0.50671 
 C                     3.13264   2.33187   1.99638 
 C                     4.68961   1.49834   0.12257 
 C                     3.88328   3.8444    0.04182 
 C                     4.27202   2.08843   2.96625 
 C                     2.29276   3.506     2.4875 
 H                     4.48435   0.47249   0.45902 
 H                     5.6546    1.81688   0.53927 
 H                     4.78216   1.48548  -0.97235 
 H                     4.11462   3.83736  -1.03158 
 H                     4.76431   4.22899   0.57579 
 H                     3.05088   4.53569   0.20621 
 H                     3.86516   1.91759   3.9718 
 H                     4.92759   2.97004   3.01118 
 H                     4.88481   1.2222    2.69565 
 H                     1.44817   3.69995   1.81325 
 H                     2.88932   4.42144   2.60571 
 H                     1.86663   3.23225   3.46153 
 H                    -3.08887   0.00219  -0.01765 
 H                     2.3709   -0.89479  -5.5937 
 H                    -0.07363  -0.78046  -5.20568 
 H                    -4.41784  -0.34691  -4.10718 
 H                    -2.03513  -0.52439  -4.7746 
 C                    -5.33054  -0.02819  -1.50002 
 F                    -5.50663   1.12536  -0.84677 
 F                    -5.60445  -1.01286  -0.63731 
 F                    -6.23201  -0.08341  -2.48426 
 C                     4.3247   -0.57656  -3.67351 
 F                     4.80778   0.67326  -3.65576 
 F                     4.92536  -1.24087  -2.68406 
 F                     4.69739  -1.13124  -4.8311 
 

 GradGradGradGradGradGradGradGradGradGradGradGradGradGradGradGradGradGrad
 Berny optimization.
 Initialization pass.
 Trust Radius=3.00D-01 FncErr=1.00D-07 GrdErr=1.00D-07 EigMax=2.50D+02 EigMin=1.00D-04
 Number of steps in this run=      2 maximum allowed number of steps=      2.
 GradGradGradGradGradGradGradGradGradGradGradGradGradGradGradGradGradGrad

 Stoichiometry    C42H66B5F6IrN2O10
 Framework group  C1[X(C42H66B5F6IrN2O10)]
 Deg. of freedom   390
 Full point group                 C1      NOp   1
 Largest Abelian subgroup         C1      NOp   1
 Largest concise Abelian subgroup C1      NOp   1
                         Standard orientation:                         
 ---------------------------------------------------------------------
 Center     Atomic      Atomic             Coordinates (Angstroms)
 Number     Number       Type             X           Y           Z
 ---------------------------------------------------------------------
      1         77           0        0.060040    0.044240   -0.012809
      2          5           0       -0.347917    2.113451   -0.390739
      3          6           0        2.298070   -0.369902   -2.251079
      4          6           0        2.836880   -0.578023   -3.513049
      5          6           0        0.611440   -0.655790   -4.371889
      6          6           0        0.137820   -0.432020   -3.078029
      7          6           0       -1.297400   -0.340558   -2.753549
      8          6           0       -2.294600   -0.404457   -3.726799
      9          6           0       -3.931700   -0.143335   -2.016939
     10          6           0       -2.898900   -0.094846   -1.090419
     11          5           0       -0.382932   -2.126249    0.033871
     12          7           0        0.986570   -0.292951   -2.042079
     13          7           0       -1.617460   -0.186498   -1.447349
     14          8           0       -1.171153   -2.803648    0.935601
     15          8           0       -0.253833   -2.838069   -1.146089
     16          8           0       -0.571508    1.126421    2.823661
     17          8           0       -2.307220    0.042793    1.826321
     18          8           0        2.314828   -1.965612    0.840271
     19          8           0        0.940649   -1.446661    2.583511
     20          6           0        1.976670   -0.723342   -4.594889
     21          6           0       -3.628280   -0.303735   -3.360869
     22          6           0       -0.864404   -4.128139   -0.970279
     23          6           0       -1.814314   -3.889237    0.244251
     24          6           0        1.829238   -2.441302    3.094131
     25          6           0        2.963158   -2.491933    2.015081
     26          6           0       -1.709628    1.322342    3.665461
     27          6           0       -2.661749    0.179773    3.210831
     28          6           0       -1.453395    3.715242   -1.584379
     29          5           0        1.182389   -1.253991    1.239901
     30          1           0        2.933250   -0.260683   -1.374179
     31          5           0       -0.971209    0.444052    1.695741
     32          6           0       -0.858785    4.342351   -0.296439
     33          8           0       -0.529966    3.175051    0.479491
     34          8           0       -0.712837    2.488711   -1.682059
     35          6           0        0.434056    5.099440   -0.561869
     36          1           0        0.887866    5.377590    0.398771
     37          1           0        1.149385    4.470769   -1.108859
     38          1           0        0.257197    6.022340   -1.130159
     39          6           0       -1.811424    5.209743    0.500511
     40          1           0       -1.308123    5.568862    1.407921
     41          1           0       -2.124113    6.086283   -0.085449
     42          1           0       -2.706584    4.659924    0.812201
     43          6           0       -2.922996    3.337284   -1.437989
     44          1           0       -3.578545    4.218504   -1.431459
     45          1           0       -3.209647    2.704334   -2.289809
     46          1           0       -3.103476    2.762424   -0.516959
     47          6           0       -1.251055    4.521112   -2.850759
     48          1           0       -1.705505    3.994622   -3.700379
     49          1           0       -1.729243    5.507902   -2.769519
     50          1           0       -0.187784    4.662181   -3.072389
     51          6           0       -1.263678    1.240142    5.111831
     52          1           0       -0.606287    2.088751    5.342461
     53          1           0       -2.124128    1.279363    5.795991
     54          1           0       -0.699589    0.319671    5.299921
     55          6           0       -2.257177    2.711053    3.363871
     56          1           0       -1.442276    3.437492    3.480461
     57          1           0       -2.603006    2.776623    2.323561
     58          1           0       -3.080766    2.987214    4.036971
     59          6           0       -2.348951   -1.154487    3.876861
     60          1           0       -2.657301   -1.168687    4.931421
     61          1           0       -2.887222   -1.948286    3.341821
     62          1           0       -1.276231   -1.378228    3.803951
     63          6           0       -4.141929    0.486535    3.308591
     64          1           0       -4.721110   -0.373504    2.945201
     65          1           0       -4.437179    0.678045    4.350271
     66          1           0       -4.417108    1.356985    2.701191
     67          6           0        2.277718   -2.001132    4.475321
     68          1           0        1.410198   -1.994211    5.148981
     69          1           0        3.027787   -2.688933    4.892061
     70          1           0        2.689399   -0.985542    4.453301
     71          6           0        4.131259   -1.575444    2.336581
     72          1           0        4.703878   -1.930585    3.203891
     73          1           0        4.807829   -1.545225    1.471271
     74          1           0        3.770010   -0.561224    2.533611
     75          6           0        3.491236   -3.879503    1.704971
     76          1           0        4.259236   -3.813244    0.923781
     77          1           0        3.952756   -4.325594    2.597971
     78          1           0        2.706695   -4.554693    1.346701
     79          6           0        1.041926   -3.739891    3.203211
     80          1           0        0.141626   -3.561380    3.806421
     81          1           0        0.703786   -4.077630    2.217351
     82          1           0        1.630885   -4.537751    3.675721
     83          6           0       -1.960775   -5.064237    1.191031
     84          1           0       -2.602535   -4.775207    2.033561
     85          1           0       -2.431656   -5.916917    0.680731
     86          1           0       -0.999966   -5.393038    1.600591
     87          6           0        0.257385   -5.114140   -0.682909
     88          1           0       -0.112966   -6.143819   -0.589469
     89          1           0        0.980235   -5.077061   -1.507189
     90          1           0        0.794175   -4.846730    0.236491
     91          6           0       -1.563165   -4.510098   -2.261089
     92          1           0       -0.818245   -4.653129   -3.054669
     93          1           0       -2.120136   -5.450967   -2.145259
     94          1           0       -2.259954   -3.729627   -2.590139
     95          6           0       -3.196993   -3.392566   -0.156559
     96          1           0       -3.818854   -4.196515   -0.573149
     97          1           0       -3.697233   -2.985985    0.732551
     98          1           0       -3.138202   -2.585716   -0.897849
     99          5           0        1.669032    1.142629    0.719101
    100          8           0        2.376873    1.966208   -0.168889
    101          8           0        2.253752    1.196088    1.971531
    102          6           0        3.555513    2.440817    0.506711
    103          6           0        3.132643    2.331867    1.996381
    104          6           0        4.689612    1.498335    0.122571
    105          6           0        3.883285    3.844396    0.041821
    106          6           0        4.272023    2.088426    2.966251
    107          6           0        2.292764    3.505998    2.487501
    108          1           0        4.484351    0.472486    0.459021
    109          1           0        5.654602    1.816874    0.539271
    110          1           0        4.782162    1.485475   -0.972349
    111          1           0        4.114625    3.837356   -1.031579
    112          1           0        4.764315    4.228985    0.575791
    113          1           0        3.050885    4.535687    0.206211
    114          1           0        3.865163    1.917586    3.971801
    115          1           0        4.927594    2.970035    3.011181
    116          1           0        4.884812    1.222195    2.695651
    117          1           0        1.448175    3.699949    1.813251
    118          1           0        2.889325    4.421437    2.605711
    119          1           0        1.866634    3.232248    3.461531
    120          1           0       -3.088870    0.002194   -0.017649
    121          1           0        2.370899   -0.894792   -5.593699
    122          1           0       -0.073630   -0.780459   -5.205679
    123          1           0       -4.417840   -0.346905   -4.107179
    124          1           0       -2.035130   -0.524387   -4.774599
    125          6           0       -5.330540   -0.028184   -1.500019
    126          9           0       -5.506628    1.125367   -0.846769
    127          9           0       -5.604451   -1.012853   -0.637309
    128          9           0       -6.232010   -0.083403   -2.484259
    129          6           0        4.324700   -0.576564   -3.673509
    130          9           0        4.807781    0.673255   -3.655759
    131          9           0        4.925359   -1.240875   -2.684059
    132          9           0        4.697389   -1.131245   -4.831099
 ---------------------------------------------------------------------
 Rotational constants (GHZ):           0.0434778           0.0364550           0.0360569
 General basis read from cards:  (5D, 7F)
 ======================================================================================================
                                       Pseudopotential Parameters
 ======================================================================================================
  Center     Atomic      Valence      Angular      Power
  Number     Number     Electrons     Momentum     of R      Exponent        Coefficient   SO-Coeffient
 ======================================================================================================
    1         77           17
                                      G and up 
                                                     1      823.5880147       -0.15780140    0.00000000
                                                     2      364.6613336    -1517.52704460    0.00000000
                                                     2       55.7082801     -316.53065290    0.00000000
                                                     2       12.0464544      -91.88809410    0.00000000
                                                     2        3.5120610       -9.22417730    0.00000000
                                      S - G
                                                     0      188.0490770        3.15780140    0.00000000
                                                     1      340.4194712       26.83225770    0.00000000
                                                     2      128.2373673      800.42500070    0.00000000
                                                     2       33.8644961      369.40506830    0.00000000
                                                     2        4.7560005      242.41718990    0.00000000
                                                     2        3.9649974     -118.21732820    0.00000000
                                      P - G
                                                     0      289.7291139        2.15780140    0.00000000
                                                     1       87.4633789       61.96786100    0.00000000
                                                     2       30.4363766      269.05819860    0.00000000
                                                     2        4.0553412      231.16547930    0.00000000
                                                     2        3.5525341     -133.69526670    0.00000000
                                      D - G
                                                     0      136.4017106        3.15780140    0.00000000
                                                     1       95.0776925       45.93498030    0.00000000
                                                     2       49.2258410      359.03446680    0.00000000
                                                     2       15.0874145      176.47401190    0.00000000
                                                     2        4.0405764       54.51552860    0.00000000
                                      F - G
                                                     0      127.3507908        3.95461970    0.00000000
                                                     1       66.2364374       52.97736550    0.00000000
                                                     2       34.4299229      274.86433830    0.00000000
                                                     2       10.1995721      137.20473380    0.00000000
                                                     2        2.5409702       14.86333050    0.00000000
    2          5
                                   No pseudopotential on this center.
    3          6
                                   No pseudopotential on this center.
    4          6
                                   No pseudopotential on this center.
    5          6
                                   No pseudopotential on this center.
    6          6
                                   No pseudopotential on this center.
    7          6
                                   No pseudopotential on this center.
    8          6
                                   No pseudopotential on this center.
    9          6
                                   No pseudopotential on this center.
   10          6
                                   No pseudopotential on this center.
   11          5
                                   No pseudopotential on this center.
   12          7
                                   No pseudopotential on this center.
   13          7
                                   No pseudopotential on this center.
   14          8
                                   No pseudopotential on this center.
   15          8
                                   No pseudopotential on this center.
   16          8
                                   No pseudopotential on this center.
   17          8
                                   No pseudopotential on this center.
   18          8
                                   No pseudopotential on this center.
   19          8
                                   No pseudopotential on this center.
   20          6
                                   No pseudopotential on this center.
   21          6
                                   No pseudopotential on this center.
   22          6
                                   No pseudopotential on this center.
   23          6
                                   No pseudopotential on this center.
   24          6
                                   No pseudopotential on this center.
   25          6
                                   No pseudopotential on this center.
   26          6
                                   No pseudopotential on this center.
   27          6
                                   No pseudopotential on this center.
   28          6
                                   No pseudopotential on this center.
   29          5
                                   No pseudopotential on this center.
   30          1
                                   No pseudopotential on this center.
   31          5
                                   No pseudopotential on this center.
   32          6
                                   No pseudopotential on this center.
   33          8
                                   No pseudopotential on this center.
   34          8
                                   No pseudopotential on this center.
   35          6
                                   No pseudopotential on this center.
   36          1
                                   No pseudopotential on this center.
   37          1
                                   No pseudopotential on this center.
   38          1
                                   No pseudopotential on this center.
   39          6
                                   No pseudopotential on this center.
   40          1
                                   No pseudopotential on this center.
   41          1
                                   No pseudopotential on this center.
   42          1
                                   No pseudopotential on this center.
   43          6
                                   No pseudopotential on this center.
   44          1
                                   No pseudopotential on this center.
   45          1
                                   No pseudopotential on this center.
   46          1
                                   No pseudopotential on this center.
   47          6
                                   No pseudopotential on this center.
   48          1
                                   No pseudopotential on this center.
   49          1
                                   No pseudopotential on this center.
   50          1
                                   No pseudopotential on this center.
   51          6
                                   No pseudopotential on this center.
   52          1
                                   No pseudopotential on this center.
   53          1
                                   No pseudopotential on this center.
   54          1
                                   No pseudopotential on this center.
   55          6
                                   No pseudopotential on this center.
   56          1
                                   No pseudopotential on this center.
   57          1
                                   No pseudopotential on this center.
   58          1
                                   No pseudopotential on this center.
   59          6
                                   No pseudopotential on this center.
   60          1
                                   No pseudopotential on this center.
   61          1
                                   No pseudopotential on this center.
   62          1
                                   No pseudopotential on this center.
   63          6
                                   No pseudopotential on this center.
   64          1
                                   No pseudopotential on this center.
   65          1
                                   No pseudopotential on this center.
   66          1
                                   No pseudopotential on this center.
   67          6
                                   No pseudopotential on this center.
   68          1
                                   No pseudopotential on this center.
   69          1
                                   No pseudopotential on this center.
   70          1
                                   No pseudopotential on this center.
   71          6
                                   No pseudopotential on this center.
   72          1
                                   No pseudopotential on this center.
   73          1
                                   No pseudopotential on this center.
   74          1
                                   No pseudopotential on this center.
   75          6
                                   No pseudopotential on this center.
   76          1
                                   No pseudopotential on this center.
   77          1
                                   No pseudopotential on this center.
   78          1
                                   No pseudopotential on this center.
   79          6
                                   No pseudopotential on this center.
   80          1
                                   No pseudopotential on this center.
   81          1
                                   No pseudopotential on this center.
   82          1
                                   No pseudopotential on this center.
   83          6
                                   No pseudopotential on this center.
   84          1
                                   No pseudopotential on this center.
   85          1
                                   No pseudopotential on this center.
   86          1
                                   No pseudopotential on this center.
   87          6
                                   No pseudopotential on this center.
   88          1
                                   No pseudopotential on this center.
   89          1
                                   No pseudopotential on this center.
   90          1
                                   No pseudopotential on this center.
   91          6
                                   No pseudopotential on this center.
   92          1
                                   No pseudopotential on this center.
   93          1
                                   No pseudopotential on this center.
   94          1
                                   No pseudopotential on this center.
   95          6
                                   No pseudopotential on this center.
   96          1
                                   No pseudopotential on this center.
   97          1
                                   No pseudopotential on this center.
   98          1
                                   No pseudopotential on this center.
   99          5
                                   No pseudopotential on this center.
  100          8
                                   No pseudopotential on this center.
  101          8
                                   No pseudopotential on this center.
  102          6
                                   No pseudopotential on this center.
  103          6
                                   No pseudopotential on this center.
  104          6
                                   No pseudopotential on this center.
  105          6
                                   No pseudopotential on this center.
  106          6
                                   No pseudopotential on this center.
  107          6
                                   No pseudopotential on this center.
  108          1
                                   No pseudopotential on this center.
  109          1
                                   No pseudopotential on this center.
  110          1
                                   No pseudopotential on this center.
  111          1
                                   No pseudopotential on this center.
  112          1
                                   No pseudopotential on this center.
  113          1
                                   No pseudopotential on this center.
  114          1
                                   No pseudopotential on this center.
  115          1
                                   No pseudopotential on this center.
  116          1
                                   No pseudopotential on this center.
  117          1
                                   No pseudopotential on this center.
  118          1
                                   No pseudopotential on this center.
  119          1
                                   No pseudopotential on this center.
  120          1
                                   No pseudopotential on this center.
  121          1
                                   No pseudopotential on this center.
  122          1
                                   No pseudopotential on this center.
  123          1
                                   No pseudopotential on this center.
  124          1
                                   No pseudopotential on this center.
  125          6
                                   No pseudopotential on this center.
  126          9
                                   No pseudopotential on this center.
  127          9
                                   No pseudopotential on this center.
  128          9
                                   No pseudopotential on this center.
  129          6
                                   No pseudopotential on this center.
  130          9
                                   No pseudopotential on this center.
  131          9
                                   No pseudopotential on this center.
  132          9
                                   No pseudopotential on this center.
 ======================================================================================================
 There are  1131 symmetry adapted cartesian basis functions of A   symmetry.
 There are  1064 symmetry adapted basis functions of A   symmetry.
  1064 basis functions,  2127 primitive gaussians,  1131 cartesian basis functions
   254 alpha electrons      254 beta electrons
       nuclear repulsion energy     13409.4599344359 Hartrees.
 NAtoms=  132 NActive=  132 NUniq=  132 SFac= 1.00D+00 NAtFMM=   60 NAOKFM=T Big=T
 Integral buffers will be    131072 words long.
 Raffenetti 2 integral format.
 Two-electron integral symmetry is turned on.
 One-electron integrals computed using PRISM.
   1 Symmetry operations used in ECPInt.
 ECPInt:  NShTT=   80200 NPrTT=  496889 LenC2=   59619 LenP2D=  179632.
 LDataN:  DoStor=T MaxTD1= 6 Len=  172
 NBasis=  1064 RedAO= T EigKep=  4.21D-04  NBF=  1064
 NBsUse=  1064 1.00D-06 EigRej= -1.00D+00 NBFU=  1064
 Defaulting to unpruned grid for atomic number  77.
 ExpMin= 2.90D-02 ExpMax= 7.00D+03 ExpMxC= 1.05D+03 IAcc=3 IRadAn=         5 AccDes= 0.00D+00
 Harris functional with IExCor= 1009 and IRadAn=       5 diagonalized for initial guess.
 HarFok:  IExCor= 1009 AccDes= 0.00D+00 IRadAn=         5 IDoV= 1 UseB2=F ITyADJ=14
 ICtDFT=  3500011 ScaDFX=  1.000000  1.000000  1.000000  1.000000
 Defaulting to unpruned grid for atomic number  77.
 FoFCou: FMM=F IPFlag=           0 FMFlag=      100000 FMFlg1=        2001
         NFxFlg=           0 DoJE=T BraDBF=F KetDBF=T FulRan=T
         wScrn=  0.000000 ICntrl=       500 IOpCl=  0 I1Cent=   200000004 NGrid=           0
         NMat0=    1 NMatS0=      1 NMatT0=    0 NMatD0=    1 NMtDS0=    0 NMtDT0=    0
 Petite list used in FoFCou.
 Requested convergence on RMS density matrix=1.00D-08 within 128 cycles.
 Requested convergence on MAX density matrix=1.00D-06.
 Requested convergence on             energy=1.00D-06.
 No special actions if energy rises.
 Defaulting to unpruned grid for atomic number  77.
 Defaulting to unpruned grid for atomic number  77.
 Defaulting to unpruned grid for atomic number  77.
 Defaulting to unpruned grid for atomic number  77.
 Defaulting to unpruned grid for atomic number  77.
 Defaulting to unpruned grid for atomic number  77.
 Defaulting to unpruned grid for atomic number  77.
 Defaulting to unpruned grid for atomic number  77.
 Defaulting to unpruned grid for atomic number  77.
 Defaulting to unpruned grid for atomic number  77.
 Defaulting to unpruned grid for atomic number  77.
 Defaulting to unpruned grid for atomic number  77.
 Defaulting to unpruned grid for atomic number  77.
 Defaulting to unpruned grid for atomic number  77.
 Defaulting to unpruned grid for atomic number  77.
 Defaulting to unpruned grid for atomic number  77.
 EnCoef did     2 forward-backward iterations
 SCF Done:  E(RM06) =  -3328.68644030     A.U. after   17 cycles
            NFock= 17  Conv=0.67D-08     -V/T= 2.0281
 DoSCS=F DFT=T ScalE2(SS,OS)=  1.000000  1.000000
 Range of M.O.s used for correlation:     1  1064
 NBasis=  1064 NAE=   254 NBE=   254 NFC=     0 NFV=     0
 NROrb=   1064 NOA=   254 NOB=   254 NVA=   810 NVB=   810

 **** Warning!!: The largest alpha MO coefficient is  0.18364454D+02

   1 Symmetry operations used in ECPInt.
 ECPInt:  NShTT=   80200 NPrTT=  496889 LenC2=   59619 LenP2D=  179632.
 LDataN:  DoStor=T MaxTD1= 7 Len=  274
 Number of processors reduced to   5 by ecpmxn.
 Symmetrizing basis deriv contribution to polar:
 IMax=3 JMax=2 DiffMx= 0.00D+00
 G2DrvN: will do   133 centers at a time, making    1 passes.
 Calling FoFCou, ICntrl=  3107 FMM=T I1Cent=   0 AccDes= 0.00D+00.
 Defaulting to unpruned grid for atomic number  77.
 Defaulting to unpruned grid for atomic number  77.
 Defaulting to unpruned grid for atomic number  77.
 Defaulting to unpruned grid for atomic number  77.
 Defaulting to unpruned grid for atomic number  77.
 Defaulting to unpruned grid for atomic number  77.
 Defaulting to unpruned grid for atomic number  77.
 Defaulting to unpruned grid for atomic number  77.
 Defaulting to unpruned grid for atomic number  77.
 Defaulting to unpruned grid for atomic number  77.
 Defaulting to unpruned grid for atomic number  77.
 Defaulting to unpruned grid for atomic number  77.
 Defaulting to unpruned grid for atomic number  77.
 Defaulting to unpruned grid for atomic number  77.
 Defaulting to unpruned grid for atomic number  77.
 Defaulting to unpruned grid for atomic number  77.
 End of G2Drv F.D. properties file   721 does not exist.
 End of G2Drv F.D. properties file   722 does not exist.
 End of G2Drv F.D. properties file   788 does not exist.
          IDoAtm=11111111111111111111111111111111111111111111111111
          IDoAtm=11111111111111111111111111111111111111111111111111
          IDoAtm=11111111111111111111111111111111
          Differentiating once with respect to electric field.
                with respect to dipole field.
          Differentiating once with respect to nuclear coordinates.
 Defaulting to unpruned grid for atomic number  77.
 CalDSu exits because no D1Ps are significant.
 Defaulting to unpruned grid for atomic number  77.
 Defaulting to unpruned grid for atomic number  77.
 Defaulting to unpruned grid for atomic number  77.
 Defaulting to unpruned grid for atomic number  77.
 Defaulting to unpruned grid for atomic number  77.
 Defaulting to unpruned grid for atomic number  77.
 Defaulting to unpruned grid for atomic number  77.
 Defaulting to unpruned grid for atomic number  77.
 Defaulting to unpruned grid for atomic number  77.
 Defaulting to unpruned grid for atomic number  77.
 Defaulting to unpruned grid for atomic number  77.
 Defaulting to unpruned grid for atomic number  77.
 Defaulting to unpruned grid for atomic number  77.
 Defaulting to unpruned grid for atomic number  77.
 Defaulting to unpruned grid for atomic number  77.
 Defaulting to unpruned grid for atomic number  77.
          There are   399 degrees of freedom in the 1st order CPHF.  IDoFFX=6 NUNeed=     3.
    396 vectors produced by pass  0 Test12= 2.06D-13 1.00D-09 XBig12= 5.54D+02 1.10D+01.
 AX will form    72 AO Fock derivatives at one time.
    396 vectors produced by pass  1 Test12= 2.06D-13 1.00D-09 XBig12= 8.22D+01 1.13D+00.
    396 vectors produced by pass  2 Test12= 2.06D-13 1.00D-09 XBig12= 1.07D+00 1.01D-01.
    396 vectors produced by pass  3 Test12= 2.06D-13 1.00D-09 XBig12= 8.74D-03 5.02D-03.
    396 vectors produced by pass  4 Test12= 2.06D-13 1.00D-09 XBig12= 3.61D-05 3.46D-04.
    352 vectors produced by pass  5 Test12= 2.06D-13 1.00D-09 XBig12= 7.23D-08 1.08D-05.
     91 vectors produced by pass  6 Test12= 2.06D-13 1.00D-09 XBig12= 1.07D-10 4.64D-07.
      3 vectors produced by pass  7 Test12= 2.06D-13 1.00D-09 XBig12= 1.39D-13 2.45D-08.
 InvSVY:  IOpt=1 It=  1 EMax= 3.20D-14
 Solved reduced A of dimension  2426 with   399 vectors.
 Isotropic polarizability for W=    0.000000      576.48 Bohr**3.
 End of Minotr F.D. properties file   721 does not exist.
 End of Minotr F.D. properties file   722 does not exist.
 End of Minotr F.D. properties file   788 does not exist.
 Hyperfine terms turned off by default for NAtoms > 100.

 **********************************************************************

            Population analysis using the SCF Density.

 **********************************************************************

 Orbital symmetries:
       Occupied  (A) (A) (A) (A) (A) (A) (A) (A) (A) (A) (A) (A)
                 (A) (A) (A) (A) (A) (A) (A) (A) (A) (A) (A) (A)
                 (A) (A) (A) (A) (A) (A) (A) (A) (A) (A) (A) (A)
                 (A) (A) (A) (A) (A) (A) (A) (A) (A) (A) (A) (A)
                 (A) (A) (A) (A) (A) (A) (A) (A) (A) (A) (A) (A)
                 (A) (A) (A) (A) (A) (A) (A) (A) (A) (A) (A) (A)
                 (A) (A) (A) (A) (A) (A) (A) (A) (A) (A) (A) (A)
                 (A) (A) (A) (A) (A) (A) (A) (A) (A) (A) (A) (A)
                 (A) (A) (A) (A) (A) (A) (A) (A) (A) (A) (A) (A)
                 (A) (A) (A) (A) (A) (A) (A) (A) (A) (A) (A) (A)
                 (A) (A) (A) (A) (A) (A) (A) (A) (A) (A) (A) (A)
                 (A) (A) (A) (A) (A) (A) (A) (A) (A) (A) (A) (A)
                 (A) (A) (A) (A) (A) (A) (A) (A) (A) (A) (A) (A)
                 (A) (A) (A) (A) (A) (A) (A) (A) (A) (A) (A) (A)
                 (A) (A) (A) (A) (A) (A) (A) (A) (A) (A) (A) (A)
                 (A) (A) (A) (A) (A) (A) (A) (A) (A) (A) (A) (A)
                 (A) (A) (A) (A) (A) (A) (A) (A) (A) (A) (A) (A)
                 (A) (A) (A) (A) (A) (A) (A) (A) (A) (A) (A) (A)
                 (A) (A) (A) (A) (A) (A) (A) (A) (A) (A) (A) (A)
                 (A) (A) (A) (A) (A) (A) (A) (A) (A) (A) (A) (A)
                 (A) (A) (A) (A) (A) (A) (A) (A) (A) (A) (A) (A)
                 (A) (A)
       Virtual   (A) (A) (A) (A) (A) (A) (A) (A) (A) (A) (A) (A)
                 (A) (A) (A) (A) (A) (A) (A) (A) (A) (A) (A) (A)
                 (A) (A) (A) (A) (A) (A) (A) (A) (A) (A) (A) (A)
                 (A) (A) (A) (A) (A) (A) (A) (A) (A) (A) (A) (A)
                 (A) (A) (A) (A) (A) (A) (A) (A) (A) (A) (A) (A)
                 (A) (A) (A) (A) (A) (A) (A) (A) (A) (A) (A) (A)
                 (A) (A) (A) (A) (A) (A) (A) (A) (A) (A) (A) (A)
                 (A) (A) (A) (A) (A) (A) (A) (A) (A) (A) (A) (A)
                 (A) (A) (A) (A) (A) (A) (A) (A) (A) (A) (A) (A)
                 (A) (A) (A) (A) (A) (A) (A) (A) (A) (A) (A) (A)
                 (A) (A) (A) (A) (A) (A) (A) (A) (A) (A) (A) (A)
                 (A) (A) (A) (A) (A) (A) (A) (A) (A) (A) (A) (A)
                 (A) (A) (A) (A) (A) (A) (A) (A) (A) (A) (A) (A)
                 (A) (A) (A) (A) (A) (A) (A) (A) (A) (A) (A) (A)
                 (A) (A) (A) (A) (A) (A) (A) (A) (A) (A) (A) (A)
                 (A) (A) (A) (A) (A) (A) (A) (A) (A) (A) (A) (A)
                 (A) (A) (A) (A) (A) (A) (A) (A) (A) (A) (A) (A)
                 (A) (A) (A) (A) (A) (A) (A) (A) (A) (A) (A) (A)
                 (A) (A) (A) (A) (A) (A) (A) (A) (A) (A) (A) (A)
                 (A) (A) (A) (A) (A) (A) (A) (A) (A) (A) (A) (A)
                 (A) (A) (A) (A) (A) (A) (A) (A) (A) (A) (A) (A)
                 (A) (A) (A) (A) (A) (A) (A) (A) (A) (A) (A) (A)
                 (A) (A) (A) (A) (A) (A) (A) (A) (A) (A) (A) (A)
                 (A) (A) (A) (A) (A) (A) (A) (A) (A) (A) (A) (A)
                 (A) (A) (A) (A) (A) (A) (A) (A) (A) (A) (A) (A)
                 (A) (A) (A) (A) (A) (A) (A) (A) (A) (A) (A) (A)
                 (A) (A) (A) (A) (A) (A) (A) (A) (A) (A) (A) (A)
                 (A) (A) (A) (A) (A) (A) (A) (A) (A) (A) (A) (A)
                 (A) (A) (A) (A) (A) (A) (A) (A) (A) (A) (A) (A)
                 (A) (A) (A) (A) (A) (A) (A) (A) (A) (A) (A) (A)
                 (A) (A) (A) (A) (A) (A) (A) (A) (A) (A) (A) (A)
                 (A) (A) (A) (A) (A) (A) (A) (A) (A) (A) (A) (A)
                 (A) (A) (A) (A) (A) (A) (A) (A) (A) (A) (A) (A)
                 (A) (A) (A) (A) (A) (A) (A) (A) (A) (A) (A) (A)
                 (A) (A) (A) (A) (A) (A) (A) (A) (A) (A) (A) (A)
                 (A) (A) (A) (A) (A) (A) (A) (A) (A) (A) (A) (A)
                 (A) (A) (A) (A) (A) (A) (A) (A) (A) (A) (A) (A)
                 (A) (A) (A) (A) (A) (A) (A) (A) (A) (A) (A) (A)
                 (A) (A) (A) (A) (A) (A) (A) (A) (A) (A) (A) (A)
                 (A) (A) (A) (A) (A) (A) (A) (A) (A) (A) (A) (A)
                 (A) (A) (A) (A) (A) (A) (A) (A) (A) (A) (A) (A)
                 (A) (A) (A) (A) (A) (A) (A) (A) (A) (A) (A) (A)
                 (A) (A) (A) (A) (A) (A) (A) (A) (A) (A) (A) (A)
                 (A) (A) (A) (A) (A) (A) (A) (A) (A) (A) (A) (A)
                 (A) (A) (A) (A) (A) (A) (A) (A) (A) (A) (A) (A)
                 (A) (A) (A) (A) (A) (A) (A) (A) (A) (A) (A) (A)
                 (A) (A) (A) (A) (A) (A) (A) (A) (A) (A) (A) (A)
                 (A) (A) (A) (A) (A) (A) (A) (A) (A) (A) (A) (A)
                 (A) (A) (A) (A) (A) (A) (A) (A) (A) (A) (A) (A)
                 (A) (A) (A) (A) (A) (A) (A) (A) (A) (A) (A) (A)
                 (A) (A) (A) (A) (A) (A) (A) (A) (A) (A) (A) (A)
                 (A) (A) (A) (A) (A) (A) (A) (A) (A) (A) (A) (A)
                 (A) (A) (A) (A) (A) (A) (A) (A) (A) (A) (A) (A)
                 (A) (A) (A) (A) (A) (A) (A) (A) (A) (A) (A) (A)
                 (A) (A) (A) (A) (A) (A) (A) (A) (A) (A) (A) (A)
                 (A) (A) (A) (A) (A) (A) (A) (A) (A) (A) (A) (A)
                 (A) (A) (A) (A) (A) (A) (A) (A) (A) (A) (A) (A)
                 (A) (A) (A) (A) (A) (A) (A) (A) (A) (A) (A) (A)
                 (A) (A) (A) (A) (A) (A) (A) (A) (A) (A) (A) (A)
                 (A) (A) (A) (A) (A) (A) (A) (A) (A) (A) (A) (A)
                 (A) (A) (A) (A) (A) (A) (A) (A) (A) (A) (A) (A)
                 (A) (A) (A) (A) (A) (A) (A) (A) (A) (A) (A) (A)
                 (A) (A) (A) (A) (A) (A) (A) (A) (A) (A) (A) (A)
                 (A) (A) (A) (A) (A) (A) (A) (A) (A) (A) (A) (A)
                 (A) (A) (A) (A) (A) (A) (A) (A) (A) (A) (A) (A)
                 (A) (A) (A) (A) (A) (A) (A) (A) (A) (A) (A) (A)
                 (A) (A) (A) (A) (A) (A) (A) (A) (A) (A) (A) (A)
                 (A) (A) (A) (A) (A) (A)
 The electronic state is 1-A.
 Alpha  occ. eigenvalues --  -24.83658 -24.83174 -24.82952 -24.82940 -24.82742
 Alpha  occ. eigenvalues --  -24.82462 -19.21496 -19.21332 -19.20724 -19.20689
 Alpha  occ. eigenvalues --  -19.20394 -19.20322 -19.19805 -19.19393 -19.19346
 Alpha  occ. eigenvalues --  -19.18230 -14.46753 -14.45229 -10.51723 -10.51337
 Alpha  occ. eigenvalues --  -10.33476 -10.32876 -10.31416 -10.31234 -10.30482
 Alpha  occ. eigenvalues --  -10.30383 -10.30280 -10.29859 -10.29803 -10.29800
 Alpha  occ. eigenvalues --  -10.29618 -10.29550 -10.29366 -10.29072 -10.29064
 Alpha  occ. eigenvalues --  -10.29056 -10.28859 -10.28840 -10.28241 -10.27904
 Alpha  occ. eigenvalues --  -10.23894 -10.23360 -10.23309 -10.23186 -10.23185
 Alpha  occ. eigenvalues --  -10.23153 -10.22982 -10.22514 -10.22491 -10.22481
 Alpha  occ. eigenvalues --  -10.22414 -10.22312 -10.22100 -10.21908 -10.21781
 Alpha  occ. eigenvalues --  -10.21593 -10.21454 -10.21107 -10.21082 -10.20755
 Alpha  occ. eigenvalues --   -6.81504  -6.81019  -6.80773  -6.80367  -6.78538
 Alpha  occ. eigenvalues --   -3.63873  -2.06309  -2.05940  -2.04940  -1.36064
 Alpha  occ. eigenvalues --   -1.35694  -1.27621  -1.27221  -1.27009  -1.26636
 Alpha  occ. eigenvalues --   -1.07336  -1.06666  -1.06021  -1.05685  -1.05018
 Alpha  occ. eigenvalues --   -1.01266  -1.00395  -0.99588  -0.99018  -0.98921
 Alpha  occ. eigenvalues --   -0.98726  -0.97987  -0.87020  -0.86017  -0.84512
 Alpha  occ. eigenvalues --   -0.81401  -0.80891  -0.80760  -0.80129  -0.79962
 Alpha  occ. eigenvalues --   -0.79133  -0.75883  -0.75813  -0.75332  -0.74560
 Alpha  occ. eigenvalues --   -0.74385  -0.73630  -0.72633  -0.71303  -0.70845
 Alpha  occ. eigenvalues --   -0.70095  -0.69749  -0.69589  -0.69183  -0.68934
 Alpha  occ. eigenvalues --   -0.68417  -0.68062  -0.67194  -0.66941  -0.66580
 Alpha  occ. eigenvalues --   -0.66434  -0.65563  -0.62651  -0.62213  -0.62188
 Alpha  occ. eigenvalues --   -0.62015  -0.61669  -0.61533  -0.61386  -0.61131
 Alpha  occ. eigenvalues --   -0.60871  -0.60418  -0.60227  -0.57044  -0.55742
 Alpha  occ. eigenvalues --   -0.55057  -0.54987  -0.54718  -0.54606  -0.54287
 Alpha  occ. eigenvalues --   -0.53912  -0.53386  -0.53223  -0.52875  -0.52140
 Alpha  occ. eigenvalues --   -0.51653  -0.49928  -0.49757  -0.49534  -0.49128
 Alpha  occ. eigenvalues --   -0.48996  -0.48743  -0.48268  -0.48081  -0.47829
 Alpha  occ. eigenvalues --   -0.47499  -0.47154  -0.47138  -0.47059  -0.46702
 Alpha  occ. eigenvalues --   -0.46408  -0.45882  -0.45844  -0.45791  -0.45773
 Alpha  occ. eigenvalues --   -0.45547  -0.45253  -0.45122  -0.45085  -0.44921
 Alpha  occ. eigenvalues --   -0.44729  -0.44417  -0.44394  -0.44168  -0.44129
 Alpha  occ. eigenvalues --   -0.43873  -0.43577  -0.43317  -0.43173  -0.43058
 Alpha  occ. eigenvalues --   -0.43028  -0.42946  -0.42507  -0.42343  -0.42027
 Alpha  occ. eigenvalues --   -0.40931  -0.40606  -0.40446  -0.40426  -0.40255
 Alpha  occ. eigenvalues --   -0.40128  -0.40058  -0.39993  -0.39868  -0.39752
 Alpha  occ. eigenvalues --   -0.39565  -0.39462  -0.39419  -0.39274  -0.39137
 Alpha  occ. eigenvalues --   -0.39072  -0.38926  -0.38690  -0.38529  -0.38327
 Alpha  occ. eigenvalues --   -0.38119  -0.38052  -0.37749  -0.37656  -0.37475
 Alpha  occ. eigenvalues --   -0.37344  -0.37195  -0.36982  -0.36847  -0.36499
 Alpha  occ. eigenvalues --   -0.36358  -0.36218  -0.36035  -0.35942  -0.35779
 Alpha  occ. eigenvalues --   -0.35590  -0.35438  -0.35324  -0.35167  -0.34996
 Alpha  occ. eigenvalues --   -0.34722  -0.34648  -0.34507  -0.34034  -0.33869
 Alpha  occ. eigenvalues --   -0.33642  -0.33230  -0.32909  -0.32714  -0.32377
 Alpha  occ. eigenvalues --   -0.32238  -0.31885  -0.31734  -0.31531  -0.31142
 Alpha  occ. eigenvalues --   -0.30976  -0.30796  -0.30572  -0.30294  -0.29720
 Alpha  occ. eigenvalues --   -0.29347  -0.28907  -0.28733  -0.27913  -0.27266
 Alpha  occ. eigenvalues --   -0.26786  -0.26263  -0.26001  -0.25771  -0.25376
 Alpha  occ. eigenvalues --   -0.24505  -0.23485  -0.22643  -0.20768
 Alpha virt. eigenvalues --   -0.08468  -0.05034  -0.03838  -0.00523   0.01916
 Alpha virt. eigenvalues --    0.03873   0.05948   0.06716   0.06764   0.07184
 Alpha virt. eigenvalues --    0.07578   0.08359   0.08958   0.09124   0.09669
 Alpha virt. eigenvalues --    0.10391   0.10669   0.11078   0.11138   0.11325
 Alpha virt. eigenvalues --    0.11875   0.11996   0.12245   0.12337   0.12616
 Alpha virt. eigenvalues --    0.12909   0.13077   0.13272   0.13443   0.13663
 Alpha virt. eigenvalues --    0.14088   0.14161   0.14445   0.14484   0.14599
 Alpha virt. eigenvalues --    0.14804   0.14984   0.15098   0.15201   0.15467
 Alpha virt. eigenvalues --    0.15540   0.15718   0.15788   0.15969   0.16248
 Alpha virt. eigenvalues --    0.16568   0.16705   0.16770   0.16804   0.17060
 Alpha virt. eigenvalues --    0.17244   0.17464   0.17736   0.18027   0.18227
 Alpha virt. eigenvalues --    0.18458   0.18572   0.18765   0.18868   0.19009
 Alpha virt. eigenvalues --    0.19168   0.19352   0.19400   0.19493   0.19737
 Alpha virt. eigenvalues --    0.19801   0.20040   0.20116   0.20232   0.20330
 Alpha virt. eigenvalues --    0.20479   0.20653   0.20877   0.20991   0.21292
 Alpha virt. eigenvalues --    0.21326   0.21494   0.21515   0.21973   0.22245
 Alpha virt. eigenvalues --    0.22358   0.22536   0.22589   0.22722   0.22821
 Alpha virt. eigenvalues --    0.22955   0.23114   0.23411   0.23521   0.23668
 Alpha virt. eigenvalues --    0.23908   0.24102   0.24148   0.24400   0.24701
 Alpha virt. eigenvalues --    0.24879   0.25078   0.25195   0.25265   0.25446
 Alpha virt. eigenvalues --    0.25544   0.25824   0.25943   0.26128   0.26653
 Alpha virt. eigenvalues --    0.26876   0.27022   0.27064   0.27285   0.27409
 Alpha virt. eigenvalues --    0.27856   0.28011   0.28302   0.28756   0.28777
 Alpha virt. eigenvalues --    0.29108   0.29591   0.30064   0.30407   0.30543
 Alpha virt. eigenvalues --    0.31060   0.31325   0.31948   0.32209   0.32482
 Alpha virt. eigenvalues --    0.32585   0.33019   0.33585   0.33973   0.34307
 Alpha virt. eigenvalues --    0.34764   0.35096   0.35828   0.36168   0.36424
 Alpha virt. eigenvalues --    0.36541   0.37488   0.37567   0.38130   0.38923
 Alpha virt. eigenvalues --    0.39758   0.39983   0.41199   0.41692   0.42340
 Alpha virt. eigenvalues --    0.43177   0.43839   0.44970   0.46223   0.46987
 Alpha virt. eigenvalues --    0.47341   0.47766   0.48077   0.48509   0.48811
 Alpha virt. eigenvalues --    0.49663   0.50016   0.50248   0.50464   0.50599
 Alpha virt. eigenvalues --    0.51110   0.51185   0.51513   0.51965   0.52143
 Alpha virt. eigenvalues --    0.52260   0.52472   0.52799   0.53217   0.53420
 Alpha virt. eigenvalues --    0.53844   0.54367   0.54730   0.54902   0.55267
 Alpha virt. eigenvalues --    0.55810   0.55990   0.56183   0.56468   0.56490
 Alpha virt. eigenvalues --    0.56910   0.57008   0.57531   0.57646   0.57762
 Alpha virt. eigenvalues --    0.58119   0.58272   0.58433   0.58597   0.58875
 Alpha virt. eigenvalues --    0.59001   0.59289   0.59355   0.59714   0.60092
 Alpha virt. eigenvalues --    0.60400   0.60455   0.60736   0.61101   0.61317
 Alpha virt. eigenvalues --    0.61508   0.61784   0.62003   0.62190   0.62362
 Alpha virt. eigenvalues --    0.62929   0.63293   0.63718   0.63872   0.64089
 Alpha virt. eigenvalues --    0.64301   0.64654   0.65069   0.65588   0.65897
 Alpha virt. eigenvalues --    0.66003   0.66314   0.66354   0.66959   0.67111
 Alpha virt. eigenvalues --    0.67263   0.67652   0.68017   0.68104   0.69000
 Alpha virt. eigenvalues --    0.69072   0.69300   0.69661   0.69791   0.70197
 Alpha virt. eigenvalues --    0.70442   0.70627   0.70773   0.70913   0.71329
 Alpha virt. eigenvalues --    0.71830   0.72199   0.72409   0.72523   0.72712
 Alpha virt. eigenvalues --    0.72884   0.73283   0.73412   0.73737   0.73937
 Alpha virt. eigenvalues --    0.74260   0.74547   0.74667   0.75095   0.75347
 Alpha virt. eigenvalues --    0.75555   0.75951   0.76400   0.76629   0.76869
 Alpha virt. eigenvalues --    0.77313   0.77569   0.77939   0.78082   0.78577
 Alpha virt. eigenvalues --    0.79006   0.79365   0.79684   0.80154   0.80339
 Alpha virt. eigenvalues --    0.80503   0.80688   0.81389   0.82031   0.82269
 Alpha virt. eigenvalues --    0.82722   0.82937   0.83164   0.83316   0.83637
 Alpha virt. eigenvalues --    0.84249   0.84252   0.84320   0.84467   0.84814
 Alpha virt. eigenvalues --    0.84923   0.85169   0.85307   0.85473   0.85624
 Alpha virt. eigenvalues --    0.86012   0.86144   0.86301   0.86500   0.86543
 Alpha virt. eigenvalues --    0.86870   0.87240   0.87432   0.87688   0.87867
 Alpha virt. eigenvalues --    0.88239   0.88456   0.88666   0.88954   0.89018
 Alpha virt. eigenvalues --    0.89435   0.89553   0.89835   0.89956   0.90368
 Alpha virt. eigenvalues --    0.90418   0.90577   0.90642   0.90898   0.91117
 Alpha virt. eigenvalues --    0.91356   0.91450   0.91548   0.91874   0.92006
 Alpha virt. eigenvalues --    0.92430   0.92726   0.93016   0.93326   0.93516
 Alpha virt. eigenvalues --    0.93670   0.94081   0.94264   0.94675   0.95043
 Alpha virt. eigenvalues --    0.95261   0.95595   0.95646   0.95894   0.96230
 Alpha virt. eigenvalues --    0.96493   0.97135   0.97311   0.97623   0.97970
 Alpha virt. eigenvalues --    0.98253   0.98377   0.98908   0.99046   0.99552
 Alpha virt. eigenvalues --    0.99751   1.00380   1.00498   1.00873   1.01303
 Alpha virt. eigenvalues --    1.01457   1.01571   1.01732   1.01978   1.02616
 Alpha virt. eigenvalues --    1.02875   1.03388   1.03521   1.03900   1.04546
 Alpha virt. eigenvalues --    1.05151   1.05259   1.05611   1.05913   1.06433
 Alpha virt. eigenvalues --    1.07096   1.07825   1.08143   1.08839   1.09097
 Alpha virt. eigenvalues --    1.09655   1.10098   1.10280   1.10963   1.11109
 Alpha virt. eigenvalues --    1.11461   1.11887   1.12478   1.12926   1.13375
 Alpha virt. eigenvalues --    1.14122   1.14530   1.14895   1.15486   1.15780
 Alpha virt. eigenvalues --    1.16165   1.16303   1.17435   1.17524   1.17892
 Alpha virt. eigenvalues --    1.18143   1.18442   1.18839   1.19048   1.19372
 Alpha virt. eigenvalues --    1.19683   1.19879   1.20305   1.20697   1.21223
 Alpha virt. eigenvalues --    1.21359   1.21610   1.22416   1.22892   1.23173
 Alpha virt. eigenvalues --    1.23672   1.24021   1.24404   1.25152   1.25287
 Alpha virt. eigenvalues --    1.25633   1.26101   1.27298   1.27509   1.27784
 Alpha virt. eigenvalues --    1.28071   1.28337   1.29056   1.29829   1.30018
 Alpha virt. eigenvalues --    1.30577   1.31141   1.32203   1.32253   1.33161
 Alpha virt. eigenvalues --    1.33277   1.33753   1.33883   1.34321   1.34531
 Alpha virt. eigenvalues --    1.34888   1.35254   1.35564   1.35795   1.36019
 Alpha virt. eigenvalues --    1.36329   1.36654   1.36996   1.37663   1.38197
 Alpha virt. eigenvalues --    1.38529   1.38899   1.39222   1.39488   1.40411
 Alpha virt. eigenvalues --    1.40784   1.41112   1.41596   1.41775   1.42232
 Alpha virt. eigenvalues --    1.42284   1.42948   1.43001   1.43415   1.43856
 Alpha virt. eigenvalues --    1.44156   1.44864   1.45508   1.45866   1.46387
 Alpha virt. eigenvalues --    1.46402   1.47033   1.47932   1.48542   1.49208
 Alpha virt. eigenvalues --    1.49428   1.50082   1.50934   1.51233   1.51786
 Alpha virt. eigenvalues --    1.52336   1.52712   1.53294   1.53687   1.54219
 Alpha virt. eigenvalues --    1.54747   1.55805   1.56264   1.56356   1.56564
 Alpha virt. eigenvalues --    1.57363   1.58089   1.59324   1.60251   1.60589
 Alpha virt. eigenvalues --    1.61546   1.62157   1.62946   1.63293   1.63533
 Alpha virt. eigenvalues --    1.64093   1.64494   1.64660   1.64837   1.65966
 Alpha virt. eigenvalues --    1.66090   1.66593   1.66673   1.67644   1.67870
 Alpha virt. eigenvalues --    1.68067   1.68510   1.68771   1.69298   1.69907
 Alpha virt. eigenvalues --    1.70043   1.70473   1.70659   1.71222   1.71503
 Alpha virt. eigenvalues --    1.71560   1.72371   1.72501   1.73289   1.73763
 Alpha virt. eigenvalues --    1.74692   1.74938   1.75703   1.75804   1.76334
 Alpha virt. eigenvalues --    1.76652   1.76985   1.77204   1.77721   1.78191
 Alpha virt. eigenvalues --    1.78504   1.78584   1.78919   1.79544   1.80220
 Alpha virt. eigenvalues --    1.80779   1.81036   1.81222   1.81879   1.82199
 Alpha virt. eigenvalues --    1.82886   1.83138   1.83507   1.84111   1.84670
 Alpha virt. eigenvalues --    1.84933   1.85085   1.85358   1.85636   1.86113
 Alpha virt. eigenvalues --    1.86424   1.86741   1.86875   1.87702   1.87752
 Alpha virt. eigenvalues --    1.87925   1.88776   1.88978   1.89194   1.89415
 Alpha virt. eigenvalues --    1.89721   1.90251   1.90546   1.90848   1.91218
 Alpha virt. eigenvalues --    1.91297   1.91382   1.91664   1.91769   1.92024
 Alpha virt. eigenvalues --    1.92403   1.92409   1.92599   1.93063   1.93092
 Alpha virt. eigenvalues --    1.93350   1.93633   1.93951   1.94330   1.94576
 Alpha virt. eigenvalues --    1.94694   1.94910   1.95566   1.95800   1.96165
 Alpha virt. eigenvalues --    1.96555   1.96728   1.97468   1.98348   1.98662
 Alpha virt. eigenvalues --    1.98810   1.99384   1.99802   2.00375   2.00757
 Alpha virt. eigenvalues --    2.01440   2.01802   2.01890   2.02061   2.02669
 Alpha virt. eigenvalues --    2.02944   2.03080   2.03398   2.03845   2.04116
 Alpha virt. eigenvalues --    2.04395   2.04503   2.05009   2.05260   2.05741
 Alpha virt. eigenvalues --    2.05838   2.06084   2.06118   2.06379   2.06734
 Alpha virt. eigenvalues --    2.06888   2.07183   2.07772   2.08081   2.08386
 Alpha virt. eigenvalues --    2.08709   2.09028   2.09221   2.09328   2.09494
 Alpha virt. eigenvalues --    2.09645   2.09891   2.10156   2.10647   2.11023
 Alpha virt. eigenvalues --    2.11257   2.11476   2.11685   2.11952   2.12480
 Alpha virt. eigenvalues --    2.13000   2.13099   2.13608   2.13787   2.13955
 Alpha virt. eigenvalues --    2.14183   2.15080   2.15439   2.15549   2.15992
 Alpha virt. eigenvalues --    2.16203   2.16454   2.17080   2.17192   2.17572
 Alpha virt. eigenvalues --    2.17683   2.18284   2.18411   2.18635   2.18916
 Alpha virt. eigenvalues --    2.19426   2.19642   2.19794   2.20053   2.20531
 Alpha virt. eigenvalues --    2.20692   2.21075   2.21580   2.21769   2.22065
 Alpha virt. eigenvalues --    2.22270   2.22832   2.22868   2.23074   2.23711
 Alpha virt. eigenvalues --    2.24013   2.24177   2.24524   2.24686   2.24961
 Alpha virt. eigenvalues --    2.25469   2.25577   2.25817   2.25972   2.26252
 Alpha virt. eigenvalues --    2.26374   2.26745   2.27250   2.27379   2.27599
 Alpha virt. eigenvalues --    2.27807   2.28203   2.28302   2.29078   2.29324
 Alpha virt. eigenvalues --    2.29631   2.30700   2.30942   2.31721   2.32255
 Alpha virt. eigenvalues --    2.32700   2.33215   2.33459   2.33769   2.34219
 Alpha virt. eigenvalues --    2.34578   2.34897   2.35502   2.35752   2.36094
 Alpha virt. eigenvalues --    2.37135   2.38181   2.38603   2.38997   2.39434
 Alpha virt. eigenvalues --    2.40175   2.40929   2.41245   2.41506   2.42527
 Alpha virt. eigenvalues --    2.43149   2.43394   2.44203   2.44808   2.46091
 Alpha virt. eigenvalues --    2.46521   2.46846   2.47059   2.47666   2.48060
 Alpha virt. eigenvalues --    2.49075   2.49305   2.49416   2.49850   2.50102
 Alpha virt. eigenvalues --    2.50578   2.50871   2.51453   2.52185   2.52857
 Alpha virt. eigenvalues --    2.53487   2.54266   2.55312   2.59132   2.60398
 Alpha virt. eigenvalues --    2.60634   2.60853   2.61600   2.61913   2.62624
 Alpha virt. eigenvalues --    2.63036   2.63811   2.64248   2.64760   2.65313
 Alpha virt. eigenvalues --    2.66049   2.66545   2.66931   2.67604   2.68874
 Alpha virt. eigenvalues --    2.70069   2.72552   2.75751   2.76479   2.76901
 Alpha virt. eigenvalues --    2.77182   2.78090   2.78194   2.78475   2.79006
 Alpha virt. eigenvalues --    2.79167   2.79663   2.80250   2.80696   2.80904
 Alpha virt. eigenvalues --    2.81172   2.81242   2.81560   2.81613   2.82274
 Alpha virt. eigenvalues --    2.82456   2.82748   2.82860   2.83397   2.84782
 Alpha virt. eigenvalues --    2.85011   2.87081   2.87584   2.88529   2.90800
 Alpha virt. eigenvalues --    2.91504   2.93120   2.93857   2.94742   2.94811
 Alpha virt. eigenvalues --    2.95226   2.95829   2.96421   2.97334   2.97487
 Alpha virt. eigenvalues --    2.98122   2.98692   3.00851   3.03970   3.05041
 Alpha virt. eigenvalues --    3.05795   3.06013   3.06349   3.06898   3.08168
 Alpha virt. eigenvalues --    3.08516   3.09700   3.10461   3.11361   3.12752
 Alpha virt. eigenvalues --    3.13428   3.14517   3.15196   3.15983   3.16694
 Alpha virt. eigenvalues --    3.17599   3.28059   3.32730   3.45595  18.30647
          Condensed to atoms (all electrons):
 Mulliken charges:
               1
     1  Ir  -0.423349
     2  B    0.551074
     3  C    0.088691
     4  C   -0.081755
     5  C   -0.189735
     6  C    0.341277
     7  C    0.336704
     8  C   -0.185323
     9  C   -0.062430
    10  C   -0.003449
    11  B    0.571188
    12  N   -0.477122
    13  N   -0.504825
    14  O   -0.483925
    15  O   -0.502252
    16  O   -0.505728
    17  O   -0.544400
    18  O   -0.529344
    19  O   -0.487540
    20  C   -0.159004
    21  C   -0.171392
    22  C    0.290493
    23  C    0.288647
    24  C    0.283158
    25  C    0.282040
    26  C    0.291457
    27  C    0.297038
    28  C    0.298898
    29  B    0.527248
    30  H    0.210836
    31  B    0.572391
    32  C    0.289682
    33  O   -0.513183
    34  O   -0.524819
    35  C   -0.509381
    36  H    0.161139
    37  H    0.187596
    38  H    0.151560
    39  C   -0.506675
    40  H    0.171146
    41  H    0.150327
    42  H    0.168797
    43  C   -0.495398
    44  H    0.158200
    45  H    0.147511
    46  H    0.165912
    47  C   -0.514784
    48  H    0.163562
    49  H    0.152101
    50  H    0.178778
    51  C   -0.504451
    52  H    0.163612
    53  H    0.141787
    54  H    0.172657
    55  C   -0.481744
    56  H    0.166835
    57  H    0.151937
    58  H    0.139875
    59  C   -0.497331
    60  H    0.139495
    61  H    0.154888
    62  H    0.188277
    63  C   -0.511757
    64  H    0.162318
    65  H    0.151070
    66  H    0.163920
    67  C   -0.496278
    68  H    0.162955
    69  H    0.141954
    70  H    0.176856
    71  C   -0.510984
    72  H    0.148329
    73  H    0.160397
    74  H    0.189064
    75  C   -0.502943
    76  H    0.171630
    77  H    0.149190
    78  H    0.161907
    79  C   -0.478402
    80  H    0.165387
    81  H    0.145871
    82  H    0.144189
    83  C   -0.507516
    84  H    0.175273
    85  H    0.150662
    86  H    0.170529
    87  C   -0.500443
    88  H    0.153035
    89  H    0.178233
    90  H    0.164846
    91  C   -0.504742
    92  H    0.169501
    93  H    0.155239
    94  H    0.157554
    95  C   -0.484892
    96  H    0.152961
    97  H    0.179031
    98  H    0.139080
    99  B    0.557260
   100  O   -0.539739
   101  O   -0.510249
   102  C    0.305833
   103  C    0.292647
   104  C   -0.511324
   105  C   -0.509607
   106  C   -0.520734
   107  C   -0.509481
   108  H    0.163626
   109  H    0.154502
   110  H    0.161069
   111  H    0.169872
   112  H    0.151437
   113  H    0.164247
   114  H    0.174636
   115  H    0.152816
   116  H    0.165386
   117  H    0.186097
   118  H    0.136524
   119  H    0.178137
   120  H    0.266516
   121  H    0.197850
   122  H    0.174976
   123  H    0.200423
   124  H    0.177956
   125  C    0.978775
   126  F   -0.305357
   127  F   -0.305519
   128  F   -0.318599
   129  C    0.969139
   130  F   -0.305026
   131  F   -0.306375
   132  F   -0.318217
 Sum of Mulliken charges =  -0.00000
 Mulliken charges with hydrogens summed into heavy atoms:
               1
     1  Ir  -0.423349
     2  B    0.551074
     3  C    0.299527
     4  C   -0.081755
     5  C   -0.014759
     6  C    0.341277
     7  C    0.336704
     8  C   -0.007367
     9  C   -0.062430
    10  C    0.263067
    11  B    0.571188
    12  N   -0.477122
    13  N   -0.504825
    14  O   -0.483925
    15  O   -0.502252
    16  O   -0.505728
    17  O   -0.544400
    18  O   -0.529344
    19  O   -0.487540
    20  C    0.038846
    21  C    0.029032
    22  C    0.290493
    23  C    0.288647
    24  C    0.283158
    25  C    0.282040
    26  C    0.291457
    27  C    0.297038
    28  C    0.298898
    29  B    0.527248
    31  B    0.572391
    32  C    0.289682
    33  O   -0.513183
    34  O   -0.524819
    35  C   -0.009085
    39  C   -0.016405
    43  C   -0.023775
    47  C   -0.020343
    51  C   -0.026395
    55  C   -0.023097
    59  C   -0.014671
    63  C   -0.034449
    67  C   -0.014513
    71  C   -0.013194
    75  C   -0.020215
    79  C   -0.022954
    83  C   -0.011052
    87  C   -0.004329
    91  C   -0.022448
    95  C   -0.013819
    99  B    0.557260
   100  O   -0.539739
   101  O   -0.510249
   102  C    0.305833
   103  C    0.292647
   104  C   -0.032127
   105  C   -0.024051
   106  C   -0.027895
   107  C   -0.008723
   125  C    0.978775
   126  F   -0.305357
   127  F   -0.305519
   128  F   -0.318599
   129  C    0.969139
   130  F   -0.305026
   131  F   -0.306375
   132  F   -0.318217
 APT charges:
               1
     1  Ir  -1.286007
     2  B    1.192444
     3  C    0.084149
     4  C   -0.177029
     5  C   -0.183515
     6  C    0.198507
     7  C    0.250259
     8  C   -0.198799
     9  C   -0.202574
    10  C    0.021804
    11  B    1.095459
    12  N   -0.137035
    13  N   -0.104564
    14  O   -0.872133
    15  O   -0.867249
    16  O   -0.920540
    17  O   -0.973961
    18  O   -0.980057
    19  O   -0.962298
    20  C    0.074498
    21  C    0.093328
    22  C    0.452684
    23  C    0.436116
    24  C    0.494527
    25  C    0.501763
    26  C    0.478290
    27  C    0.485689
    28  C    0.433364
    29  B    1.347040
    30  H    0.095212
    31  B    1.246334
    32  C    0.470681
    33  O   -0.942239
    34  O   -0.888868
    35  C   -0.045575
    36  H    0.006924
    37  H    0.019242
    38  H   -0.025350
    39  C   -0.010848
    40  H    0.008807
    41  H   -0.017635
    42  H    0.005530
    43  C   -0.020897
    44  H   -0.014579
    45  H   -0.013186
    46  H   -0.003348
    47  C   -0.004038
    48  H   -0.004478
    49  H   -0.014485
    50  H    0.006835
    51  C   -0.002329
    52  H   -0.005313
    53  H   -0.023084
    54  H    0.007798
    55  C   -0.020207
    56  H    0.001614
    57  H   -0.002536
    58  H   -0.032593
    59  C   -0.024614
    60  H   -0.033343
    61  H   -0.007664
    62  H    0.032821
    63  C    0.003583
    64  H   -0.003371
    65  H   -0.018767
    66  H   -0.010626
    67  C   -0.000451
    68  H   -0.004195
    69  H   -0.024824
    70  H    0.006521
    71  C   -0.066222
    72  H   -0.027038
    73  H    0.002997
    74  H    0.044628
    75  C   -0.008215
    76  H    0.001084
    77  H   -0.019441
    78  H   -0.005093
    79  C   -0.022688
    80  H    0.004116
    81  H   -0.000116
    82  H   -0.029900
    83  C   -0.004385
    84  H    0.006323
    85  H   -0.018424
    86  H    0.007119
    87  C   -0.016302
    88  H   -0.022932
    89  H    0.003678
    90  H   -0.002151
    91  C   -0.002137
    92  H    0.001306
    93  H   -0.009657
    94  H   -0.015415
    95  C   -0.013331
    96  H   -0.020135
    97  H    0.010736
    98  H   -0.013908
    99  B    1.270079
   100  O   -0.962763
   101  O   -0.952066
   102  C    0.471816
   103  C    0.482304
   104  C   -0.026229
   105  C   -0.009498
   106  C   -0.015642
   107  C   -0.038718
   108  H    0.009863
   109  H   -0.020488
   110  H   -0.008000
   111  H    0.002374
   112  H   -0.018255
   113  H    0.010790
   114  H    0.008726
   115  H   -0.017340
   116  H    0.002382
   117  H    0.037858
   118  H   -0.029645
   119  H    0.008643
   120  H    0.175391
   121  H    0.062453
   122  H    0.041180
   123  H    0.067610
   124  H    0.044364
   125  C    1.744218
   126  F   -0.537862
   127  F   -0.544033
   128  F   -0.578283
   129  C    1.779756
   130  F   -0.576457
   131  F   -0.522782
   132  F   -0.592864
 Sum of APT charges =   0.00000
 APT charges with hydrogens summed into heavy atoms:
               1
     1  Ir  -1.286007
     2  B    1.192444
     3  C    0.179361
     4  C   -0.177029
     5  C   -0.142334
     6  C    0.198507
     7  C    0.250259
     8  C   -0.154435
     9  C   -0.202574
    10  C    0.197195
    11  B    1.095459
    12  N   -0.137035
    13  N   -0.104564
    14  O   -0.872133
    15  O   -0.867249
    16  O   -0.920540
    17  O   -0.973961
    18  O   -0.980057
    19  O   -0.962298
    20  C    0.136951
    21  C    0.160938
    22  C    0.452684
    23  C    0.436116
    24  C    0.494527
    25  C    0.501763
    26  C    0.478290
    27  C    0.485689
    28  C    0.433364
    29  B    1.347040
    31  B    1.246334
    32  C    0.470681
    33  O   -0.942239
    34  O   -0.888868
    35  C   -0.044759
    39  C   -0.014147
    43  C   -0.052010
    47  C   -0.016166
    51  C   -0.022928
    55  C   -0.053722
    59  C   -0.032799
    63  C   -0.029181
    67  C   -0.022949
    71  C   -0.045634
    75  C   -0.031664
    79  C   -0.048589
    83  C   -0.009367
    87  C   -0.037707
    91  C   -0.025904
    95  C   -0.036639
    99  B    1.270079
   100  O   -0.962763
   101  O   -0.952066
   102  C    0.471816
   103  C    0.482304
   104  C   -0.044854
   105  C   -0.014589
   106  C   -0.021875
   107  C   -0.021862
   125  C    1.744218
   126  F   -0.537862
   127  F   -0.544033
   128  F   -0.578283
   129  C    1.779756
   130  F   -0.576457
   131  F   -0.522782
   132  F   -0.592864
 Electronic spatial extent (au):  <R**2>=          39229.7912
 Charge=             -0.0000 electrons
 Dipole moment (field-independent basis, Debye):
    X=             -1.7262    Y=             -1.0922    Z=             -5.0565  Tot=              5.4535
 Quadrupole moment (field-independent basis, Debye-Ang):
   XX=           -403.3485   YY=           -382.5086   ZZ=           -373.4613
   XY=              3.1740   XZ=             14.5059   YZ=              2.5320
 Traceless Quadrupole moment (field-independent basis, Debye-Ang):
   XX=            -16.9090   YY=              3.9308   ZZ=             12.9782
   XY=              3.1740   XZ=             14.5059   YZ=              2.5320
 Octapole moment (field-independent basis, Debye-Ang**2):
  XXX=             35.0947  YYY=             -2.9362  ZZZ=           -196.6990  XYY=            -19.6999
  XXY=             10.6748  XXZ=             16.7447  XZZ=            -50.0467  YZZ=            -29.4915
  YYZ=            -18.3558  XYZ=             -7.4523
 Hexadecapole moment (field-independent basis, Debye-Ang**3):
 XXXX=         -19376.5941 YYYY=         -15813.7064 ZZZZ=         -13987.1138 XXXY=             64.0689
 XXXZ=             47.4018 YYYX=              1.8411 YYYZ=            -11.4057 ZZZX=            -73.0535
 ZZZY=            152.6207 XXYY=          -5753.8273 XXZZ=          -5509.8307 YYZZ=          -5205.2106
 XXYZ=             14.0109 YYXZ=             43.9081 ZZXY=            -53.1375
 N-N= 1.340945993444D+04 E-N=-3.458382782704D+04  KE= 3.237827607755D+03
  Exact polarizability:     609.891       0.619     532.671       8.611       8.188     586.873
 Approx polarizability:     899.377      -4.259     718.891       3.731      20.255     881.797
   1 Symmetry operations used in ECPInt.
 ECPInt:  NShTT=   80200 NPrTT=  496889 LenC2=   59619 LenP2D=  179632.
 LDataN:  DoStor=T MaxTD1= 8 Len=  415
 Calling FoFJK, ICntrl=    100127 FMM=F ISym2X=0 I1Cent= 0 IOpClX= 0 NMat=1 NMatS=1 NMatT=0.
 Defaulting to unpruned grid for atomic number  77.
 Defaulting to unpruned grid for atomic number  77.
 Defaulting to unpruned grid for atomic number  77.
 Defaulting to unpruned grid for atomic number  77.
 Defaulting to unpruned grid for atomic number  77.
 Defaulting to unpruned grid for atomic number  77.
 Defaulting to unpruned grid for atomic number  77.
 Defaulting to unpruned grid for atomic number  77.
 Defaulting to unpruned grid for atomic number  77.
 Defaulting to unpruned grid for atomic number  77.
 Defaulting to unpruned grid for atomic number  77.
 Defaulting to unpruned grid for atomic number  77.
 Defaulting to unpruned grid for atomic number  77.
 Defaulting to unpruned grid for atomic number  77.
 Defaulting to unpruned grid for atomic number  77.
 Defaulting to unpruned grid for atomic number  77.
