/mnt/lustre/scratch/nvme/SLURM/9698475/usccqdma.Yw1kYuRMKx
OMP_STACKSIZE=0m
GAUSS_PDEF=16
GAUSS_MDEF=65536MB
GAUSS_RDEF=SCF=Direct
 Entering Gaussian System, Link 0=g16.exe
 Initial command:
 /opt/cesga/2020/software/Core/g16/c1/l1.exe "/mnt/lustre/scratch/nvme/SLURM/9698475/usccqdma.Yw1kYuRMKx/Gau-481663.inp" -scrdir="/mnt/lustre/scratch/nvme/SLURM/9698475/usccqdma.Yw1kYuRMKx/"
 Default is to use a total of  16 processors:
                               16 via shared-memory
                                1 via Linda
 Entering Link 1 = /opt/cesga/2020/software/Core/g16/c1/l1.exe PID=    481689.
  
 Copyright (c) 1988-2019, Gaussian, Inc.  All Rights Reserved.
  
 This is part of the Gaussian(R) 16 program.  It is based on
 the Gaussian(R) 09 system (copyright 2009, Gaussian, Inc.),
 the Gaussian(R) 03 system (copyright 2003, Gaussian, Inc.),
 the Gaussian(R) 98 system (copyright 1998, Gaussian, Inc.),
 the Gaussian(R) 94 system (copyright 1995, Gaussian, Inc.),
 the Gaussian 92(TM) system (copyright 1992, Gaussian, Inc.),
 the Gaussian 90(TM) system (copyright 1990, Gaussian, Inc.),
 the Gaussian 88(TM) system (copyright 1988, Gaussian, Inc.),
 the Gaussian 86(TM) system (copyright 1986, Carnegie Mellon
 University), and the Gaussian 82(TM) system (copyright 1983,
 Carnegie Mellon University). Gaussian is a federally registered
 trademark of Gaussian, Inc.
  
 This software contains proprietary and confidential information,
 including trade secrets, belonging to Gaussian, Inc.
  
 This software is provided under written license and may be
 used, copied, transmitted, or stored only in accord with that
 written license.
  
 The following legend is applicable only to US Government
 contracts under FAR:
  
                    RESTRICTED RIGHTS LEGEND
  
 Use, reproduction and disclosure by the US Government is
 subject to restrictions as set forth in subparagraphs (a)
 and (c) of the Commercial Computer Software - Restricted
 Rights clause in FAR 52.227-19.
  
 Gaussian, Inc.
 340 Quinnipiac St., Bldg. 40, Wallingford CT 06492
  
  
 ---------------------------------------------------------------
 Warning -- This program may not be used in any manner that
 competes with the business of Gaussian, Inc. or will provide
 assistance to any competitor of Gaussian, Inc.  The licensee
 of this program is prohibited from giving any competitor of
 Gaussian, Inc. access to this program.  By using this program,
 the user acknowledges that Gaussian, Inc. is engaged in the
 business of creating and licensing software in the field of
 computational chemistry and represents and warrants to the
 licensee that it is not a competitor of Gaussian, Inc. and that
 it will not use this program in any manner prohibited above.
 ---------------------------------------------------------------
  

 Cite this work as:
 Gaussian 16, Revision C.01,
 M. J. Frisch, G. W. Trucks, H. B. Schlegel, G. E. Scuseria, 
 M. A. Robb, J. R. Cheeseman, G. Scalmani, V. Barone, 
 G. A. Petersson, H. Nakatsuji, X. Li, M. Caricato, A. V. Marenich, 
 J. Bloino, B. G. Janesko, R. Gomperts, B. Mennucci, H. P. Hratchian, 
 J. V. Ortiz, A. F. Izmaylov, J. L. Sonnenberg, D. Williams-Young, 
 F. Ding, F. Lipparini, F. Egidi, J. Goings, B. Peng, A. Petrone, 
 T. Henderson, D. Ranasinghe, V. G. Zakrzewski, J. Gao, N. Rega, 
 G. Zheng, W. Liang, M. Hada, M. Ehara, K. Toyota, R. Fukuda, 
 J. Hasegawa, M. Ishida, T. Nakajima, Y. Honda, O. Kitao, H. Nakai, 
 T. Vreven, K. Throssell, J. A. Montgomery, Jr., J. E. Peralta, 
 F. Ogliaro, M. J. Bearpark, J. J. Heyd, E. N. Brothers, K. N. Kudin, 
 V. N. Staroverov, T. A. Keith, R. Kobayashi, J. Normand, 
 K. Raghavachari, A. P. Rendell, J. C. Burant, S. S. Iyengar, 
 J. Tomasi, M. Cossi, J. M. Millam, M. Klene, C. Adamo, R. Cammi, 
 J. W. Ochterski, R. L. Martin, K. Morokuma, O. Farkas, 
 J. B. Foresman, and D. J. Fox, Gaussian, Inc., Wallingford CT, 2019.
 
 ******************************************
 Gaussian 16:  ES64L-G16RevC.01  3-Jul-2019
                10-Dec-2024 
 ******************************************
 Default route: SCF=Direct
 ----------------------------------------------------
 # m06/genecp scf=tight int=ultrafine 5d freq=noraman
 ----------------------------------------------------
 1/10=4,30=1,38=1/1,3;
 2/12=2,17=6,18=5,40=1/2;
 3/5=7,8=1,11=2,16=1,17=8,25=1,30=1,71=2,74=-54,75=-5,140=1/1,2,3;
 4//1;
 5/5=2,32=2,38=5,98=1/2;
 8/6=4,10=90,11=11/1;
 11/6=1,8=1,9=11,15=111,16=1/1,2,10;
 10/6=1/2;
 6/7=2,8=2,9=2,10=2,28=1/1;
 7/8=1,10=1,25=1/1,2,3,16;
 1/10=4,30=1/3;
 99//99;
 ------
 OPT-TS
 ------
 Symbolic Z-matrix:
 Charge =  0 Multiplicity = 1
 C                     0.97505   1.6772   -2.07583 
 C                     0.78581  -0.43779  -3.00303 
 C                     1.25288   0.00474  -4.23285 
 C                     1.60056   1.34122  -4.37064 
 C                     1.46276   2.18566  -3.27933 
 C                     0.79059   2.52038  -0.87834 
 C                     0.3154    2.58995   1.3896 
 C                     0.39252   3.97311   1.41688 
 C                     0.67208   4.64083   0.22904 
 C                     0.86948   3.91436  -0.93154 
 H                     0.51384  -1.47837  -2.82766 
 H                     1.98421   1.7244   -5.31388 
 H                     1.75446   3.2292   -3.36141 
 H                     0.05372   2.00719   2.27225 
 H                     1.06388   4.43367  -1.86501 
 N                     0.64926   0.37693  -1.95339 
 N                     0.51246   1.88061   0.27135 
 Ir                   -0.0172   -0.38159   0.04042 
 O                    -1.47433  -1.88007   2.33716 
 O                    -2.23715  -2.46073  -0.36856 
 O                    -3.0376    0.57904   0.29203 
 B                    -0.91894  -2.08054  -0.59285 
 B                    -1.03237  -0.67933   1.81465 
 B                    -1.94115   0.3113   -0.5103 
 O                    -2.21406   0.67707  -1.82811 
 O                    -1.28211   0.35906   2.70333 
 C                    -1.81869  -0.20358   3.91283 
 C                    -2.35401  -1.58342   3.42798 
 C                    -4.14792   0.90358  -0.56033 
 C                    -3.4271    1.44709  -1.8221 
 C                    -2.38843  -3.80856  -0.82565 
 C                    -1.33584  -3.87229  -1.96321 
 O                    -0.30936  -2.99713  -1.45885 
 C                    -2.26487  -2.69802   4.45111 
 H                    -2.86803  -2.46304   5.34006 
 H                    -2.6535   -3.62754   4.01506 
 H                    -1.23177  -2.88213   4.76586 
 C                    -3.76468  -1.51164   2.85652 
 H                    -3.97744  -2.45591   2.3363 
 H                    -4.51948  -1.36762   3.64193 
 H                    -3.8414   -0.70374   2.11811 
 C                    -0.66475  -0.32319   4.89863 
 H                    -0.21009   0.6669    5.03558 
 H                    -0.99762  -0.68362   5.88117 
 H                     0.11047  -1.00196   4.51939 
 C                    -2.87829   0.7348    4.4542 
 H                    -3.39688   0.28811   5.31477 
 H                    -2.41303   1.67093   4.79022 
 H                    -3.61674   0.98236   3.68312 
 C                    -2.05422  -4.7202    0.34928 
 H                    -2.6915   -4.44167   1.19852 
 H                    -2.22674  -5.77875   0.11162 
 H                    -1.01245  -4.59053   0.66959 
 C                    -3.82203  -4.03424  -1.2605 
 H                    -3.95535  -5.05148  -1.65603 
 H                    -4.48946  -3.91481  -0.39629 
 H                    -4.13789  -3.31869  -2.02814 
 C                    -0.74386  -5.24262  -2.21552 
 H                    -1.52606  -5.95448  -2.51621 
 H                    -0.00566  -5.18965  -3.02619 
 H                    -0.2389   -5.63293  -1.32542 
 C                    -1.83942  -3.26172  -3.26535 
 H                    -0.9985   -3.17011  -3.96639 
 H                    -2.6066   -3.88541  -3.74336 
 H                    -2.25215  -2.25574  -3.09473 
 C                    -4.16348   1.23141  -3.12817 
 H                    -3.57666   1.64472  -3.95872 
 H                    -4.32621   0.16672  -3.32848 
 H                    -5.13872   1.73934  -3.11666 
 C                    -3.01752   2.90969  -1.68996 
 H                    -2.32971   3.15619  -2.51015 
 H                    -3.87847   3.5893   -1.74801 
 H                    -2.49426   3.08863  -0.73929 
 C                    -5.03731   1.8982    0.15684 
 H                    -5.85136   2.24191  -0.49773 
 H                    -5.49072   1.41905   1.03527 
 H                    -4.47278   2.77039   0.50491 
 C                    -4.91083  -0.38621  -0.82968 
 H                    -5.19716  -0.84159   0.1275 
 H                    -5.82345  -0.20554  -1.4139 
 H                    -4.27764  -1.10983  -1.35729 
 H                     1.9594   -2.71999  -0.96945 
 C                     2.63449  -2.03112  -0.46074 
 C                     4.00744  -2.22579  -0.55096 
 C                     2.10103  -0.95153   0.25642 
 C                     4.89478  -1.38612   0.12508 
 H                     4.41721  -3.0375   -1.15138 
 C                     3.00031  -0.11605   0.93175 
 C                     4.3744   -0.32432   0.86864 
 H                     5.05024   0.36171   1.38163 
 H                     0.67758  -1.26916   1.22364 
 H                     2.62373   0.72369   1.51946 
 C                     6.35712  -1.60361  -0.08091 
 O                     6.79053  -1.90782  -1.18464 
 N                     7.19964  -1.40589   0.99382 
 C                     8.62451  -1.48765   0.7597 
 H                     9.02009  -2.48061   1.02775 
 H                     8.82411  -1.30954  -0.29885 
 H                     9.14138  -0.73491   1.37112 
 C                     6.81315  -1.51286   2.38363 
 H                     5.74134  -1.70066   2.4778 
 H                     7.35142  -2.3495    2.85696 
 H                     7.06063  -0.59588   2.94063 
 H                     1.34793  -0.69595  -5.05827 
 C                     0.72823   6.14026   0.23904 
 F                     1.62836   6.57418   1.12608 
 F                     1.05286   6.64161  -0.95419 
 F                    -0.45282   6.65557   0.59257 
 H                     0.22709   4.52075   2.34201 
 

 GradGradGradGradGradGradGradGradGradGradGradGradGradGradGradGradGradGrad
 Berny optimization.
 Initialization pass.
 Trust Radius=3.00D-01 FncErr=1.00D-07 GrdErr=1.00D-07 EigMax=2.50D+02 EigMin=1.00D-04
 Number of steps in this run=      2 maximum allowed number of steps=      2.
 GradGradGradGradGradGradGradGradGradGradGradGradGradGradGradGradGradGrad

 Stoichiometry    C38H54B3F3IrN3O7
 Framework group  C1[X(C38H54B3F3IrN3O7)]
 Deg. of freedom   321
 Full point group                 C1      NOp   1
 Largest Abelian subgroup         C1      NOp   1
 Largest concise Abelian subgroup C1      NOp   1
                         Standard orientation:                         
 ---------------------------------------------------------------------
 Center     Atomic      Atomic             Coordinates (Angstroms)
 Number     Number       Type             X           Y           Z
 ---------------------------------------------------------------------
      1          6           0        0.975049    1.677200   -2.075830
      2          6           0        0.785810   -0.437790   -3.003030
      3          6           0        1.252880    0.004740   -4.232850
      4          6           0        1.600559    1.341220   -4.370640
      5          6           0        1.462759    2.185660   -3.279330
      6          6           0        0.790589    2.520380   -0.878340
      7          6           0        0.315399    2.589950    1.389600
      8          6           0        0.392519    3.973110    1.416880
      9          6           0        0.672079    4.640830    0.229040
     10          6           0        0.869479    3.914360   -0.931540
     11          1           0        0.513840   -1.478370   -2.827660
     12          1           0        1.984209    1.724401   -5.313880
     13          1           0        1.754459    3.229200   -3.361410
     14          1           0        0.053719    2.007190    2.272250
     15          1           0        1.063879    4.433670   -1.865010
     16          7           0        0.649260    0.376930   -1.953390
     17          7           0        0.512459    1.880610    0.271350
     18         77           0       -0.017200   -0.381590    0.040420
     19          8           0       -1.474330   -1.880070    2.337160
     20          8           0       -2.237150   -2.460730   -0.368560
     21          8           0       -3.037600    0.579040    0.292030
     22          5           0       -0.918940   -2.080540   -0.592850
     23          5           0       -1.032370   -0.679330    1.814650
     24          5           0       -1.941150    0.311300   -0.510300
     25          8           0       -2.214060    0.677070   -1.828110
     26          8           0       -1.282110    0.359060    2.703330
     27          6           0       -1.818690   -0.203580    3.912830
     28          6           0       -2.354010   -1.583420    3.427980
     29          6           0       -4.147920    0.903580   -0.560330
     30          6           0       -3.427101    1.447090   -1.822100
     31          6           0       -2.388430   -3.808560   -0.825650
     32          6           0       -1.335840   -3.872290   -1.963210
     33          8           0       -0.309360   -2.997130   -1.458850
     34          6           0       -2.264870   -2.698020    4.451110
     35          1           0       -2.868030   -2.463040    5.340060
     36          1           0       -2.653500   -3.627540    4.015060
     37          1           0       -1.231770   -2.882130    4.765860
     38          6           0       -3.764680   -1.511640    2.856520
     39          1           0       -3.977440   -2.455910    2.336300
     40          1           0       -4.519480   -1.367620    3.641930
     41          1           0       -3.841400   -0.703740    2.118110
     42          6           0       -0.664750   -0.323190    4.898630
     43          1           0       -0.210090    0.666900    5.035580
     44          1           0       -0.997620   -0.683620    5.881170
     45          1           0        0.110470   -1.001960    4.519390
     46          6           0       -2.878290    0.734800    4.454200
     47          1           0       -3.396880    0.288110    5.314770
     48          1           0       -2.413031    1.670930    4.790220
     49          1           0       -3.616740    0.982360    3.683120
     50          6           0       -2.054220   -4.720200    0.349280
     51          1           0       -2.691500   -4.441670    1.198520
     52          1           0       -2.226740   -5.778750    0.111620
     53          1           0       -1.012450   -4.590530    0.669590
     54          6           0       -3.822030   -4.034240   -1.260500
     55          1           0       -3.955350   -5.051480   -1.656030
     56          1           0       -4.489460   -3.914810   -0.396290
     57          1           0       -4.137890   -3.318690   -2.028140
     58          6           0       -0.743860   -5.242620   -2.215520
     59          1           0       -1.526059   -5.954480   -2.516210
     60          1           0       -0.005660   -5.189650   -3.026190
     61          1           0       -0.238900   -5.632930   -1.325420
     62          6           0       -1.839420   -3.261720   -3.265350
     63          1           0       -0.998500   -3.170110   -3.966390
     64          1           0       -2.606600   -3.885410   -3.743360
     65          1           0       -2.252150   -2.255740   -3.094730
     66          6           0       -4.163481    1.231410   -3.128170
     67          1           0       -3.576661    1.644720   -3.958720
     68          1           0       -4.326210    0.166720   -3.328480
     69          1           0       -5.138721    1.739339   -3.116660
     70          6           0       -3.017521    2.909690   -1.689960
     71          1           0       -2.329711    3.156190   -2.510150
     72          1           0       -3.878471    3.589300   -1.748010
     73          1           0       -2.494261    3.088630   -0.739290
     74          6           0       -5.037311    1.898200    0.156840
     75          1           0       -5.851361    2.241909   -0.497730
     76          1           0       -5.490721    1.419049    1.035270
     77          1           0       -4.472781    2.770390    0.504910
     78          6           0       -4.910830   -0.386210   -0.829680
     79          1           0       -5.197160   -0.841591    0.127500
     80          1           0       -5.823450   -0.205541   -1.413900
     81          1           0       -4.277640   -1.109830   -1.357290
     82          1           0        1.959400   -2.719989   -0.969450
     83          6           0        2.634490   -2.031119   -0.460740
     84          6           0        4.007440   -2.225789   -0.550960
     85          6           0        2.101030   -0.951529    0.256420
     86          6           0        4.894780   -1.386119    0.125080
     87          1           0        4.417210   -3.037499   -1.151380
     88          6           0        3.000310   -0.116049    0.931750
     89          6           0        4.374400   -0.324319    0.868640
     90          1           0        5.050240    0.361711    1.381630
     91          1           0        0.677580   -1.269160    1.223640
     92          1           0        2.623730    0.723691    1.519460
     93          6           0        6.357120   -1.603609   -0.080910
     94          8           0        6.790530   -1.907819   -1.184640
     95          7           0        7.199640   -1.405889    0.993820
     96          6           0        8.624510   -1.487649    0.759700
     97          1           0        9.020090   -2.480608    1.027750
     98          1           0        8.824110   -1.309538   -0.298850
     99          1           0        9.141380   -0.734908    1.371120
    100          6           0        6.813150   -1.512859    2.383630
    101          1           0        5.741340   -1.700659    2.477800
    102          1           0        7.351420   -2.349499    2.856960
    103          1           0        7.060630   -0.595879    2.940630
    104          1           0        1.347930   -0.695950   -5.058270
    105          6           0        0.728229    6.140260    0.239040
    106          9           0        1.628359    6.574180    1.126080
    107          9           0        1.052859    6.641610   -0.954190
    108          9           0       -0.452821    6.655570    0.592570
    109          1           0        0.227089    4.520750    2.342010
 ---------------------------------------------------------------------
 Rotational constants (GHZ):           0.0495579           0.0441418           0.0345522
 General basis read from cards:  (5D, 7F)
 ======================================================================================================
                                       Pseudopotential Parameters
 ======================================================================================================
  Center     Atomic      Valence      Angular      Power
  Number     Number     Electrons     Momentum     of R      Exponent        Coefficient   SO-Coeffient
 ======================================================================================================
    1          6
                                   No pseudopotential on this center.
    2          6
                                   No pseudopotential on this center.
    3          6
                                   No pseudopotential on this center.
    4          6
                                   No pseudopotential on this center.
    5          6
                                   No pseudopotential on this center.
    6          6
                                   No pseudopotential on this center.
    7          6
                                   No pseudopotential on this center.
    8          6
                                   No pseudopotential on this center.
    9          6
                                   No pseudopotential on this center.
   10          6
                                   No pseudopotential on this center.
   11          1
                                   No pseudopotential on this center.
   12          1
                                   No pseudopotential on this center.
   13          1
                                   No pseudopotential on this center.
   14          1
                                   No pseudopotential on this center.
   15          1
                                   No pseudopotential on this center.
   16          7
                                   No pseudopotential on this center.
   17          7
                                   No pseudopotential on this center.
   18         77           17
                                      G and up 
                                                     1      823.5880147       -0.15780140    0.00000000
                                                     2      364.6613336    -1517.52704460    0.00000000
                                                     2       55.7082801     -316.53065290    0.00000000
                                                     2       12.0464544      -91.88809410    0.00000000
                                                     2        3.5120610       -9.22417730    0.00000000
                                      S - G
                                                     0      188.0490770        3.15780140    0.00000000
                                                     1      340.4194712       26.83225770    0.00000000
                                                     2      128.2373673      800.42500070    0.00000000
                                                     2       33.8644961      369.40506830    0.00000000
                                                     2        4.7560005      242.41718990    0.00000000
                                                     2        3.9649974     -118.21732820    0.00000000
                                      P - G
                                                     0      289.7291139        2.15780140    0.00000000
                                                     1       87.4633789       61.96786100    0.00000000
                                                     2       30.4363766      269.05819860    0.00000000
                                                     2        4.0553412      231.16547930    0.00000000
                                                     2        3.5525341     -133.69526670    0.00000000
                                      D - G
                                                     0      136.4017106        3.15780140    0.00000000
                                                     1       95.0776925       45.93498030    0.00000000
                                                     2       49.2258410      359.03446680    0.00000000
                                                     2       15.0874145      176.47401190    0.00000000
                                                     2        4.0405764       54.51552860    0.00000000
                                      F - G
                                                     0      127.3507908        3.95461970    0.00000000
                                                     1       66.2364374       52.97736550    0.00000000
                                                     2       34.4299229      274.86433830    0.00000000
                                                     2       10.1995721      137.20473380    0.00000000
                                                     2        2.5409702       14.86333050    0.00000000
   19          8
                                   No pseudopotential on this center.
   20          8
                                   No pseudopotential on this center.
   21          8
                                   No pseudopotential on this center.
   22          5
                                   No pseudopotential on this center.
   23          5
                                   No pseudopotential on this center.
   24          5
                                   No pseudopotential on this center.
   25          8
                                   No pseudopotential on this center.
   26          8
                                   No pseudopotential on this center.
   27          6
                                   No pseudopotential on this center.
   28          6
                                   No pseudopotential on this center.
   29          6
                                   No pseudopotential on this center.
   30          6
                                   No pseudopotential on this center.
   31          6
                                   No pseudopotential on this center.
   32          6
                                   No pseudopotential on this center.
   33          8
                                   No pseudopotential on this center.
   34          6
                                   No pseudopotential on this center.
   35          1
                                   No pseudopotential on this center.
   36          1
                                   No pseudopotential on this center.
   37          1
                                   No pseudopotential on this center.
   38          6
                                   No pseudopotential on this center.
   39          1
                                   No pseudopotential on this center.
   40          1
                                   No pseudopotential on this center.
   41          1
                                   No pseudopotential on this center.
   42          6
                                   No pseudopotential on this center.
   43          1
                                   No pseudopotential on this center.
   44          1
                                   No pseudopotential on this center.
   45          1
                                   No pseudopotential on this center.
   46          6
                                   No pseudopotential on this center.
   47          1
                                   No pseudopotential on this center.
   48          1
                                   No pseudopotential on this center.
   49          1
                                   No pseudopotential on this center.
   50          6
                                   No pseudopotential on this center.
   51          1
                                   No pseudopotential on this center.
   52          1
                                   No pseudopotential on this center.
   53          1
                                   No pseudopotential on this center.
   54          6
                                   No pseudopotential on this center.
   55          1
                                   No pseudopotential on this center.
   56          1
                                   No pseudopotential on this center.
   57          1
                                   No pseudopotential on this center.
   58          6
                                   No pseudopotential on this center.
   59          1
                                   No pseudopotential on this center.
   60          1
                                   No pseudopotential on this center.
   61          1
                                   No pseudopotential on this center.
   62          6
                                   No pseudopotential on this center.
   63          1
                                   No pseudopotential on this center.
   64          1
                                   No pseudopotential on this center.
   65          1
                                   No pseudopotential on this center.
   66          6
                                   No pseudopotential on this center.
   67          1
                                   No pseudopotential on this center.
   68          1
                                   No pseudopotential on this center.
   69          1
                                   No pseudopotential on this center.
   70          6
                                   No pseudopotential on this center.
   71          1
                                   No pseudopotential on this center.
   72          1
                                   No pseudopotential on this center.
   73          1
                                   No pseudopotential on this center.
   74          6
                                   No pseudopotential on this center.
   75          1
                                   No pseudopotential on this center.
   76          1
                                   No pseudopotential on this center.
   77          1
                                   No pseudopotential on this center.
   78          6
                                   No pseudopotential on this center.
   79          1
                                   No pseudopotential on this center.
   80          1
                                   No pseudopotential on this center.
   81          1
                                   No pseudopotential on this center.
   82          1
                                   No pseudopotential on this center.
   83          6
                                   No pseudopotential on this center.
   84          6
                                   No pseudopotential on this center.
   85          6
                                   No pseudopotential on this center.
   86          6
                                   No pseudopotential on this center.
   87          1
                                   No pseudopotential on this center.
   88          6
                                   No pseudopotential on this center.
   89          6
                                   No pseudopotential on this center.
   90          1
                                   No pseudopotential on this center.
   91          1
                                   No pseudopotential on this center.
   92          1
                                   No pseudopotential on this center.
   93          6
                                   No pseudopotential on this center.
   94          8
                                   No pseudopotential on this center.
   95          7
                                   No pseudopotential on this center.
   96          6
                                   No pseudopotential on this center.
   97          1
                                   No pseudopotential on this center.
   98          1
                                   No pseudopotential on this center.
   99          1
                                   No pseudopotential on this center.
  100          6
                                   No pseudopotential on this center.
  101          1
                                   No pseudopotential on this center.
  102          1
                                   No pseudopotential on this center.
  103          1
                                   No pseudopotential on this center.
  104          1
                                   No pseudopotential on this center.
  105          6
                                   No pseudopotential on this center.
  106          9
                                   No pseudopotential on this center.
  107          9
                                   No pseudopotential on this center.
  108          9
                                   No pseudopotential on this center.
  109          1
                                   No pseudopotential on this center.
 ======================================================================================================
 There are   942 symmetry adapted cartesian basis functions of A   symmetry.
 There are   886 symmetry adapted basis functions of A   symmetry.
   886 basis functions,  1771 primitive gaussians,   942 cartesian basis functions
   209 alpha electrons      209 beta electrons
       nuclear repulsion energy      9066.5758966185 Hartrees.
 NAtoms=  109 NActive=  109 NUniq=  109 SFac= 1.00D+00 NAtFMM=   60 NAOKFM=T Big=T
 Integral buffers will be    131072 words long.
 Raffenetti 2 integral format.
 Two-electron integral symmetry is turned on.
 One-electron integrals computed using PRISM.
   1 Symmetry operations used in ECPInt.
 ECPInt:  NShTT=   55278 NPrTT=  342696 LenC2=   39535 LenP2D=  121842.
 LDataN:  DoStor=T MaxTD1= 6 Len=  172
 NBasis=   886 RedAO= T EigKep=  4.65D-04  NBF=   886
 NBsUse=   886 1.00D-06 EigRej= -1.00D+00 NBFU=   886
 Defaulting to unpruned grid for atomic number  77.
 ExpMin= 2.90D-02 ExpMax= 7.00D+03 ExpMxC= 1.05D+03 IAcc=3 IRadAn=         5 AccDes= 0.00D+00
 Harris functional with IExCor= 1009 and IRadAn=       5 diagonalized for initial guess.
 HarFok:  IExCor= 1009 AccDes= 0.00D+00 IRadAn=         5 IDoV= 1 UseB2=F ITyADJ=14
 ICtDFT=  3500011 ScaDFX=  1.000000  1.000000  1.000000  1.000000
 Defaulting to unpruned grid for atomic number  77.
 FoFCou: FMM=F IPFlag=           0 FMFlag=      100000 FMFlg1=        2001
         NFxFlg=           0 DoJE=T BraDBF=F KetDBF=T FulRan=T
         wScrn=  0.000000 ICntrl=       500 IOpCl=  0 I1Cent=   200000004 NGrid=           0
         NMat0=    1 NMatS0=      1 NMatT0=    0 NMatD0=    1 NMtDS0=    0 NMtDT0=    0
 Petite list used in FoFCou.
 Requested convergence on RMS density matrix=1.00D-08 within 128 cycles.
 Requested convergence on MAX density matrix=1.00D-06.
 Requested convergence on             energy=1.00D-06.
 No special actions if energy rises.
 Defaulting to unpruned grid for atomic number  77.
 Defaulting to unpruned grid for atomic number  77.
 Defaulting to unpruned grid for atomic number  77.
 Defaulting to unpruned grid for atomic number  77.
 Defaulting to unpruned grid for atomic number  77.
 Defaulting to unpruned grid for atomic number  77.
 Defaulting to unpruned grid for atomic number  77.
 Defaulting to unpruned grid for atomic number  77.
 Defaulting to unpruned grid for atomic number  77.
 Defaulting to unpruned grid for atomic number  77.
 Defaulting to unpruned grid for atomic number  77.
 Defaulting to unpruned grid for atomic number  77.
 Defaulting to unpruned grid for atomic number  77.
 Defaulting to unpruned grid for atomic number  77.
 Defaulting to unpruned grid for atomic number  77.
 Defaulting to unpruned grid for atomic number  77.
 SCF Done:  E(RM06) =  -2648.89557402     A.U. after   15 cycles
            NFock= 15  Conv=0.70D-08     -V/T= 2.0341
 DoSCS=F DFT=T ScalE2(SS,OS)=  1.000000  1.000000
 Range of M.O.s used for correlation:     1   886
 NBasis=   886 NAE=   209 NBE=   209 NFC=     0 NFV=     0
 NROrb=    886 NOA=   209 NOB=   209 NVA=   677 NVB=   677

 **** Warning!!: The largest alpha MO coefficient is  0.11857712D+02

   1 Symmetry operations used in ECPInt.
 ECPInt:  NShTT=   55278 NPrTT=  342696 LenC2=   39535 LenP2D=  121842.
 LDataN:  DoStor=T MaxTD1= 7 Len=  274
 Number of processors reduced to   7 by ecpmxn.
 Symmetrizing basis deriv contribution to polar:
 IMax=3 JMax=2 DiffMx= 0.00D+00
 G2DrvN: will do   110 centers at a time, making    1 passes.
 Calling FoFCou, ICntrl=  3107 FMM=T I1Cent=   0 AccDes= 0.00D+00.
 Defaulting to unpruned grid for atomic number  77.
 Defaulting to unpruned grid for atomic number  77.
 Defaulting to unpruned grid for atomic number  77.
 Defaulting to unpruned grid for atomic number  77.
 Defaulting to unpruned grid for atomic number  77.
 Defaulting to unpruned grid for atomic number  77.
 Defaulting to unpruned grid for atomic number  77.
 Defaulting to unpruned grid for atomic number  77.
 Defaulting to unpruned grid for atomic number  77.
 Defaulting to unpruned grid for atomic number  77.
 Defaulting to unpruned grid for atomic number  77.
 Defaulting to unpruned grid for atomic number  77.
 Defaulting to unpruned grid for atomic number  77.
 Defaulting to unpruned grid for atomic number  77.
 Defaulting to unpruned grid for atomic number  77.
 Defaulting to unpruned grid for atomic number  77.
 End of G2Drv F.D. properties file   721 does not exist.
 End of G2Drv F.D. properties file   722 does not exist.
 End of G2Drv F.D. properties file   788 does not exist.
          IDoAtm=11111111111111111111111111111111111111111111111111
          IDoAtm=11111111111111111111111111111111111111111111111111
          IDoAtm=111111111
          Differentiating once with respect to electric field.
                with respect to dipole field.
          Differentiating once with respect to nuclear coordinates.
 Defaulting to unpruned grid for atomic number  77.
 CalDSu exits because no D1Ps are significant.
 Defaulting to unpruned grid for atomic number  77.
 Defaulting to unpruned grid for atomic number  77.
 Defaulting to unpruned grid for atomic number  77.
 Defaulting to unpruned grid for atomic number  77.
 Defaulting to unpruned grid for atomic number  77.
 Defaulting to unpruned grid for atomic number  77.
 Defaulting to unpruned grid for atomic number  77.
 Defaulting to unpruned grid for atomic number  77.
 Defaulting to unpruned grid for atomic number  77.
 Defaulting to unpruned grid for atomic number  77.
 Defaulting to unpruned grid for atomic number  77.
 Defaulting to unpruned grid for atomic number  77.
 Defaulting to unpruned grid for atomic number  77.
 Defaulting to unpruned grid for atomic number  77.
 Defaulting to unpruned grid for atomic number  77.
 Defaulting to unpruned grid for atomic number  77.
          There are   330 degrees of freedom in the 1st order CPHF.  IDoFFX=6 NUNeed=     3.
    327 vectors produced by pass  0 Test12= 1.41D-13 1.00D-09 XBig12= 4.93D+02 7.20D+00.
 AX will form    72 AO Fock derivatives at one time.
    327 vectors produced by pass  1 Test12= 1.41D-13 1.00D-09 XBig12= 8.52D+01 1.22D+00.
    327 vectors produced by pass  2 Test12= 1.41D-13 1.00D-09 XBig12= 1.02D+00 1.14D-01.
    327 vectors produced by pass  3 Test12= 1.41D-13 1.00D-09 XBig12= 8.03D-03 6.95D-03.
    327 vectors produced by pass  4 Test12= 1.41D-13 1.00D-09 XBig12= 3.27D-05 3.40D-04.
    291 vectors produced by pass  5 Test12= 1.41D-13 1.00D-09 XBig12= 6.58D-08 1.30D-05.
     94 vectors produced by pass  6 Test12= 1.41D-13 1.00D-09 XBig12= 9.28D-11 4.24D-07.
      3 vectors produced by pass  7 Test12= 1.41D-13 1.00D-09 XBig12= 1.27D-13 1.53D-08.
 InvSVY:  IOpt=1 It=  1 EMax= 1.07D-14
 Solved reduced A of dimension  2023 with   330 vectors.
 Isotropic polarizability for W=    0.000000      525.75 Bohr**3.
 End of Minotr F.D. properties file   721 does not exist.
 End of Minotr F.D. properties file   722 does not exist.
 End of Minotr F.D. properties file   788 does not exist.
 Hyperfine terms turned off by default for NAtoms > 100.

 **********************************************************************

            Population analysis using the SCF Density.

 **********************************************************************

 Orbital symmetries:
       Occupied  (A) (A) (A) (A) (A) (A) (A) (A) (A) (A) (A) (A)
                 (A) (A) (A) (A) (A) (A) (A) (A) (A) (A) (A) (A)
                 (A) (A) (A) (A) (A) (A) (A) (A) (A) (A) (A) (A)
                 (A) (A) (A) (A) (A) (A) (A) (A) (A) (A) (A) (A)
                 (A) (A) (A) (A) (A) (A) (A) (A) (A) (A) (A) (A)
                 (A) (A) (A) (A) (A) (A) (A) (A) (A) (A) (A) (A)
                 (A) (A) (A) (A) (A) (A) (A) (A) (A) (A) (A) (A)
                 (A) (A) (A) (A) (A) (A) (A) (A) (A) (A) (A) (A)
                 (A) (A) (A) (A) (A) (A) (A) (A) (A) (A) (A) (A)
                 (A) (A) (A) (A) (A) (A) (A) (A) (A) (A) (A) (A)
                 (A) (A) (A) (A) (A) (A) (A) (A) (A) (A) (A) (A)
                 (A) (A) (A) (A) (A) (A) (A) (A) (A) (A) (A) (A)
                 (A) (A) (A) (A) (A) (A) (A) (A) (A) (A) (A) (A)
                 (A) (A) (A) (A) (A) (A) (A) (A) (A) (A) (A) (A)
                 (A) (A) (A) (A) (A) (A) (A) (A) (A) (A) (A) (A)
                 (A) (A) (A) (A) (A) (A) (A) (A) (A) (A) (A) (A)
                 (A) (A) (A) (A) (A) (A) (A) (A) (A) (A) (A) (A)
                 (A) (A) (A) (A) (A)
       Virtual   (A) (A) (A) (A) (A) (A) (A) (A) (A) (A) (A) (A)
                 (A) (A) (A) (A) (A) (A) (A) (A) (A) (A) (A) (A)
                 (A) (A) (A) (A) (A) (A) (A) (A) (A) (A) (A) (A)
                 (A) (A) (A) (A) (A) (A) (A) (A) (A) (A) (A) (A)
                 (A) (A) (A) (A) (A) (A) (A) (A) (A) (A) (A) (A)
                 (A) (A) (A) (A) (A) (A) (A) (A) (A) (A) (A) (A)
                 (A) (A) (A) (A) (A) (A) (A) (A) (A) (A) (A) (A)
                 (A) (A) (A) (A) (A) (A) (A) (A) (A) (A) (A) (A)
                 (A) (A) (A) (A) (A) (A) (A) (A) (A) (A) (A) (A)
                 (A) (A) (A) (A) (A) (A) (A) (A) (A) (A) (A) (A)
                 (A) (A) (A) (A) (A) (A) (A) (A) (A) (A) (A) (A)
                 (A) (A) (A) (A) (A) (A) (A) (A) (A) (A) (A) (A)
                 (A) (A) (A) (A) (A) (A) (A) (A) (A) (A) (A) (A)
                 (A) (A) (A) (A) (A) (A) (A) (A) (A) (A) (A) (A)
                 (A) (A) (A) (A) (A) (A) (A) (A) (A) (A) (A) (A)
                 (A) (A) (A) (A) (A) (A) (A) (A) (A) (A) (A) (A)
                 (A) (A) (A) (A) (A) (A) (A) (A) (A) (A) (A) (A)
                 (A) (A) (A) (A) (A) (A) (A) (A) (A) (A) (A) (A)
                 (A) (A) (A) (A) (A) (A) (A) (A) (A) (A) (A) (A)
                 (A) (A) (A) (A) (A) (A) (A) (A) (A) (A) (A) (A)
                 (A) (A) (A) (A) (A) (A) (A) (A) (A) (A) (A) (A)
                 (A) (A) (A) (A) (A) (A) (A) (A) (A) (A) (A) (A)
                 (A) (A) (A) (A) (A) (A) (A) (A) (A) (A) (A) (A)
                 (A) (A) (A) (A) (A) (A) (A) (A) (A) (A) (A) (A)
                 (A) (A) (A) (A) (A) (A) (A) (A) (A) (A) (A) (A)
                 (A) (A) (A) (A) (A) (A) (A) (A) (A) (A) (A) (A)
                 (A) (A) (A) (A) (A) (A) (A) (A) (A) (A) (A) (A)
                 (A) (A) (A) (A) (A) (A) (A) (A) (A) (A) (A) (A)
                 (A) (A) (A) (A) (A) (A) (A) (A) (A) (A) (A) (A)
                 (A) (A) (A) (A) (A) (A) (A) (A) (A) (A) (A) (A)
                 (A) (A) (A) (A) (A) (A) (A) (A) (A) (A) (A) (A)
                 (A) (A) (A) (A) (A) (A) (A) (A) (A) (A) (A) (A)
                 (A) (A) (A) (A) (A) (A) (A) (A) (A) (A) (A) (A)
                 (A) (A) (A) (A) (A) (A) (A) (A) (A) (A) (A) (A)
                 (A) (A) (A) (A) (A) (A) (A) (A) (A) (A) (A) (A)
                 (A) (A) (A) (A) (A) (A) (A) (A) (A) (A) (A) (A)
                 (A) (A) (A) (A) (A) (A) (A) (A) (A) (A) (A) (A)
                 (A) (A) (A) (A) (A) (A) (A) (A) (A) (A) (A) (A)
                 (A) (A) (A) (A) (A) (A) (A) (A) (A) (A) (A) (A)
                 (A) (A) (A) (A) (A) (A) (A) (A) (A) (A) (A) (A)
                 (A) (A) (A) (A) (A) (A) (A) (A) (A) (A) (A) (A)
                 (A) (A) (A) (A) (A) (A) (A) (A) (A) (A) (A) (A)
                 (A) (A) (A) (A) (A) (A) (A) (A) (A) (A) (A) (A)
                 (A) (A) (A) (A) (A) (A) (A) (A) (A) (A) (A) (A)
                 (A) (A) (A) (A) (A) (A) (A) (A) (A) (A) (A) (A)
                 (A) (A) (A) (A) (A) (A) (A) (A) (A) (A) (A) (A)
                 (A) (A) (A) (A) (A) (A) (A) (A) (A) (A) (A) (A)
                 (A) (A) (A) (A) (A) (A) (A) (A) (A) (A) (A) (A)
                 (A) (A) (A) (A) (A) (A) (A) (A) (A) (A) (A) (A)
                 (A) (A) (A) (A) (A) (A) (A) (A) (A) (A) (A) (A)
                 (A) (A) (A) (A) (A) (A) (A) (A) (A) (A) (A) (A)
                 (A) (A) (A) (A) (A) (A) (A) (A) (A) (A) (A) (A)
                 (A) (A) (A) (A) (A) (A) (A) (A) (A) (A) (A) (A)
                 (A) (A) (A) (A) (A) (A) (A) (A) (A) (A) (A) (A)
                 (A) (A) (A) (A) (A) (A) (A) (A) (A) (A) (A) (A)
                 (A) (A) (A) (A) (A) (A) (A) (A) (A) (A) (A) (A)
                 (A) (A) (A) (A) (A)
 The electronic state is 1-A.
 Alpha  occ. eigenvalues --  -24.84227 -24.83596 -24.83534 -19.21029 -19.20745
 Alpha  occ. eigenvalues --  -19.20652 -19.20560 -19.20118 -19.19979 -19.17266
 Alpha  occ. eigenvalues --  -14.45561 -14.45529 -14.41423 -10.52280 -10.33170
 Alpha  occ. eigenvalues --  -10.33120 -10.32563 -10.31089 -10.31075 -10.30414
 Alpha  occ. eigenvalues --  -10.29788 -10.29760 -10.29734 -10.29575 -10.29565
 Alpha  occ. eigenvalues --  -10.29402 -10.29208 -10.29207 -10.29173 -10.28670
 Alpha  occ. eigenvalues --  -10.27991 -10.26910 -10.25799 -10.23943 -10.23656
 Alpha  occ. eigenvalues --  -10.23555 -10.23327 -10.23319 -10.23155 -10.23122
 Alpha  occ. eigenvalues --  -10.23113 -10.23044 -10.22937 -10.22911 -10.22901
 Alpha  occ. eigenvalues --  -10.22838 -10.22661 -10.22236 -10.22119 -10.22110
 Alpha  occ. eigenvalues --  -10.21548  -6.81037  -6.80309  -6.80014  -3.64454
 Alpha  occ. eigenvalues --   -2.07249  -2.06583  -2.05167  -1.36750  -1.28257
 Alpha  occ. eigenvalues --   -1.27709  -1.06722  -1.06535  -1.06394  -1.03289
 Alpha  occ. eigenvalues --   -1.00810  -0.99643  -0.99592  -0.99383  -0.98280
 Alpha  occ. eigenvalues --   -0.93212  -0.87412  -0.84425  -0.84293  -0.83622
 Alpha  occ. eigenvalues --   -0.80851  -0.80678  -0.80453  -0.78265  -0.75576
 Alpha  occ. eigenvalues --   -0.75298  -0.75173  -0.74860  -0.74835  -0.73293
 Alpha  occ. eigenvalues --   -0.71521  -0.70859  -0.70637  -0.70420  -0.70005
 Alpha  occ. eigenvalues --   -0.68660  -0.68432  -0.68126  -0.67909  -0.67538
 Alpha  occ. eigenvalues --   -0.66035  -0.65241  -0.62683  -0.62616  -0.62356
 Alpha  occ. eigenvalues --   -0.61769  -0.61504  -0.60513  -0.59982  -0.59014
 Alpha  occ. eigenvalues --   -0.55783  -0.55094  -0.55079  -0.54658  -0.54455
 Alpha  occ. eigenvalues --   -0.54189  -0.54141  -0.53524  -0.53363  -0.52647
 Alpha  occ. eigenvalues --   -0.51520  -0.51216  -0.50861  -0.50099  -0.49776
 Alpha  occ. eigenvalues --   -0.48420  -0.48000  -0.47547  -0.47509  -0.47222
 Alpha  occ. eigenvalues --   -0.47112  -0.46879  -0.46733  -0.46625  -0.46545
 Alpha  occ. eigenvalues --   -0.46292  -0.46164  -0.46001  -0.45584  -0.45126
 Alpha  occ. eigenvalues --   -0.44930  -0.44776  -0.44512  -0.44101  -0.43977
 Alpha  occ. eigenvalues --   -0.43954  -0.43765  -0.43528  -0.42982  -0.42503
 Alpha  occ. eigenvalues --   -0.42191  -0.41751  -0.41409  -0.40662  -0.40546
 Alpha  occ. eigenvalues --   -0.40391  -0.40309  -0.40274  -0.40182  -0.40086
 Alpha  occ. eigenvalues --   -0.39984  -0.39947  -0.39883  -0.39655  -0.39479
 Alpha  occ. eigenvalues --   -0.39370  -0.39223  -0.39036  -0.38945  -0.38277
 Alpha  occ. eigenvalues --   -0.37934  -0.37834  -0.37556  -0.37252  -0.37081
 Alpha  occ. eigenvalues --   -0.36958  -0.36862  -0.36615  -0.36514  -0.36434
 Alpha  occ. eigenvalues --   -0.36184  -0.36045  -0.35760  -0.35317  -0.35207
 Alpha  occ. eigenvalues --   -0.34769  -0.34276  -0.34187  -0.33369  -0.33255
 Alpha  occ. eigenvalues --   -0.32932  -0.32722  -0.32576  -0.32292  -0.31819
 Alpha  occ. eigenvalues --   -0.31713  -0.31497  -0.30688  -0.30293  -0.30232
 Alpha  occ. eigenvalues --   -0.29668  -0.28443  -0.27553  -0.27368  -0.26718
 Alpha  occ. eigenvalues --   -0.26439  -0.25875  -0.25370  -0.24045  -0.23674
 Alpha  occ. eigenvalues --   -0.23561  -0.22532  -0.22107  -0.21429
 Alpha virt. eigenvalues --   -0.07972  -0.05088  -0.03690  -0.00224   0.00581
 Alpha virt. eigenvalues --    0.02148   0.02587   0.03784   0.05489   0.06303
 Alpha virt. eigenvalues --    0.06607   0.06776   0.07892   0.08290   0.08628
 Alpha virt. eigenvalues --    0.09318   0.09795   0.10027   0.10148   0.10793
 Alpha virt. eigenvalues --    0.11213   0.11302   0.11727   0.12118   0.12344
 Alpha virt. eigenvalues --    0.12925   0.13119   0.13541   0.13774   0.13860
 Alpha virt. eigenvalues --    0.14313   0.14624   0.14807   0.14944   0.15078
 Alpha virt. eigenvalues --    0.15163   0.15391   0.15703   0.15776   0.16036
 Alpha virt. eigenvalues --    0.16233   0.16331   0.16540   0.16619   0.16893
 Alpha virt. eigenvalues --    0.16983   0.17038   0.17336   0.17578   0.17661
 Alpha virt. eigenvalues --    0.17963   0.18185   0.18354   0.18688   0.18754
 Alpha virt. eigenvalues --    0.18841   0.19256   0.19303   0.19537   0.19759
 Alpha virt. eigenvalues --    0.19945   0.20004   0.20123   0.20225   0.20283
 Alpha virt. eigenvalues --    0.20667   0.20804   0.21047   0.21204   0.21771
 Alpha virt. eigenvalues --    0.21912   0.22049   0.22349   0.22734   0.22869
 Alpha virt. eigenvalues --    0.23196   0.23480   0.23697   0.23934   0.24088
 Alpha virt. eigenvalues --    0.24340   0.24406   0.24667   0.24978   0.25181
 Alpha virt. eigenvalues --    0.25294   0.25462   0.25592   0.26018   0.26526
 Alpha virt. eigenvalues --    0.26696   0.27158   0.27401   0.27710   0.27857
 Alpha virt. eigenvalues --    0.28158   0.28818   0.29245   0.30144   0.30591
 Alpha virt. eigenvalues --    0.30813   0.31138   0.31303   0.32068   0.32252
 Alpha virt. eigenvalues --    0.32861   0.33357   0.33532   0.34119   0.34404
 Alpha virt. eigenvalues --    0.35077   0.35163   0.36155   0.36334   0.36662
 Alpha virt. eigenvalues --    0.37247   0.38081   0.38869   0.39637   0.40031
 Alpha virt. eigenvalues --    0.41593   0.42088   0.42681   0.44005   0.45453
 Alpha virt. eigenvalues --    0.45856   0.46651   0.47327   0.47999   0.48454
 Alpha virt. eigenvalues --    0.49142   0.49309   0.49572   0.49858   0.50113
 Alpha virt. eigenvalues --    0.50431   0.50522   0.50660   0.50938   0.51408
 Alpha virt. eigenvalues --    0.51845   0.52089   0.52454   0.52620   0.52959
 Alpha virt. eigenvalues --    0.53350   0.53959   0.54791   0.55020   0.55467
 Alpha virt. eigenvalues --    0.55727   0.55966   0.56303   0.56715   0.56847
 Alpha virt. eigenvalues --    0.56893   0.57192   0.57575   0.57666   0.57970
 Alpha virt. eigenvalues --    0.58235   0.58359   0.58586   0.58738   0.58884
 Alpha virt. eigenvalues --    0.59089   0.59398   0.59571   0.59845   0.59919
 Alpha virt. eigenvalues --    0.60142   0.60576   0.60772   0.61300   0.61569
 Alpha virt. eigenvalues --    0.61758   0.62426   0.62588   0.62731   0.63327
 Alpha virt. eigenvalues --    0.63543   0.63694   0.64087   0.64226   0.65068
 Alpha virt. eigenvalues --    0.65341   0.65762   0.66105   0.66640   0.66856
 Alpha virt. eigenvalues --    0.67578   0.67779   0.67922   0.68410   0.68695
 Alpha virt. eigenvalues --    0.69336   0.69771   0.69830   0.70044   0.70565
 Alpha virt. eigenvalues --    0.70613   0.71060   0.71443   0.71651   0.71819
 Alpha virt. eigenvalues --    0.72059   0.72763   0.72909   0.73134   0.73225
 Alpha virt. eigenvalues --    0.73553   0.73750   0.74034   0.74880   0.75136
 Alpha virt. eigenvalues --    0.75265   0.75558   0.75672   0.75877   0.76837
 Alpha virt. eigenvalues --    0.77208   0.77216   0.77766   0.77946   0.78767
 Alpha virt. eigenvalues --    0.78978   0.79193   0.79343   0.79622   0.80219
 Alpha virt. eigenvalues --    0.80460   0.80580   0.80864   0.81293   0.82074
 Alpha virt. eigenvalues --    0.82885   0.83130   0.83157   0.83213   0.83576
 Alpha virt. eigenvalues --    0.83618   0.83817   0.84382   0.84503   0.84569
 Alpha virt. eigenvalues --    0.84805   0.85095   0.85278   0.85761   0.86009
 Alpha virt. eigenvalues --    0.86386   0.86488   0.86598   0.87111   0.87135
 Alpha virt. eigenvalues --    0.87442   0.87551   0.88019   0.88202   0.88446
 Alpha virt. eigenvalues --    0.88853   0.89090   0.89204   0.89379   0.89891
 Alpha virt. eigenvalues --    0.90058   0.90257   0.90684   0.90926   0.91049
 Alpha virt. eigenvalues --    0.91148   0.91306   0.91478   0.91606   0.91816
 Alpha virt. eigenvalues --    0.92101   0.92460   0.92809   0.93322   0.93803
 Alpha virt. eigenvalues --    0.94047   0.94296   0.94859   0.94996   0.95265
 Alpha virt. eigenvalues --    0.95616   0.95738   0.96110   0.96302   0.96531
 Alpha virt. eigenvalues --    0.97023   0.97475   0.98018   0.98594   0.98787
 Alpha virt. eigenvalues --    0.99490   0.99895   1.00416   1.00703   1.00887
 Alpha virt. eigenvalues --    1.01615   1.01772   1.02035   1.02281   1.02807
 Alpha virt. eigenvalues --    1.03147   1.03497   1.04194   1.04602   1.04740
 Alpha virt. eigenvalues --    1.05125   1.05587   1.05814   1.06806   1.07574
 Alpha virt. eigenvalues --    1.07984   1.08115   1.08428   1.09034   1.09169
 Alpha virt. eigenvalues --    1.09588   1.10442   1.11610   1.12123   1.12300
 Alpha virt. eigenvalues --    1.13380   1.13560   1.14624   1.15106   1.15580
 Alpha virt. eigenvalues --    1.16398   1.16667   1.16826   1.17119   1.17316
 Alpha virt. eigenvalues --    1.17445   1.18103   1.18754   1.19231   1.20596
 Alpha virt. eigenvalues --    1.20613   1.20870   1.21053   1.22330   1.22840
 Alpha virt. eigenvalues --    1.22918   1.23539   1.23922   1.24874   1.25298
 Alpha virt. eigenvalues --    1.25855   1.26166   1.26869   1.28015   1.28727
 Alpha virt. eigenvalues --    1.29248   1.29953   1.30259   1.31612   1.31918
 Alpha virt. eigenvalues --    1.31975   1.32515   1.32776   1.33178   1.33470
 Alpha virt. eigenvalues --    1.33881   1.34135   1.35724   1.36594   1.37279
 Alpha virt. eigenvalues --    1.37385   1.37793   1.38145   1.38740   1.39154
 Alpha virt. eigenvalues --    1.39506   1.40086   1.40640   1.40736   1.41713
 Alpha virt. eigenvalues --    1.42596   1.42946   1.43112   1.43420   1.43757
 Alpha virt. eigenvalues --    1.44330   1.44798   1.45177   1.45830   1.46209
 Alpha virt. eigenvalues --    1.46629   1.47002   1.48295   1.48526   1.48976
 Alpha virt. eigenvalues --    1.49271   1.49664   1.50327   1.50779   1.51210
 Alpha virt. eigenvalues --    1.51672   1.52433   1.52641   1.53386   1.53546
 Alpha virt. eigenvalues --    1.54621   1.55552   1.56203   1.57326   1.58066
 Alpha virt. eigenvalues --    1.58510   1.59262   1.60641   1.61146   1.61209
 Alpha virt. eigenvalues --    1.62323   1.62959   1.64131   1.64329   1.64701
 Alpha virt. eigenvalues --    1.65479   1.65685   1.66094   1.66447   1.67891
 Alpha virt. eigenvalues --    1.68889   1.69285   1.69475   1.69835   1.70055
 Alpha virt. eigenvalues --    1.70604   1.71433   1.72592   1.73600   1.74076
 Alpha virt. eigenvalues --    1.74500   1.76025   1.76605   1.76908   1.77326
 Alpha virt. eigenvalues --    1.77752   1.78367   1.78517   1.79122   1.79381
 Alpha virt. eigenvalues --    1.80277   1.80641   1.81055   1.81475   1.81784
 Alpha virt. eigenvalues --    1.82364   1.82406   1.82980   1.83447   1.83902
 Alpha virt. eigenvalues --    1.83964   1.84670   1.85290   1.85679   1.86171
 Alpha virt. eigenvalues --    1.86342   1.86798   1.87213   1.87821   1.88172
 Alpha virt. eigenvalues --    1.88264   1.89110   1.89923   1.90528   1.90617
 Alpha virt. eigenvalues --    1.90826   1.91153   1.91386   1.91709   1.92009
 Alpha virt. eigenvalues --    1.92397   1.92747   1.92919   1.93286   1.93625
 Alpha virt. eigenvalues --    1.93860   1.94169   1.94344   1.94483   1.94900
 Alpha virt. eigenvalues --    1.95831   1.96323   1.96794   1.97087   1.97592
 Alpha virt. eigenvalues --    1.97926   1.98506   1.99556   2.00197   2.00583
 Alpha virt. eigenvalues --    2.01064   2.01395   2.01829   2.01895   2.02198
 Alpha virt. eigenvalues --    2.02715   2.02884   2.03484   2.03915   2.04222
 Alpha virt. eigenvalues --    2.04463   2.05217   2.05435   2.05646   2.06087
 Alpha virt. eigenvalues --    2.06255   2.06476   2.06694   2.07262   2.07546
 Alpha virt. eigenvalues --    2.07894   2.08201   2.08746   2.09073   2.09475
 Alpha virt. eigenvalues --    2.09588   2.10110   2.10417   2.10939   2.11453
 Alpha virt. eigenvalues --    2.12073   2.12768   2.13578   2.13795   2.13848
 Alpha virt. eigenvalues --    2.14232   2.14349   2.14964   2.15192   2.15255
 Alpha virt. eigenvalues --    2.15827   2.16182   2.16309   2.16981   2.17540
 Alpha virt. eigenvalues --    2.17725   2.17857   2.18243   2.18357   2.18674
 Alpha virt. eigenvalues --    2.19066   2.19117   2.19501   2.20331   2.20802
 Alpha virt. eigenvalues --    2.20865   2.21524   2.21720   2.21928   2.22189
 Alpha virt. eigenvalues --    2.23074   2.23097   2.23692   2.24756   2.25504
 Alpha virt. eigenvalues --    2.25807   2.25955   2.26289   2.26455   2.26992
 Alpha virt. eigenvalues --    2.27164   2.28041   2.28507   2.29824   2.30033
 Alpha virt. eigenvalues --    2.30229   2.30749   2.31128   2.31733   2.32133
 Alpha virt. eigenvalues --    2.32342   2.32918   2.33413   2.33649   2.34324
 Alpha virt. eigenvalues --    2.34811   2.35595   2.36074   2.36945   2.37455
 Alpha virt. eigenvalues --    2.37773   2.38999   2.39415   2.39599   2.41130
 Alpha virt. eigenvalues --    2.41569   2.43477   2.43975   2.44794   2.45408
 Alpha virt. eigenvalues --    2.46581   2.48119   2.48620   2.48879   2.49196
 Alpha virt. eigenvalues --    2.49653   2.50863   2.51350   2.51913   2.52022
 Alpha virt. eigenvalues --    2.53529   2.56990   2.57271   2.57937   2.58440
 Alpha virt. eigenvalues --    2.59327   2.60160   2.60697   2.61013   2.61508
 Alpha virt. eigenvalues --    2.62834   2.63976   2.64571   2.64704   2.64827
 Alpha virt. eigenvalues --    2.65226   2.66097   2.66991   2.67607   2.67981
 Alpha virt. eigenvalues --    2.70160   2.71815   2.73237   2.75767   2.77526
 Alpha virt. eigenvalues --    2.77927   2.78108   2.78361   2.78882   2.79196
 Alpha virt. eigenvalues --    2.79424   2.79985   2.80248   2.80451   2.80862
 Alpha virt. eigenvalues --    2.81179   2.81409   2.81658   2.82232   2.83417
 Alpha virt. eigenvalues --    2.84274   2.85441   2.85734   2.87075   2.90093
 Alpha virt. eigenvalues --    2.91215   2.92734   2.93022   2.94952   2.95607
 Alpha virt. eigenvalues --    2.95963   2.96730   2.97215   2.97619   3.03148
 Alpha virt. eigenvalues --    3.03829   3.04186   3.04435   3.05009   3.07463
 Alpha virt. eigenvalues --    3.08534   3.11157   3.11547   3.13243   3.13643
 Alpha virt. eigenvalues --    3.15286   3.20659   3.25575   3.31234   3.39645
 Alpha virt. eigenvalues --    3.44361  14.32801
          Condensed to atoms (all electrons):
 Mulliken charges:
               1
     1  C    0.327158
     2  C    0.070514
     3  C   -0.166663
     4  C   -0.135452
     5  C   -0.184325
     6  C    0.274906
     7  C    0.043784
     8  C   -0.198117
     9  C   -0.039564
    10  C   -0.205430
    11  H    0.215325
    12  H    0.186794
    13  H    0.175672
    14  H    0.227489
    15  H    0.189487
    16  N   -0.483972
    17  N   -0.452511
    18  Ir  -0.243347
    19  O   -0.500234
    20  O   -0.520066
    21  O   -0.511342
    22  B    0.491272
    23  B    0.523949
    24  B    0.524482
    25  O   -0.526811
    26  O   -0.530990
    27  C    0.299882
    28  C    0.286577
    29  C    0.289846
    30  C    0.298583
    31  C    0.294536
    32  C    0.303979
    33  O   -0.539715
    34  C   -0.511651
    35  H    0.148296
    36  H    0.168773
    37  H    0.170218
    38  C   -0.499245
    39  H    0.154702
    40  H    0.140627
    41  H    0.187592
    42  C   -0.511653
    43  H    0.159650
    44  H    0.154106
    45  H    0.179616
    46  C   -0.504997
    47  H    0.150404
    48  H    0.158904
    49  H    0.177204
    50  C   -0.502360
    51  H    0.166953
    52  H    0.145378
    53  H    0.186225
    54  C   -0.509127
    55  H    0.152374
    56  H    0.168192
    57  H    0.163239
    58  C   -0.515432
    59  H    0.152524
    60  H    0.167734
    61  H    0.179170
    62  C   -0.514358
    63  H    0.155524
    64  H    0.156407
    65  H    0.178967
    66  C   -0.512086
    67  H    0.166528
    68  H    0.171844
    69  H    0.151762
    70  C   -0.503706
    71  H    0.156943
    72  H    0.155626
    73  H    0.165079
    74  C   -0.511740
    75  H    0.150741
    76  H    0.165696
    77  H    0.171162
    78  C   -0.489671
    79  H    0.163493
    80  H    0.145216
    81  H    0.168728
    82  H    0.173921
    83  C   -0.205452
    84  C   -0.159657
    85  C   -0.066149
    86  C    0.023057
    87  H    0.164737
    88  C   -0.177404
    89  C   -0.163413
    90  H    0.143691
    91  H    0.226548
    92  H    0.134311
    93  C    0.504149
    94  O   -0.510434
    95  N   -0.401554
    96  C   -0.366392
    97  H    0.165818
    98  H    0.213135
    99  H    0.161466
   100  C   -0.373500
   101  H    0.197526
   102  H    0.168502
   103  H    0.167008
   104  H    0.186256
   105  C    0.968090
   106  F   -0.309325
   107  F   -0.313756
   108  F   -0.307414
   109  H    0.200969
 Sum of Mulliken charges =  -0.00000
 Mulliken charges with hydrogens summed into heavy atoms:
               1
     1  C    0.327158
     2  C    0.285839
     3  C    0.019593
     4  C    0.051342
     5  C   -0.008653
     6  C    0.274906
     7  C    0.271273
     8  C    0.002852
     9  C   -0.039564
    10  C   -0.015942
    16  N   -0.483972
    17  N   -0.452511
    18  Ir  -0.016799
    19  O   -0.500234
    20  O   -0.520066
    21  O   -0.511342
    22  B    0.491272
    23  B    0.523949
    24  B    0.524482
    25  O   -0.526811
    26  O   -0.530990
    27  C    0.299882
    28  C    0.286577
    29  C    0.289846
    30  C    0.298583
    31  C    0.294536
    32  C    0.303979
    33  O   -0.539715
    34  C   -0.024365
    38  C   -0.016324
    42  C   -0.018281
    46  C   -0.018485
    50  C   -0.003804
    54  C   -0.025322
    58  C   -0.016003
    62  C   -0.023460
    66  C   -0.021953
    70  C   -0.026057
    74  C   -0.024142
    78  C   -0.012235
    83  C   -0.031531
    84  C    0.005079
    85  C   -0.066149
    86  C    0.023057
    88  C   -0.043093
    89  C   -0.019721
    93  C    0.504149
    94  O   -0.510434
    95  N   -0.401554
    96  C    0.174027
   100  C    0.159537
   105  C    0.968090
   106  F   -0.309325
   107  F   -0.313756
   108  F   -0.307414
 APT charges:
               1
     1  C    0.155472
     2  C    0.050738
     3  C   -0.064371
     4  C    0.120557
     5  C   -0.161637
     6  C    0.217469
     7  C    0.043420
     8  C   -0.058956
     9  C   -0.054622
    10  C   -0.170123
    11  H    0.129642
    12  H    0.034303
    13  H    0.042723
    14  H    0.128660
    15  H    0.074415
    16  N   -0.152860
    17  N   -0.172187
    18  Ir  -1.087353
    19  O   -0.966112
    20  O   -0.995525
    21  O   -0.950879
    22  B    1.282609
    23  B    1.367951
    24  B    1.209622
    25  O   -0.943279
    26  O   -1.018054
    27  C    0.520952
    28  C    0.491658
    29  C    0.465996
    30  C    0.450307
    31  C    0.497163
    32  C    0.507285
    33  O   -1.025720
    34  C   -0.002143
    35  H   -0.017984
    36  H   -0.000106
    37  H   -0.000585
    38  C   -0.043023
    39  H   -0.003462
    40  H   -0.029896
    41  H    0.045746
    42  C   -0.033715
    43  H   -0.003953
    44  H   -0.021652
    45  H    0.005672
    46  C   -0.010541
    47  H   -0.017488
    48  H   -0.006355
    49  H    0.001878
    50  C   -0.025228
    51  H   -0.007197
    52  H   -0.028724
    53  H    0.011937
    54  C   -0.010782
    55  H   -0.018339
    56  H    0.000856
    57  H    0.002734
    58  C   -0.014181
    59  H   -0.016717
    60  H   -0.000402
    61  H    0.009693
    62  C   -0.025814
    63  H   -0.006966
    64  H   -0.017905
    65  H   -0.004498
    66  C   -0.005015
    67  H   -0.004107
    68  H    0.006689
    69  H   -0.016605
    70  C   -0.014589
    71  H   -0.009514
    72  H   -0.019252
    73  H   -0.017855
    74  C   -0.005207
    75  H   -0.016956
    76  H    0.002288
    77  H    0.003162
    78  C   -0.029106
    79  H    0.005685
    80  H   -0.029925
    81  H    0.021714
    82  H    0.074107
    83  C   -0.206666
    84  C    0.058476
    85  C    0.306455
    86  C   -0.296909
    87  H    0.025740
    88  C   -0.207867
    89  C    0.034866
    90  H   -0.002583
    91  H    0.311587
    92  H    0.016127
    93  C    1.365508
    94  O   -0.879309
    95  N   -0.868831
    96  C    0.348757
    97  H   -0.070175
    98  H    0.065499
    99  H   -0.046658
   100  C    0.292926
   101  H    0.035995
   102  H   -0.061321
   103  H   -0.038867
   104  H    0.042434
   105  C    1.833704
   106  F   -0.601952
   107  F   -0.550913
   108  F   -0.592726
   109  H    0.061058
 Sum of APT charges =  -0.00000
 APT charges with hydrogens summed into heavy atoms:
               1
     1  C    0.155472
     2  C    0.180380
     3  C   -0.021937
     4  C    0.154861
     5  C   -0.118914
     6  C    0.217469
     7  C    0.172080
     8  C    0.002102
     9  C   -0.054622
    10  C   -0.095708
    16  N   -0.152860
    17  N   -0.172187
    18  Ir  -0.775766
    19  O   -0.966112
    20  O   -0.995525
    21  O   -0.950879
    22  B    1.282609
    23  B    1.367951
    24  B    1.209622
    25  O   -0.943279
    26  O   -1.018054
    27  C    0.520952
    28  C    0.491658
    29  C    0.465996
    30  C    0.450307
    31  C    0.497163
    32  C    0.507285
    33  O   -1.025720
    34  C   -0.020817
    38  C   -0.030635
    42  C   -0.053648
    46  C   -0.032506
    50  C   -0.049211
    54  C   -0.025530
    58  C   -0.021606
    62  C   -0.055183
    66  C   -0.019037
    70  C   -0.061209
    74  C   -0.016712
    78  C   -0.031633
    83  C   -0.132559
    84  C    0.084216
    85  C    0.306455
    86  C   -0.296909
    88  C   -0.191740
    89  C    0.032283
    93  C    1.365508
    94  O   -0.879309
    95  N   -0.868831
    96  C    0.297424
   100  C    0.228734
   105  C    1.833704
   106  F   -0.601952
   107  F   -0.550913
   108  F   -0.592726
 Electronic spatial extent (au):  <R**2>=          35985.0164
 Charge=              0.0000 electrons
 Dipole moment (field-independent basis, Debye):
    X=             -2.6894    Y=              2.8463    Z=             -0.7910  Tot=              3.9950
 Quadrupole moment (field-independent basis, Debye-Ang):
   XX=           -344.2378   YY=           -333.5538   ZZ=           -306.8125
   XY=             12.7972   XZ=             14.9587   YZ=             -5.4921
 Traceless Quadrupole moment (field-independent basis, Debye-Ang):
   XX=            -16.0364   YY=             -5.3525   ZZ=             21.3889
   XY=             12.7972   XZ=             14.9587   YZ=             -5.4921
 Octapole moment (field-independent basis, Debye-Ang**2):
  XXX=            -80.9963  YYY=            -44.4190  ZZZ=            -38.0367  XYY=            -35.4167
  XXY=             64.2571  XXZ=            143.6033  XZZ=             16.0582  YZZ=             42.1113
  YYZ=            -28.2262  XYZ=            -48.9265
 Hexadecapole moment (field-independent basis, Debye-Ang**3):
 XXXX=         -20836.9457 YYYY=         -15952.0295 ZZZZ=          -9150.0166 XXXY=            233.7302
 XXXZ=           1132.0946 YYYX=            153.3476 YYYZ=             75.3694 ZZZX=           -266.7312
 ZZZY=            -31.0969 XXYY=          -6157.6358 XXZZ=          -5084.0684 YYZZ=          -4054.9492
 XXYZ=           -313.0752 YYXZ=             62.6679 ZZXY=            126.2506
 N-N= 9.066575896618D+03 E-N=-2.429205471348D+04  KE= 2.561557562018D+03
  Exact polarizability:     547.718      -0.636     526.724     -12.525      21.948     502.793
 Approx polarizability:     697.448       8.547     775.816     -38.484      63.985     774.776
   1 Symmetry operations used in ECPInt.
 ECPInt:  NShTT=   55278 NPrTT=  342696 LenC2=   39535 LenP2D=  121842.
 LDataN:  DoStor=T MaxTD1= 8 Len=  415
 Calling FoFJK, ICntrl=    100127 FMM=F ISym2X=0 I1Cent= 0 IOpClX= 0 NMat=1 NMatS=1 NMatT=0.
 Defaulting to unpruned grid for atomic number  77.
 Defaulting to unpruned grid for atomic number  77.
 Defaulting to unpruned grid for atomic number  77.
 Defaulting to unpruned grid for atomic number  77.
 Defaulting to unpruned grid for atomic number  77.
 Defaulting to unpruned grid for atomic number  77.
 Defaulting to unpruned grid for atomic number  77.
 Defaulting to unpruned grid for atomic number  77.
 Defaulting to unpruned grid for atomic number  77.
 Defaulting to unpruned grid for atomic number  77.
 Defaulting to unpruned grid for atomic number  77.
 Defaulting to unpruned grid for atomic number  77.
 Defaulting to unpruned grid for atomic number  77.
 Defaulting to unpruned grid for atomic number  77.
 Defaulting to unpruned grid for atomic number  77.
 Defaulting to unpruned grid for atomic number  77.
 Full mass-weighted force constant matrix:
 Low frequencies --- -691.8345   -6.8738   -4.5207   -0.0004    0.0003    0.0006
 Low frequencies ---    3.2215   11.1454   14.4800
 ******    1 imaginary frequencies (negative Signs) ****** 
 Diagonal vibrational polarizability:
      214.9961440     193.4091218      61.7391857
 Harmonic frequencies (cm**-1), IR intensities (KM/Mole), Raman scattering
 activities (A**4/AMU), depolarization ratios for plane and unpolarized
 incident light, reduced masses (AMU), force constants (mDyne/A),
 and normal coordinates:
                      1                      2                      3
                      A                      A                      A
 Frequencies --   -691.8345                10.6213                14.3438
 Red. masses --      1.1113                 8.1241                 5.2970
 Frc consts  --      0.3134                 0.0005                 0.0006
 IR Inten    --    621.0909                 0.2492                 0.2990
  Atom AN      X      Y      Z        X      Y      Z        X      Y      Z
     1   6     0.00   0.00  -0.01    -0.06   0.02  -0.03    -0.03   0.03  -0.04
     2   6     0.00   0.00  -0.01    -0.09   0.02  -0.04    -0.03   0.03  -0.04
     3   6     0.00   0.00  -0.01    -0.13   0.03  -0.05    -0.05   0.03  -0.04
     4   6     0.00   0.00  -0.00    -0.14   0.03  -0.06    -0.06   0.04  -0.05
     5   6     0.00   0.00  -0.00    -0.10   0.02  -0.04    -0.05   0.03  -0.04
     6   6     0.00  -0.00  -0.00    -0.01   0.00  -0.01    -0.02   0.02  -0.03
     7   6    -0.00  -0.00   0.00     0.03  -0.01  -0.01     0.01   0.01  -0.02
     8   6    -0.00  -0.00  -0.00     0.10  -0.02   0.02    -0.01   0.01  -0.02
     9   6    -0.00  -0.00   0.00     0.11  -0.01   0.03    -0.03   0.02  -0.03
    10   6    -0.00  -0.00  -0.00     0.05   0.00   0.01    -0.04   0.02  -0.03
    11   1     0.00   0.00  -0.00    -0.08   0.02  -0.04    -0.02   0.02  -0.04
    12   1     0.00   0.00  -0.00    -0.18   0.04  -0.07    -0.08   0.04  -0.05
    13   1    -0.00   0.00  -0.01    -0.11   0.03  -0.05    -0.06   0.04  -0.04
    14   1    -0.01  -0.00  -0.00     0.02  -0.02  -0.01     0.03   0.01  -0.02
    15   1    -0.00  -0.00  -0.00     0.07   0.01   0.02    -0.06   0.03  -0.03
    16   7     0.02   0.00  -0.01    -0.05   0.01  -0.03    -0.02   0.02  -0.03
    17   7     0.00  -0.00   0.00    -0.02  -0.00  -0.02     0.00   0.02  -0.03
    18  77    -0.01   0.00  -0.00    -0.02   0.01  -0.02     0.01   0.01  -0.03
    19   8     0.01   0.00   0.00     0.01   0.00   0.00     0.05  -0.00  -0.01
    20   8    -0.00  -0.00  -0.00     0.00  -0.03   0.01     0.01   0.01  -0.00
    21   8     0.00  -0.00  -0.00    -0.04  -0.03  -0.02     0.01  -0.00   0.02
    22   5     0.00   0.00   0.01    -0.00  -0.01  -0.01     0.01   0.02  -0.02
    23   5     0.02  -0.00  -0.01    -0.01   0.01  -0.02     0.04   0.00  -0.01
    24   5     0.01   0.00  -0.00    -0.04  -0.03  -0.02    -0.00   0.01   0.00
    25   8     0.00   0.00  -0.00    -0.05  -0.06  -0.02    -0.03   0.01   0.01
    26   8    -0.00  -0.00   0.00    -0.02   0.01  -0.03     0.05  -0.00  -0.00
    27   6    -0.00   0.00  -0.00    -0.00   0.02  -0.02     0.08  -0.01   0.01
    28   6     0.00  -0.00  -0.00     0.02   0.00   0.01     0.08  -0.01   0.01
    29   6     0.00  -0.00   0.00    -0.04  -0.06  -0.01    -0.01  -0.01   0.04
    30   6     0.00  -0.00   0.00    -0.06  -0.07  -0.03    -0.03   0.00   0.03
    31   6    -0.00   0.00  -0.00     0.02  -0.04   0.02     0.01   0.01  -0.01
    32   6     0.00   0.00   0.00     0.01  -0.03   0.01    -0.00   0.02  -0.03
    33   8     0.00  -0.00   0.00     0.00  -0.00  -0.01    -0.00   0.02  -0.04
    34   6    -0.00   0.00   0.00     0.05   0.02   0.02     0.11  -0.02   0.00
    35   1    -0.00  -0.00   0.00     0.05   0.02   0.02     0.13  -0.02   0.02
    36   1     0.00  -0.00  -0.00     0.06   0.00   0.03     0.10  -0.01   0.01
    37   1    -0.00  -0.00   0.00     0.05   0.04   0.01     0.12  -0.01  -0.02
    38   6     0.00  -0.00   0.00     0.01  -0.03   0.02     0.07  -0.01   0.04
    39   1     0.00  -0.00  -0.00     0.02  -0.04   0.03     0.06  -0.01   0.04
    40   1     0.00  -0.00   0.00     0.02  -0.03   0.02     0.08  -0.02   0.06
    41   1     0.00  -0.00   0.00    -0.01  -0.04   0.01     0.05  -0.01   0.05
    42   6    -0.00   0.00   0.00     0.01   0.05  -0.03     0.11  -0.01  -0.02
    43   1    -0.00   0.00  -0.00    -0.01   0.06  -0.04     0.11  -0.01  -0.03
    44   1     0.00   0.00   0.00     0.03   0.05  -0.02     0.14  -0.02  -0.02
    45   1    -0.00  -0.00  -0.00     0.02   0.06  -0.03     0.10  -0.00  -0.05
    46   6    -0.00  -0.00   0.00    -0.01   0.00  -0.02     0.09  -0.02   0.04
    47   1    -0.00   0.00   0.00     0.00   0.01  -0.00     0.12  -0.03   0.05
    48   1    -0.00   0.00  -0.00    -0.03   0.02  -0.03     0.10  -0.02   0.03
    49   1    -0.00  -0.00   0.00    -0.03  -0.02  -0.01     0.07  -0.02   0.06
    50   6    -0.00  -0.00  -0.00     0.05  -0.02   0.02     0.04   0.00  -0.02
    51   1     0.00   0.00  -0.00     0.06  -0.03   0.03     0.06  -0.00  -0.00
    52   1    -0.00  -0.00  -0.00     0.07  -0.03   0.04     0.05   0.00  -0.02
    53   1    -0.00   0.00   0.00     0.05  -0.00   0.01     0.05   0.01  -0.03
    54   6    -0.00  -0.00  -0.00     0.02  -0.07   0.04     0.01  -0.00   0.02
    55   1    -0.00  -0.00  -0.00     0.04  -0.07   0.05     0.01  -0.00   0.02
    56   1     0.00   0.00  -0.00     0.03  -0.07   0.05     0.02  -0.01   0.03
    57   1    -0.00  -0.00  -0.00     0.00  -0.08   0.04    -0.01  -0.00   0.03
    58   6    -0.00  -0.00  -0.00     0.03  -0.02   0.02    -0.00   0.02  -0.04
    59   1     0.00  -0.00  -0.00     0.04  -0.04   0.03    -0.00   0.02  -0.03
    60   1    -0.00  -0.00  -0.00     0.02  -0.02   0.01    -0.02   0.03  -0.06
    61   1    -0.00  -0.00   0.00     0.05  -0.00   0.01     0.02   0.02  -0.05
    62   6     0.00  -0.00   0.00    -0.01  -0.05   0.01    -0.03   0.02  -0.01
    63   1     0.00   0.00  -0.00    -0.02  -0.04  -0.00    -0.04   0.03  -0.03
    64   1     0.00  -0.00   0.00    -0.01  -0.07   0.02    -0.04   0.02  -0.00
    65   1     0.00  -0.00   0.00    -0.03  -0.06   0.00    -0.04   0.02  -0.00
    66   6     0.00  -0.00   0.00    -0.07  -0.09  -0.02    -0.06  -0.00   0.04
    67   1    -0.00   0.00   0.00    -0.08  -0.10  -0.03    -0.07   0.01   0.03
    68   1     0.00  -0.00   0.00    -0.07  -0.10   0.00    -0.05  -0.00   0.04
    69   1     0.00   0.00   0.00    -0.07  -0.10  -0.02    -0.06  -0.01   0.06
    70   6     0.00  -0.00   0.00    -0.07  -0.06  -0.05    -0.04   0.01   0.03
    71   1    -0.00   0.00  -0.00    -0.08  -0.07  -0.06    -0.06   0.01   0.02
    72   1    -0.00  -0.00   0.00    -0.07  -0.07  -0.04    -0.05  -0.00   0.04
    73   1     0.00  -0.00   0.00    -0.05  -0.05  -0.06    -0.03   0.01   0.02
    74   6     0.00  -0.00   0.00    -0.05  -0.06  -0.02    -0.00  -0.01   0.06
    75   1     0.00  -0.00  -0.00    -0.06  -0.08  -0.02    -0.02  -0.02   0.08
    76   1     0.00  -0.00   0.00    -0.04  -0.05  -0.01     0.02  -0.02   0.07
    77   1     0.00  -0.00   0.00    -0.06  -0.05  -0.04    -0.00  -0.01   0.05
    78   6     0.00  -0.00   0.00    -0.03  -0.07   0.01    -0.00  -0.01   0.05
    79   1     0.00  -0.00   0.00    -0.02  -0.06   0.02     0.02  -0.02   0.06
    80   1     0.00   0.00   0.00    -0.04  -0.09   0.02    -0.01  -0.02   0.07
    81   1     0.00  -0.00   0.00    -0.03  -0.07   0.02    -0.01  -0.00   0.04
    82   1    -0.01  -0.02   0.04     0.03   0.08  -0.09     0.02   0.03  -0.06
    83   6    -0.00  -0.01   0.01     0.01   0.07  -0.05     0.01   0.01  -0.04
    84   6    -0.00   0.01  -0.01     0.01   0.09  -0.03     0.01  -0.01   0.00
    85   6    -0.00  -0.04   0.07    -0.02   0.03  -0.02     0.01   0.01  -0.03
    86   6    -0.00   0.00  -0.00    -0.01   0.07   0.02     0.01  -0.04   0.04
    87   1    -0.00   0.01  -0.01     0.03   0.11  -0.06     0.02  -0.01   0.00
    88   6     0.00  -0.00   0.01    -0.04   0.01   0.03     0.00  -0.01   0.00
    89   6    -0.00   0.01  -0.01    -0.04   0.03   0.05     0.00  -0.03   0.04
    90   1    -0.00   0.01  -0.01    -0.05   0.02   0.10    -0.00  -0.06   0.07
    91   1     0.89  -0.06  -0.43    -0.02  -0.00  -0.03     0.01   0.00  -0.04
    92   1    -0.01  -0.03   0.04    -0.06  -0.01   0.06     0.00  -0.02   0.01
    93   6     0.00  -0.00   0.00    -0.00   0.09   0.05     0.01  -0.07   0.10
    94   8    -0.00   0.00  -0.00     0.03   0.14   0.04     0.05  -0.06   0.11
    95   7    -0.00  -0.00  -0.00    -0.03   0.05   0.07    -0.03  -0.12   0.14
    96   6     0.00   0.00  -0.00    -0.02   0.08   0.10    -0.02  -0.15   0.20
    97   1    -0.00  -0.00  -0.00    -0.02   0.07   0.07    -0.07  -0.17   0.21
    98   1     0.00   0.00   0.00     0.00   0.13   0.12     0.03  -0.14   0.22
    99   1    -0.00  -0.00   0.00    -0.05   0.06   0.15    -0.03  -0.18   0.24
   100   6    -0.00   0.00   0.00    -0.06  -0.01   0.06    -0.10  -0.13   0.12
   101   1    -0.00  -0.00   0.00    -0.06  -0.03   0.03    -0.11  -0.10   0.07
   102   1    -0.00   0.00  -0.00    -0.06  -0.03   0.04    -0.14  -0.16   0.13
   103   1     0.00   0.00  -0.00    -0.09  -0.03   0.11    -0.09  -0.15   0.15
   104   1    -0.00   0.00  -0.01    -0.16   0.04  -0.06    -0.06   0.04  -0.05
   105   6    -0.00  -0.00  -0.00     0.19  -0.01   0.06    -0.06   0.02  -0.03
   106   9     0.00   0.00   0.00     0.23  -0.08   0.05    -0.07   0.04  -0.03
   107   9     0.00   0.00   0.00     0.20  -0.01   0.06    -0.07   0.02  -0.03
   108   9     0.00   0.00  -0.00     0.23   0.05   0.08    -0.07  -0.00  -0.04
   109   1    -0.00  -0.00  -0.00     0.14  -0.03   0.03     0.00   0.01  -0.02
                      4                      5                      6
                      A                      A                      A
 Frequencies --     21.5342                26.3357                31.7027
 Red. masses --      5.4872                 4.2818                 4.5140
 Frc consts  --      0.0015                 0.0017                 0.0027
 IR Inten    --      0.4927                 1.7925                 0.8639
  Atom AN      X      Y      Z        X      Y      Z        X      Y      Z
     1   6     0.04  -0.05  -0.01    -0.01  -0.00  -0.01     0.07   0.02   0.03
     2   6     0.00  -0.04  -0.01     0.01  -0.01   0.00     0.04   0.03   0.01
     3   6     0.05  -0.06   0.01     0.02  -0.02   0.00     0.15   0.02   0.04
     4   6     0.10  -0.07   0.01     0.00  -0.01  -0.01     0.23  -0.00   0.08
     5   6     0.10  -0.07   0.01    -0.01  -0.01  -0.01     0.18  -0.00   0.07
     6   6     0.03  -0.04  -0.02    -0.01   0.00  -0.02     0.02   0.02   0.02
     7   6    -0.03  -0.01  -0.03    -0.04   0.01  -0.02    -0.08   0.03  -0.00
     8   6    -0.03  -0.01  -0.05    -0.02   0.01  -0.02    -0.07   0.03  -0.00
     9   6     0.01  -0.02  -0.05     0.00   0.00  -0.02    -0.01   0.02   0.01
    10   6     0.04  -0.04  -0.03     0.00   0.00  -0.02     0.03   0.02   0.02
    11   1    -0.03  -0.03  -0.01     0.02  -0.01   0.01    -0.02   0.04  -0.02
    12   1     0.14  -0.09   0.02     0.00  -0.02  -0.01     0.32  -0.02   0.11
[...]
 779,0.01959601,0.00398917,-0.00859202,0.01857269,0.00107347,-0.1216034
 8,0.12737648,0.00005027,-0.00001967,0.00000432,-0.00002127,-0.00000409
 ,-0.00000540,-0.00000119,0.00000024,0.00000432,-0.00001642,-0.00003856
 ,0.00002989,0.00004759,0.00008460,-0.00001724,-0.00066663,0.00083467,0
 .00028961,-0.00111866,-0.00099408,-0.00002817,0.00005430,-0.00034694,-
 0.00188967,0.00860735,-0.00549931,0.00817486,-0.00048053,0.00011323,-0
 .00041128,0.00000614,0.00001302,-0.00000892,-0.00000115,0.00000890,0.0
 0000261,-0.00004371,-0.00000553,0.00004870,0.00005620,-0.00014414,-0.0
 0001347,0.00043049,0.00043965,0.00042028,0.00001082,-0.00006816,-0.000
 00018,0.00024113,0.00014616,0.00094630,-0.00025688,-0.00033633,0.00005
 270,-0.00009969,-0.00002283,0.00016337,-0.00010815,-0.00009173,-0.0000
 0416,-0.00020644,0.00007235,0.00005688,0.00018995,0.00014415,0.0000205
 4,0.00016329,0.00002023,-0.00032260,0.00034053,-0.00002385,-0.00001308
 ,-0.00014412,0.00003724,0.00000500,-0.00012628,0.00004919,0.00024269,0
 .00005695,0.00001365,-0.00011475,0.00004013,-0.00003652,-0.00006105,0.
 00008378,-0.00003941,-0.00000903,0.00004678,-0.00001803,0.00000738,0.0
 0001147,0.00004340,0.00000116,0.00004523,0.00003728,0.00001350,-0.0000
 7189,-0.00011708,-0.00003951,-0.00000493,0.00000119,0.00000541,-0.0000
 0585,-0.00000310,0.00000975,0.00000391,0.00000297,-0.00000087,0.000001
 10,-0.00000222,-0.00000309,-0.00000529,0.00000632,0.00000800,0.0000035
 4,0.00000863,-0.00000040,-0.00001268,-0.00000344,0.00000994,0.00000693
 ,-0.00000253,-0.00001259,-0.00001353,-0.00001514,0.00001605,0.00001205
 ,0.00000813,-0.00000622,0.00000123,-0.00000577,0.00001164,-0.00000835,
 0.00001171,-0.00000382,-0.00002001,-0.00001900,0.00000211,-0.00000662,
 0.00000865,0.00000525,0.00002126,0.00001286,0.00001757,-0.00000597,-0.
 00001259,-0.00000984,0.00000136,-0.00000728,-0.00000157,-0.00000407,0.
 00000175,0.00000440,-0.00000049,-0.00000681,0.00000092,-0.00000058,0.0
 0000394,-0.00000457,-0.00000021,-0.00000504,0.00000188,-0.00000270,-0.
 00000315,-0.00000302,-0.00000435,0.00000056,0.00000495,0.00000282,0.00
 000013,-0.00000163,-0.00000563,-0.00000452,-0.00000321,-0.00000315,-0.
 00000656,-0.00000279,0.00000069,0.00000240,0.00000186,0.00000265,0.000
 00103,0.00000142,-0.00000631,-0.00000642,-0.00000420,-0.00000285,0.000
 00588,0.00000619,-0.00000599,-0.00000515,-0.00000460,0.00000824,-0.000
 00023,-0.00000033,-0.00000033,0.00000814,-0.00000466,-0.00000110,-0.00
 000190,0.00001009,0.00000227,-0.00000178,0.00000102,-0.00001001,0.0000
 0451,-0.00000519,0.00000398,-0.00000707,-0.00005141,-0.00000951,0.0000
 2387,0.00006537,-0.00002467,0.00000369,-0.00002338,0.00003767,-0.00001
 605,-0.00002582,-0.00003321,-0.00002507,0.00000071,-0.00000158,0.00000
 757,-0.00000010,-0.00000637,-0.00000727,0.00000999,0.00001505,0.000005
 34,-0.00001296,-0.00002167,0.00001176,0.00000904,-0.00000076,-0.000008
 27,0.00000469,-0.00000584,-0.00000340,-0.00000662,0.00000458,0.0000114
 7,0.00000695,-0.00000281,0.00000570,-0.00000455,0.00003015,-0.00000099
 ,0.00001183,-0.00001017,-0.00000823,-0.00000121,-0.00004029,0.00012896
 ,0.00001635,0.00003658,-0.00000685,-0.00000101,0.00000365,-0.00000044,
 -0.00000404,0.00005081,-0.00004883,-0.00000538,-0.00001655,0.00000647,
 0.00002423,0.00001153,0.00000396,-0.00000281,-0.00000459,0.00000691,-0
 .00002075,-0.00001297,0.00001264,-0.00002236,-0.00010452,0.00000938,-0
 .00006099,0.00003938,-0.00001385,0.00002378,0.00005056,0.00000424,0.00
 004823,-0.00002062,0.00000256,0.00000602,0.00000543,-0.00000554,0.0000
 0169,-0.00000433,0.00000039,-0.00000210,0.00000571,0.00000343,0.000001
 61,0.00000538,-0.00000641,-0.00002954,-0.00000286,0.00000413,-0.000008
 98,0.00000653,-0.00000536,0.00000602,0.00000172,0.00000650,0.00000451,
 0.00000137,-0.00001149,-0.00000165,0.05006589,-0.02717838,-0.09080623,
 -0.03201639,0.00790267,0.01185734,0.05612249,-0.00953357,-0.03462227,-
 0.08171084,0.03465822,0.10498492,-0.00130362,0.00011992,-0.00030572,-0
 .00006537,0.00003359,0.00007131,0.00000138,0.00007841,-0.00005946,-0.0
 0004164,-0.00009451,-0.00005437,0.00001557,0.00009540,0.00010961,-0.00
 051566,-0.00032690,0.00013666,0.00125554,-0.00075542,-0.00204745,-0.04
 200233,0.02061983,0.04183000,0.00138241,0.00346369,0.00457993,0.006560
 17,-0.00119872,0.00203211,0.00000557,-0.00000442,0.00000397,-0.0000062
 0,0.00000226,0.00000089,0.00007828,-0.00002351,0.00001871,-0.00297341,
 0.00044958,-0.00095654,0.00038471,0.00021179,0.00025297,0.00010297,-0.
 00013308,-0.00000414,0.00790455,-0.00117112,0.00097202,-0.00029112,0.0
 0014787,-0.00000332,-0.00003391,0.00001651,0.00004203,-0.00004075,-0.0
 0001353,-0.00000058,-0.00006293,0.00005535,0.00002522,0.00015022,-0.00
 001381,0.00000139,0.00005826,-0.00003155,-0.00007100,0.00005695,-0.000
 09306,-0.00001724,-0.00004145,0.00004328,0.00001235,-0.00009820,0.0000
 0175,0.00016213,0.00006183,-0.00005549,-0.00004291,0.00000322,-0.00002
 353,-0.00000622,0.00003031,-0.00002640,-0.00000546,0.00001108,-0.00001
 975,-0.00001893,0.00000435,0.00000057,-0.00000229,0.00002054,0.0000090
 1,0.00000618,-0.00004745,-0.00004371,-0.00003183,-0.00000197,-0.000000
 46,-0.00000010,-0.00000063,-0.00000205,0.00000305,0.00000091,0.0000018
 2,0.00000063,-0.00000334,0.00000165,-0.00000183,-0.00000118,-0.0000009
 0,0.00000097,-0.00000112,0.00000609,0.00000067,-0.00000566,-0.00000351
 ,0.00000368,0.00000006,-0.00000256,-0.00000567,-0.00001975,0.00001140,
 0.00000895,0.00001759,-0.00000801,0.00000086,0.00000134,-0.00000234,0.
 00000090,-0.00000688,0.00001260,0.00000011,-0.00001670,-0.00002534,-0.
 00002618,0.00000203,0.00002622,-0.00000127,0.00002548,0.00001118,0.000
 04400,-0.00002375,-0.00001660,-0.00001041,0.00000149,-0.00000142,-0.00
 000243,-0.00000139,-0.00000073,0.00000162,-0.00000007,-0.00000001,0.00
 000105,-0.00000077,0.00000096,-0.00000139,0.00000160,-0.00000134,0.000
 00201,-0.00000152,0.00000122,-0.00000028,-0.00000190,-0.00000158,0.000
 00205,-0.00000003,-0.00000056,-0.00000337,-0.00000497,-0.00000176,-0.0
 0000180,0.00000007,-0.00000248,-0.00000093,0.00000017,0.00000013,0.000
 00129,0.00000054,0.00000129,-0.00000086,-0.00000331,-0.00000543,-0.000
 00280,-0.00000034,-0.00000002,0.00000086,-0.00000108,0.00000013,-0.000
 00294,0.00000087,0.00000211,0.00000081,-0.00000078,0.00000351,0.000000
 84,-0.00000106,-0.00000213,0.00000157,0.00000217,0.00000326,0.00000127
 ,-0.00000253,0.00000028,-0.00000247,0.00001579,0.00002704,0.00005657,0
 .00000096,0.00000106,0.00000470,-0.00001501,0.00000048,-0.00001983,0.0
 0001175,-0.00002769,-0.00004499,-0.00002094,-0.00002708,-0.00000190,0.
 00000330,0.00000774,0.00000718,-0.00000250,-0.00000175,0.00000168,0.00
 000106,0.00001313,-0.00001032,-0.00001145,0.00000947,0.00000151,0.0000
 0179,-0.00000207,-0.00000097,-0.00000053,-0.00000158,-0.00000106,0.000
 00202,0.00000500,0.00000618,-0.00000152,0.00000046,-0.00000140,-0.0000
 4140,-0.00000332,-0.00000437,0.00000567,0.00000232,0.00000533,0.000035
 95,0.00008755,0.00003633,-0.00001734,-0.00000337,-0.00000448,-0.000001
 75,-0.00000136,-0.00000033,-0.00000797,-0.00002125,-0.00001131,0.00001
 176,0.00002375,0.00001772,-0.00001119,0.00000133,-0.00000298,0.0000029
 4,-0.00001253,-0.00003710,0.00002558,0.00000347,0.00002339,0.00001895,
 0.00000681,0.00002573,-0.00000337,-0.00000495,-0.00001506,-0.00000805,
 -0.00001100,-0.00001660,-0.00000081,0.00000428,-0.00000059,-0.00000042
 ,-0.00000181,0.00000083,0.00000037,0.00000109,0.00000041,-0.00000228,-
 0.00000068,-0.00000120,-0.00000047,0.00001047,0.00001145,0.00000083,0.
 00000237,0.00000178,0.00000067,-0.00000246,-0.00000230,-0.00000464,-0.
 00000380,-0.00000403,0.00004453,-0.00000752,0.00001292,-0.00118265,0.0
 0067979,0.00036993,-0.00079225,-0.00070290,-0.00155685,-0.00009275,-0.
 00002334,-0.00018913,-0.00099777,0.00070022,0.00049566,0.03251568,0.00
 011706,0.00005757,-0.00014134,0.00000755,0.00003975,0.00003128,0.00001
 740,0.00002102,-0.00001392,0.00002588,0.00001751,-0.00004781,-0.000043
 71,-0.00005508,0.00002454,-0.00041255,-0.00132574,0.00161937,0.0054319
 9,-0.00692996,-0.02750813,0.02079222,-0.12946567,-0.12185124,-0.002419
 79,0.01164194,0.01322579,-0.00103296,-0.00129049,0.00300288,-0.0000071
 5,-0.00000395,0.00000263,0.00000062,-0.00000231,-0.00000395,0.00001643
 ,0.00002506,-0.00002972,0.00015699,0.00075680,0.00036248,-0.00013479,0
 .00054169,0.00082290,-0.00002524,-0.00007071,-0.00002327,-0.00086520,-
 0.00652951,-0.00073969,0.00015549,0.00077820,0.00000779,-0.00005458,0.
 00006809,0.00013806,-0.00010744,-0.00010255,-0.00003243,-0.00006491,0.
 00004012,0.00005776,0.00011448,-0.00001676,0.00013495,0.00020217,-0.00
 010379,-0.00041509,0.00017184,-0.00002956,-0.00002319,-0.00004464,0.00
 001148,0.00000269,-0.00007964,0.00020353,0.00029592,-0.00001214,-0.000
 02262,-0.00004876,0.00001505,-0.00005476,-0.00004728,0.00000233,-0.000
 01118,-0.00001025,0.00002529,-0.00000937,-0.00000918,-0.00000382,0.000
 04160,-0.00000916,0.00003085,0.00001703,0.00000734,-0.00005582,-0.0001
 1060,-0.00008206,-0.00000231,0.00001076,0.00001229,-0.00000491,-0.0000
 0573,0.00000561,0.00000632,0.00001060,0.00000078,0.00000195,-0.0000077
 7,-0.00000194,-0.00000209,0.00001458,0.00001319,0.00000704,0.00001320,
 0.00000325,-0.00000787,-0.00000381,0.00000377,-0.00000041,-0.00000429,
 -0.00001295,-0.00003088,-0.00006636,-0.00001293,0.00002177,0.00002535,
 0.00002846,0.00001500,0.00001736,0.00000313,-0.00000286,0.00001291,-0.
 00000079,-0.00001843,-0.00005788,-0.00003264,0.00000647,0.00003532,0.0
 0000020,-0.00000109,0.00003014,0.00005461,-0.00000572,-0.00000719,0.00
 000175,0.00000429,-0.00000717,-0.00000462,-0.00000530,-0.00000015,0.00
 000309,-0.00000105,-0.00000402,0.00000321,0.00000069,0.00000338,-0.000
 00405,0.00000346,-0.00001076,-0.00000079,-0.00000512,-0.00000207,-0.00
 000185,-0.00000362,-0.00000002,0.00000250,0.00000116,0.00000007,-0.000
 00079,-0.00000862,-0.00000210,-0.00000398,-0.00000021,-0.00000562,-0.0
 0000200,0.00000121,-0.00000010,-0.00000014,0.00000119,0.00000062,0.000
 00081,-0.00000880,-0.00000907,-0.00000082,0.00000114,0.00000019,0.0000
 0046,-0.00000304,-0.00000039,-0.00000589,0.00000143,0.00000023,0.00000
 224,-0.00000487,0.00000034,0.00000323,-0.00000049,-0.00000050,0.000002
 08,0.00000158,0.00000014,-0.00000007,-0.00000134,0.00000134,-0.0000025
 4,-0.00000296,0.00000571,0.00002748,-0.00000425,-0.00000036,0.00000205
 ,0.00000102,0.00000365,-0.00000615,0.00000387,-0.00000602,-0.00002172,
 -0.00000262,-0.00001264,-0.00000284,0.00000342,0.00000540,0.00000788,-
 0.00000868,-0.00000432,0.00000168,-0.00000272,0.00001247,-0.00001020,-
 0.00000312,0.00000485,-0.00000403,-0.00000235,-0.00000264,0.00000056,-
 0.00000070,-0.00000082,0.00000065,0.00000232,0.00000235,0.00000456,-0.
 00000716,0.00000386,0.00000421,0.00001631,0.00000539,0.00001054,0.0000
 0516,0.00000350,-0.00000088,-0.00003567,0.00000929,-0.00002515,0.00001
 996,-0.00000692,-0.00000632,0.00000218,0.00000002,-0.00000075,0.000059
 44,-0.00003715,0.00000871,-0.00001785,-0.00000736,0.00001468,0.0000108
 1,0.00000193,-0.00000026,-0.00003554,-0.00005037,-0.00003786,-0.000013
 13,0.00000808,-0.00003445,-0.00002914,0.00000114,-0.00002257,0.0000086
 8,-0.00000119,0.00001037,0.00000941,0.00000408,0.00001736,0.00000014,-
 0.00000044,0.00000293,0.00000076,-0.00000031,-0.00000031,-0.00000099,-
 0.00000015,0.00000015,0.00000163,0.00000063,-0.00000025,0.00000343,-0.
 00000462,-0.00001196,-0.00000151,-0.00000127,-0.00000456,0.00000140,0.
 00000002,0.00000240,0.00000354,0.00000312,0.00000246,-0.00000105,0.000
 00500,-0.00000621,-0.00003649,0.00096966,0.00139262,-0.00008717,-0.000
 54317,-0.00022701,0.00012120,0.00033729,-0.00057941,0.00019579,-0.0005
 6080,-0.00016068,-0.02205229,0.13174476,-0.00029151,0.00000509,0.00000
 404,-0.00002901,-0.00000481,0.00003699,0.00000202,0.00001483,-0.000022
 68,-0.00001700,-0.00003722,0.00001771,0.00004583,0.00005754,-0.0000285
 9,-0.00008233,0.00074563,0.00018226,-0.00052725,0.00222348,0.00416480,
 0.04158344,-0.12100233,-0.26311193,0.00324799,-0.01479298,-0.01670409,
 0.00205452,0.00372164,-0.00210746,0.00000070,0.00000141,-0.00000361,0.
 00000035,0.00000070,-0.00000267,-0.00002599,-0.00003351,0.00005467,-0.
 00066533,-0.00007564,-0.00003056,0.00017975,-0.00083770,-0.00069481,0.
 00002491,-0.00008118,-0.00003374,0.00143933,0.00094239,0.00186866,-0.0
 0012310,-0.00000316,-0.00001207,-0.00002107,-0.00001752,0.00001715,-0.
 00004338,-0.00003248,-0.00001182,-0.00007029,0.00005367,0.00000648,0.0
 0010642,0.00004413,0.00004010,0.00002510,0.00002062,-0.00001090,0.0001
 0635,-0.00005848,0.00001748,-0.00006053,0.00003998,-0.00001107,-0.0000
 5039,-0.00002293,0.00002764,0.00000981,-0.00001959,-0.00001864,0.00001
 352,0.00000336,-0.00000040,0.00002896,-0.00002024,0.00000302,0.0000203
 7,-0.00003310,-0.00000178,0.00000417,0.00001530,0.00000245,0.00002020,
 0.00001483,0.00000897,-0.00003214,-0.00005655,-0.00003326,-0.00000440,
 -0.00000312,-0.00000223,0.00000045,0.00000060,0.00000161,-0.00000082,-
 0.00000298,-0.00000055,-0.00000108,0.00000284,-0.00000079,-0.00000257,
 -0.00000592,-0.00000007,-0.00000122,-0.00000096,-0.00000209,-0.0000016
 0,0.00000061,0.00000154,0.00000134,-0.00000099,0.00000112,0.00000623,0
 .00002196,0.00000527,-0.00000577,-0.00000402,-0.00000212,-0.00000202,-
 0.00000312,0.00000071,-0.00000362,-0.00000421,-0.00000294,0.00001187,0
 .00001917,0.00001226,-0.00000478,0.00000021,-0.00000206,0.00000383,-0.
 00001256,0.00000641,-0.00001291,-0.00001084,-0.00000623,-0.00000107,-0
 .00000197,-0.00000004,0.00000058,0.00000085,0.00000068,-0.00000041,-0.
 00000253,-0.00000036,-0.00000183,0.00000116,-0.00000089,-0.00000017,-0
 .00000257,0.00000164,-0.00000144,-0.00000099,-0.00000116,-0.00000083,-
 0.00000022,0.00000156,0.00000041,0.00000029,-0.00000212,-0.00000338,-0
 .00000228,-0.00000226,-0.00000091,-0.00000283,-0.00000079,0.00000080,0
 .00000060,-0.00000003,0.00000003,0.00000101,0.00000031,-0.00000286,-0.
 00000431,-0.00000342,0.00000003,0.00000181,0.00000134,-0.00000256,-0.0
 0000160,-0.00000227,0.00000205,0.00000035,0.00000038,-0.00000083,0.000
 00839,-0.00000103,0.00000094,-0.00000208,0.00000065,0.00000256,0.00000
 251,0.00000253,-0.00000469,0.00000042,-0.00000166,0.00000781,0.0000235
 6,0.00001161,0.00000743,0.00000148,0.00001822,-0.00001987,-0.00000094,
 -0.00001128,0.00001772,-0.00002019,-0.00003127,-0.00001704,-0.00002115
 ,-0.00000159,0.00000020,0.00000545,0.00000164,0.00000269,0.00000312,0.
 00000218,-0.00000085,0.00000572,-0.00000143,-0.00000923,0.00000573,0.0
 0000142,0.00000275,-0.00000079,-0.00000041,-0.00000246,-0.00000081,-0.
 00000220,0.00000222,0.00000373,0.00000432,-0.00000306,0.00000362,0.000
 00057,0.00000717,0.00000180,0.00000322,-0.00000316,-0.00000124,0.00000
 130,-0.00002163,0.00005300,0.00001333,0.00001354,-0.00000279,-0.000001
 33,0.00000122,-0.00000020,-0.00000054,0.00002664,-0.00002245,-0.000013
 79,-0.00000813,0.00000694,0.00000963,0.00000643,-0.00000061,0.00000177
 ,-0.00002205,-0.00000252,-0.00001003,-0.00000612,0.00000053,0.00000062
 ,-0.00002920,0.00000283,-0.00000736,0.00001312,-0.00000265,-0.00000117
 ,0.00001318,0.00000326,0.00000662,-0.00000626,-0.00000017,0.00000119,0
 .00000154,-0.00000062,0.00000036,-0.00000088,-0.00000064,-0.00000108,0
 .00000170,0.00000051,0.00000142,-0.00000013,-0.00000225,-0.00000293,0.
 00000007,0.00000092,-0.00000110,0.00000083,-0.00000044,0.00000108,0.00
 000002,0.00000070,0.00000131,0.00000842,-0.00000845,0.00000166,0.00009
 136,-0.00221103,-0.00244935,0.00000432,-0.00001858,0.00115503,-0.00016
 234,0.00004813,0.00066515,-0.00096673,0.00048315,0.00103939,-0.0457950
 0,0.13089648,0.27597859\\-0.00000330,0.00000290,0.00000756,-0.00000097
 ,0.00000804,0.00000395,-0.00000108,-0.00000915,-0.00000279,0.00000328,
 0.00000713,-0.00000364,0.00000141,0.00000587,-0.00000828,-0.00000080,0
 .00000403,-0.00000693,0.00000192,0.00000260,-0.00000720,-0.00000134,-0
 .00000942,-0.00000211,-0.00000160,0.00000059,-0.00000593,-0.00000019,-
 0.00000475,0.00000327,-0.00000064,-0.00000510,0.00000102,-0.00000199,-
 0.00000255,0.00000222,-0.00000190,-0.00000525,-0.00000019,-0.00000070,
 0.00000128,-0.00000135,-0.00000086,0.00000113,-0.00000276,0.00000508,-
 0.00000768,-0.00000175,-0.00000337,0.00000262,0.00000969,-0.00000121,0
 .00000180,-0.00000209,0.00000266,0.00000398,0.00000145,0.00000439,-0.0
 0000084,-0.00000120,0.00000268,-0.00000130,0.00000235,-0.00000246,-0.0
 0000360,0.00000041,-0.00000145,0.00000057,0.00000610,-0.00000013,-0.00
 000188,0.00000314,-0.00000026,-0.00000070,-0.00000538,-0.00000190,-0.0
 0000011,-0.00000147,-0.00000070,-0.00000176,-0.00000292,-0.00000210,-0
 .00000026,-0.00000443,-0.00000633,-0.00000670,0.00000111,-0.00000088,-
 0.00000410,-0.00000363,0.00000145,0.00000311,0.00000431,0.00000528,0.0
 0000167,0.00000078,-0.00000343,-0.00000088,0.00000086,-0.00000381,-0.0
 0000336,0.00000373,0.00000159,0.00000116,-0.00000145,0.00000220,0.0000
 0441,0.00000149,0.00000281,0.00000069,0.00000090,0.00000141,-0.0000050
 9,-0.00000249,0.00000204,0.00000324,0.00000282,-0.00000168,0.00000040,
 0.00000243,0.00000016,0.00000175,-0.00000161,0.00000660,0.00000831,0.0
 0000237,-0.00000266,-0.00000420,-0.00000092,-0.00000045,0.00000151,0.0
 0000047,-0.00000118,0.00000150,0.00000011,-0.00000089,0.00000101,-0.00
 000014,0.00000025,0.00000099,-0.00000101,-0.00000055,0.00000104,-0.000
 00016,0.00000005,0.00000009,-0.00000005,0.00000417,-0.00000060,0.00000
 164,0.00000046,-0.00000010,0.00000078,0.00000196,-0.00000206,0.0000011
 3,-0.00000184,0.00000008,0.00000095,-0.00000161,-0.00000761,-0.0000007
 3,0.00000126,0.00000191,0.00000252,0.00000100,-0.00000021,0.00000160,0
 .00000064,-0.00000057,-0.00000039,-0.00000095,-0.00000448,0.00000544,0
 .00000312,0.00000015,0.00000263,0.00000273,-0.00000032,-0.00000079,-0.
 00000017,0.00000016,-0.00000071,-0.00000312,0.00000460,0.00000038,0.00
 000159,-0.00000175,0.00000110,0.00000053,-0.00000213,0.00000120,0.0000
 0249,-0.00000549,0.00000020,0.00000408,-0.00000332,0.00000166,-0.00000
 066,-0.00000149,-0.00000150,0.00000003,-0.00000271,-0.00000021,-0.0000
 0390,0.00000025,-0.00000112,0.00000031,0.00000191,-0.00000105,-0.00000
 098,-0.00000155,-0.00000029,-0.00000219,-0.00000111,-0.00000104,0.0000
 0067,-0.00000093,-0.00000126,-0.00000554,0.00000069,-0.00000370,0.0000
 0160,-0.00000296,0.00000116,0.00000013,-0.00000138,-0.00000052,0.00000
 089,0.00000182,0.00000017,0.00000591,0.00000141,-0.00000379,-0.0000001
 7,-0.00000165,0.00000264,-0.00000105,-0.00000178,-0.00000106,-0.000002
 07,-0.00000005,0.00000129,0.00000095,0.00000067,0.00000122,0.00000060,
 0.00000142,0.00000151,-0.00000033,-0.00000094,-0.00000165,0.00000100,-
 0.00000067,-0.00000046,-0.00000656,0.00000606,0.00000296,0.00000015,0.
 00000125,0.00000143,0.00000013,-0.00000054,-0.00000038,0.00000327,-0.0
 0000014,-0.00000063,-0.00000201,0.00000019,-0.00000146,-0.00000020,-0.
 00000246,-0.00000166,-0.00000090,0.00000256,0.00000095,0.00000779,-0.0
 0000042,-0.00000586,-0.00000262,0.00000143,0.00000240,-0.00000081,0.00
 000219,0.00000651,0.00000210,0.00000223,0.00000074,0.00000020,0.000002
 61,-0.00000037,0.00000088,0.00000262,-0.00000132,0.00000017,0.00000169
 ,0.00000092,-0.00000619,0.00000643,0.00000194,0.00000505,0.00000238,0.
 00000038,0.00000162,0.00000145,0.00000024,-0.00000037,0.00000052,-0.00
 000165,-0.00000008,0.00000047,0.00000131,-0.00000393,0.00000317,0.0000
 0497,-0.00000150,-0.00000004,-0.00000308,-0.00000033,0.00000120,-0.000
 00592,-0.00000054,-0.00000152,-0.00000320,-0.00000129,0.00000275,0.000
 00115\\\@
 The archive entry for this job was punched.


 KNIGHT- SIRE, I'VE JUST RETURNED FROM THE FRONT
 KING-   HOW GOES THE BATTLE                    
 KNIGHT- THE SITUATION IS QUITE FLUID           
 KING-   WHAT DOES *THAT* MEAN                  
 KNIGHT- WE'RE UP THE CREEK                     
                THE WIZARD OF ID                
 Job cpu time:       1 days 20 hours 51 minutes  3.0 seconds.
 Elapsed time:       0 days  2 hours 51 minutes 33.9 seconds.
 File lengths (MBytes):  RWF=   9709 Int=      0 D2E=      0 Chk=     55 Scr=      1
 Normal termination of Gaussian 16 at Tue Dec 10 03:45:00 2024.
