/mnt/lustre/scratch/nvme/SLURM/9663737/usccqdma.yGN22dKw4L
OMP_STACKSIZE=0m
GAUSS_PDEF=16
GAUSS_MDEF=65536MB
GAUSS_RDEF=SCF=Direct
 Entering Gaussian System, Link 0=g16.exe
 Initial command:
 /opt/cesga/2020/software/Core/g16/c1/l1.exe "/mnt/lustre/scratch/nvme/SLURM/9663737/usccqdma.yGN22dKw4L/Gau-3064740.inp" -scrdir="/mnt/lustre/scratch/nvme/SLURM/9663737/usccqdma.yGN22dKw4L/"
 Default is to use a total of  16 processors:
                               16 via shared-memory
                                1 via Linda
 Entering Link 1 = /opt/cesga/2020/software/Core/g16/c1/l1.exe PID=   3064766.
  
 Copyright (c) 1988-2019, Gaussian, Inc.  All Rights Reserved.
  
 This is part of the Gaussian(R) 16 program.  It is based on
 the Gaussian(R) 09 system (copyright 2009, Gaussian, Inc.),
 the Gaussian(R) 03 system (copyright 2003, Gaussian, Inc.),
 the Gaussian(R) 98 system (copyright 1998, Gaussian, Inc.),
 the Gaussian(R) 94 system (copyright 1995, Gaussian, Inc.),
 the Gaussian 92(TM) system (copyright 1992, Gaussian, Inc.),
 the Gaussian 90(TM) system (copyright 1990, Gaussian, Inc.),
 the Gaussian 88(TM) system (copyright 1988, Gaussian, Inc.),
 the Gaussian 86(TM) system (copyright 1986, Carnegie Mellon
 University), and the Gaussian 82(TM) system (copyright 1983,
 Carnegie Mellon University). Gaussian is a federally registered
 trademark of Gaussian, Inc.
  
 This software contains proprietary and confidential information,
 including trade secrets, belonging to Gaussian, Inc.
  
 This software is provided under written license and may be
 used, copied, transmitted, or stored only in accord with that
 written license.
  
 The following legend is applicable only to US Government
 contracts under FAR:
  
                    RESTRICTED RIGHTS LEGEND
  
 Use, reproduction and disclosure by the US Government is
 subject to restrictions as set forth in subparagraphs (a)
 and (c) of the Commercial Computer Software - Restricted
 Rights clause in FAR 52.227-19.
  
 Gaussian, Inc.
 340 Quinnipiac St., Bldg. 40, Wallingford CT 06492
  
  
 ---------------------------------------------------------------
 Warning -- This program may not be used in any manner that
 competes with the business of Gaussian, Inc. or will provide
 assistance to any competitor of Gaussian, Inc.  The licensee
 of this program is prohibited from giving any competitor of
 Gaussian, Inc. access to this program.  By using this program,
 the user acknowledges that Gaussian, Inc. is engaged in the
 business of creating and licensing software in the field of
 computational chemistry and represents and warrants to the
 licensee that it is not a competitor of Gaussian, Inc. and that
 it will not use this program in any manner prohibited above.
 ---------------------------------------------------------------
  

 Cite this work as:
 Gaussian 16, Revision C.01,
 M. J. Frisch, G. W. Trucks, H. B. Schlegel, G. E. Scuseria, 
 M. A. Robb, J. R. Cheeseman, G. Scalmani, V. Barone, 
 G. A. Petersson, H. Nakatsuji, X. Li, M. Caricato, A. V. Marenich, 
 J. Bloino, B. G. Janesko, R. Gomperts, B. Mennucci, H. P. Hratchian, 
 J. V. Ortiz, A. F. Izmaylov, J. L. Sonnenberg, D. Williams-Young, 
 F. Ding, F. Lipparini, F. Egidi, J. Goings, B. Peng, A. Petrone, 
 T. Henderson, D. Ranasinghe, V. G. Zakrzewski, J. Gao, N. Rega, 
 G. Zheng, W. Liang, M. Hada, M. Ehara, K. Toyota, R. Fukuda, 
 J. Hasegawa, M. Ishida, T. Nakajima, Y. Honda, O. Kitao, H. Nakai, 
 T. Vreven, K. Throssell, J. A. Montgomery, Jr., J. E. Peralta, 
 F. Ogliaro, M. J. Bearpark, J. J. Heyd, E. N. Brothers, K. N. Kudin, 
 V. N. Staroverov, T. A. Keith, R. Kobayashi, J. Normand, 
 K. Raghavachari, A. P. Rendell, J. C. Burant, S. S. Iyengar, 
 J. Tomasi, M. Cossi, J. M. Millam, M. Klene, C. Adamo, R. Cammi, 
 J. W. Ochterski, R. L. Martin, K. Morokuma, O. Farkas, 
 J. B. Foresman, and D. J. Fox, Gaussian, Inc., Wallingford CT, 2019.
 
 ******************************************
 Gaussian 16:  ES64L-G16RevC.01  3-Jul-2019
                 7-Dec-2024 
 ******************************************
 Default route: SCF=Direct
 ----------------------------------------------------
 # m06/genecp scf=tight int=ultrafine 5d freq=noraman
 ----------------------------------------------------
 1/10=4,30=1,38=1/1,3;
 2/12=2,17=6,18=5,40=1/2;
 3/5=7,8=1,11=2,16=1,17=8,25=1,30=1,71=2,74=-54,75=-5,140=1/1,2,3;
 4//1;
 5/5=2,32=2,38=5,98=1/2;
 8/6=4,10=90,11=11/1;
 11/6=1,8=1,9=11,15=111,16=1/1,2,10;
 10/6=1/2;
 6/7=2,8=2,9=2,10=2,28=1/1;
 7/8=1,10=1,25=1/1,2,3,16;
 1/10=4,30=1/3;
 99//99;
 ------
 OPT-TS
 ------
 Symbolic Z-matrix:
 Charge =  0 Multiplicity = 1
 C                     2.85529   1.0087    1.09826 
 C                     2.44997   2.44928  -0.66809 
 C                     3.63043   3.14058  -0.45182 
 C                     4.46058   2.7221    0.58409 
 C                     4.07447   1.64321   1.36035 
 C                     2.3591   -0.12557   1.89303 
 C                     0.70329  -1.7197    2.18346 
 C                     1.30377  -2.21543   3.3284 
 C                     2.49604  -1.64289   3.75449 
 C                     3.02969  -0.59476   3.02469 
 H                     1.77031   2.72315  -1.47118 
 H                     5.40665   3.22377   0.77765 
 H                     4.72596   1.28642   2.15309 
 H                    -0.19393  -2.17373   1.76917 
 H                     3.00915  -2.01033   4.64068 
 H                     3.96389  -0.13919   3.33867 
 N                     2.06303   1.4159    0.08883 
 N                     1.20286  -0.6929    1.48317 
 Ir                    0.29756   0.04896  -0.37297 
 O                    -2.10609   2.04355  -1.09479 
 O                    -1.51253   0.50966   2.11712 
 O                    -1.39747  -1.67253  -2.2573 
 B                    -1.50427   0.19236   0.76496 
 B                    -0.8897    1.79973  -0.47633 
 B                    -0.86138  -1.51831  -0.99701 
 O                    -1.05377  -2.67331  -0.23673 
 O                    -0.26336   3.00337  -0.1672 
 C                    -1.15589   4.08024  -0.47972 
 C                    -2.11801   3.41756  -1.50617 
 C                    -2.20393  -2.85803  -2.27065 
 C                    -1.61058  -3.68911  -1.08952 
 C                    -2.73734   0.01757   2.69061 
 C                    -3.67707  -0.06785   1.45298 
 O                    -2.74793  -0.29409   0.3859 
 C                    -3.54064   3.93783  -1.4806 
 H                    -4.00337   3.81907  -0.49478 
 H                    -3.56986   5.0025   -1.75422 
 H                    -4.14823   3.38308  -2.20688 
 C                    -1.58292   3.4495   -2.933 
 H                    -2.1989    2.78612  -3.55213 
 H                    -1.61414   4.45887  -3.36484 
 H                    -0.55011   3.07689  -2.97978 
 C                    -1.8333    4.48713   0.82126 
 H                    -1.06069   4.77313   1.54572 
 H                    -2.51424   5.33785   0.68507 
 H                    -2.39352   3.64818   1.25437 
 C                    -0.3476    5.24593  -1.01706 
 H                    -1.00481   6.07522  -1.31561 
 H                     0.33005   5.6148   -0.23578 
 H                     0.26046   4.95954  -1.88291 
 C                    -2.45048  -1.34865   3.30009 
 H                    -1.60076  -1.26104   3.99023 
 H                    -3.31405  -1.72794   3.8628 
 H                    -2.19424  -2.08548   2.52582 
 C                    -3.18558   0.97779   3.77369 
 H                    -4.1672    0.68668   4.1744 
 H                    -2.46416   0.96598   4.60071 
 H                    -3.25066   2.00571   3.39992 
 C                    -4.67982  -1.20532   1.49565 
 H                    -4.18466  -2.1828    1.53293 
 H                    -5.33788  -1.11263   2.37173 
 H                    -5.31132  -1.17877   0.59796 
 C                    -4.40636   1.23303   1.15267 
 H                    -3.7105    2.07945   1.13277 
 H                    -4.85638   1.15979   0.15456 
 H                    -5.19801   1.43591   1.88655 
 C                    -2.62876  -4.48253  -0.29503 
 H                    -3.39232  -3.82869   0.14252 
 H                    -3.12942  -5.22842  -0.92897 
 H                    -2.12692  -5.0163    0.52298 
 C                    -0.4657   -4.60037  -1.51074 
 H                     0.29647  -4.04951  -2.07837 
 H                     0.01526  -5.00926  -0.6122 
 H                    -0.81613  -5.44197  -2.12295 
 C                    -2.08055  -3.51722  -3.63105 
 H                    -2.50789  -2.85672  -4.39584 
 H                    -1.03581  -3.70824  -3.89993 
 H                    -2.63191  -4.46841  -3.65779 
 C                    -3.64455  -2.4203   -2.04397 
 H                    -3.91895  -1.71209  -2.83577 
 H                    -4.34268  -3.26784  -2.08014 
 H                    -3.74565  -1.89678  -1.08629 
 H                    -0.15052   0.48268  -1.85951 
 C                     4.23374  -1.35551  -0.69425 
 O                     5.03073  -1.94383   0.03412 
 C                     4.70016  -0.2343   -1.60843 
 H                     4.51537  -0.54327  -2.65004 
 H                     4.08787   0.66533  -1.46487 
 C                     1.85376  -1.06108  -1.50144 
 H                     2.29363  -0.31048  -2.16638 
 H                     1.39394  -1.81115  -2.16297 
 N                     2.9163   -1.71391  -0.74496 
 C                     2.57154  -2.96113  -0.08883 
 H                     1.48268  -3.02503   0.00019 
 H                     2.92865  -3.8219   -0.67615 
 H                     3.03863  -3.0224    0.9 
 C                     6.16666   0.09078  -1.40095 
 H                     6.35937   0.37659  -0.35937 
 H                     6.79856  -0.77896  -1.61115 
 H                     0.84583  -3.04689   3.8587 
 H                     3.89611   3.97801  -1.0919 
 H                     6.47756   0.91798  -2.0521 
 

 GradGradGradGradGradGradGradGradGradGradGradGradGradGradGradGradGradGrad
 Berny optimization.
 Initialization pass.
 Trust Radius=3.00D-01 FncErr=1.00D-07 GrdErr=1.00D-07 EigMax=2.50D+02 EigMin=1.00D-04
 Number of steps in this run=      2 maximum allowed number of steps=      2.
 GradGradGradGradGradGradGradGradGradGradGradGradGradGradGradGradGradGrad

 Stoichiometry    C33H55B3IrN3O7
 Framework group  C1[X(C33H55B3IrN3O7)]
 Deg. of freedom   300
 Full point group                 C1      NOp   1
 Largest Abelian subgroup         C1      NOp   1
 Largest concise Abelian subgroup C1      NOp   1
                         Standard orientation:                         
 ---------------------------------------------------------------------
 Center     Atomic      Atomic             Coordinates (Angstroms)
 Number     Number       Type             X           Y           Z
 ---------------------------------------------------------------------
      1          6           0        2.855289    1.008698    1.098259
      2          6           0        2.449970    2.449278   -0.668091
      3          6           0        3.630430    3.140578   -0.451821
      4          6           0        4.460580    2.722098    0.584089
      5          6           0        4.074470    1.643208    1.360349
      6          6           0        2.359099   -0.125572    1.893029
      7          6           0        0.703289   -1.719701    2.183459
      8          6           0        1.303768   -2.215431    3.328399
      9          6           0        2.496039   -1.642892    3.754489
     10          6           0        3.029689   -0.594762    3.024689
     11          1           0        1.770310    2.723149   -1.471181
     12          1           0        5.406650    3.223767    0.777649
     13          1           0        4.725960    1.286418    2.153089
     14          1           0       -0.193932   -2.173731    1.769169
     15          1           0        3.009148   -2.010332    4.640679
     16          1           0        3.963889   -0.139192    3.338669
     17          7           0        2.063030    1.415898    0.088829
     18          7           0        1.202859   -0.692901    1.483169
     19         77           0        0.297559    0.048959   -0.372971
     20          8           0       -2.106090    2.043550   -1.094791
     21          8           0       -1.512531    0.509660    2.117119
     22          8           0       -1.397471   -1.672530   -2.257301
     23          5           0       -1.504271    0.192360    0.764959
     24          5           0       -0.889700    1.799729   -0.476331
     25          5           0       -0.861381   -1.518311   -0.997011
     26          8           0       -1.053772   -2.673311   -0.236731
     27          8           0       -0.263360    3.003369   -0.167201
     28          6           0       -1.155890    4.080240   -0.479721
     29          6           0       -2.118010    3.417560   -1.506171
     30          6           0       -2.203932   -2.858030   -2.270651
     31          6           0       -1.610582   -3.689110   -1.089521
     32          6           0       -2.737341    0.017570    2.690609
     33          6           0       -3.677071   -0.067850    1.452979
     34          8           0       -2.747931   -0.294090    0.385899
     35          6           0       -3.540640    3.937830   -1.480601
     36          1           0       -4.003370    3.819070   -0.494781
     37          1           0       -3.569859    5.002500   -1.754221
     38          1           0       -4.148230    3.383080   -2.206881
     39          6           0       -1.582920    3.449500   -2.933001
     40          1           0       -2.198900    2.786120   -3.552131
     41          1           0       -1.614139    4.458870   -3.364841
     42          1           0       -0.550110    3.076889   -2.979781
     43          6           0       -1.833299    4.487130    0.821259
     44          1           0       -1.060689    4.773129    1.545719
     45          1           0       -2.514239    5.337850    0.685069
     46          1           0       -2.393520    3.648180    1.254369
     47          6           0       -0.347599    5.245929   -1.017061
     48          1           0       -1.004809    6.075219   -1.315611
     49          1           0        0.330051    5.614799   -0.235781
     50          1           0        0.260461    4.959539   -1.882911
     51          6           0       -2.450481   -1.348650    3.300089
     52          1           0       -1.600761   -1.261040    3.990229
     53          1           0       -3.314051   -1.727940    3.862799
     54          1           0       -2.194242   -2.085480    2.525819
     55          6           0       -3.185581    0.977790    3.773689
     56          1           0       -4.167201    0.686680    4.174399
     57          1           0       -2.464161    0.965980    4.600709
     58          1           0       -3.250660    2.005710    3.399919
     59          6           0       -4.679821   -1.205319    1.495649
     60          1           0       -4.184662   -2.182800    1.532929
     61          1           0       -5.337881   -1.112629    2.371729
     62          1           0       -5.311321   -1.178769    0.597959
     63          6           0       -4.406360    1.233031    1.152669
     64          1           0       -3.710500    2.079450    1.132769
     65          1           0       -4.856381    1.159791    0.154559
     66          1           0       -5.198010    1.435911    1.886549
     67          6           0       -2.628762   -4.482530   -0.295031
     68          1           0       -3.392322   -3.828690    0.142519
     69          1           0       -3.129423   -5.228420   -0.928971
     70          1           0       -2.126923   -5.016300    0.522979
     71          6           0       -0.465702   -4.600371   -1.510741
     72          1           0        0.296468   -4.049511   -2.078371
     73          1           0        0.015257   -5.009261   -0.612201
     74          1           0       -0.816133   -5.441971   -2.122951
     75          6           0       -2.080552   -3.517220   -3.631051
     76          1           0       -2.507892   -2.856720   -4.395841
     77          1           0       -1.035812   -3.708241   -3.899931
     78          1           0       -2.631912   -4.468410   -3.657791
     79          6           0       -3.644552   -2.420300   -2.043971
     80          1           0       -3.918951   -1.712090   -2.835771
     81          1           0       -4.342682   -3.267839   -2.080141
     82          1           0       -3.745652   -1.896780   -1.086291
     83          1           0       -0.150521    0.482679   -1.859511
     84          6           0        4.233739   -1.355512   -0.694251
     85          8           0        5.030728   -1.943833    0.034119
     86          6           0        4.700159   -0.234302   -1.608431
     87          1           0        4.515369   -0.543272   -2.650041
     88          1           0        4.087869    0.665328   -1.464871
     89          6           0        1.853759   -1.061081   -1.501441
     90          1           0        2.293629   -0.310482   -2.166381
     91          1           0        1.393939   -1.811151   -2.162971
     92          7           0        2.916299   -1.713912   -0.744961
     93          6           0        2.571538   -2.961132   -0.088831
     94          1           0        1.482678   -3.025031    0.000189
     95          1           0        2.928648   -3.821902   -0.676151
     96          1           0        3.038628   -3.022402    0.899999
     97          6           0        6.166659    0.090777   -1.400951
     98          1           0        6.359369    0.376587   -0.359371
     99          1           0        6.798559   -0.778963   -1.611151
    100          1           0        0.845828   -3.046891    3.858699
    101          1           0        3.896110    3.978008   -1.091901
    102          1           0        6.477559    0.917977   -2.052101
 ---------------------------------------------------------------------
 Rotational constants (GHZ):           0.0815342           0.0675976           0.0541852
 General basis read from cards:  (5D, 7F)
 ======================================================================================================
                                       Pseudopotential Parameters
 ======================================================================================================
  Center     Atomic      Valence      Angular      Power
  Number     Number     Electrons     Momentum     of R      Exponent        Coefficient   SO-Coeffient
 ======================================================================================================
    1          6
                                   No pseudopotential on this center.
    2          6
                                   No pseudopotential on this center.
    3          6
                                   No pseudopotential on this center.
    4          6
                                   No pseudopotential on this center.
    5          6
                                   No pseudopotential on this center.
    6          6
                                   No pseudopotential on this center.
    7          6
                                   No pseudopotential on this center.
    8          6
                                   No pseudopotential on this center.
    9          6
                                   No pseudopotential on this center.
   10          6
                                   No pseudopotential on this center.
   11          1
                                   No pseudopotential on this center.
   12          1
                                   No pseudopotential on this center.
   13          1
                                   No pseudopotential on this center.
   14          1
                                   No pseudopotential on this center.
   15          1
                                   No pseudopotential on this center.
   16          1
                                   No pseudopotential on this center.
   17          7
                                   No pseudopotential on this center.
   18          7
                                   No pseudopotential on this center.
   19         77           17
                                      G and up 
                                                     1      823.5880147       -0.15780140    0.00000000
                                                     2      364.6613336    -1517.52704460    0.00000000
                                                     2       55.7082801     -316.53065290    0.00000000
                                                     2       12.0464544      -91.88809410    0.00000000
                                                     2        3.5120610       -9.22417730    0.00000000
                                      S - G
                                                     0      188.0490770        3.15780140    0.00000000
                                                     1      340.4194712       26.83225770    0.00000000
                                                     2      128.2373673      800.42500070    0.00000000
                                                     2       33.8644961      369.40506830    0.00000000
                                                     2        4.7560005      242.41718990    0.00000000
                                                     2        3.9649974     -118.21732820    0.00000000
                                      P - G
                                                     0      289.7291139        2.15780140    0.00000000
                                                     1       87.4633789       61.96786100    0.00000000
                                                     2       30.4363766      269.05819860    0.00000000
                                                     2        4.0553412      231.16547930    0.00000000
                                                     2        3.5525341     -133.69526670    0.00000000
                                      D - G
                                                     0      136.4017106        3.15780140    0.00000000
                                                     1       95.0776925       45.93498030    0.00000000
                                                     2       49.2258410      359.03446680    0.00000000
                                                     2       15.0874145      176.47401190    0.00000000
                                                     2        4.0405764       54.51552860    0.00000000
                                      F - G
                                                     0      127.3507908        3.95461970    0.00000000
                                                     1       66.2364374       52.97736550    0.00000000
                                                     2       34.4299229      274.86433830    0.00000000
                                                     2       10.1995721      137.20473380    0.00000000
                                                     2        2.5409702       14.86333050    0.00000000
   20          8
                                   No pseudopotential on this center.
   21          8
                                   No pseudopotential on this center.
   22          8
                                   No pseudopotential on this center.
   23          5
                                   No pseudopotential on this center.
   24          5
                                   No pseudopotential on this center.
   25          5
                                   No pseudopotential on this center.
   26          8
                                   No pseudopotential on this center.
   27          8
                                   No pseudopotential on this center.
   28          6
                                   No pseudopotential on this center.
   29          6
                                   No pseudopotential on this center.
   30          6
                                   No pseudopotential on this center.
   31          6
                                   No pseudopotential on this center.
   32          6
                                   No pseudopotential on this center.
   33          6
                                   No pseudopotential on this center.
   34          8
                                   No pseudopotential on this center.
   35          6
                                   No pseudopotential on this center.
   36          1
                                   No pseudopotential on this center.
   37          1
                                   No pseudopotential on this center.
   38          1
                                   No pseudopotential on this center.
   39          6
                                   No pseudopotential on this center.
   40          1
                                   No pseudopotential on this center.
   41          1
                                   No pseudopotential on this center.
   42          1
                                   No pseudopotential on this center.
   43          6
                                   No pseudopotential on this center.
   44          1
                                   No pseudopotential on this center.
   45          1
                                   No pseudopotential on this center.
   46          1
                                   No pseudopotential on this center.
   47          6
                                   No pseudopotential on this center.
   48          1
                                   No pseudopotential on this center.
   49          1
                                   No pseudopotential on this center.
   50          1
                                   No pseudopotential on this center.
   51          6
                                   No pseudopotential on this center.
   52          1
                                   No pseudopotential on this center.
   53          1
                                   No pseudopotential on this center.
   54          1
                                   No pseudopotential on this center.
   55          6
                                   No pseudopotential on this center.
   56          1
                                   No pseudopotential on this center.
   57          1
                                   No pseudopotential on this center.
   58          1
                                   No pseudopotential on this center.
   59          6
                                   No pseudopotential on this center.
   60          1
                                   No pseudopotential on this center.
   61          1
                                   No pseudopotential on this center.
   62          1
                                   No pseudopotential on this center.
   63          6
                                   No pseudopotential on this center.
   64          1
                                   No pseudopotential on this center.
   65          1
                                   No pseudopotential on this center.
   66          1
                                   No pseudopotential on this center.
   67          6
                                   No pseudopotential on this center.
   68          1
                                   No pseudopotential on this center.
   69          1
                                   No pseudopotential on this center.
   70          1
                                   No pseudopotential on this center.
   71          6
                                   No pseudopotential on this center.
   72          1
                                   No pseudopotential on this center.
   73          1
                                   No pseudopotential on this center.
   74          1
                                   No pseudopotential on this center.
   75          6
                                   No pseudopotential on this center.
   76          1
                                   No pseudopotential on this center.
   77          1
                                   No pseudopotential on this center.
   78          1
                                   No pseudopotential on this center.
   79          6
                                   No pseudopotential on this center.
   80          1
                                   No pseudopotential on this center.
   81          1
                                   No pseudopotential on this center.
   82          1
                                   No pseudopotential on this center.
   83          1
                                   No pseudopotential on this center.
   84          6
                                   No pseudopotential on this center.
   85          8
                                   No pseudopotential on this center.
   86          6
                                   No pseudopotential on this center.
   87          1
                                   No pseudopotential on this center.
   88          1
                                   No pseudopotential on this center.
   89          6
                                   No pseudopotential on this center.
   90          1
                                   No pseudopotential on this center.
   91          1
                                   No pseudopotential on this center.
   92          7
                                   No pseudopotential on this center.
   93          6
                                   No pseudopotential on this center.
   94          1
                                   No pseudopotential on this center.
   95          1
                                   No pseudopotential on this center.
   96          1
                                   No pseudopotential on this center.
   97          6
                                   No pseudopotential on this center.
   98          1
                                   No pseudopotential on this center.
   99          1
                                   No pseudopotential on this center.
  100          1
                                   No pseudopotential on this center.
  101          1
                                   No pseudopotential on this center.
  102          1
                                   No pseudopotential on this center.
 ======================================================================================================
 There are   824 symmetry adapted cartesian basis functions of A   symmetry.
 There are   776 symmetry adapted basis functions of A   symmetry.
   776 basis functions,  1551 primitive gaussians,   824 cartesian basis functions
   181 alpha electrons      181 beta electrons
       nuclear repulsion energy      7493.0060433917 Hartrees.
 NAtoms=  102 NActive=  102 NUniq=  102 SFac= 1.00D+00 NAtFMM=   60 NAOKFM=T Big=T
 Integral buffers will be    131072 words long.
 Raffenetti 2 integral format.
 Two-electron integral symmetry is turned on.
 One-electron integrals computed using PRISM.
   1 Symmetry operations used in ECPInt.
 ECPInt:  NShTT=   45753 NPrTT=  276657 LenC2=   36423 LenP2D=  114290.
 LDataN:  DoStor=T MaxTD1= 6 Len=  172
 NBasis=   776 RedAO= T EigKep=  5.44D-04  NBF=   776
 NBsUse=   776 1.00D-06 EigRej= -1.00D+00 NBFU=   776
 Defaulting to unpruned grid for atomic number  77.
 ExpMin= 2.90D-02 ExpMax= 5.48D+03 ExpMxC= 8.25D+02 IAcc=3 IRadAn=         5 AccDes= 0.00D+00
 Harris functional with IExCor= 1009 and IRadAn=       5 diagonalized for initial guess.
 HarFok:  IExCor= 1009 AccDes= 0.00D+00 IRadAn=         5 IDoV= 1 UseB2=F ITyADJ=14
 ICtDFT=  3500011 ScaDFX=  1.000000  1.000000  1.000000  1.000000
 Defaulting to unpruned grid for atomic number  77.
 FoFCou: FMM=F IPFlag=           0 FMFlag=      100000 FMFlg1=        2001
         NFxFlg=           0 DoJE=T BraDBF=F KetDBF=T FulRan=T
         wScrn=  0.000000 ICntrl=       500 IOpCl=  0 I1Cent=   200000004 NGrid=           0
         NMat0=    1 NMatS0=      1 NMatT0=    0 NMatD0=    1 NMtDS0=    0 NMtDT0=    0
 Petite list used in FoFCou.
 Requested convergence on RMS density matrix=1.00D-08 within 128 cycles.
 Requested convergence on MAX density matrix=1.00D-06.
 Requested convergence on             energy=1.00D-06.
 No special actions if energy rises.
 Defaulting to unpruned grid for atomic number  77.
 Defaulting to unpruned grid for atomic number  77.
 Defaulting to unpruned grid for atomic number  77.
 Defaulting to unpruned grid for atomic number  77.
 Defaulting to unpruned grid for atomic number  77.
 Defaulting to unpruned grid for atomic number  77.
 Defaulting to unpruned grid for atomic number  77.
 Defaulting to unpruned grid for atomic number  77.
 Defaulting to unpruned grid for atomic number  77.
 Defaulting to unpruned grid for atomic number  77.
 Defaulting to unpruned grid for atomic number  77.
 Defaulting to unpruned grid for atomic number  77.
 Defaulting to unpruned grid for atomic number  77.
 Defaulting to unpruned grid for atomic number  77.
 Defaulting to unpruned grid for atomic number  77.
 Defaulting to unpruned grid for atomic number  77.
 SCF Done:  E(RM06) =  -2159.67312288     A.U. after   17 cycles
            NFock= 17  Conv=0.43D-08     -V/T= 2.0409
 DoSCS=F DFT=T ScalE2(SS,OS)=  1.000000  1.000000
 Range of M.O.s used for correlation:     1   776
 NBasis=   776 NAE=   181 NBE=   181 NFC=     0 NFV=     0
 NROrb=    776 NOA=   181 NOB=   181 NVA=   595 NVB=   595
   1 Symmetry operations used in ECPInt.
 ECPInt:  NShTT=   45753 NPrTT=  276657 LenC2=   36423 LenP2D=  114290.
 LDataN:  DoStor=T MaxTD1= 7 Len=  274
 Number of processors reduced to   8 by ecpmxn.
 Symmetrizing basis deriv contribution to polar:
 IMax=3 JMax=2 DiffMx= 0.00D+00
 G2DrvN: will do   103 centers at a time, making    1 passes.
 Calling FoFCou, ICntrl=  3107 FMM=T I1Cent=   0 AccDes= 0.00D+00.
 Defaulting to unpruned grid for atomic number  77.
 Defaulting to unpruned grid for atomic number  77.
 Defaulting to unpruned grid for atomic number  77.
 Defaulting to unpruned grid for atomic number  77.
 Defaulting to unpruned grid for atomic number  77.
 Defaulting to unpruned grid for atomic number  77.
 Defaulting to unpruned grid for atomic number  77.
 Defaulting to unpruned grid for atomic number  77.
 Defaulting to unpruned grid for atomic number  77.
 Defaulting to unpruned grid for atomic number  77.
 Defaulting to unpruned grid for atomic number  77.
 Defaulting to unpruned grid for atomic number  77.
 Defaulting to unpruned grid for atomic number  77.
 Defaulting to unpruned grid for atomic number  77.
 Defaulting to unpruned grid for atomic number  77.
 Defaulting to unpruned grid for atomic number  77.
 End of G2Drv F.D. properties file   721 does not exist.
 End of G2Drv F.D. properties file   722 does not exist.
 End of G2Drv F.D. properties file   788 does not exist.
          IDoAtm=11111111111111111111111111111111111111111111111111
          IDoAtm=11111111111111111111111111111111111111111111111111
          IDoAtm=11
          Differentiating once with respect to electric field.
                with respect to dipole field.
          Differentiating once with respect to nuclear coordinates.
 Defaulting to unpruned grid for atomic number  77.
 CalDSu exits because no D1Ps are significant.
 Defaulting to unpruned grid for atomic number  77.
 Defaulting to unpruned grid for atomic number  77.
 Defaulting to unpruned grid for atomic number  77.
 Defaulting to unpruned grid for atomic number  77.
 Defaulting to unpruned grid for atomic number  77.
 Defaulting to unpruned grid for atomic number  77.
 Defaulting to unpruned grid for atomic number  77.
 Defaulting to unpruned grid for atomic number  77.
 Defaulting to unpruned grid for atomic number  77.
 Defaulting to unpruned grid for atomic number  77.
 Defaulting to unpruned grid for atomic number  77.
 Defaulting to unpruned grid for atomic number  77.
 Defaulting to unpruned grid for atomic number  77.
 Defaulting to unpruned grid for atomic number  77.
 Defaulting to unpruned grid for atomic number  77.
 Defaulting to unpruned grid for atomic number  77.
          There are   309 degrees of freedom in the 1st order CPHF.  IDoFFX=6 NUNeed=     3.
    306 vectors produced by pass  0 Test12= 1.08D-13 1.00D-09 XBig12= 4.63D+02 6.89D+00.
 AX will form    72 AO Fock derivatives at one time.
    306 vectors produced by pass  1 Test12= 1.08D-13 1.00D-09 XBig12= 6.57D+01 9.04D-01.
    306 vectors produced by pass  2 Test12= 1.08D-13 1.00D-09 XBig12= 7.06D-01 8.94D-02.
    306 vectors produced by pass  3 Test12= 1.08D-13 1.00D-09 XBig12= 4.04D-03 6.40D-03.
    306 vectors produced by pass  4 Test12= 1.08D-13 1.00D-09 XBig12= 1.14D-05 2.41D-04.
    265 vectors produced by pass  5 Test12= 1.08D-13 1.00D-09 XBig12= 2.22D-08 8.42D-06.
     69 vectors produced by pass  6 Test12= 1.08D-13 1.00D-09 XBig12= 3.26D-11 3.98D-07.
      3 vectors produced by pass  7 Test12= 1.08D-13 1.00D-09 XBig12= 4.48D-14 1.33D-08.
 InvSVY:  IOpt=1 It=  1 EMax= 1.78D-14
 Solved reduced A of dimension  1867 with   309 vectors.
 Isotropic polarizability for W=    0.000000      465.50 Bohr**3.
 End of Minotr F.D. properties file   721 does not exist.
 End of Minotr F.D. properties file   722 does not exist.
 End of Minotr F.D. properties file   788 does not exist.
 Hyperfine terms turned off by default for NAtoms > 100.

 **********************************************************************

            Population analysis using the SCF Density.

 **********************************************************************

 Orbital symmetries:
       Occupied  (A) (A) (A) (A) (A) (A) (A) (A) (A) (A) (A) (A)
                 (A) (A) (A) (A) (A) (A) (A) (A) (A) (A) (A) (A)
                 (A) (A) (A) (A) (A) (A) (A) (A) (A) (A) (A) (A)
                 (A) (A) (A) (A) (A) (A) (A) (A) (A) (A) (A) (A)
                 (A) (A) (A) (A) (A) (A) (A) (A) (A) (A) (A) (A)
                 (A) (A) (A) (A) (A) (A) (A) (A) (A) (A) (A) (A)
                 (A) (A) (A) (A) (A) (A) (A) (A) (A) (A) (A) (A)
                 (A) (A) (A) (A) (A) (A) (A) (A) (A) (A) (A) (A)
                 (A) (A) (A) (A) (A) (A) (A) (A) (A) (A) (A) (A)
                 (A) (A) (A) (A) (A) (A) (A) (A) (A) (A) (A) (A)
                 (A) (A) (A) (A) (A) (A) (A) (A) (A) (A) (A) (A)
                 (A) (A) (A) (A) (A) (A) (A) (A) (A) (A) (A) (A)
                 (A) (A) (A) (A) (A) (A) (A) (A) (A) (A) (A) (A)
                 (A) (A) (A) (A) (A) (A) (A) (A) (A) (A) (A) (A)
                 (A) (A) (A) (A) (A) (A) (A) (A) (A) (A) (A) (A)
                 (A)
       Virtual   (A) (A) (A) (A) (A) (A) (A) (A) (A) (A) (A) (A)
                 (A) (A) (A) (A) (A) (A) (A) (A) (A) (A) (A) (A)
                 (A) (A) (A) (A) (A) (A) (A) (A) (A) (A) (A) (A)
                 (A) (A) (A) (A) (A) (A) (A) (A) (A) (A) (A) (A)
                 (A) (A) (A) (A) (A) (A) (A) (A) (A) (A) (A) (A)
                 (A) (A) (A) (A) (A) (A) (A) (A) (A) (A) (A) (A)
                 (A) (A) (A) (A) (A) (A) (A) (A) (A) (A) (A) (A)
                 (A) (A) (A) (A) (A) (A) (A) (A) (A) (A) (A) (A)
                 (A) (A) (A) (A) (A) (A) (A) (A) (A) (A) (A) (A)
                 (A) (A) (A) (A) (A) (A) (A) (A) (A) (A) (A) (A)
                 (A) (A) (A) (A) (A) (A) (A) (A) (A) (A) (A) (A)
                 (A) (A) (A) (A) (A) (A) (A) (A) (A) (A) (A) (A)
                 (A) (A) (A) (A) (A) (A) (A) (A) (A) (A) (A) (A)
                 (A) (A) (A) (A) (A) (A) (A) (A) (A) (A) (A) (A)
                 (A) (A) (A) (A) (A) (A) (A) (A) (A) (A) (A) (A)
                 (A) (A) (A) (A) (A) (A) (A) (A) (A) (A) (A) (A)
                 (A) (A) (A) (A) (A) (A) (A) (A) (A) (A) (A) (A)
                 (A) (A) (A) (A) (A) (A) (A) (A) (A) (A) (A) (A)
                 (A) (A) (A) (A) (A) (A) (A) (A) (A) (A) (A) (A)
                 (A) (A) (A) (A) (A) (A) (A) (A) (A) (A) (A) (A)
                 (A) (A) (A) (A) (A) (A) (A) (A) (A) (A) (A) (A)
                 (A) (A) (A) (A) (A) (A) (A) (A) (A) (A) (A) (A)
                 (A) (A) (A) (A) (A) (A) (A) (A) (A) (A) (A) (A)
                 (A) (A) (A) (A) (A) (A) (A) (A) (A) (A) (A) (A)
                 (A) (A) (A) (A) (A) (A) (A) (A) (A) (A) (A) (A)
                 (A) (A) (A) (A) (A) (A) (A) (A) (A) (A) (A) (A)
                 (A) (A) (A) (A) (A) (A) (A) (A) (A) (A) (A) (A)
                 (A) (A) (A) (A) (A) (A) (A) (A) (A) (A) (A) (A)
                 (A) (A) (A) (A) (A) (A) (A) (A) (A) (A) (A) (A)
                 (A) (A) (A) (A) (A) (A) (A) (A) (A) (A) (A) (A)
                 (A) (A) (A) (A) (A) (A) (A) (A) (A) (A) (A) (A)
                 (A) (A) (A) (A) (A) (A) (A) (A) (A) (A) (A) (A)
                 (A) (A) (A) (A) (A) (A) (A) (A) (A) (A) (A) (A)
                 (A) (A) (A) (A) (A) (A) (A) (A) (A) (A) (A) (A)
                 (A) (A) (A) (A) (A) (A) (A) (A) (A) (A) (A) (A)
                 (A) (A) (A) (A) (A) (A) (A) (A) (A) (A) (A) (A)
                 (A) (A) (A) (A) (A) (A) (A) (A) (A) (A) (A) (A)
                 (A) (A) (A) (A) (A) (A) (A) (A) (A) (A) (A) (A)
                 (A) (A) (A) (A) (A) (A) (A) (A) (A) (A) (A) (A)
                 (A) (A) (A) (A) (A) (A) (A) (A) (A) (A) (A) (A)
                 (A) (A) (A) (A) (A) (A) (A) (A) (A) (A) (A) (A)
                 (A) (A) (A) (A) (A) (A) (A) (A) (A) (A) (A) (A)
                 (A) (A) (A) (A) (A) (A) (A) (A) (A) (A) (A) (A)
                 (A) (A) (A) (A) (A) (A) (A) (A) (A) (A) (A) (A)
                 (A) (A) (A) (A) (A) (A) (A) (A) (A) (A) (A) (A)
                 (A) (A) (A) (A) (A) (A) (A) (A) (A) (A) (A) (A)
                 (A) (A) (A) (A) (A) (A) (A) (A) (A) (A) (A) (A)
                 (A) (A) (A) (A) (A) (A) (A) (A) (A) (A) (A) (A)
                 (A) (A) (A) (A) (A) (A) (A) (A) (A) (A) (A) (A)
                 (A) (A) (A) (A) (A) (A) (A)
 The electronic state is 1-A.
 Alpha  occ. eigenvalues --  -19.21134 -19.20991 -19.20690 -19.20612 -19.20605
 Alpha  occ. eigenvalues --  -19.19801 -19.15909 -14.45058 -14.44388 -14.39869
 Alpha  occ. eigenvalues --  -10.31777 -10.31663 -10.31547 -10.30317 -10.30037
 Alpha  occ. eigenvalues --  -10.29972 -10.29888 -10.29843 -10.29772 -10.29496
 Alpha  occ. eigenvalues --  -10.28975 -10.28658 -10.28355 -10.27930 -10.27652
 Alpha  occ. eigenvalues --  -10.27524 -10.27135 -10.24191 -10.23671 -10.23486
 Alpha  occ. eigenvalues --  -10.23291 -10.23278 -10.23205 -10.23150 -10.23123
 Alpha  occ. eigenvalues --  -10.23005 -10.22984 -10.22830 -10.22579 -10.22508
 Alpha  occ. eigenvalues --  -10.22310 -10.21803 -10.21292  -6.82000  -6.81649
 Alpha  occ. eigenvalues --   -6.80230  -3.65197  -2.07581  -2.06803  -2.06384
 Alpha  occ. eigenvalues --   -1.07121  -1.06789  -1.06056  -1.01825  -1.00155
 Alpha  occ. eigenvalues --   -0.99789  -0.99748  -0.99258  -0.97292  -0.90976
 Alpha  occ. eigenvalues --   -0.84044  -0.83222  -0.82540  -0.81193  -0.80979
 Alpha  occ. eigenvalues --   -0.80311  -0.77091  -0.76734  -0.75517  -0.75442
 Alpha  occ. eigenvalues --   -0.74664  -0.71115  -0.70890  -0.70276  -0.69164
 Alpha  occ. eigenvalues --   -0.68684  -0.68244  -0.68118  -0.67650  -0.67253
 Alpha  occ. eigenvalues --   -0.66150  -0.64256  -0.63303  -0.62672  -0.61893
 Alpha  occ. eigenvalues --   -0.61495  -0.61144  -0.57463  -0.55726  -0.55156
 Alpha  occ. eigenvalues --   -0.55017  -0.54586  -0.53697  -0.53360  -0.53097
 Alpha  occ. eigenvalues --   -0.52986  -0.50792  -0.50650  -0.49456  -0.48721
 Alpha  occ. eigenvalues --   -0.48537  -0.47995  -0.47530  -0.47418  -0.47222
 Alpha  occ. eigenvalues --   -0.46890  -0.46534  -0.46130  -0.45852  -0.45427
 Alpha  occ. eigenvalues --   -0.45252  -0.44881  -0.44497  -0.44407  -0.44174
 Alpha  occ. eigenvalues --   -0.44042  -0.43804  -0.43758  -0.43235  -0.43076
 Alpha  occ. eigenvalues --   -0.42109  -0.41219  -0.40788  -0.40676  -0.40430
 Alpha  occ. eigenvalues --   -0.40349  -0.40256  -0.40139  -0.40058  -0.39927
 Alpha  occ. eigenvalues --   -0.39857  -0.39809  -0.39518  -0.39308  -0.39143
 Alpha  occ. eigenvalues --   -0.38801  -0.38251  -0.38176  -0.37796  -0.37579
 Alpha  occ. eigenvalues --   -0.37335  -0.37230  -0.37091  -0.37080  -0.36695
 Alpha  occ. eigenvalues --   -0.36389  -0.36239  -0.36122  -0.35922  -0.35750
 Alpha  occ. eigenvalues --   -0.35464  -0.35323  -0.35191  -0.35122  -0.34351
 Alpha  occ. eigenvalues --   -0.34271  -0.33725  -0.33246  -0.33137  -0.32705
 Alpha  occ. eigenvalues --   -0.32485  -0.32413  -0.31867  -0.31691  -0.31285
 Alpha  occ. eigenvalues --   -0.31144  -0.30651  -0.30233  -0.29950  -0.28961
 Alpha  occ. eigenvalues --   -0.27944  -0.27427  -0.26928  -0.26654  -0.26597
 Alpha  occ. eigenvalues --   -0.26183  -0.25493  -0.23960  -0.23410  -0.22773
 Alpha  occ. eigenvalues --   -0.18152
 Alpha virt. eigenvalues --   -0.06631  -0.03437  -0.02698   0.01325   0.02252
 Alpha virt. eigenvalues --    0.02706   0.04752   0.05415   0.06419   0.06715
 Alpha virt. eigenvalues --    0.07419   0.08908   0.09460   0.09616   0.10378
 Alpha virt. eigenvalues --    0.10780   0.10900   0.11165   0.11584   0.11876
 Alpha virt. eigenvalues --    0.11964   0.12394   0.12914   0.13188   0.13495
 Alpha virt. eigenvalues --    0.13964   0.14208   0.14564   0.14714   0.14801
 Alpha virt. eigenvalues --    0.14935   0.15152   0.15371   0.15775   0.15943
 Alpha virt. eigenvalues --    0.16047   0.16113   0.16306   0.16425   0.16653
 Alpha virt. eigenvalues --    0.17094   0.17125   0.17327   0.17587   0.17839
 Alpha virt. eigenvalues --    0.18043   0.18117   0.18384   0.18573   0.18610
 Alpha virt. eigenvalues --    0.18924   0.19198   0.19298   0.19515   0.19781
 Alpha virt. eigenvalues --    0.20048   0.20289   0.20590   0.20606   0.21092
 Alpha virt. eigenvalues --    0.21219   0.21641   0.21702   0.21851   0.22106
 Alpha virt. eigenvalues --    0.22300   0.22744   0.22775   0.23044   0.23448
 Alpha virt. eigenvalues --    0.23703   0.23847   0.23903   0.24211   0.24368
 Alpha virt. eigenvalues --    0.24717   0.24946   0.25333   0.25714   0.25973
 Alpha virt. eigenvalues --    0.26125   0.26789   0.26923   0.27046   0.27444
 Alpha virt. eigenvalues --    0.27639   0.27946   0.28043   0.28286   0.28732
 Alpha virt. eigenvalues --    0.29089   0.29377   0.29819   0.30279   0.30641
 Alpha virt. eigenvalues --    0.30972   0.31496   0.31884   0.32463   0.32883
 Alpha virt. eigenvalues --    0.33112   0.33959   0.34839   0.35392   0.36114
 Alpha virt. eigenvalues --    0.36592   0.37143   0.37793   0.38734   0.39111
 Alpha virt. eigenvalues --    0.39732   0.40895   0.41722   0.43781   0.44113
 Alpha virt. eigenvalues --    0.44651   0.45593   0.46654   0.47631   0.48855
 Alpha virt. eigenvalues --    0.48982   0.49288   0.49660   0.50581   0.50809
 Alpha virt. eigenvalues --    0.51290   0.51425   0.51697   0.51971   0.52807
 Alpha virt. eigenvalues --    0.53045   0.53635   0.54191   0.54604   0.54972
 Alpha virt. eigenvalues --    0.55325   0.55957   0.56233   0.56609   0.56955
 Alpha virt. eigenvalues --    0.57313   0.57575   0.57715   0.57781   0.57878
 Alpha virt. eigenvalues --    0.58403   0.58633   0.58719   0.59048   0.59306
 Alpha virt. eigenvalues --    0.59685   0.59808   0.60270   0.60341   0.61023
 Alpha virt. eigenvalues --    0.61248   0.61706   0.61869   0.62127   0.62431
 Alpha virt. eigenvalues --    0.62804   0.62961   0.63721   0.63962   0.64241
 Alpha virt. eigenvalues --    0.64715   0.64919   0.65092   0.65295   0.65714
 Alpha virt. eigenvalues --    0.66100   0.66793   0.66915   0.67235   0.67701
 Alpha virt. eigenvalues --    0.68491   0.68631   0.69417   0.69719   0.70301
 Alpha virt. eigenvalues --    0.70538   0.70633   0.71037   0.71221   0.71632
 Alpha virt. eigenvalues --    0.71735   0.71967   0.72193   0.72781   0.73195
 Alpha virt. eigenvalues --    0.73558   0.74296   0.74718   0.74966   0.75606
 Alpha virt. eigenvalues --    0.75694   0.75953   0.76420   0.76810   0.77607
 Alpha virt. eigenvalues --    0.78165   0.78257   0.78839   0.78859   0.79338
 Alpha virt. eigenvalues --    0.79597   0.80191   0.80745   0.81246   0.81617
 Alpha virt. eigenvalues --    0.82092   0.82216   0.82660   0.83053   0.83206
 Alpha virt. eigenvalues --    0.83466   0.83676   0.84120   0.84225   0.84522
 Alpha virt. eigenvalues --    0.84814   0.85088   0.85367   0.85489   0.85657
 Alpha virt. eigenvalues --    0.85836   0.86296   0.86427   0.87173   0.87498
 Alpha virt. eigenvalues --    0.87565   0.87850   0.88111   0.88378   0.88826
 Alpha virt. eigenvalues --    0.88916   0.88987   0.89076   0.89274   0.89788
 Alpha virt. eigenvalues --    0.90034   0.90227   0.90380   0.90581   0.90831
 Alpha virt. eigenvalues --    0.91161   0.91440   0.91734   0.92146   0.92279
 Alpha virt. eigenvalues --    0.92657   0.92928   0.93445   0.93774   0.93947
 Alpha virt. eigenvalues --    0.94105   0.94361   0.94745   0.95211   0.95515
 Alpha virt. eigenvalues --    0.95778   0.95924   0.96232   0.96670   0.96884
 Alpha virt. eigenvalues --    0.97174   0.97401   0.98316   0.98393   0.98595
 Alpha virt. eigenvalues --    0.98888   0.99759   1.00178   1.00571   1.00746
 Alpha virt. eigenvalues --    1.00985   1.02033   1.02564   1.02934   1.03950
 Alpha virt. eigenvalues --    1.04505   1.04916   1.05337   1.05943   1.06298
 Alpha virt. eigenvalues --    1.07038   1.07335   1.08107   1.08636   1.08955
 Alpha virt. eigenvalues --    1.09754   1.10427   1.12046   1.12596   1.12908
 Alpha virt. eigenvalues --    1.13359   1.14449   1.14838   1.15490   1.16493
 Alpha virt. eigenvalues --    1.17107   1.17256   1.17661   1.18416   1.19416
 Alpha virt. eigenvalues --    1.19840   1.20214   1.20661   1.21211   1.21389
 Alpha virt. eigenvalues --    1.21734   1.22776   1.23040   1.24041   1.24634
 Alpha virt. eigenvalues --    1.25147   1.25803   1.26330   1.27197   1.27547
 Alpha virt. eigenvalues --    1.28170   1.29092   1.29213   1.30729   1.31808
 Alpha virt. eigenvalues --    1.32893   1.33132   1.34549   1.34741   1.35499
 Alpha virt. eigenvalues --    1.36147   1.37436   1.37756   1.38340   1.38677
 Alpha virt. eigenvalues --    1.39324   1.39655   1.40641   1.41342   1.41752
 Alpha virt. eigenvalues --    1.42025   1.42802   1.43268   1.43932   1.44545
 Alpha virt. eigenvalues --    1.44671   1.45710   1.45809   1.46356   1.46745
 Alpha virt. eigenvalues --    1.47338   1.48063   1.48409   1.48712   1.49184
 Alpha virt. eigenvalues --    1.49461   1.51172   1.51563   1.51944   1.52411
 Alpha virt. eigenvalues --    1.52506   1.53720   1.55173   1.57005   1.57917
 Alpha virt. eigenvalues --    1.58862   1.60372   1.61181   1.61701   1.63085
 Alpha virt. eigenvalues --    1.63983   1.64252   1.64871   1.65336   1.66139
 Alpha virt. eigenvalues --    1.66604   1.66950   1.67513   1.68664   1.69035
 Alpha virt. eigenvalues --    1.69887   1.70757   1.71668   1.71994   1.72112
 Alpha virt. eigenvalues --    1.72380   1.74213   1.74995   1.75222   1.76350
 Alpha virt. eigenvalues --    1.76860   1.78029   1.78128   1.78628   1.79303
 Alpha virt. eigenvalues --    1.79587   1.80677   1.81345   1.81403   1.81985
 Alpha virt. eigenvalues --    1.82097   1.82945   1.83495   1.84284   1.84481
 Alpha virt. eigenvalues --    1.84924   1.85651   1.86231   1.86519   1.86663
 Alpha virt. eigenvalues --    1.87157   1.87547   1.88019   1.88456   1.89047
 Alpha virt. eigenvalues --    1.89491   1.89751   1.90669   1.91274   1.91424
 Alpha virt. eigenvalues --    1.91685   1.92080   1.92157   1.92435   1.92758
 Alpha virt. eigenvalues --    1.93051   1.93295   1.93677   1.93946   1.94489
 Alpha virt. eigenvalues --    1.95059   1.95372   1.96054   1.96648   1.97135
 Alpha virt. eigenvalues --    1.97779   1.98592   1.99050   1.99850   2.00777
 Alpha virt. eigenvalues --    2.01027   2.02408   2.02713   2.03145   2.03714
 Alpha virt. eigenvalues --    2.03830   2.04794   2.05284   2.05544   2.06021
 Alpha virt. eigenvalues --    2.06835   2.07048   2.07397   2.07538   2.07903
 Alpha virt. eigenvalues --    2.08714   2.09113   2.09281   2.09967   2.10159
 Alpha virt. eigenvalues --    2.10966   2.11495   2.12286   2.12846   2.13135
 Alpha virt. eigenvalues --    2.13896   2.14090   2.14412   2.15063   2.15125
 Alpha virt. eigenvalues --    2.15271   2.15742   2.16193   2.16475   2.17336
 Alpha virt. eigenvalues --    2.17700   2.18160   2.18753   2.19083   2.19433
 Alpha virt. eigenvalues --    2.19572   2.19892   2.20281   2.20518   2.20713
 Alpha virt. eigenvalues --    2.21533   2.21754   2.22880   2.23116   2.23447
 Alpha virt. eigenvalues --    2.23615   2.24013   2.24287   2.24749   2.25545
 Alpha virt. eigenvalues --    2.25902   2.26660   2.26730   2.27072   2.27509
 Alpha virt. eigenvalues --    2.28162   2.28547   2.29038   2.29229   2.30152
 Alpha virt. eigenvalues --    2.30429   2.30762   2.32005   2.32693   2.32878
 Alpha virt. eigenvalues --    2.33460   2.33582   2.33834   2.34122   2.34505
 Alpha virt. eigenvalues --    2.35894   2.36522   2.36751   2.38189   2.38877
 Alpha virt. eigenvalues --    2.39549   2.40531   2.40856   2.43336   2.44758
 Alpha virt. eigenvalues --    2.45230   2.46442   2.47177   2.47630   2.47944
 Alpha virt. eigenvalues --    2.48443   2.49244   2.49721   2.49810   2.50515
 Alpha virt. eigenvalues --    2.53352   2.54052   2.55229   2.55811   2.57629
 Alpha virt. eigenvalues --    2.60106   2.60870   2.61264   2.62055   2.62151
 Alpha virt. eigenvalues --    2.62541   2.64290   2.64735   2.64972   2.65610
 Alpha virt. eigenvalues --    2.66385   2.67920   2.68626   2.69101   2.69610
 Alpha virt. eigenvalues --    2.72207   2.73053   2.77018   2.77083   2.77215
 Alpha virt. eigenvalues --    2.78281   2.78460   2.78657   2.78963   2.79702
 Alpha virt. eigenvalues --    2.79961   2.80635   2.81230   2.81793   2.82393
 Alpha virt. eigenvalues --    2.83785   2.85066   2.85822   2.88814   2.91319
 Alpha virt. eigenvalues --    2.92249   2.92537   2.95047   2.95638   2.96022
 Alpha virt. eigenvalues --    2.98265   2.99391   3.00812   3.03227   3.05340
 Alpha virt. eigenvalues --    3.05783   3.06563   3.12708   3.13143   3.14756
 Alpha virt. eigenvalues --    3.22653   3.25694   3.30753   3.44894  11.56307
          Condensed to atoms (all electrons):
 Mulliken charges:
               1
     1  C    0.282616
     2  C    0.071529
     3  C   -0.167791
     4  C   -0.142255
     5  C   -0.169876
     6  C    0.329933
     7  C    0.063389
     8  C   -0.173542
     9  C   -0.138679
    10  C   -0.165832
    11  H    0.182300
    12  H    0.184086
    13  H    0.179644
    14  H    0.205599
    15  H    0.183166
    16  H    0.173862
    17  N   -0.461890
    18  N   -0.519824
    19  Ir  -0.225721
    20  O   -0.498027
    21  O   -0.505236
    22  O   -0.495369
    23  B    0.495557
    24  B    0.510094
    25  B    0.495520
    26  O   -0.537926
    27  O   -0.503659
    28  C    0.298150
    29  C    0.292610
    30  C    0.282458
    31  C    0.298395
    32  C    0.293889
    33  C    0.291544
    34  O   -0.503672
    35  C   -0.508941
    36  H    0.166976
    37  H    0.149994
    38  H    0.176299
    39  C   -0.511141
    40  H    0.188944
    41  H    0.149610
    42  H    0.167764
    43  C   -0.505850
    44  H    0.176640
    45  H    0.151755
    46  H    0.168919
    47  C   -0.511011
    48  H    0.156111
    49  H    0.169791
    50  H    0.159770
    51  C   -0.509245
    52  H    0.162937
    53  H    0.155333
    54  H    0.165302
    55  C   -0.506199
    56  H    0.150217
    57  H    0.171562
    58  H    0.169759
    59  C   -0.515915
    60  H    0.166495
    61  H    0.153313
    62  H    0.172396
    63  C   -0.486576
    64  H    0.152082
    65  H    0.177138
    66  H    0.146397
    67  C   -0.504482
    68  H    0.163866
    69  H    0.153350
    70  H    0.161983
    71  C   -0.502721
    72  H    0.168597
    73  H    0.162626
    74  H    0.155061
    75  C   -0.506895
    76  H    0.172803
    77  H    0.168134
    78  H    0.145823
    79  C   -0.506429
    80  H    0.173393
    81  H    0.138219
    82  H    0.186807
    83  H    0.188905
    84  C    0.567284
    85  O   -0.534110
    86  C   -0.403726
    87  H    0.181241
    88  H    0.152141
    89  C   -0.342909
    90  H    0.164028
    91  H    0.163211
    92  N   -0.371200
    93  C   -0.360682
    94  H    0.178311
    95  H    0.168377
    96  H    0.179518
    97  C   -0.470165
    98  H    0.152450
    99  H    0.179874
   100  H    0.178277
   101  H    0.180680
   102  H    0.142692
 Sum of Mulliken charges =  -0.00000
 Mulliken charges with hydrogens summed into heavy atoms:
               1
     1  C    0.282616
     2  C    0.253828
     3  C    0.012890
     4  C    0.041831
     5  C    0.009768
     6  C    0.329933
     7  C    0.268989
     8  C    0.004735
     9  C    0.044487
    10  C    0.008030
    17  N   -0.461890
    18  N   -0.519824
    19  Ir  -0.036817
    20  O   -0.498027
    21  O   -0.505236
    22  O   -0.495369
    23  B    0.495557
    24  B    0.510094
    25  B    0.495520
    26  O   -0.537926
    27  O   -0.503659
    28  C    0.298150
    29  C    0.292610
    30  C    0.282458
    31  C    0.298395
    32  C    0.293889
    33  C    0.291544
    34  O   -0.503672
    35  C   -0.015672
    39  C   -0.004823
    43  C   -0.008536
    47  C   -0.025339
    51  C   -0.025672
    55  C   -0.014661
    59  C   -0.023711
    63  C   -0.010959
    67  C   -0.025283
    71  C   -0.016438
    75  C   -0.020136
    79  C   -0.008009
    84  C    0.567284
    85  O   -0.534110
    86  C   -0.070343
    89  C   -0.015671
    92  N   -0.371200
    93  C    0.165524
    97  C    0.004850
 APT charges:
               1
     1  C    0.218355
     2  C    0.085651
     3  C   -0.048772
     4  C    0.104142
     5  C   -0.197183
     6  C    0.183465
     7  C    0.047548
     8  C   -0.061238
     9  C    0.118180
    10  C   -0.179941
    11  H    0.059527
    12  H    0.033509
    13  H    0.049477
    14  H    0.105573
    15  H    0.031396
    16  H    0.043548
    17  N   -0.196914
    18  N   -0.072914
    19  Ir  -0.799958
    20  O   -1.000834
    21  O   -0.915514
    22  O   -0.955283
    23  B    1.239512
    24  B    1.281572
    25  B    1.317103
    26  O   -1.018102
    27  O   -0.964569
    28  C    0.514933
    29  C    0.510866
    30  C    0.492219
    31  C    0.504694
    32  C    0.478649
    33  C    0.497454
    34  O   -0.996518
    35  C   -0.005774
    36  H    0.003060
    37  H   -0.018419
    38  H    0.004527
    39  C   -0.034201
    40  H    0.012065
    41  H   -0.022730
    42  H   -0.005272
    43  C   -0.023432
    44  H    0.000719
    45  H   -0.024126
    46  H   -0.005800
    47  C   -0.020783
    48  H   -0.010600
    49  H    0.003541
    50  H    0.001595
    51  C   -0.044795
    52  H    0.003188
    53  H   -0.017501
    54  H    0.011446
    55  C   -0.000213
    56  H   -0.016309
    57  H   -0.001350
    58  H    0.002532
    59  C   -0.012957
    60  H    0.002911
    61  H   -0.018692
    62  H    0.008987
    63  C   -0.029763
    64  H    0.001133
    65  H    0.011152
    66  H   -0.026973
    67  C   -0.007374
    68  H   -0.000312
    69  H   -0.020037
    70  H   -0.000090
    71  C   -0.039570
    72  H    0.005619
    73  H    0.002253
    74  H   -0.021045
    75  C   -0.006809
    76  H   -0.000164
    77  H    0.000672
    78  H   -0.019129
    79  C   -0.044666
    80  H    0.002771
    81  H   -0.029002
    82  H    0.038474
    83  H   -0.002164
    84  C    0.908656
    85  O   -0.755089
    86  C    0.018559
    87  H   -0.013994
    88  H   -0.031321
    89  C    0.352085
    90  H   -0.046457
    91  H   -0.079403
    92  N   -0.790555
    93  C    0.231392
    94  H    0.030832
    95  H   -0.044268
    96  H    0.005325
    97  C    0.065825
    98  H   -0.001148
    99  H    0.003397
   100  H    0.041423
   101  H    0.036489
   102  H   -0.027972
 Sum of APT charges =  -0.00000
 APT charges with hydrogens summed into heavy atoms:
               1
     1  C    0.218355
     2  C    0.145178
     3  C   -0.012283
     4  C    0.137652
     5  C   -0.147707
     6  C    0.183465
     7  C    0.153122
     8  C   -0.019815
     9  C    0.149576
    10  C   -0.136393
    17  N   -0.196914
    18  N   -0.072914
    19  Ir  -0.802122
    20  O   -1.000834
    21  O   -0.915514
    22  O   -0.955283
    23  B    1.239512
    24  B    1.281572
    25  B    1.317103
    26  O   -1.018102
    27  O   -0.964569
    28  C    0.514933
    29  C    0.510866
    30  C    0.492219
    31  C    0.504694
    32  C    0.478649
    33  C    0.497454
    34  O   -0.996518
    35  C   -0.016606
    39  C   -0.050138
    43  C   -0.052639
    47  C   -0.026247
    51  C   -0.047662
    55  C   -0.015340
    59  C   -0.019750
    63  C   -0.044452
    67  C   -0.027813
    71  C   -0.052743
    75  C   -0.025430
    79  C   -0.032422
    84  C    0.908656
    85  O   -0.755089
    86  C   -0.026756
    89  C    0.226225
    92  N   -0.790555
    93  C    0.223281
    97  C    0.040102
 Electronic spatial extent (au):  <R**2>=          23771.2881
 Charge=              0.0000 electrons
 Dipole moment (field-independent basis, Debye):
    X=             -1.0380    Y=              2.9693    Z=              3.3201  Tot=              4.5735
 Quadrupole moment (field-independent basis, Debye-Ang):
   XX=           -296.6030   YY=           -275.8255   ZZ=           -282.0586
   XY=             21.3299   XZ=              3.7124   YZ=             -9.4338
 Traceless Quadrupole moment (field-independent basis, Debye-Ang):
   XX=            -11.7740   YY=              9.0036   ZZ=              2.7704
   XY=             21.3299   XZ=              3.7124   YZ=             -9.4338
 Octapole moment (field-independent basis, Debye-Ang**2):
  XXX=            -79.4922  YYY=             40.2741  ZZZ=             13.9929  XYY=            -14.4285
  XXY=            125.0027  XXZ=             28.2184  XZZ=             43.1212  YZZ=            -31.4329
  YYZ=            -42.8882  XYZ=             -5.0185
 Hexadecapole moment (field-independent basis, Debye-Ang**3):
 XXXX=         -14898.3422 YYYY=         -10848.8948 ZZZZ=          -6032.6498 XXXY=            624.8760
 XXXZ=             46.0769 YYYX=             90.0062 YYYZ=            -70.1478 ZZZX=            140.6804
 ZZZY=           -152.2743 XXYY=          -4217.8923 XXZZ=          -3179.3645 YYZZ=          -2798.3390
 XXYZ=             40.1124 YYXZ=             55.9113 ZZXY=            -56.7946
 N-N= 7.493006043392D+03 E-N=-1.998974925501D+04  KE= 2.074782359195D+03
  Exact polarizability:     516.602      26.966     464.032      19.918     -32.798     415.864
 Approx polarizability:     722.141      50.030     670.208      51.932     -72.993     656.241
   1 Symmetry operations used in ECPInt.
 ECPInt:  NShTT=   45753 NPrTT=  276657 LenC2=   36423 LenP2D=  114290.
 LDataN:  DoStor=T MaxTD1= 8 Len=  415
 Calling FoFJK, ICntrl=    100127 FMM=F ISym2X=0 I1Cent= 0 IOpClX= 0 NMat=1 NMatS=1 NMatT=0.
 Defaulting to unpruned grid for atomic number  77.
 Defaulting to unpruned grid for atomic number  77.
 Defaulting to unpruned grid for atomic number  77.
 Defaulting to unpruned grid for atomic number  77.
 Defaulting to unpruned grid for atomic number  77.
 Defaulting to unpruned grid for atomic number  77.
 Defaulting to unpruned grid for atomic number  77.
 Defaulting to unpruned grid for atomic number  77.
 Defaulting to unpruned grid for atomic number  77.
 Defaulting to unpruned grid for atomic number  77.
 Defaulting to unpruned grid for atomic number  77.
 Defaulting to unpruned grid for atomic number  77.
 Defaulting to unpruned grid for atomic number  77.
 Defaulting to unpruned grid for atomic number  77.
 Defaulting to unpruned grid for atomic number  77.
 Defaulting to unpruned grid for atomic number  77.
 Full mass-weighted force constant matrix:
 Low frequencies ---  -32.2044   -4.1102   -0.0003    0.0003    0.0004    6.2488
 Low frequencies ---   12.6229   27.8423   29.7812
 ******    1 imaginary frequencies (negative Signs) ****** 
 Diagonal vibrational polarizability:
       67.7979639     120.0747405      62.7071797
 Harmonic frequencies (cm**-1), IR intensities (KM/Mole), Raman scattering
 activities (A**4/AMU), depolarization ratios for plane and unpolarized
 incident light, reduced masses (AMU), force constants (mDyne/A),
 and normal coordinates:
                      1                      2                      3
                      A                      A                      A
 Frequencies --    -31.8771                27.7544                29.7487
 Red. masses --      4.0309                 4.5866                 4.2135
 Frc consts  --      0.0024                 0.0021                 0.0022
 IR Inten    --      0.1787                 1.2063                 0.5486
  Atom AN      X      Y      Z        X      Y      Z        X      Y      Z
     1   6    -0.00  -0.02   0.03    -0.04   0.08   0.01    -0.02   0.02  -0.03
     2   6     0.00   0.01   0.05    -0.02  -0.00  -0.06    -0.01  -0.02  -0.06
     3   6     0.01  -0.00   0.06    -0.07   0.07  -0.02    -0.02  -0.00  -0.06
     4   6     0.01  -0.03   0.04    -0.11   0.16   0.05    -0.03   0.02  -0.05
     5   6     0.01  -0.04   0.03    -0.10   0.16   0.07    -0.03   0.04  -0.03
     6   6    -0.01  -0.03   0.01    -0.01   0.06   0.00    -0.02   0.03  -0.01
     7   6    -0.01  -0.03  -0.02     0.05  -0.01  -0.04    -0.02   0.03   0.01
     8   6    -0.03  -0.04  -0.02     0.05   0.00  -0.03    -0.03   0.06   0.02
     9   6    -0.03  -0.04  -0.00     0.03   0.04  -0.02    -0.03   0.07   0.02
    10   6    -0.02  -0.04   0.01    -0.00   0.07   0.00    -0.03   0.06   0.00
    11   1     0.00   0.03   0.06     0.01  -0.07  -0.11    -0.01  -0.04  -0.08
    12   1     0.02  -0.04   0.05    -0.16   0.22   0.09    -0.04   0.04  -0.05
    13   1     0.01  -0.06   0.02    -0.13   0.25   0.13    -0.03   0.06  -0.01
    14   1    -0.01  -0.03  -0.04     0.07  -0.04  -0.05    -0.01   0.02   0.01
    15   1    -0.04  -0.05   0.00     0.03   0.05  -0.02    -0.04   0.09   0.03
    16   1    -0.03  -0.04   0.03    -0.02   0.09   0.01    -0.03   0.06   0.00
    17   7    -0.00   0.00   0.04    -0.01   0.01  -0.04    -0.01  -0.01  -0.05
    18   7    -0.00  -0.03  -0.01     0.02   0.01  -0.02    -0.01   0.02  -0.01
    19  77     0.01  -0.00   0.00     0.01  -0.01  -0.03    -0.01  -0.02  -0.03
    20   8    -0.02  -0.04  -0.02     0.00  -0.00   0.00     0.03   0.04   0.01
    21   8     0.02   0.08   0.02     0.05  -0.02  -0.01    -0.01   0.05  -0.03
    22   8    -0.01   0.05  -0.02    -0.03   0.01  -0.01    -0.01  -0.04  -0.01
    23   5     0.02   0.01   0.03     0.02  -0.01  -0.01    -0.00  -0.00  -0.02
    24   5    -0.01  -0.02  -0.02     0.01  -0.01  -0.01     0.01   0.00   0.03
    25   5     0.01   0.01  -0.02    -0.01  -0.01  -0.02    -0.00  -0.03  -0.02
    26   8     0.02  -0.01  -0.05    -0.01  -0.01  -0.02     0.02  -0.03  -0.01
    27   8    -0.03  -0.01  -0.03     0.01  -0.01  -0.01     0.01  -0.02   0.09
    28   6    -0.04  -0.03  -0.04     0.02  -0.01  -0.01     0.02   0.00   0.12
    29   6    -0.03  -0.05  -0.04     0.00  -0.00   0.01     0.05   0.05   0.06
    30   6    -0.02   0.05  -0.04    -0.05   0.02  -0.00     0.01  -0.05  -0.01
    31   6    -0.00   0.02  -0.07    -0.04   0.00  -0.02     0.03  -0.04  -0.01
    32   6     0.03   0.09   0.05     0.06  -0.03   0.01    -0.01   0.07  -0.01
    33   6     0.03  -0.02   0.06     0.04  -0.00   0.03    -0.00  -0.02  -0.01
    34   8     0.04  -0.05   0.07     0.01  -0.00   0.01     0.01  -0.04  -0.00
    35   6    -0.04  -0.06  -0.05     0.00   0.00   0.03     0.05   0.07   0.05
    36   1    -0.04  -0.06  -0.05     0.02  -0.00   0.03     0.02   0.03   0.03
    37   1    -0.05  -0.07  -0.06     0.00   0.00   0.03     0.07   0.08   0.09
    38   1    -0.03  -0.08  -0.05    -0.01   0.01   0.03     0.07   0.10   0.01
    39   6    -0.02  -0.06  -0.04    -0.02  -0.00  -0.00     0.08   0.11   0.08
    40   1    -0.01  -0.07  -0.03    -0.03   0.00   0.01     0.09   0.14   0.04
    41   1    -0.04  -0.06  -0.05    -0.02   0.00   0.00     0.11   0.13   0.12
    42   1    -0.02  -0.04  -0.03    -0.02  -0.01  -0.02     0.08   0.10   0.09
    43   6    -0.05  -0.02  -0.05     0.04   0.00   0.00    -0.01  -0.05   0.12
    44   1    -0.06  -0.02  -0.04     0.05   0.00  -0.01    -0.03  -0.10   0.16
    45   1    -0.05  -0.03  -0.06     0.04   0.00   0.00     0.01  -0.03   0.14
    46   1    -0.05  -0.02  -0.05     0.04   0.01   0.01    -0.04  -0.06   0.06
    47   6    -0.06  -0.02  -0.05     0.02  -0.01  -0.02     0.05   0.02   0.19
    48   1    -0.07  -0.03  -0.06     0.03  -0.01  -0.01     0.06   0.04   0.21
    49   1    -0.06  -0.00  -0.05     0.03  -0.02  -0.02     0.03  -0.02   0.23
    50   1    -0.05  -0.02  -0.05     0.01  -0.02  -0.02     0.07   0.06   0.20
    51   6     0.07   0.15   0.17     0.07  -0.04  -0.02     0.01   0.12   0.08
    52   1     0.07   0.23   0.16     0.09  -0.06  -0.04     0.00   0.18   0.08
    53   1     0.08   0.18   0.20     0.09  -0.05  -0.01     0.01   0.14   0.10
    54   1     0.09   0.09   0.23     0.05  -0.03  -0.04     0.03   0.07   0.14
    55   6     0.01   0.16  -0.02     0.09  -0.05   0.04    -0.03   0.13  -0.07
    56   1     0.02   0.16   0.01     0.10  -0.05   0.05    -0.02   0.13  -0.06
    57   1     0.01   0.25  -0.02     0.11  -0.06   0.02    -0.03   0.20  -0.07
    58   1    -0.02   0.13  -0.09     0.09  -0.04   0.06    -0.05   0.10  -0.14
    59   6     0.08  -0.06   0.13     0.03   0.00   0.04     0.04  -0.05   0.03
    60   1     0.12  -0.03   0.17     0.02  -0.00   0.02     0.07  -0.03   0.07
    61   1     0.08  -0.04   0.13     0.05   0.00   0.06     0.04  -0.04   0.03
    62   1     0.07  -0.13   0.13     0.01   0.02   0.05     0.03  -0.10   0.04
    63   6    -0.02  -0.06  -0.02     0.04   0.01   0.06    -0.04  -0.05  -0.07
    64   1    -0.05  -0.04  -0.06     0.05  -0.00   0.05    -0.07  -0.03  -0.09
    65   1    -0.01  -0.14  -0.01     0.02   0.02   0.07    -0.02  -0.10  -0.08
    66   1    -0.03  -0.05  -0.03     0.06   0.01   0.08    -0.06  -0.05  -0.09
    67   6     0.01  -0.00  -0.08    -0.03   0.01  -0.00     0.05  -0.06  -0.01
    68   1     0.01  -0.01  -0.05    -0.01   0.02   0.02     0.03  -0.08  -0.01
    69   1     0.00   0.01  -0.09    -0.06   0.03   0.00     0.06  -0.07  -0.01
    70   1     0.02  -0.02  -0.09    -0.02   0.00  -0.02     0.06  -0.05  -0.01
    71   6    -0.01   0.02  -0.11    -0.06  -0.01  -0.05     0.04  -0.02  -0.02
    72   1    -0.02   0.04  -0.10    -0.06  -0.02  -0.06     0.03  -0.01  -0.02
    73   1    -0.00  -0.00  -0.13    -0.05  -0.02  -0.06     0.05  -0.01  -0.02
    74   1    -0.02   0.04  -0.13    -0.08   0.00  -0.05     0.05  -0.03  -0.02
    75   6    -0.05   0.08  -0.06    -0.09   0.02  -0.01     0.01  -0.05  -0.01
    76   1    -0.06   0.10  -0.03    -0.09   0.04   0.01    -0.01  -0.06  -0.00
    77   1    -0.05   0.08  -0.08    -0.09   0.01  -0.03     0.01  -0.03  -0.02
    78   1    -0.05   0.08  -0.07    -0.10   0.03  -0.00     0.02  -0.06  -0.00
    79   6    -0.01   0.05  -0.00    -0.04   0.04   0.03     0.01  -0.07   0.01
    80   1    -0.02   0.07   0.02    -0.05   0.04   0.03    -0.01  -0.07   0.01
    81   1    -0.02   0.05  -0.01    -0.05   0.04   0.04     0.02  -0.08   0.01
    82   1     0.00   0.03   0.01    -0.02   0.03   0.03     0.01  -0.08   0.01
    83   1     0.02   0.02   0.00     0.01  -0.02  -0.03    -0.02  -0.04  -0.03
    84   6     0.01   0.00   0.01    -0.02  -0.06   0.07    -0.01  -0.01   0.01
    85   8     0.00  -0.00   0.01    -0.05  -0.08   0.08    -0.01   0.01   0.03
    86   6     0.01   0.01   0.02     0.02  -0.03   0.12    -0.01  -0.03  -0.01
    87   1     0.01   0.03   0.02     0.10  -0.01   0.10    -0.00  -0.05  -0.00
    88   1     0.02   0.01   0.03    -0.00  -0.04   0.10    -0.01  -0.03  -0.03
    89   6     0.01   0.02  -0.00     0.01  -0.02  -0.01    -0.01  -0.03  -0.01
    90   1     0.02   0.03   0.01     0.04  -0.03  -0.00    -0.01  -0.04  -0.02
    91   1     0.02   0.03  -0.02     0.01  -0.01  -0.03    -0.00  -0.05   0.00
    92   7     0.01   0.01  -0.01    -0.02  -0.05   0.00    -0.01  -0.02   0.01
    93   6     0.00  -0.00  -0.02    -0.05  -0.05  -0.02    -0.01  -0.01   0.03
    94   1     0.00  -0.01  -0.05    -0.06  -0.05  -0.07    -0.01  -0.01   0.03
    95   1     0.02   0.00  -0.02    -0.02  -0.05  -0.00     0.00  -0.02   0.05
    96   1    -0.02  -0.01  -0.01    -0.10  -0.05   0.00    -0.01   0.02   0.04
    97   6     0.02   0.00   0.03     0.00  -0.01   0.23    -0.01  -0.02  -0.01
    98   1     0.02  -0.01   0.03    -0.08  -0.03   0.25    -0.02   0.01  -0.01
    99   1     0.01   0.00   0.02     0.03   0.01   0.26    -0.01  -0.02   0.02
   100   1    -0.03  -0.04  -0.03     0.08  -0.02  -0.05    -0.03   0.07   0.04
   101   1     0.02   0.01   0.07    -0.07   0.06  -0.04    -0.03  -0.01  -0.08
   102   1     0.02   0.01   0.04     0.03   0.02   0.28    -0.01  -0.03  -0.03
                      4                      5                      6
                      A                      A                      A
 Frequencies --     37.1386                44.2746                49.4647
 Red. masses --      4.7918                 3.6381                 4.4341
 Frc consts  --      0.0039                 0.0042                 0.0064
 IR Inten    --      0.3907                 0.1055                 0.3111
  Atom AN      X      Y      Z        X      Y      Z        X      Y      Z
     1   6    -0.03  -0.01   0.04     0.01   0.01  -0.02    -0.02  -0.00   0.02
     2   6    -0.02   0.01   0.06    -0.01   0.02  -0.00     0.01  -0.03  -0.01
     3   6    -0.06   0.06   0.12    -0.01   0.02  -0.01     0.01  -0.02   0.00
     4   6    -0.08   0.07   0.15     0.00   0.02  -0.02    -0.01  -0.02   0.02
     5   6    -0.07   0.03   0.11     0.01   0.01  -0.02    -0.02  -0.01   0.03
     6   6    -0.01  -0.05  -0.00     0.03  -0.01  -0.03    -0.05   0.02   0.04
     7   6    -0.01  -0.07  -0.04     0.03   0.00  -0.01    -0.03  -0.01  -0.01
     8   6     0.01  -0.11  -0.07     0.06  -0.03  -0.04    -0.08   0.05   0.05
     9   6     0.02  -0.13  -0.06     0.08  -0.05  -0.07    -0.13   0.11   0.11
    10   6     0.01  -0.10  -0.03     0.06  -0.04  -0.06    -0.11   0.09   0.10
    11   1     0.00   0.00   0.04    -0.02   0.03   0.01     0.03  -0.04  -0.03
    12   1    -0.12   0.11   0.20    -0.00   0.02  -0.02    -0.00  -0.02   0.03
    13   1    -0.09   0.05   0.13     0.02   0.02  -0.03    -0.03  -0.01   0.03
    14   1    -0.01  -0.05  -0.05     0.01   0.02   0.01     0.01  -0.05  -0.05
    15   1     0.03  -0.16  -0.09     0.11  -0.07  -0.09    -0.19   0.16   0.16
    16   1     0.01  -0.12  -0.03     0.08  -0.06  -0.08    -0.15   0.14   0.15
    17   7    -0.01  -0.02   0.03     0.00   0.01  -0.01    -0.00  -0.02  -0.00
    18   7    -0.01  -0.05  -0.01     0.02   0.01  -0.01    -0.01  -0.02  -0.01
    19  77    -0.00  -0.02  -0.01     0.00   0.01   0.00     0.01  -0.02  -0.02
    20   8     0.03   0.01  -0.04    -0.01  -0.01  -0.00    -0.00  -0.01   0.02
    21   8     0.01   0.03  -0.01    -0.01   0.03  -0.00     0.05  -0.03   0.01
    22   8    -0.01  -0.05   0.01     0.10  -0.03  -0.03     0.06  -0.03  -0.05
    23   5    -0.00   0.01  -0.01     0.00   0.01   0.00     0.02  -0.01   0.00
    24   5     0.01  -0.01  -0.01    -0.01   0.01   0.00     0.01  -0.02  -0.01
    25   5    -0.01  -0.02   0.01     0.01   0.00   0.01     0.00  -0.01  -0.03
    26   8    -0.02  -0.00   0.04    -0.07   0.03   0.03    -0.06   0.01  -0.01
    27   8     0.01  -0.02   0.02    -0.03   0.01   0.02     0.03  -0.03  -0.02
    28   6     0.04  -0.00  -0.00    -0.04   0.00   0.02     0.03  -0.02   0.00
    29   6     0.06   0.01  -0.03    -0.02  -0.00   0.01    -0.01  -0.01   0.03
    30   6    -0.02  -0.05   0.04     0.06  -0.01  -0.03     0.01   0.01  -0.06
    31   6    -0.02  -0.02   0.06    -0.05   0.02   0.04    -0.07   0.01  -0.01
    32   6     0.00   0.05  -0.00    -0.00   0.02   0.00     0.05  -0.02   0.02
    33   6    -0.00   0.04   0.00     0.00  -0.02   0.00     0.03  -0.00   0.04
    34   8    -0.01   0.02  -0.00     0.01  -0.00   0.00     0.01   0.00   0.02
    35   6     0.06   0.03  -0.07    -0.03  -0.02   0.00    -0.00   0.00   0.07
    36   1     0.04   0.03  -0.08    -0.04  -0.04  -0.00     0.03   0.00   0.09
    37   1     0.09   0.04  -0.06    -0.04  -0.02   0.01    -0.00   0.00   0.07
    38   1     0.08   0.05  -0.09    -0.02  -0.02  -0.01    -0.03   0.00   0.09
    39   6     0.09   0.01  -0.02    -0.01   0.02   0.01    -0.05  -0.01   0.01
    40   1     0.10   0.03  -0.04     0.00   0.02   0.00    -0.07  -0.01   0.03
    41   1     0.12   0.02  -0.01    -0.02   0.02   0.02    -0.05  -0.01   0.01
    42   1     0.09  -0.00   0.00    -0.01   0.03   0.02    -0.05  -0.02  -0.02
    43   6     0.01   0.01  -0.02    -0.06  -0.03   0.02     0.07  -0.01   0.02
    44   1    -0.00   0.00  -0.01    -0.07  -0.03   0.03     0.09  -0.02  -0.00
    45   1     0.03   0.03  -0.05    -0.07  -0.03   0.03     0.07  -0.00   0.04
    46   1    -0.01   0.03  -0.04    -0.05  -0.04   0.01     0.07  -0.00   0.04
    47   6     0.08  -0.02   0.02    -0.06   0.02   0.04     0.03  -0.03  -0.02
    48   1     0.11  -0.00   0.01    -0.07   0.01   0.04     0.03  -0.02  -0.00
    49   1     0.07  -0.04   0.04    -0.07   0.03   0.05     0.06  -0.04  -0.04
    50   1     0.09  -0.03   0.03    -0.04   0.04   0.05    -0.00  -0.04  -0.04
    51   6     0.00   0.05   0.01     0.02   0.04   0.03     0.04  -0.02   0.02
    52   1     0.00   0.05   0.00     0.02   0.07   0.03     0.05  -0.03   0.01
    53   1     0.00   0.06   0.01     0.02   0.03   0.04     0.05  -0.01   0.03
    54   1    -0.01   0.05   0.01     0.04   0.03   0.05     0.03  -0.02   0.01
    55   6     0.01   0.06  -0.01    -0.02   0.04  -0.02     0.08  -0.02   0.04
    56   1     0.01   0.07  -0.01    -0.01   0.02  -0.01     0.08  -0.01   0.05
    57   1     0.02   0.07  -0.02    -0.02   0.07  -0.02     0.09  -0.03   0.02
    58   1     0.02   0.06  -0.02    -0.04   0.03  -0.04     0.08  -0.01   0.04
    59   6    -0.01   0.05   0.02     0.04  -0.05   0.01     0.03  -0.00   0.04
    60   1    -0.02   0.05   0.03     0.07  -0.03   0.04     0.03  -0.00   0.04
    61   1    -0.01   0.07   0.02     0.02  -0.05  -0.01     0.03  -0.00   0.04
    62   1    -0.01   0.04   0.02     0.06  -0.09  -0.01     0.03  -0.00   0.04
    63   6     0.01   0.04  -0.02    -0.03  -0.04  -0.01     0.03   0.00   0.06
    64   1     0.02   0.04  -0.03    -0.06  -0.02  -0.02     0.04  -0.00   0.06
    65   1     0.00   0.03  -0.01    -0.03  -0.06  -0.01     0.01   0.01   0.07
    66   1     0.02   0.07  -0.01    -0.04  -0.05  -0.02     0.05   0.00   0.08
    67   6    -0.02   0.00   0.08    -0.14   0.10   0.01    -0.14   0.07  -0.04
    68   1    -0.02   0.01   0.07    -0.17   0.14  -0.11    -0.14   0.11  -0.11
    69   1    -0.02  -0.01   0.10    -0.10   0.07   0.01    -0.12   0.06  -0.05
    70   1    -0.02   0.02   0.10    -0.23   0.14   0.09    -0.20   0.08   0.00
    71   6    -0.02  -0.03   0.09    -0.06  -0.05   0.16    -0.08  -0.04   0.06
    72   1    -0.02  -0.05   0.07    -0.01  -0.11   0.18    -0.04  -0.08   0.08
    73   1    -0.02  -0.01   0.10    -0.14  -0.02   0.21    -0.14  -0.04   0.09
    74   1    -0.02  -0.05   0.11    -0.06  -0.06   0.18    -0.08  -0.04   0.06
    75   6    -0.03  -0.09   0.06     0.13  -0.07   0.00     0.04  -0.03  -0.04
    76   1    -0.03  -0.11   0.04     0.22  -0.08  -0.06     0.10  -0.03  -0.07
[...]
 000088,0.00000089,-0.00000044,-0.00000309,0.00000185,0.00000179,0.0000
 0162,0.00000120,-0.00000080,-0.00000239,-0.00000074,0.00000237,-0.0000
 0058,-0.00000078,-0.00000234,-0.00000744,0.00000037,0.00000644,0.00000
 194,-0.00000093,0.00000112,-0.00000019,-0.00000149,-0.00000160,-0.0000
 0356,0.00000396,0.00000171,-0.00000067,-0.00000863,-0.00000820,0.00000
 176,0.00000160,0.00000028,-0.00000529,-0.00000556,-0.00000018,0.000000
 49,0.00000044,0.00000276,-0.00000612,-0.00000799,-0.00000523,-0.000000
 05,0.00000423,0.00000040,0.00000015,0.00000033,0.00000240,0.00000137,-
 0.00000673,-0.00000366,-0.00000915,-0.00000700,0.00000215,-0.00000218,
 0.00000242,-0.00000263,0.00000332,-0.00000062,0.00000164,-0.00000119,-
 0.00000505,-0.00000498,-0.00000337,-0.00000852,-0.00000027,0.00000012,
 0.00000218,-0.00000136,-0.00000626,-0.00000295,0.00000016,0.00000419,0
 .00000154,0.00000019,-0.00003363,-0.00001539,-0.00001124,-0.00025648,-
 0.00008735,0.00011523,0.00011046,0.00005075,-0.00005981,0.00003602,0.0
 0003710,-0.00013904,0.00001990,-0.00004977,-0.00001533,-0.00012954,0.0
 0001779,0.00016637,-0.00011555,-0.00007643,-0.00004046,-0.00000119,-0.
 00000061,0.00002670,0.00003554,-0.00002508,-0.00000564,0.00017105,0.00
 005090,-0.00005451,0.00000546,-0.00000386,0.00000624,0.00000174,0.0000
 1147,-0.00000303,0.00000199,0.00000013,-0.00000666,-0.00000417,0.00000
 490,-0.00000027,-0.00003033,-0.00007221,0.00010614,-0.00001392,-0.0000
 0563,-0.00000434,0.00001558,0.00003898,-0.00002007,-0.00001465,0.00001
 213,0.00001780,0.06715734,0.22485802,-0.00091917,-0.00042352,-0.000670
 81,-0.00116299,-0.00588967,0.00552765,0.03418535,0.13811641,-0.1472341
 9,0.00840618,0.01703372,-0.00861540,-0.00516360,0.00301598,0.00027311,
 0.00044017,-0.00066599,-0.00035979,0.00002208,0.00005369,-0.00006216,0
 .00007720,0.00000692,0.00004358,-0.00002422,-0.00009079,0.00003347,-0.
 00004436,0.00009733,-0.00010539,0.00119440,-0.00112235,-0.00112291,0.0
 0134567,-0.00189937,-0.00068774,0.00040472,0.00090328,-0.00036197,-0.0
 0000396,0.00000372,-0.00000718,0.00000079,-0.00000082,-0.00000641,0.00
 000602,0.00001948,0.00008150,-0.00385194,0.00142395,0.00414818,-0.0000
 1625,0.00000450,0.00005129,0.00021953,0.00012161,-0.00003671,0.0000349
 7,-0.00008823,0.00001328,0.00003505,-0.00001198,-0.00002611,0.00001212
 ,0.00000358,0.00000480,-0.00004175,-0.00000659,0.00002125,-0.00003936,
 0.00012982,0.00001137,-0.00002980,-0.00003341,0.00000660,0.00000485,-0
 .00000791,0.00000534,0.00015452,-0.00020637,-0.00005211,-0.00001097,0.
 00016096,-0.00008784,0.00001677,0.00003412,0.00003437,-0.00000656,-0.0
 0000789,-0.00000088,-0.00000994,-0.00000698,-0.00000158,-0.00001502,0.
 00000252,0.00000688,-0.00001527,0.00001064,0.00000851,0.00004818,0.000
 00142,-0.00001795,0.00000073,-0.00000177,-0.00000746,0.00000376,0.0000
 0158,-0.00000113,0.00000373,-0.00000424,0.00000379,-0.00000317,-0.0000
 0142,-0.00000231,-0.00001888,-0.00000420,-0.00001288,-0.00000213,-0.00
 000379,-0.00000357,0.00000247,-0.00000431,0.00000821,0.00000316,0.0000
 0124,0.00000487,0.00001984,-0.00002185,0.00001910,-0.00000088,0.000002
 81,-0.00001550,0.00000762,-0.00000670,-0.00000776,-0.00001119,-0.00000
 505,0.00000543,0.00001501,0.00003894,0.00009973,-0.00002910,-0.0000145
 9,-0.00001339,0.00004987,-0.00005277,-0.00007836,0.00006117,0.00000827
 ,0.00002559,0.00000280,0.,-0.00000410,-0.00000195,0.00000239,0.0000066
 4,0.00000381,0.00000004,-0.00000091,-0.00000376,-0.00000383,-0.0000027
 4,0.00000089,0.00000187,-0.00000194,0.00000161,-0.00000083,-0.00000139
 ,-0.00000113,0.00000144,-0.00000011,0.00000154,-0.00000254,0.00000148,
 0.00000289,-0.00000194,-0.00000132,-0.00000081,-0.00000220,0.00000033,
 0.00000144,0.00000085,-0.00000165,0.00000031,0.00000071,0.00000138,0.0
 0000436,0.00000085,0.00000023,-0.00000170,0.00000024,0.00000033,-0.000
 00030,-0.00000034,0.00000091,0.00000197,-0.00000113,-0.00000131,0.0000
 0041,0.,-0.00000249,0.00000046,-0.00000044,-0.00000068,0.00000017,0.00
 000038,0.00000144,-0.00000038,-0.00000114,0.00000027,-0.00000186,0.000
 00061,0.00000098,0.00000017,0.00000066,-0.00000290,-0.00000065,-0.0000
 0270,0.00000100,0.00000200,0.00000108,0.00000090,-0.00000066,-0.000000
 12,0.00000165,-0.00000051,-0.00000068,0.00000059,0.00000086,-0.0000011
 6,-0.00000081,0.00000068,0.00000103,-0.00000078,0.00000155,-0.00000030
 ,-0.00000025,-0.00000019,-0.00000024,0.00000107,0.00000095,0.00000106,
 -0.00000007,-0.00000063,-0.00000005,-0.00000045,-0.00002257,-0.0000223
 6,0.00001322,-0.00003827,0.00000225,-0.00000300,0.00001293,0.00001843,
 0.00001694,0.00002973,0.00001421,-0.00003567,0.00000145,-0.00001354,-0
 .00000045,-0.00006452,0.00005889,0.00005135,-0.00002580,-0.00010938,-0
 .00007454,-0.00001103,0.00000132,0.00001628,0.00001386,-0.00000001,0.0
 0000730,0.00000237,0.00002253,0.00000913,-0.00000377,-0.00001704,-0.00
 000443,-0.00000169,0.00000215,-0.00000359,-0.00000182,0.00000462,0.000
 00285,0.00000371,-0.00000155,-0.00000274,-0.00000507,-0.00000997,-0.00
 000874,0.00002005,0.00000637,-0.00001272,0.00000192,0.00000442,0.00000
 630,-0.00000527,0.00002137,0.00001628,-0.03528383,-0.15060225,0.149157
 75,-0.00002034,-0.00011783,-0.00000398,-0.00005027,-0.00001969,0.00003
 321,-0.00000158,-0.00003057,-0.00014113,0.00007908,-0.00008402,0.00009
 432,0.00005370,0.00004869,-0.00002970,0.00002198,-0.00003351,-0.000037
 76,0.00001323,0.00000613,-0.00002591,0.00000063,0.00001675,0.00000962,
 0.00000350,0.00000474,-0.00000329,0.00000100,0.00000477,0.00000079,-0.
 00002515,0.00000232,-0.00000341,0.00001592,0.00002795,0.00003683,-0.00
 000647,0.00000214,0.00000265,0.00000701,-0.00000082,-0.00000464,0.0000
 0076,-0.00000050,-0.00000035,0.00000209,-0.00000122,0.00000824,-0.0000
 2172,0.00002756,-0.00006545,-0.00004002,0.00002226,-0.00003076,0.00000
 826,0.00006866,0.00007302,-0.00001834,0.00005809,-0.00002463,-0.000019
 87,0.00000204,0.00002593,-0.00002708,0.00000349,-0.00002101,0.00000707
 ,0.00001751,-0.00001159,-0.00001317,-0.00010906,0.00002758,0.00006450,
 -0.00005019,0.00000321,-0.00004480,0.00002684,-0.00001064,0.00002312,0
 .00007212,-0.00001212,0.00000433,-0.00001301,0.00000270,-0.00000302,-0
 .00002815,0.00001063,0.00001003,0.00000679,0.00001014,0.00002225,0.000
 00547,0.00000515,0.00000648,-0.00000255,-0.00000091,0.00001159,-0.0000
 0721,-0.00000720,-0.00002686,0.00000084,0.00001249,0.00000121,0.000003
 75,-0.00000326,0.00000160,-0.00000169,-0.00000132,-0.00000178,0.000002
 71,-0.00000045,-0.00000002,-0.00000080,0.00000119,-0.00000391,0.000006
 67,-0.00000512,0.00000180,-0.00000116,0.00000150,-0.00000108,0.0000039
 7,-0.00000274,0.00000032,-0.00000482,0.00000281,-0.00000177,0.00000263
 ,-0.00000161,0.00000018,-0.00000033,0.00000107,-0.00000103,0.00000115,
 0.00000056,0.00000293,0.00000099,-0.00000256,-0.00000342,0.00000426,0.
 00000610,0.00000213,0.00000143,-0.00000141,0.00000056,0.00000167,0.000
 00272,-0.00000072,-0.00000164,-0.00000559,-0.00000281,-0.00000066,-0.0
 0000134,0.00000159,-0.00000069,-0.00000144,-0.00000138,-0.00000036,0.0
 0000126,0.00000109,0.00000182,0.00000071,-0.00000083,-0.00000086,0.000
 00012,-0.00000104,0.00000032,0.00000101,0.00000058,-0.00000039,0.00000
 044,-0.00000047,0.00000146,-0.00000037,-0.00000128,0.00000017,0.000001
 54,0.00000049,0.00000151,-0.00000113,-0.00000117,0.00000002,0.00000138
 ,0.00000029,-0.00000068,-0.00000100,-0.00000220,0.00000042,0.00000050,
 0.00000121,0.00000013,0.00000046,-0.00000024,-0.00000072,-0.00000067,-
 0.00000132,0.00000100,0.00000079,-0.00000272,0.00000258,0.00000142,-0.
 00000300,0.00000055,0.00000194,-0.00000111,-0.00000174,-0.00000116,0.0
 0000174,0.00000152,-0.00000162,0.00000302,-0.00000336,-0.00000249,0.00
 000315,-0.00000151,0.00001576,0.00000610,0.00001262,-0.00000778,-0.000
 01036,-0.00000312,-0.00000290,0.00000067,0.00000082,-0.00000198,-0.000
 00295,0.00000210,-0.00000228,0.00000033,-0.00000009,0.00000435,-0.0000
 0005,-0.00000094,0.00000021,-0.00000163,0.,-0.00000225,-0.00000158,0.0
 0000168,-0.00000189,-0.00000196,-0.00000104,0.00000046,0.00000132,-0.0
 0000108,0.00000013,0.00000952,-0.00001207,-0.00002430,-0.00647447,0.00
 136397,-0.00357475,0.00140128,0.00040550,-0.00013349,-0.00895818,-0.02
 498307,0.02075501,0.00132369,0.00021448,-0.00035959,0.00130045,0.00060
 554,0.00043800,0.00049034,-0.00034217,0.00024494,0.00007826,0.00006106
 ,-0.00003800,-0.00007845,0.00001998,-0.00002816,-0.00065176,-0.0020105
 1,0.00147807,-0.00059261,0.00022214,-0.00011964,-0.00004612,-0.0002137
 7,0.00010376,-0.00000751,-0.00005998,-0.00000493,0.00001767,-0.0000040
 2,0.00002411,-0.06682893,-0.05444017,0.04362199,0.00034990,0.00498404,
 -0.00267026,0.00561840,0.01252606,-0.01253751,0.00000223,-0.00000095,-
 0.00000268,-0.00002569,0.00009796,0.00000777,0.07305362,0.00000713,-0.
 00004261,-0.00001698,0.00004366,0.00001520,0.00007554,-0.00014473,0.00
 002720,0.00017220,-0.00013041,0.00006725,0.00008266,-0.00004407,0.0000
 9156,0.00000829,0.00001481,-0.00001065,-0.00004918,0.00001854,0.000002
 69,-0.00001172,-0.00001090,0.00001021,0.00000063,0.00000680,0.00001754
 ,-0.00001127,-0.00000998,-0.00001249,0.00001453,-0.00000971,-0.0000034
 5,-0.00000192,-0.00004174,-0.00000884,0.00002085,-0.00000593,-0.000010
 69,0.00000397,0.00000683,0.00000024,-0.00000103,0.00000319,-0.00000270
 ,-0.00000107,0.00000104,-0.00000395,-0.00000309,-0.00004083,0.00001930
 ,-0.00002909,-0.00002349,0.00000064,-0.00001925,-0.00002433,0.00004579
 ,0.00004306,-0.00006322,0.00009109,-0.00004979,-0.00006133,-0.00000350
 ,0.00006233,-0.00006303,-0.00003736,-0.00005474,0.00009284,0.00003953,
 -0.00005220,0.00005017,-0.00013591,0.00006885,0.00011589,0.00002084,0.
 00004027,-0.00006777,-0.00003273,-0.00002611,-0.00002854,0.00011306,-0
 .00001786,0.00003273,-0.00004578,0.00000744,0.00000207,-0.00004788,0.0
 0001885,0.00002730,0.00002714,0.00001465,0.00002857,0.00002310,0.00001
 963,0.00003098,0.00000257,-0.00001190,0.00002926,-0.00000928,-0.000021
 96,-0.00008485,-0.00001097,0.00002823,-0.00000011,0.00000326,-0.000004
 32,0.00000141,-0.00000208,-0.00000008,-0.00000185,0.00000565,-0.000000
 68,-0.00000185,-0.00000262,0.00000018,0.00000273,0.00000655,-0.0000072
 4,-0.00000114,-0.00000299,0.00000179,-0.00000148,0.00000808,-0.0000038
 9,-0.00000216,-0.00000379,0.00000643,-0.00000538,0.00000523,-0.0000012
 9,0.00000164,-0.00000278,-0.00000015,-0.00000476,0.00000516,0.00000096
 ,0.00000399,0.,-0.00000246,-0.00000359,0.00000844,0.00000110,-0.000003
 38,0.00000561,-0.00000175,0.00000300,-0.00000273,0.00000090,0.00000187
 ,-0.00000448,0.00000092,-0.00000626,-0.00000221,0.00000232,0.00000291,
 -0.00000149,-0.00000578,-0.00000535,-0.00000181,0.00000328,0.00000382,
 0.00000431,0.00000173,-0.00000250,-0.00000094,0.00000155,-0.00000408,-
 0.00000021,0.00000263,0.00000204,-0.00000033,-0.00000022,0.00000062,0.
 00000193,-0.00000125,-0.00000298,0.00000054,0.00000225,0.00000167,0.00
 000182,-0.00000100,-0.00000279,-0.00000048,0.00000343,-0.00000050,-0.0
 0000080,-0.00000310,-0.00000416,0.00000185,0.00000231,0.00000226,-0.00
 000157,-0.00000059,0.00000061,-0.00000072,-0.00000213,-0.00000407,0.00
 000211,0.00000309,-0.00000352,0.00000016,0.00000046,-0.00000216,0.0000
 0154,0.00000246,-0.00000303,-0.00000431,-0.00000239,0.00000209,0.00000
 221,-0.00000059,0.00000235,-0.00000276,-0.00000562,0.00000253,-0.00000
 016,0.00001641,0.00000556,0.00001107,-0.00000697,-0.00000970,-0.000006
 87,-0.00000353,-0.00000102,-0.00000143,-0.00000317,-0.00000378,0.00000
 418,-0.00000317,0.00000177,0.00000040,0.00000586,-0.00000121,-0.000003
 86,-0.00000063,-0.00000390,-0.00000312,-0.00000250,-0.00000089,0.00000
 334,-0.00000214,-0.00000506,-0.00000359,0.00000074,0.00000397,0.000000
 58,0.00000014,0.00001102,-0.00000600,-0.00002682,0.00075528,0.00041112
 ,0.00021776,-0.00177079,0.00009023,0.00003255,0.00027346,-0.00430498,0
 .00300895,0.00001548,-0.00024720,-0.00014392,-0.00011822,0.00043750,-0
 .00021906,0.00020170,-0.00021034,0.00010297,0.00001769,0.00001620,0.00
 002539,-0.00007096,0.00000304,-0.00002992,-0.00081257,-0.00035220,0.00
 029038,-0.00013315,0.00019844,-0.00008509,-0.00002721,-0.00006106,0.00
 001495,0.00001209,-0.00003936,0.00000661,0.00003899,0.00000551,-0.0000
 1394,-0.05451416,-0.19829939,0.11799669,0.00355969,0.00754503,-0.00597
 095,-0.00863749,-0.01663732,0.01552887,0.00000113,-0.00000408,-0.00000
 176,-0.00002200,0.00001378,0.00001203,0.06160890,0.21121905,-0.0000302
 8,0.00003023,-0.00003749,0.00009782,0.00005618,0.00001882,-0.00003480,
 -0.00002189,0.00001036,0.00012222,0.00011998,-0.00000452,-0.00007639,-
 0.00001634,-0.00008981,-0.00003386,0.00001994,0.00000433,-0.00000504,0
 .00000432,0.00000347,0.00000505,-0.00001105,0.00000468,-0.00000149,-0.
 00001545,0.00000640,-0.00001333,-0.00002100,-0.00001346,0.00000047,-0.
 00000427,-0.00000108,-0.00004047,-0.00007775,-0.00013172,-0.00001677,0
 .00003958,0.00009412,-0.00000429,-0.00000051,0.00000107,-0.00000374,-0
 .00000024,0.00000505,-0.00000812,0.00002128,0.00002215,-0.00001090,-0.
 00007534,0.00008479,0.00001743,-0.00001608,0.00002553,0.00000792,-0.00
 004621,-0.00005227,0.00001853,-0.00004911,0.00001580,0.00002202,-0.000
 00418,-0.00002237,0.00002248,0.00000226,0.00000844,-0.00002079,-0.0000
 1234,0.00001104,0.00000195,0.00009069,-0.00001308,-0.00004869,0.000019
 90,0.00000690,0.00002332,-0.00000594,0.00000371,-0.00001012,-0.0000653
 4,0.00000569,-0.00000640,0.00001854,-0.00000329,0.00000185,0.00002280,
 -0.00000292,-0.00000971,-0.00000704,-0.00000382,-0.00001220,-0.0000041
 6,-0.00000254,-0.00000957,0.00000238,0.00000322,-0.00001169,0.00000601
 ,0.00000712,0.00002742,0.00000061,-0.00001107,-0.00000019,-0.00000225,
 0.00000040,-0.00000019,0.00000129,0.00000023,0.00000129,-0.00000264,0.
 00000084,-0.00000050,0.00000064,-0.00000084,-0.00000061,-0.00000384,0.
 00000075,-0.00000255,0.00000061,-0.00000128,0.00000126,-0.00000362,0.0
 0000248,0.00000146,0.00000388,0.00000007,0.00000184,-0.00000249,0.0000
 0110,-0.00000074,0.00000063,-0.00000168,0.00000183,-0.00000159,-0.0000
 0039,-0.00000256,-0.00000099,0.00000208,0.00000154,-0.00000330,-0.0000
 0073,-0.00000062,-0.00000163,0.00000113,-0.00000071,-0.00000123,-0.000
 00468,0.00000147,0.00000249,0.00000414,0.00000233,0.00000042,-0.000000
 53,-0.00000140,0.00000122,0.00000303,0.00000220,0.00000025,-0.00000108
 ,-0.00000178,-0.00000224,-0.00000149,0.00000069,0.00000041,-0.00000051
 ,0.00000130,-0.00000010,-0.00000097,-0.00000076,0.00000064,-0.00000020
 ,0.00000043,-0.00000151,0.00000069,0.00000138,-0.00000016,-0.00000091,
 -0.00000046,-0.00000145,0.00000078,0.00000103,0.00000003,-0.00000153,-
 0.00000022,0.00000061,0.00000115,0.00000212,-0.00000048,-0.00000003,-0
 .00000111,0.00000011,-0.00000007,-0.00000008,0.00000037,0.00000076,0.0
 0000151,-0.00000080,-0.00000114,0.00000145,-0.00000127,-0.00000149,0.0
 0000183,-0.00000067,-0.00000133,0.00000060,0.00000116,0.00000105,-0.00
 000098,-0.00000074,0.00000060,-0.00000173,-0.00000151,0.00000256,-0.00
 000051,0.00000126,-0.00000677,-0.00000216,-0.00000422,0.00000279,0.000
 00387,0.00000185,0.00000092,-0.00000174,0.00000033,0.00000128,0.000000
 65,-0.00000143,0.00000119,0.00000077,-0.00000128,-0.00000205,0.0000007
 5,0.00000135,-0.00000058,0.00000154,-0.00000020,0.00000034,0.00000035,
 -0.00000096,0.00000141,0.00000169,0.00000124,-0.00000028,-0.00000075,0
 .00000047,-0.00000041,-0.00000827,0.00000777,0.00001703,-0.00292665,0.
 00052104,-0.00066612,0.00174229,0.00062073,0.00061694,-0.00268898,-0.0
 0567420,0.00324190,0.00061340,-0.00006584,0.00029870,0.00051493,0.0001
 3490,-0.00000859,-0.00005132,0.00006647,-0.00002757,0.00001262,0.00002
 948,-0.00002029,0.00003690,-0.00001232,0.00000979,0.00048562,-0.000246
 64,0.00031267,-0.00007886,-0.00007912,0.00004742,0.00000249,-0.0000139
 6,0.00001607,-0.00000870,0.00001690,-0.00000424,-0.00001716,-0.0000014
 0,0.00001194,0.04392336,0.11848631,-0.14276965,0.00857629,0.02369347,-
 0.01518511,-0.00306044,-0.00634968,0.00418036,-0.00000006,0.00000271,0
 .00000195,0.00005422,-0.00007304,0.00001471,-0.04709638,-0.13104278,0.
 14995801\\-0.00000792,-0.00000458,-0.00000204,0.00000533,0.00000068,0.
 00000397,-0.00000422,0.00000009,-0.00000230,0.00000486,0.00000404,-0.0
 0000298,0.00000203,-0.00000410,0.00000743,0.00000115,0.00000293,0.0000
 0248,-0.00000277,-0.00000176,0.00000209,0.00000102,0.00000220,-0.00000
 108,-0.00000120,0.00000229,0.00000064,-0.00000364,-0.00000143,-0.00000
 043,0.00000108,-0.00000027,0.00000022,0.00000003,-0.00000132,0.0000017
 4,-0.00000015,-0.00000125,0.00000041,0.,-0.00000119,0.00000055,-0.0000
 0105,-0.00000125,0.00000082,-0.00000137,-0.00000054,0.00000044,0.00000
 321,-0.00000504,0.00000599,-0.00000245,-0.00000528,0.00000142,0.000002
 03,0.00000160,0.00000499,0.00000491,0.00000268,0.00000002,-0.00000165,
 -0.00000010,0.00000346,0.00000103,-0.00000314,0.00000567,0.00000001,-0
 .00000027,-0.00000423,0.00000182,0.00000369,0.00000038,-0.00000293,-0.
 00000022,-0.00000733,0.00000055,-0.00000173,-0.00000128,0.00000147,-0.
 00000287,-0.00000022,0.00000260,-0.00000234,0.00000360,-0.00000241,0.0
 0000159,-0.00000262,-0.00000001,0.00000502,-0.00000718,0.00000344,0.00
 000471,0.00000204,-0.00000202,0.00000285,-0.00000321,0.00000070,-0.000
 00236,0.00000230,0.00000124,-0.00000002,-0.00000439,0.00000271,-0.0000
 0064,-0.00000533,0.00000018,0.00000090,0.00000156,0.00000063,0.0000016
 9,-0.00000082,0.00000323,0.00000254,0.00000110,-0.00000198,0.00000419,
 0.00000097,0.00000203,0.00000026,-0.00000046,0.00000272,-0.00000257,0.
 00000114,0.00000400,-0.00000048,-0.00000142,0.00000058,-0.00000221,0.0
 0000164,0.00000068,-0.00000017,-0.00000042,-0.00000095,0.00000097,-0.0
 0000089,0.00000224,0.00000335,-0.00000163,0.00000199,0.00000109,0.0000
 0199,0.00000200,-0.00000036,-0.00000040,0.,-0.00000091,-0.00000034,0.0
 0000157,0.00000059,-0.00000096,-0.00000675,0.00000284,0.00000128,0.000
 00126,-0.00000079,0.00000130,-0.00000028,0.00000119,-0.00000195,-0.000
 00042,-0.00000207,-0.00000359,-0.00000515,0.00000240,-0.00000085,-0.00
 000025,0.00000004,-0.00000151,0.00000113,-0.00000020,0.00000092,0.0000
 0043,0.,-0.00000032,0.00000058,0.00000329,-0.00000256,0.00000060,-0.00
 000097,-0.00000059,-0.00000245,0.00000089,-0.00000011,-0.00000209,0.00
 000044,-0.00000266,0.,0.00000486,-0.00000605,-0.00000013,-0.00000089,-
 0.00000089,0.00000022,0.00000055,-0.00000046,-0.00000078,0.00000130,0.
 00000040,0.00000044,-0.00000184,-0.00000546,-0.00000148,0.00000143,-0.
 00000039,-0.00000162,0.00000097,-0.00000023,-0.00000047,0.00000041,0.0
 0000052,0.00000002,0.00000187,0.00000291,-0.00000100,-0.00000041,-0.00
 000013,-0.00000203,0.00000072,-0.00000149,-0.00000113,-0.00000263,-0.0
 0000276,0.00000485,-0.00000243,-0.00000030,-0.00000058,0.00000249,-0.0
 0000208,-0.00000253,0.00000183,0.00000026,-0.00000065,0.00000037,-0.00
 000076,-0.00000500,0.00000209,-0.00000600,0.00000146,-0.00000221,0.000
 00165,0.00000272,0.00000390,-0.00000017,-0.00000171,0.00000286,0.00000
 120,-0.00000044,0.00000037,-0.00000329,0.00000013,0.00000274,-0.000001
 16,0.00000098,-0.00000394,0.00000628,0.00000162,-0.00000164,0.00000031
 ,0.00000023,0.00000016,0.00000205,0.00000002,-0.00000029,0.00000187,0.
 00000206,0.00000404,-0.00000130,-0.00000053,-0.00000270,0.00000218,-0.
 00000144,-0.00000270,-0.00000126,-0.00000026,-0.00000621,0.00000494,-0
 .00000333,0.00000070,-0.00000177,-0.00000086,0.00000010,0.00000052,-0.
 00000006,-0.00000048,0.00000029,0.00000069,-0.00000118,-0.00000038,-0.
 00000032,-0.00000870,0.00000265,0.00000110,0.00000070,0.00000435,-0.00
 000162,0.00000077,0.00000224,-0.00000328,-0.00000339,0.00000188,0.0000
 0069,-0.00000360,0.00000315,0.00000102,0.00000141,0.00000022\\\@
 The archive entry for this job was punched.


 WAR ES EIN GOTT DER DIESE ZEICHEN SCHRIEB?
          - LUDWIG BOLTZMANN, QUOTING GOETHE, ABOUT MAXWELL'S EQUATIONS.
 Job cpu time:       1 days  9 hours 58 minutes 57.2 seconds.
 Elapsed time:       0 days  2 hours  9 minutes 49.5 seconds.
 File lengths (MBytes):  RWF=   6947 Int=      0 D2E=      0 Chk=     43 Scr=      1
 Normal termination of Gaussian 16 at Sun Dec  8 00:02:19 2024.
