/mnt/lustre/scratch/nvme/SLURM/9663504/usccqdma.dQiuhF4n4n
OMP_STACKSIZE=0m
GAUSS_PDEF=16
GAUSS_MDEF=65536MB
GAUSS_RDEF=SCF=Direct
 Entering Gaussian System, Link 0=g16.exe
 Initial command:
 /opt/cesga/2020/software/Core/g16/c1/l1.exe "/mnt/lustre/scratch/nvme/SLURM/9663504/usccqdma.dQiuhF4n4n/Gau-1582121.inp" -scrdir="/mnt/lustre/scratch/nvme/SLURM/9663504/usccqdma.dQiuhF4n4n/"
 Default is to use a total of  16 processors:
                               16 via shared-memory
                                1 via Linda
 Entering Link 1 = /opt/cesga/2020/software/Core/g16/c1/l1.exe PID=   1582148.
  
 Copyright (c) 1988-2019, Gaussian, Inc.  All Rights Reserved.
  
 This is part of the Gaussian(R) 16 program.  It is based on
 the Gaussian(R) 09 system (copyright 2009, Gaussian, Inc.),
 the Gaussian(R) 03 system (copyright 2003, Gaussian, Inc.),
 the Gaussian(R) 98 system (copyright 1998, Gaussian, Inc.),
 the Gaussian(R) 94 system (copyright 1995, Gaussian, Inc.),
 the Gaussian 92(TM) system (copyright 1992, Gaussian, Inc.),
 the Gaussian 90(TM) system (copyright 1990, Gaussian, Inc.),
 the Gaussian 88(TM) system (copyright 1988, Gaussian, Inc.),
 the Gaussian 86(TM) system (copyright 1986, Carnegie Mellon
 University), and the Gaussian 82(TM) system (copyright 1983,
 Carnegie Mellon University). Gaussian is a federally registered
 trademark of Gaussian, Inc.
  
 This software contains proprietary and confidential information,
 including trade secrets, belonging to Gaussian, Inc.
  
 This software is provided under written license and may be
 used, copied, transmitted, or stored only in accord with that
 written license.
  
 The following legend is applicable only to US Government
 contracts under FAR:
  
                    RESTRICTED RIGHTS LEGEND
  
 Use, reproduction and disclosure by the US Government is
 subject to restrictions as set forth in subparagraphs (a)
 and (c) of the Commercial Computer Software - Restricted
 Rights clause in FAR 52.227-19.
  
 Gaussian, Inc.
 340 Quinnipiac St., Bldg. 40, Wallingford CT 06492
  
  
 ---------------------------------------------------------------
 Warning -- This program may not be used in any manner that
 competes with the business of Gaussian, Inc. or will provide
 assistance to any competitor of Gaussian, Inc.  The licensee
 of this program is prohibited from giving any competitor of
 Gaussian, Inc. access to this program.  By using this program,
 the user acknowledges that Gaussian, Inc. is engaged in the
 business of creating and licensing software in the field of
 computational chemistry and represents and warrants to the
 licensee that it is not a competitor of Gaussian, Inc. and that
 it will not use this program in any manner prohibited above.
 ---------------------------------------------------------------
  

 Cite this work as:
 Gaussian 16, Revision C.01,
 M. J. Frisch, G. W. Trucks, H. B. Schlegel, G. E. Scuseria, 
 M. A. Robb, J. R. Cheeseman, G. Scalmani, V. Barone, 
 G. A. Petersson, H. Nakatsuji, X. Li, M. Caricato, A. V. Marenich, 
 J. Bloino, B. G. Janesko, R. Gomperts, B. Mennucci, H. P. Hratchian, 
 J. V. Ortiz, A. F. Izmaylov, J. L. Sonnenberg, D. Williams-Young, 
 F. Ding, F. Lipparini, F. Egidi, J. Goings, B. Peng, A. Petrone, 
 T. Henderson, D. Ranasinghe, V. G. Zakrzewski, J. Gao, N. Rega, 
 G. Zheng, W. Liang, M. Hada, M. Ehara, K. Toyota, R. Fukuda, 
 J. Hasegawa, M. Ishida, T. Nakajima, Y. Honda, O. Kitao, H. Nakai, 
 T. Vreven, K. Throssell, J. A. Montgomery, Jr., J. E. Peralta, 
 F. Ogliaro, M. J. Bearpark, J. J. Heyd, E. N. Brothers, K. N. Kudin, 
 V. N. Staroverov, T. A. Keith, R. Kobayashi, J. Normand, 
 K. Raghavachari, A. P. Rendell, J. C. Burant, S. S. Iyengar, 
 J. Tomasi, M. Cossi, J. M. Millam, M. Klene, C. Adamo, R. Cammi, 
 J. W. Ochterski, R. L. Martin, K. Morokuma, O. Farkas, 
 J. B. Foresman, and D. J. Fox, Gaussian, Inc., Wallingford CT, 2019.
 
 ******************************************
 Gaussian 16:  ES64L-G16RevC.01  3-Jul-2019
                 7-Dec-2024 
 ******************************************
 Default route: SCF=Direct
 ----------------------------------------------------
 # m06/genecp scf=tight int=ultrafine 5d freq=noraman
 ----------------------------------------------------
 1/10=4,30=1,38=1/1,3;
 2/12=2,17=6,18=5,40=1/2;
 3/5=7,8=1,11=2,16=1,17=8,25=1,30=1,71=2,74=-54,75=-5,140=1/1,2,3;
 4//1;
 5/5=2,32=2,38=5,98=1/2;
 8/6=4,10=90,11=11/1;
 11/6=1,8=1,9=11,15=111,16=1/1,2,10;
 10/6=1/2;
 6/7=2,8=2,9=2,10=2,28=1/1;
 7/8=1,10=1,25=1/1,2,3,16;
 1/10=4,30=1/3;
 99//99;
 ------
 OPT-TS
 ------
 Symbolic Z-matrix:
 Charge =  0 Multiplicity = 1
 C                     1.22404  -2.58869   0.63221 
 C                     2.78748  -0.89186   0.78927 
 C                     3.76953  -1.77548   1.21721 
 C                     3.45562  -3.12475   1.33121 
 C                     2.16758  -3.5341    1.03292 
 C                    -0.17871  -2.93527   0.34355 
 C                    -2.22812  -2.20254  -0.46077 
 C                    -2.84436  -3.38338  -0.08998 
 C                    -2.08492  -4.38549   0.51032 
 C                    -0.73922  -4.15866   0.72328 
 H                     2.97783   0.17692   0.69141 
 H                     4.21184  -3.843     1.63953 
 H                     1.90894  -4.58775   1.08927 
 H                    -2.791    -1.37555  -0.89309 
 H                    -2.5528   -5.31847   0.82046 
 H                    -0.13441  -4.91206   1.21995 
 N                     1.54888  -1.28784   0.5012 
 N                    -0.92557  -1.9812   -0.24687 
 Ir                   -0.04757   0.061    -0.41119 
 O                    -1.67367   2.02346  -2.14332 
 O                     0.52773   3.11446  -0.30154 
 O                    -1.43051  -0.65985   2.21122 
 B                     0.70637   1.85568   0.24041 
 B                    -1.6533    1.05381  -1.15444 
 B                    -1.07411   0.4025    1.38409 
 O                    -1.54633   1.59698   1.9103 
 O                    -2.9681    0.74455  -0.77243 
 C                    -3.83573   1.75194  -1.31438 
 C                    -3.03019   2.23548  -2.5536 
 C                    -2.40518  -0.1735    3.14876 
 C                    -2.04117   1.33387   3.23388 
 C                     1.12958   4.07444   0.57649 
 C                     2.19487   3.21929   1.32425 
 O                     1.60343   1.91015   1.30956 
 C                    -3.27445   1.37603  -3.78741 
 H                    -2.52798   1.62965  -4.55079 
 H                    -3.16857   0.30693  -3.55512 
 H                    -4.27341   1.54296  -4.21248 
 C                    -3.21143   3.69973  -2.90069 
 H                    -2.87601   4.34636  -2.08246 
 H                    -2.61432   3.94518  -3.78818 
 H                    -4.26408   3.92541  -3.12544 
 C                    -5.18023   1.12145  -1.61744 
 H                    -5.08135   0.24518  -2.26864 
 H                    -5.64881   0.78755  -0.68172 
 H                    -5.85669   1.84287  -2.09793 
 C                    -3.99053   2.82729  -0.24739 
 H                    -3.01602   3.24489   0.04137 
 H                    -4.65222   3.63951  -0.57676 
 H                    -4.43094   2.37096   0.6487 
 C                     1.69565   5.20881  -0.25514 
 H                     2.24018   5.92608   0.37607 
 H                     2.37221   4.84207  -1.03531 
 H                     0.87604   5.74528  -0.74943 
 C                     0.02906   4.60165   1.48829 
 H                    -0.42454   3.78568   2.06544 
 H                     0.39683   5.37936   2.17147 
 H                    -0.75913   5.03912   0.86166 
 C                     3.51667   3.11737   0.57233 
 H                     3.3537    2.79918  -0.46732 
 H                     4.06442   4.06902   0.5631 
 H                     4.15234   2.36821   1.06359 
 C                     2.45343   3.62965   2.75955 
 H                     3.20597   2.96711   3.20645 
 H                     2.83491   4.65975   2.80936 
 H                     1.54368   3.56335   3.36606 
 C                    -3.20348   2.26051   3.5239 
 H                    -2.85923   3.30333   3.50131 
 H                    -4.00344   2.15609   2.78352 
 H                    -3.6223    2.0613    4.52104 
 C                    -0.9002    1.61702   4.20337 
 H                    -0.5847    2.6623    4.08336 
 H                    -1.20383   1.47439   5.24927 
 H                    -0.032     0.97867   3.99306 
 C                    -2.27016  -0.94061   4.44779 
 H                    -2.94428  -0.53369   5.21536 
 H                    -2.53994  -1.9923    4.28481 
 H                    -1.2441   -0.91127   4.83057 
 C                    -3.77415  -0.42839   2.52785 
 H                    -4.59396  -0.13562   3.19786 
 H                    -3.87744   0.10448   1.57148 
 H                    -3.87144  -1.5039    2.32297 
 H                     0.64111   0.895    -1.61601 
 C                     3.20296  -1.40346  -2.3023 
 O                     2.79702  -2.52969  -2.03095 
 C                     4.69568  -1.10759  -2.3202 
 H                     4.98204  -0.66799  -3.28704 
 H                     4.91568  -0.3319   -1.56987 
 C                     0.91771  -0.57935  -2.45903 
 C                     0.13092  -0.22298  -3.7023 
 H                     0.81371  -1.64988  -2.26645 
 N                     2.35184  -0.35961  -2.57569 
 C                     2.82823   0.9767   -2.90965 
 C                     3.09705   1.19413  -4.3914 
 H                     2.06729   1.69443  -2.56193 
 H                     3.73332   1.20009  -2.32766 
 C                     5.52377  -2.34557  -2.03605 
 C                     5.11465  -1.25044   1.60959 
 F                     6.05145  -2.20156   1.5538 
 F                     5.50605  -0.24508   0.81388 
 F                     5.10218  -0.77315   2.85838 
 C                    -4.31252  -3.58824  -0.28918 
 F                    -4.54893  -4.59713  -1.13622 
 F                    -4.90383  -3.9105    0.86946 
 F                    -4.91572  -2.50022  -0.76695 
 H                     2.18656   1.05432  -4.98503 
 H                     3.85188   0.49338  -4.77132 
 H                     3.46425   2.21327  -4.56734 
 H                    -0.90466  -0.56945  -3.57776 
 H                     0.54884  -0.71955  -4.59327 
 H                     0.07496   0.85807  -3.88905 
 H                     5.28233  -2.76445  -1.05147 
 H                     6.59394  -2.10705  -2.05505 
 H                     5.32514  -3.13185  -2.77267 
 

 GradGradGradGradGradGradGradGradGradGradGradGradGradGradGradGradGradGrad
 Berny optimization.
 Initialization pass.
 Trust Radius=3.00D-01 FncErr=1.00D-07 GrdErr=1.00D-07 EigMax=2.50D+02 EigMin=1.00D-04
 Number of steps in this run=      2 maximum allowed number of steps=      2.
 GradGradGradGradGradGradGradGradGradGradGradGradGradGradGradGradGradGrad

 Stoichiometry    C37H57B3F6IrN3O7
 Framework group  C1[X(C37H57B3F6IrN3O7)]
 Deg. of freedom   336
 Full point group                 C1      NOp   1
 Largest Abelian subgroup         C1      NOp   1
 Largest concise Abelian subgroup C1      NOp   1
                         Standard orientation:                         
 ---------------------------------------------------------------------
 Center     Atomic      Atomic             Coordinates (Angstroms)
 Number     Number       Type             X           Y           Z
 ---------------------------------------------------------------------
      1          6           0        1.224039   -2.588691    0.632211
      2          6           0        2.787480   -0.891861    0.789271
      3          6           0        3.769529   -1.775481    1.217211
      4          6           0        3.455619   -3.124751    1.331211
      5          6           0        2.167579   -3.534101    1.032921
      6          6           0       -0.178711   -2.935270    0.343551
      7          6           0       -2.228121   -2.202540   -0.460769
      8          6           0       -2.844361   -3.383379   -0.089979
      9          6           0       -2.084921   -4.385490    0.510321
     10          6           0       -0.739221   -4.158660    0.723281
     11          1           0        2.977830    0.176919    0.691411
     12          1           0        4.211839   -3.843002    1.639531
     13          1           0        1.908938   -4.587751    1.089271
     14          1           0       -2.791001   -1.375549   -0.893089
     15          1           0       -2.552802   -5.318469    0.820461
     16          1           0       -0.134412   -4.912060    1.219951
     17          7           0        1.548880   -1.287841    0.501201
     18          7           0       -0.925571   -1.981200   -0.246869
     19         77           0       -0.047570    0.061000   -0.411189
     20          8           0       -1.673669    2.023460   -2.143319
     21          8           0        0.527731    3.114460   -0.301539
     22          8           0       -1.430510   -0.659850    2.211221
     23          5           0        0.706371    1.855679    0.240411
     24          5           0       -1.653300    1.053810   -1.154439
     25          5           0       -1.074110    0.402500    1.384091
     26          8           0       -1.546330    1.596980    1.910301
     27          8           0       -2.968100    0.744551   -0.772429
     28          6           0       -3.835730    1.751941   -1.314379
     29          6           0       -3.030189    2.235481   -2.553599
     30          6           0       -2.405180   -0.173500    3.148761
     31          6           0       -2.041170    1.333870    3.233881
     32          6           0        1.129581    4.074439    0.576491
     33          6           0        2.194871    3.219289    1.324251
     34          8           0        1.603431    1.910149    1.309561
     35          6           0       -3.274450    1.376031   -3.787409
     36          1           0       -2.527980    1.629650   -4.550789
     37          1           0       -3.168570    0.306931   -3.555119
     38          1           0       -4.273410    1.542961   -4.212479
     39          6           0       -3.211429    3.699731   -2.900689
     40          1           0       -2.876009    4.346361   -2.082459
     41          1           0       -2.614319    3.945181   -3.788179
     42          1           0       -4.264079    3.925411   -3.125439
     43          6           0       -5.180230    1.121451   -1.617439
     44          1           0       -5.081350    0.245181   -2.268639
     45          1           0       -5.648810    0.787551   -0.681719
     46          1           0       -5.856689    1.842872   -2.097929
     47          6           0       -3.990529    2.827291   -0.247389
     48          1           0       -3.016019    3.244891    0.041371
     49          1           0       -4.652219    3.639511   -0.576759
     50          1           0       -4.430939    2.370961    0.648701
     51          6           0        1.695652    5.208809   -0.255139
     52          1           0        2.240182    5.926079    0.376071
     53          1           0        2.372211    4.842069   -1.035309
     54          1           0        0.876042    5.745279   -0.749429
     55          6           0        0.029061    4.601650    1.488291
     56          1           0       -0.424539    3.785680    2.065441
     57          1           0        0.396832    5.379360    2.171471
     58          1           0       -0.759128    5.039120    0.861661
     59          6           0        3.516671    3.117369    0.572331
     60          1           0        3.353701    2.799179   -0.467319
     61          1           0        4.064421    4.069018    0.563101
     62          1           0        4.152341    2.368208    1.063591
     63          6           0        2.453431    3.629649    2.759551
     64          1           0        3.205971    2.967109    3.206451
     65          1           0        2.834911    4.659749    2.809361
     66          1           0        1.543681    3.563349    3.366061
     67          6           0       -3.203479    2.260511    3.523901
     68          1           0       -2.859229    3.303331    3.501311
     69          1           0       -4.003439    2.156091    2.783521
     70          1           0       -3.622299    2.061301    4.521041
     71          6           0       -0.900200    1.617020    4.203371
     72          1           0       -0.584699    2.662300    4.083361
     73          1           0       -1.203830    1.474390    5.249271
     74          1           0       -0.032000    0.978670    3.993061
     75          6           0       -2.270160   -0.940610    4.447791
     76          1           0       -2.944280   -0.533689    5.215361
     77          1           0       -2.539941   -1.992299    4.284811
     78          1           0       -1.244100   -0.911270    4.830571
     79          6           0       -3.774150   -0.428389    2.527851
     80          1           0       -4.593960   -0.135619    3.197861
     81          1           0       -3.877440    0.104481    1.571481
     82          1           0       -3.871441   -1.503899    2.322971
     83          1           0        0.641110    0.894999   -1.616009
     84          6           0        3.202959   -1.403461   -2.302299
     85          8           0        2.797019   -2.529691   -2.030949
     86          6           0        4.695680   -1.107592   -2.320199
     87          1           0        4.982040   -0.667992   -3.287039
     88          1           0        4.915680   -0.331902   -1.569869
     89          6           0        0.917710   -0.579351   -2.459029
     90          6           0        0.130920   -0.222980   -3.702299
     91          1           0        0.813709   -1.649881   -2.266449
     92          7           0        2.351840   -0.359611   -2.575689
     93          6           0        2.828230    0.976699   -2.909649
     94          6           0        3.097050    1.194129   -4.391399
     95          1           0        2.067290    1.694429   -2.561929
     96          1           0        3.733320    1.200089   -2.327659
     97          6           0        5.523769   -2.345572   -2.036049
     98          6           0        5.114650   -1.250442    1.609591
     99          9           0        6.051449   -2.201562    1.553801
    100          9           0        5.506050   -0.245082    0.813881
    101          9           0        5.102180   -0.773152    2.858381
    102          6           0       -4.312521   -3.588239   -0.289179
    103          9           0       -4.548932   -4.597129   -1.136219
    104          9           0       -4.903831   -3.910499    0.869461
    105          9           0       -4.915721   -2.500219   -0.766949
    106          1           0        2.186560    1.054319   -4.985029
    107          1           0        3.851880    0.493378   -4.771319
    108          1           0        3.464251    2.213269   -4.567339
    109          1           0       -0.904660   -0.569450   -3.577759
    110          1           0        0.548840   -0.719550   -4.593269
    111          1           0        0.074960    0.858070   -3.889049
    112          1           0        5.282329   -2.764452   -1.051469
    113          1           0        6.593939   -2.107052   -2.055049
    114          1           0        5.325139   -3.131852   -2.772669
 ---------------------------------------------------------------------
 Rotational constants (GHZ):           0.0582381           0.0422308           0.0373969
 General basis read from cards:  (5D, 7F)
 ======================================================================================================
                                       Pseudopotential Parameters
 ======================================================================================================
  Center     Atomic      Valence      Angular      Power
  Number     Number     Electrons     Momentum     of R      Exponent        Coefficient   SO-Coeffient
 ======================================================================================================
    1          6
                                   No pseudopotential on this center.
    2          6
                                   No pseudopotential on this center.
    3          6
                                   No pseudopotential on this center.
    4          6
                                   No pseudopotential on this center.
    5          6
                                   No pseudopotential on this center.
    6          6
                                   No pseudopotential on this center.
    7          6
                                   No pseudopotential on this center.
    8          6
                                   No pseudopotential on this center.
    9          6
                                   No pseudopotential on this center.
   10          6
                                   No pseudopotential on this center.
   11          1
                                   No pseudopotential on this center.
   12          1
                                   No pseudopotential on this center.
   13          1
                                   No pseudopotential on this center.
   14          1
                                   No pseudopotential on this center.
   15          1
                                   No pseudopotential on this center.
   16          1
                                   No pseudopotential on this center.
   17          7
                                   No pseudopotential on this center.
   18          7
                                   No pseudopotential on this center.
   19         77           17
                                      G and up 
                                                     1      823.5880147       -0.15780140    0.00000000
                                                     2      364.6613336    -1517.52704460    0.00000000
                                                     2       55.7082801     -316.53065290    0.00000000
                                                     2       12.0464544      -91.88809410    0.00000000
                                                     2        3.5120610       -9.22417730    0.00000000
                                      S - G
                                                     0      188.0490770        3.15780140    0.00000000
                                                     1      340.4194712       26.83225770    0.00000000
                                                     2      128.2373673      800.42500070    0.00000000
                                                     2       33.8644961      369.40506830    0.00000000
                                                     2        4.7560005      242.41718990    0.00000000
                                                     2        3.9649974     -118.21732820    0.00000000
                                      P - G
                                                     0      289.7291139        2.15780140    0.00000000
                                                     1       87.4633789       61.96786100    0.00000000
                                                     2       30.4363766      269.05819860    0.00000000
                                                     2        4.0553412      231.16547930    0.00000000
                                                     2        3.5525341     -133.69526670    0.00000000
                                      D - G
                                                     0      136.4017106        3.15780140    0.00000000
                                                     1       95.0776925       45.93498030    0.00000000
                                                     2       49.2258410      359.03446680    0.00000000
                                                     2       15.0874145      176.47401190    0.00000000
                                                     2        4.0405764       54.51552860    0.00000000
                                      F - G
                                                     0      127.3507908        3.95461970    0.00000000
                                                     1       66.2364374       52.97736550    0.00000000
                                                     2       34.4299229      274.86433830    0.00000000
                                                     2       10.1995721      137.20473380    0.00000000
                                                     2        2.5409702       14.86333050    0.00000000
   20          8
                                   No pseudopotential on this center.
   21          8
                                   No pseudopotential on this center.
   22          8
                                   No pseudopotential on this center.
   23          5
                                   No pseudopotential on this center.
   24          5
                                   No pseudopotential on this center.
   25          5
                                   No pseudopotential on this center.
   26          8
                                   No pseudopotential on this center.
   27          8
                                   No pseudopotential on this center.
   28          6
                                   No pseudopotential on this center.
   29          6
                                   No pseudopotential on this center.
   30          6
                                   No pseudopotential on this center.
   31          6
                                   No pseudopotential on this center.
   32          6
                                   No pseudopotential on this center.
   33          6
                                   No pseudopotential on this center.
   34          8
                                   No pseudopotential on this center.
   35          6
                                   No pseudopotential on this center.
   36          1
                                   No pseudopotential on this center.
   37          1
                                   No pseudopotential on this center.
   38          1
                                   No pseudopotential on this center.
   39          6
                                   No pseudopotential on this center.
   40          1
                                   No pseudopotential on this center.
   41          1
                                   No pseudopotential on this center.
   42          1
                                   No pseudopotential on this center.
   43          6
                                   No pseudopotential on this center.
   44          1
                                   No pseudopotential on this center.
   45          1
                                   No pseudopotential on this center.
   46          1
                                   No pseudopotential on this center.
   47          6
                                   No pseudopotential on this center.
   48          1
                                   No pseudopotential on this center.
   49          1
                                   No pseudopotential on this center.
   50          1
                                   No pseudopotential on this center.
   51          6
                                   No pseudopotential on this center.
   52          1
                                   No pseudopotential on this center.
   53          1
                                   No pseudopotential on this center.
   54          1
                                   No pseudopotential on this center.
   55          6
                                   No pseudopotential on this center.
   56          1
                                   No pseudopotential on this center.
   57          1
                                   No pseudopotential on this center.
   58          1
                                   No pseudopotential on this center.
   59          6
                                   No pseudopotential on this center.
   60          1
                                   No pseudopotential on this center.
   61          1
                                   No pseudopotential on this center.
   62          1
                                   No pseudopotential on this center.
   63          6
                                   No pseudopotential on this center.
   64          1
                                   No pseudopotential on this center.
   65          1
                                   No pseudopotential on this center.
   66          1
                                   No pseudopotential on this center.
   67          6
                                   No pseudopotential on this center.
   68          1
                                   No pseudopotential on this center.
   69          1
                                   No pseudopotential on this center.
   70          1
                                   No pseudopotential on this center.
   71          6
                                   No pseudopotential on this center.
   72          1
                                   No pseudopotential on this center.
   73          1
                                   No pseudopotential on this center.
   74          1
                                   No pseudopotential on this center.
   75          6
                                   No pseudopotential on this center.
   76          1
                                   No pseudopotential on this center.
   77          1
                                   No pseudopotential on this center.
   78          1
                                   No pseudopotential on this center.
   79          6
                                   No pseudopotential on this center.
   80          1
                                   No pseudopotential on this center.
   81          1
                                   No pseudopotential on this center.
   82          1
                                   No pseudopotential on this center.
   83          1
                                   No pseudopotential on this center.
   84          6
                                   No pseudopotential on this center.
   85          8
                                   No pseudopotential on this center.
   86          6
                                   No pseudopotential on this center.
   87          1
                                   No pseudopotential on this center.
   88          1
                                   No pseudopotential on this center.
   89          6
                                   No pseudopotential on this center.
   90          6
                                   No pseudopotential on this center.
   91          1
                                   No pseudopotential on this center.
   92          7
                                   No pseudopotential on this center.
   93          6
                                   No pseudopotential on this center.
   94          6
                                   No pseudopotential on this center.
   95          1
                                   No pseudopotential on this center.
   96          1
                                   No pseudopotential on this center.
   97          6
                                   No pseudopotential on this center.
   98          6
                                   No pseudopotential on this center.
   99          9
                                   No pseudopotential on this center.
  100          9
                                   No pseudopotential on this center.
  101          9
                                   No pseudopotential on this center.
  102          6
                                   No pseudopotential on this center.
  103          9
                                   No pseudopotential on this center.
  104          9
                                   No pseudopotential on this center.
  105          9
                                   No pseudopotential on this center.
  106          1
                                   No pseudopotential on this center.
  107          1
                                   No pseudopotential on this center.
  108          1
                                   No pseudopotential on this center.
  109          1
                                   No pseudopotential on this center.
  110          1
                                   No pseudopotential on this center.
  111          1
                                   No pseudopotential on this center.
  112          1
                                   No pseudopotential on this center.
  113          1
                                   No pseudopotential on this center.
  114          1
                                   No pseudopotential on this center.
 ======================================================================================================
 There are   978 symmetry adapted cartesian basis functions of A   symmetry.
 There are   920 symmetry adapted basis functions of A   symmetry.
   920 basis functions,  1839 primitive gaussians,   978 cartesian basis functions
   221 alpha electrons      221 beta electrons
       nuclear repulsion energy     10371.8787914505 Hartrees.
 NAtoms=  114 NActive=  114 NUniq=  114 SFac= 1.00D+00 NAtFMM=   60 NAOKFM=T Big=T
 Integral buffers will be    131072 words long.
 Raffenetti 2 integral format.
 Two-electron integral symmetry is turned on.
 One-electron integrals computed using PRISM.
   1 Symmetry operations used in ECPInt.
 ECPInt:  NShTT=   60031 NPrTT=  371420 LenC2=   45018 LenP2D=  138141.
 LDataN:  DoStor=T MaxTD1= 6 Len=  172
 NBasis=   920 RedAO= T EigKep=  4.57D-04  NBF=   920
 NBsUse=   920 1.00D-06 EigRej= -1.00D+00 NBFU=   920
 Defaulting to unpruned grid for atomic number  77.
 ExpMin= 2.90D-02 ExpMax= 7.00D+03 ExpMxC= 1.05D+03 IAcc=3 IRadAn=         5 AccDes= 0.00D+00
 Harris functional with IExCor= 1009 and IRadAn=       5 diagonalized for initial guess.
 HarFok:  IExCor= 1009 AccDes= 0.00D+00 IRadAn=         5 IDoV= 1 UseB2=F ITyADJ=14
 ICtDFT=  3500011 ScaDFX=  1.000000  1.000000  1.000000  1.000000
 Defaulting to unpruned grid for atomic number  77.
 FoFCou: FMM=F IPFlag=           0 FMFlag=      100000 FMFlg1=        2001
         NFxFlg=           0 DoJE=T BraDBF=F KetDBF=T FulRan=T
         wScrn=  0.000000 ICntrl=       500 IOpCl=  0 I1Cent=   200000004 NGrid=           0
         NMat0=    1 NMatS0=      1 NMatT0=    0 NMatD0=    1 NMtDS0=    0 NMtDT0=    0
 Petite list used in FoFCou.
 Requested convergence on RMS density matrix=1.00D-08 within 128 cycles.
 Requested convergence on MAX density matrix=1.00D-06.
 Requested convergence on             energy=1.00D-06.
 No special actions if energy rises.
 Defaulting to unpruned grid for atomic number  77.
 Defaulting to unpruned grid for atomic number  77.
 Defaulting to unpruned grid for atomic number  77.
 Defaulting to unpruned grid for atomic number  77.
 Defaulting to unpruned grid for atomic number  77.
 Defaulting to unpruned grid for atomic number  77.
 Defaulting to unpruned grid for atomic number  77.
 Defaulting to unpruned grid for atomic number  77.
 Defaulting to unpruned grid for atomic number  77.
 Defaulting to unpruned grid for atomic number  77.
 Defaulting to unpruned grid for atomic number  77.
 Defaulting to unpruned grid for atomic number  77.
 Defaulting to unpruned grid for atomic number  77.
 Defaulting to unpruned grid for atomic number  77.
 Defaulting to unpruned grid for atomic number  77.
 Defaulting to unpruned grid for atomic number  77.
 SCF Done:  E(RM06) =  -2912.10285411     A.U. after   15 cycles
            NFock= 15  Conv=0.70D-08     -V/T= 2.0313
 DoSCS=F DFT=T ScalE2(SS,OS)=  1.000000  1.000000
 Range of M.O.s used for correlation:     1   920
 NBasis=   920 NAE=   221 NBE=   221 NFC=     0 NFV=     0
 NROrb=    920 NOA=   221 NOB=   221 NVA=   699 NVB=   699

 **** Warning!!: The largest alpha MO coefficient is  0.14020887D+02

   1 Symmetry operations used in ECPInt.
 ECPInt:  NShTT=   60031 NPrTT=  371420 LenC2=   45018 LenP2D=  138141.
 LDataN:  DoStor=T MaxTD1= 7 Len=  274
 Number of processors reduced to   7 by ecpmxn.
 Symmetrizing basis deriv contribution to polar:
 IMax=3 JMax=2 DiffMx= 0.00D+00
 G2DrvN: will do   115 centers at a time, making    1 passes.
 Calling FoFCou, ICntrl=  3107 FMM=T I1Cent=   0 AccDes= 0.00D+00.
 Defaulting to unpruned grid for atomic number  77.
 Defaulting to unpruned grid for atomic number  77.
 Defaulting to unpruned grid for atomic number  77.
 Defaulting to unpruned grid for atomic number  77.
 Defaulting to unpruned grid for atomic number  77.
 Defaulting to unpruned grid for atomic number  77.
 Defaulting to unpruned grid for atomic number  77.
 Defaulting to unpruned grid for atomic number  77.
 Defaulting to unpruned grid for atomic number  77.
 Defaulting to unpruned grid for atomic number  77.
 Defaulting to unpruned grid for atomic number  77.
 Defaulting to unpruned grid for atomic number  77.
 Defaulting to unpruned grid for atomic number  77.
 Defaulting to unpruned grid for atomic number  77.
 Defaulting to unpruned grid for atomic number  77.
 Defaulting to unpruned grid for atomic number  77.
 End of G2Drv F.D. properties file   721 does not exist.
 End of G2Drv F.D. properties file   722 does not exist.
 End of G2Drv F.D. properties file   788 does not exist.
          IDoAtm=11111111111111111111111111111111111111111111111111
          IDoAtm=11111111111111111111111111111111111111111111111111
          IDoAtm=11111111111111
          Differentiating once with respect to electric field.
                with respect to dipole field.
          Differentiating once with respect to nuclear coordinates.
 Defaulting to unpruned grid for atomic number  77.
 CalDSu exits because no D1Ps are significant.
 Defaulting to unpruned grid for atomic number  77.
 Defaulting to unpruned grid for atomic number  77.
 Defaulting to unpruned grid for atomic number  77.
 Defaulting to unpruned grid for atomic number  77.
 Defaulting to unpruned grid for atomic number  77.
 Defaulting to unpruned grid for atomic number  77.
 Defaulting to unpruned grid for atomic number  77.
 Defaulting to unpruned grid for atomic number  77.
 Defaulting to unpruned grid for atomic number  77.
 Defaulting to unpruned grid for atomic number  77.
 Defaulting to unpruned grid for atomic number  77.
 Defaulting to unpruned grid for atomic number  77.
 Defaulting to unpruned grid for atomic number  77.
 Defaulting to unpruned grid for atomic number  77.
 Defaulting to unpruned grid for atomic number  77.
 Defaulting to unpruned grid for atomic number  77.
          There are   345 degrees of freedom in the 1st order CPHF.  IDoFFX=6 NUNeed=     3.
    342 vectors produced by pass  0 Test12= 1.54D-13 1.00D-09 XBig12= 5.25D+02 1.12D+01.
 AX will form    72 AO Fock derivatives at one time.
    342 vectors produced by pass  1 Test12= 1.54D-13 1.00D-09 XBig12= 9.01D+01 1.15D+00.
    342 vectors produced by pass  2 Test12= 1.54D-13 1.00D-09 XBig12= 1.02D+00 9.28D-02.
    342 vectors produced by pass  3 Test12= 1.54D-13 1.00D-09 XBig12= 6.85D-03 6.59D-03.
    342 vectors produced by pass  4 Test12= 1.54D-13 1.00D-09 XBig12= 2.76D-05 4.01D-04.
    298 vectors produced by pass  5 Test12= 1.54D-13 1.00D-09 XBig12= 5.23D-08 1.46D-05.
     84 vectors produced by pass  6 Test12= 1.54D-13 1.00D-09 XBig12= 7.57D-11 5.88D-07.
      3 vectors produced by pass  7 Test12= 1.54D-13 1.00D-09 XBig12= 1.08D-13 1.98D-08.
 InvSVY:  IOpt=1 It=  1 EMax= 2.84D-14
 Solved reduced A of dimension  2095 with   345 vectors.
 Isotropic polarizability for W=    0.000000      513.04 Bohr**3.
 End of Minotr F.D. properties file   721 does not exist.
 End of Minotr F.D. properties file   722 does not exist.
 End of Minotr F.D. properties file   788 does not exist.
 Hyperfine terms turned off by default for NAtoms > 100.

 **********************************************************************

            Population analysis using the SCF Density.

 **********************************************************************

 Orbital symmetries:
       Occupied  (A) (A) (A) (A) (A) (A) (A) (A) (A) (A) (A) (A)
                 (A) (A) (A) (A) (A) (A) (A) (A) (A) (A) (A) (A)
                 (A) (A) (A) (A) (A) (A) (A) (A) (A) (A) (A) (A)
                 (A) (A) (A) (A) (A) (A) (A) (A) (A) (A) (A) (A)
                 (A) (A) (A) (A) (A) (A) (A) (A) (A) (A) (A) (A)
                 (A) (A) (A) (A) (A) (A) (A) (A) (A) (A) (A) (A)
                 (A) (A) (A) (A) (A) (A) (A) (A) (A) (A) (A) (A)
                 (A) (A) (A) (A) (A) (A) (A) (A) (A) (A) (A) (A)
                 (A) (A) (A) (A) (A) (A) (A) (A) (A) (A) (A) (A)
                 (A) (A) (A) (A) (A) (A) (A) (A) (A) (A) (A) (A)
                 (A) (A) (A) (A) (A) (A) (A) (A) (A) (A) (A) (A)
                 (A) (A) (A) (A) (A) (A) (A) (A) (A) (A) (A) (A)
                 (A) (A) (A) (A) (A) (A) (A) (A) (A) (A) (A) (A)
                 (A) (A) (A) (A) (A) (A) (A) (A) (A) (A) (A) (A)
                 (A) (A) (A) (A) (A) (A) (A) (A) (A) (A) (A) (A)
                 (A) (A) (A) (A) (A) (A) (A) (A) (A) (A) (A) (A)
                 (A) (A) (A) (A) (A) (A) (A) (A) (A) (A) (A) (A)
                 (A) (A) (A) (A) (A) (A) (A) (A) (A) (A) (A) (A)
                 (A) (A) (A) (A) (A)
       Virtual   (A) (A) (A) (A) (A) (A) (A) (A) (A) (A) (A) (A)
                 (A) (A) (A) (A) (A) (A) (A) (A) (A) (A) (A) (A)
                 (A) (A) (A) (A) (A) (A) (A) (A) (A) (A) (A) (A)
                 (A) (A) (A) (A) (A) (A) (A) (A) (A) (A) (A) (A)
                 (A) (A) (A) (A) (A) (A) (A) (A) (A) (A) (A) (A)
                 (A) (A) (A) (A) (A) (A) (A) (A) (A) (A) (A) (A)
                 (A) (A) (A) (A) (A) (A) (A) (A) (A) (A) (A) (A)
                 (A) (A) (A) (A) (A) (A) (A) (A) (A) (A) (A) (A)
                 (A) (A) (A) (A) (A) (A) (A) (A) (A) (A) (A) (A)
                 (A) (A) (A) (A) (A) (A) (A) (A) (A) (A) (A) (A)
                 (A) (A) (A) (A) (A) (A) (A) (A) (A) (A) (A) (A)
                 (A) (A) (A) (A) (A) (A) (A) (A) (A) (A) (A) (A)
                 (A) (A) (A) (A) (A) (A) (A) (A) (A) (A) (A) (A)
                 (A) (A) (A) (A) (A) (A) (A) (A) (A) (A) (A) (A)
                 (A) (A) (A) (A) (A) (A) (A) (A) (A) (A) (A) (A)
                 (A) (A) (A) (A) (A) (A) (A) (A) (A) (A) (A) (A)
                 (A) (A) (A) (A) (A) (A) (A) (A) (A) (A) (A) (A)
                 (A) (A) (A) (A) (A) (A) (A) (A) (A) (A) (A) (A)
                 (A) (A) (A) (A) (A) (A) (A) (A) (A) (A) (A) (A)
                 (A) (A) (A) (A) (A) (A) (A) (A) (A) (A) (A) (A)
                 (A) (A) (A) (A) (A) (A) (A) (A) (A) (A) (A) (A)
                 (A) (A) (A) (A) (A) (A) (A) (A) (A) (A) (A) (A)
                 (A) (A) (A) (A) (A) (A) (A) (A) (A) (A) (A) (A)
                 (A) (A) (A) (A) (A) (A) (A) (A) (A) (A) (A) (A)
                 (A) (A) (A) (A) (A) (A) (A) (A) (A) (A) (A) (A)
                 (A) (A) (A) (A) (A) (A) (A) (A) (A) (A) (A) (A)
                 (A) (A) (A) (A) (A) (A) (A) (A) (A) (A) (A) (A)
                 (A) (A) (A) (A) (A) (A) (A) (A) (A) (A) (A) (A)
                 (A) (A) (A) (A) (A) (A) (A) (A) (A) (A) (A) (A)
                 (A) (A) (A) (A) (A) (A) (A) (A) (A) (A) (A) (A)
                 (A) (A) (A) (A) (A) (A) (A) (A) (A) (A) (A) (A)
                 (A) (A) (A) (A) (A) (A) (A) (A) (A) (A) (A) (A)
                 (A) (A) (A) (A) (A) (A) (A) (A) (A) (A) (A) (A)
                 (A) (A) (A) (A) (A) (A) (A) (A) (A) (A) (A) (A)
                 (A) (A) (A) (A) (A) (A) (A) (A) (A) (A) (A) (A)
                 (A) (A) (A) (A) (A) (A) (A) (A) (A) (A) (A) (A)
                 (A) (A) (A) (A) (A) (A) (A) (A) (A) (A) (A) (A)
                 (A) (A) (A) (A) (A) (A) (A) (A) (A) (A) (A) (A)
                 (A) (A) (A) (A) (A) (A) (A) (A) (A) (A) (A) (A)
                 (A) (A) (A) (A) (A) (A) (A) (A) (A) (A) (A) (A)
                 (A) (A) (A) (A) (A) (A) (A) (A) (A) (A) (A) (A)
                 (A) (A) (A) (A) (A) (A) (A) (A) (A) (A) (A) (A)
                 (A) (A) (A) (A) (A) (A) (A) (A) (A) (A) (A) (A)
                 (A) (A) (A) (A) (A) (A) (A) (A) (A) (A) (A) (A)
                 (A) (A) (A) (A) (A) (A) (A) (A) (A) (A) (A) (A)
                 (A) (A) (A) (A) (A) (A) (A) (A) (A) (A) (A) (A)
                 (A) (A) (A) (A) (A) (A) (A) (A) (A) (A) (A) (A)
                 (A) (A) (A) (A) (A) (A) (A) (A) (A) (A) (A) (A)
                 (A) (A) (A) (A) (A) (A) (A) (A) (A) (A) (A) (A)
                 (A) (A) (A) (A) (A) (A) (A) (A) (A) (A) (A) (A)
                 (A) (A) (A) (A) (A) (A) (A) (A) (A) (A) (A) (A)
                 (A) (A) (A) (A) (A) (A) (A) (A) (A) (A) (A) (A)
                 (A) (A) (A) (A) (A) (A) (A) (A) (A) (A) (A) (A)
                 (A) (A) (A) (A) (A) (A) (A) (A) (A) (A) (A) (A)
                 (A) (A) (A) (A) (A) (A) (A) (A) (A) (A) (A) (A)
                 (A) (A) (A) (A) (A) (A) (A) (A) (A) (A) (A) (A)
                 (A) (A) (A) (A) (A) (A) (A) (A) (A) (A) (A) (A)
                 (A) (A) (A) (A) (A) (A) (A) (A) (A) (A) (A) (A)
                 (A) (A) (A)
 The electronic state is 1-A.
 Alpha  occ. eigenvalues --  -24.83559 -24.83521 -24.83324 -24.82865 -24.82852
 Alpha  occ. eigenvalues --  -24.82755 -19.20641 -19.20543 -19.20530 -19.20462
 Alpha  occ. eigenvalues --  -19.20088 -19.19857 -19.18049 -14.45915 -14.45251
 Alpha  occ. eigenvalues --  -14.41673 -10.51792 -10.51513 -10.33700 -10.33142
 Alpha  occ. eigenvalues --  -10.32841 -10.31355 -10.31336 -10.30201 -10.29900
 Alpha  occ. eigenvalues --  -10.29646 -10.29601 -10.29579 -10.29507 -10.29483
 Alpha  occ. eigenvalues --  -10.29341 -10.29273 -10.29258 -10.29207 -10.29003
 Alpha  occ. eigenvalues --  -10.27826 -10.26759 -10.24735 -10.23697 -10.23157
 Alpha  occ. eigenvalues --  -10.23070 -10.22956 -10.22945 -10.22899 -10.22861
 Alpha  occ. eigenvalues --  -10.22716 -10.22581 -10.22547 -10.22496 -10.22356
 Alpha  occ. eigenvalues --  -10.22102 -10.22084 -10.21813  -6.80668  -6.79887
 Alpha  occ. eigenvalues --   -6.79560  -3.63830  -2.06383  -2.05837  -2.05000
 Alpha  occ. eigenvalues --   -1.36165  -1.35864  -1.27659  -1.27375  -1.27155
 Alpha  occ. eigenvalues --   -1.26851  -1.06485  -1.06288  -1.06146  -1.03883
 Alpha  occ. eigenvalues --   -1.00991  -0.99479  -0.99411  -0.99208  -0.98532
 Alpha  occ. eigenvalues --   -0.93559  -0.86863  -0.86023  -0.84332  -0.80641
 Alpha  occ. eigenvalues --   -0.80630  -0.80506  -0.80348  -0.78381  -0.76525
 Alpha  occ. eigenvalues --   -0.75861  -0.75070  -0.74984  -0.74808  -0.73651
 Alpha  occ. eigenvalues --   -0.72726  -0.70607  -0.70501  -0.70326  -0.69470
 Alpha  occ. eigenvalues --   -0.68939  -0.67841  -0.67685  -0.67564  -0.66601
 Alpha  occ. eigenvalues --   -0.65862  -0.65463  -0.64064  -0.62331  -0.62165
 Alpha  occ. eigenvalues --   -0.62117  -0.61862  -0.61698  -0.61512  -0.61382
 Alpha  occ. eigenvalues --   -0.60884  -0.60469  -0.59490  -0.56999  -0.54991
 Alpha  occ. eigenvalues --   -0.54816  -0.54593  -0.54496  -0.54047  -0.53378
 Alpha  occ. eigenvalues --   -0.53280  -0.53122  -0.51829  -0.50205  -0.50045
 Alpha  occ. eigenvalues --   -0.49836  -0.49377  -0.49247  -0.49065  -0.48504
 Alpha  occ. eigenvalues --   -0.48185  -0.48102  -0.47822  -0.47611  -0.47299
 Alpha  occ. eigenvalues --   -0.47023  -0.46687  -0.46412  -0.46337  -0.46198
 Alpha  occ. eigenvalues --   -0.46093  -0.45685  -0.45622  -0.45329  -0.45031
 Alpha  occ. eigenvalues --   -0.44882  -0.44621  -0.44584  -0.44355  -0.44318
 Alpha  occ. eigenvalues --   -0.43824  -0.43668  -0.43499  -0.43403  -0.43261
 Alpha  occ. eigenvalues --   -0.43151  -0.43040  -0.43019  -0.42173  -0.40972
 Alpha  occ. eigenvalues --   -0.40915  -0.40351  -0.40296  -0.40228  -0.40154
 Alpha  occ. eigenvalues --   -0.40148  -0.40013  -0.39915  -0.39747  -0.39686
 Alpha  occ. eigenvalues --   -0.39565  -0.39457  -0.39319  -0.39219  -0.38857
 Alpha  occ. eigenvalues --   -0.38764  -0.37978  -0.37825  -0.37489  -0.37441
 Alpha  occ. eigenvalues --   -0.37282  -0.36879  -0.36822  -0.36674  -0.36581
 Alpha  occ. eigenvalues --   -0.36438  -0.36163  -0.36050  -0.35895  -0.35831
 Alpha  occ. eigenvalues --   -0.35652  -0.35290  -0.35124  -0.34888  -0.34727
 Alpha  occ. eigenvalues --   -0.34456  -0.34261  -0.33595  -0.33339  -0.33027
 Alpha  occ. eigenvalues --   -0.32619  -0.32580  -0.32032  -0.31931  -0.31622
 Alpha  occ. eigenvalues --   -0.31134  -0.30679  -0.30116  -0.30013  -0.28707
 Alpha  occ. eigenvalues --   -0.27950  -0.27398  -0.26939  -0.26625  -0.26235
 Alpha  occ. eigenvalues --   -0.26045  -0.25516  -0.25058  -0.23298  -0.22794
 Alpha  occ. eigenvalues --   -0.19127
 Alpha virt. eigenvalues --   -0.08500  -0.04761  -0.03997  -0.00537   0.02378
 Alpha virt. eigenvalues --    0.03019   0.05140   0.05550   0.06205   0.06847
 Alpha virt. eigenvalues --    0.06991   0.07976   0.08739   0.09135   0.09389
 Alpha virt. eigenvalues --    0.09660   0.09960   0.10855   0.11155   0.11454
 Alpha virt. eigenvalues --    0.11720   0.12015   0.12217   0.12389   0.12814
 Alpha virt. eigenvalues --    0.12974   0.13363   0.13573   0.13829   0.13953
 Alpha virt. eigenvalues --    0.14054   0.14495   0.14667   0.14930   0.15089
 Alpha virt. eigenvalues --    0.15223   0.15342   0.15398   0.15712   0.15961
 Alpha virt. eigenvalues --    0.16227   0.16448   0.16696   0.16813   0.17095
 Alpha virt. eigenvalues --    0.17189   0.17514   0.17706   0.18002   0.18206
 Alpha virt. eigenvalues --    0.18418   0.18725   0.18849   0.18875   0.19045
 Alpha virt. eigenvalues --    0.19214   0.19350   0.19498   0.19925   0.19974
 Alpha virt. eigenvalues --    0.20087   0.20303   0.20507   0.20636   0.20653
 Alpha virt. eigenvalues --    0.20950   0.21223   0.21456   0.21558   0.21683
 Alpha virt. eigenvalues --    0.21833   0.22180   0.22447   0.22544   0.22631
 Alpha virt. eigenvalues --    0.22885   0.23357   0.23547   0.23717   0.24149
 Alpha virt. eigenvalues --    0.24218   0.24351   0.24567   0.24676   0.24949
 Alpha virt. eigenvalues --    0.25278   0.25393   0.25545   0.25916   0.26096
 Alpha virt. eigenvalues --    0.26321   0.26471   0.26695   0.26974   0.27114
 Alpha virt. eigenvalues --    0.27315   0.27532   0.27975   0.28229   0.28875
 Alpha virt. eigenvalues --    0.29062   0.29199   0.29580   0.30301   0.30829
 Alpha virt. eigenvalues --    0.31321   0.31514   0.31762   0.31829   0.32612
 Alpha virt. eigenvalues --    0.33149   0.34005   0.34621   0.35195   0.35389
 Alpha virt. eigenvalues --    0.35921   0.36600   0.36952   0.37437   0.38219
 Alpha virt. eigenvalues --    0.38822   0.39138   0.39616   0.40114   0.41177
 Alpha virt. eigenvalues --    0.41884   0.43291   0.45134   0.45295   0.45944
 Alpha virt. eigenvalues --    0.47060   0.47484   0.48366   0.48425   0.48678
 Alpha virt. eigenvalues --    0.49205   0.49963   0.50152   0.50356   0.50819
 Alpha virt. eigenvalues --    0.50995   0.51147   0.51659   0.51851   0.52043
 Alpha virt. eigenvalues --    0.52516   0.52751   0.53429   0.53829   0.54322
 Alpha virt. eigenvalues --    0.54628   0.55003   0.55094   0.55553   0.55839
 Alpha virt. eigenvalues --    0.56206   0.56396   0.56798   0.57087   0.57260
 Alpha virt. eigenvalues --    0.57543   0.57950   0.58057   0.58409   0.58538
 Alpha virt. eigenvalues --    0.58718   0.58833   0.59295   0.59646   0.59837
 Alpha virt. eigenvalues --    0.59955   0.60486   0.60545   0.60911   0.61315
 Alpha virt. eigenvalues --    0.61563   0.61809   0.62056   0.62486   0.63090
 Alpha virt. eigenvalues --    0.63353   0.63751   0.63976   0.64493   0.64893
 Alpha virt. eigenvalues --    0.65187   0.65515   0.65724   0.65793   0.66410
 Alpha virt. eigenvalues --    0.66918   0.67201   0.67328   0.67552   0.67875
 Alpha virt. eigenvalues --    0.68026   0.68143   0.68770   0.69240   0.69392
 Alpha virt. eigenvalues --    0.69765   0.70111   0.70560   0.70959   0.71272
 Alpha virt. eigenvalues --    0.71652   0.71757   0.71904   0.72304   0.72658
 Alpha virt. eigenvalues --    0.72848   0.73405   0.73585   0.74147   0.74552
 Alpha virt. eigenvalues --    0.74827   0.74930   0.75219   0.75688   0.76022
 Alpha virt. eigenvalues --    0.76466   0.76805   0.77227   0.77824   0.78338
 Alpha virt. eigenvalues --    0.78686   0.79130   0.79621   0.79758   0.80534
 Alpha virt. eigenvalues --    0.81176   0.81367   0.81809   0.82193   0.82767
 Alpha virt. eigenvalues --    0.83132   0.83203   0.83560   0.83646   0.84010
 Alpha virt. eigenvalues --    0.84137   0.84377   0.84722   0.84871   0.84961
 Alpha virt. eigenvalues --    0.85182   0.85576   0.85921   0.86093   0.86269
 Alpha virt. eigenvalues --    0.86440   0.86983   0.87129   0.87559   0.87960
 Alpha virt. eigenvalues --    0.88168   0.88318   0.88557   0.88629   0.88968
 Alpha virt. eigenvalues --    0.89073   0.89394   0.89571   0.89814   0.90033
 Alpha virt. eigenvalues --    0.90190   0.90538   0.90702   0.90858   0.91193
 Alpha virt. eigenvalues --    0.91583   0.91666   0.91909   0.92011   0.92820
 Alpha virt. eigenvalues --    0.93170   0.93459   0.93477   0.93957   0.94258
 Alpha virt. eigenvalues --    0.94452   0.94732   0.94903   0.95326   0.95775
 Alpha virt. eigenvalues --    0.95951   0.96201   0.96556   0.96843   0.97084
 Alpha virt. eigenvalues --    0.97437   0.97964   0.98307   0.98746   0.98808
 Alpha virt. eigenvalues --    0.99403   0.99777   0.99973   1.00297   1.00892
 Alpha virt. eigenvalues --    1.01135   1.01453   1.02074   1.02622   1.02919
 Alpha virt. eigenvalues --    1.03320   1.03581   1.04247   1.04515   1.05126
 Alpha virt. eigenvalues --    1.05719   1.05950   1.06472   1.06998   1.07432
 Alpha virt. eigenvalues --    1.07803   1.08508   1.09294   1.09358   1.10038
 Alpha virt. eigenvalues --    1.10198   1.10297   1.10854   1.11659   1.11959
 Alpha virt. eigenvalues --    1.12628   1.13232   1.13614   1.14133   1.14682
 Alpha virt. eigenvalues --    1.15430   1.15838   1.16138   1.16783   1.17315
 Alpha virt. eigenvalues --    1.17868   1.18029   1.18501   1.18657   1.18955
 Alpha virt. eigenvalues --    1.19302   1.19754   1.20093   1.20590   1.21158
 Alpha virt. eigenvalues --    1.21624   1.22179   1.22334   1.22947   1.23524
 Alpha virt. eigenvalues --    1.24507   1.25045   1.25326   1.26105   1.26406
 Alpha virt. eigenvalues --    1.26872   1.27316   1.28200   1.28799   1.29054
 Alpha virt. eigenvalues --    1.30239   1.30850   1.31445   1.32035   1.33216
 Alpha virt. eigenvalues --    1.33302   1.33598   1.33890   1.34278   1.34618
 Alpha virt. eigenvalues --    1.34909   1.35614   1.35647   1.36089   1.36552
 Alpha virt. eigenvalues --    1.37225   1.37982   1.38410   1.38685   1.38745
 Alpha virt. eigenvalues --    1.38886   1.39649   1.40055   1.40430   1.40646
 Alpha virt. eigenvalues --    1.41171   1.41512   1.42260   1.42977   1.43278
 Alpha virt. eigenvalues --    1.43974   1.44488   1.44920   1.45593   1.45662
 Alpha virt. eigenvalues --    1.46252   1.46907   1.47044   1.47609   1.48608
 Alpha virt. eigenvalues --    1.48918   1.49124   1.49284   1.49912   1.50227
 Alpha virt. eigenvalues --    1.50955   1.51691   1.52769   1.53287   1.53888
 Alpha virt. eigenvalues --    1.54589   1.55790   1.56191   1.56581   1.57926
 Alpha virt. eigenvalues --    1.58988   1.60120   1.60588   1.61607   1.62237
 Alpha virt. eigenvalues --    1.62832   1.62929   1.63785   1.64341   1.64733
 Alpha virt. eigenvalues --    1.64958   1.65279   1.66139   1.66580   1.66945
 Alpha virt. eigenvalues --    1.67625   1.68011   1.68527   1.68897   1.69240
 Alpha virt. eigenvalues --    1.69518   1.70405   1.70722   1.70899   1.71210
 Alpha virt. eigenvalues --    1.72157   1.72546   1.73693   1.74200   1.74841
 Alpha virt. eigenvalues --    1.75285   1.75987   1.76380   1.76789   1.77359
 Alpha virt. eigenvalues --    1.77825   1.78289   1.78577   1.78956   1.79964
 Alpha virt. eigenvalues --    1.80395   1.80824   1.81473   1.81778   1.82008
 Alpha virt. eigenvalues --    1.82519   1.82860   1.83140   1.84403   1.84560
 Alpha virt. eigenvalues --    1.84723   1.84838   1.85007   1.85597   1.85829
 Alpha virt. eigenvalues --    1.86099   1.86449   1.86665   1.86905   1.87500
 Alpha virt. eigenvalues --    1.87636   1.88229   1.88932   1.89454   1.89703
 Alpha virt. eigenvalues --    1.90224   1.90618   1.90850   1.91112   1.91581
 Alpha virt. eigenvalues --    1.91648   1.91888   1.92057   1.92371   1.92477
 Alpha virt. eigenvalues --    1.93029   1.93108   1.93252   1.93679   1.94098
 Alpha virt. eigenvalues --    1.94629   1.95212   1.95347   1.96094   1.96542
 Alpha virt. eigenvalues --    1.97069   1.97430   1.98232   1.98701   1.98953
 Alpha virt. eigenvalues --    1.99581   1.99759   2.00150   2.00686   2.01123
 Alpha virt. eigenvalues --    2.01609   2.02186   2.02361   2.02439   2.02618
 Alpha virt. eigenvalues --    2.03147   2.03351   2.03624   2.04102   2.04217
 Alpha virt. eigenvalues --    2.04894   2.05205   2.05581   2.05974   2.06423
 Alpha virt. eigenvalues --    2.06699   2.06928   2.07182   2.07456   2.07896
 Alpha virt. eigenvalues --    2.08411   2.08577   2.08901   2.09411   2.09454
 Alpha virt. eigenvalues --    2.09627   2.10005   2.10431   2.10997   2.11059
 Alpha virt. eigenvalues --    2.11239   2.12136   2.12383   2.12895   2.13234
 Alpha virt. eigenvalues --    2.13670   2.13905   2.14132   2.14354   2.14826
 Alpha virt. eigenvalues --    2.15222   2.15545   2.15798   2.16423   2.16494
 Alpha virt. eigenvalues --    2.16954   2.18003   2.18125   2.18927   2.19095
 Alpha virt. eigenvalues --    2.19256   2.19453   2.19727   2.19752   2.19986
 Alpha virt. eigenvalues --    2.20700   2.21443   2.21712   2.21899   2.22203
 Alpha virt. eigenvalues --    2.22371   2.22785   2.23377   2.23855   2.24381
 Alpha virt. eigenvalues --    2.24654   2.24953   2.24983   2.25393   2.25628
 Alpha virt. eigenvalues --    2.25804   2.26540   2.26878   2.27003   2.27280
 Alpha virt. eigenvalues --    2.27762   2.28013   2.28317   2.28866   2.29290
 Alpha virt. eigenvalues --    2.31023   2.31139   2.31825   2.32327   2.32506
 Alpha virt. eigenvalues --    2.32588   2.33208   2.33522   2.33644   2.34168
 Alpha virt. eigenvalues --    2.34906   2.35372   2.36253   2.38205   2.38739
 Alpha virt. eigenvalues --    2.38922   2.39353   2.39511   2.41341   2.41425
 Alpha virt. eigenvalues --    2.43481   2.43808   2.45330   2.45664   2.45974
 Alpha virt. eigenvalues --    2.46647   2.47411   2.47835   2.48183   2.48512
 Alpha virt. eigenvalues --    2.49133   2.49478   2.50221   2.50601   2.50871
 Alpha virt. eigenvalues --    2.52157   2.52825   2.54782   2.56373   2.59332
 Alpha virt. eigenvalues --    2.59582   2.60413   2.60738   2.61705   2.62317
 Alpha virt. eigenvalues --    2.63753   2.64009   2.64439   2.64628   2.64784
 Alpha virt. eigenvalues --    2.65742   2.66358   2.66926   2.67794   2.68191
 Alpha virt. eigenvalues --    2.71031   2.72643   2.74479   2.75858   2.76674
 Alpha virt. eigenvalues --    2.77302   2.77536   2.77663   2.78124   2.78275
 Alpha virt. eigenvalues --    2.79697   2.80129   2.80463   2.80639   2.81033
 Alpha virt. eigenvalues --    2.81715   2.81767   2.82723   2.83031   2.84029
 Alpha virt. eigenvalues --    2.84439   2.85353   2.88151   2.88711   2.91389
 Alpha virt. eigenvalues --    2.91870   2.92062   2.94704   2.94778   2.95397
 Alpha virt. eigenvalues --    2.96263   2.97229   2.98035   2.99641   3.03100
 Alpha virt. eigenvalues --    3.03532   3.05500   3.06481   3.06729   3.07103
 Alpha virt. eigenvalues --    3.08478   3.08737   3.10856   3.11374   3.12323
 Alpha virt. eigenvalues --    3.13044   3.13724   3.13976   3.15040   3.20531
 Alpha virt. eigenvalues --    3.26040   3.32506   3.45308  14.53545
          Condensed to atoms (all electrons):
 Mulliken charges:
               1
     1  C    0.322854
     2  C    0.047960
     3  C   -0.069212
     4  C   -0.149381
     5  C   -0.169324
     6  C    0.338804
     7  C    0.054568
     8  C   -0.077753
     9  C   -0.155053
    10  C   -0.185184
    11  H    0.198483
    12  H    0.200318
    13  H    0.181074
    14  H    0.227587
    15  H    0.201129
    16  H    0.179315
    17  N   -0.475808
    18  N   -0.514451
    19  Ir  -0.370425
    20  O   -0.507570
    21  O   -0.491378
    22  O   -0.525917
    23  B    0.537381
    24  B    0.536574
    25  B    0.523782
    26  O   -0.528561
    27  O   -0.538733
    28  C    0.291891
    29  C    0.297419
    30  C    0.296114
    31  C    0.293399
    32  C    0.291702
    33  C    0.297697
    34  O   -0.531492
    35  C   -0.500763
    36  H    0.169956
    37  H    0.157426
    38  H    0.152224
    39  C   -0.508455
    40  H    0.176750
    41  H    0.169410
    42  H    0.146118
    43  C   -0.508918
    44  H    0.166172
    45  H    0.167103
    46  H    0.152933
    47  C   -0.491536
    48  H    0.185902
    49  H    0.148683
    50  H    0.150853
    51  C   -0.507976
    52  H    0.147886
    53  H    0.164346
    54  H    0.173875
    55  C   -0.505390
    56  H    0.180117
    57  H    0.142936
    58  H    0.166812
    59  C   -0.507106
    60  H    0.156559
    61  H    0.158664
    62  H    0.163293
    63  C   -0.506569
    64  H    0.169140
    65  H    0.151162
    66  H    0.169653
    67  C   -0.508120
    68  H    0.167419
    69  H    0.168302
    70  H    0.151459
    71  C   -0.507556
    72  H    0.157709
    73  H    0.150858
    74  H    0.186205
    75  C   -0.513005
    76  H    0.151633
    77  H    0.165202
    78  H    0.172625
    79  C   -0.507666
    80  H    0.149923
    81  H    0.180945
    82  H    0.152928
    83  H    0.169481
    84  C    0.584151
    85  O   -0.521572
    86  C   -0.409932
    87  H    0.170804
    88  H    0.170203
    89  C   -0.113303
    90  C   -0.462282
    91  H    0.210854
    92  N   -0.377773
    93  C   -0.188858
    94  C   -0.490871
    95  H    0.199921
    96  H    0.157906
    97  C   -0.469234
    98  C    0.969278
    99  F   -0.314018
   100  F   -0.309435
   101  F   -0.302174
   102  C    0.969522
   103  F   -0.312262
   104  F   -0.314648
   105  F   -0.306183
   106  H    0.178769
   107  H    0.163509
   108  H    0.170652
   109  H    0.163662
   110  H    0.156785
   111  H    0.174948
   112  H    0.146266
   113  H    0.158177
   114  H    0.179728
 Sum of Mulliken charges =  -0.00000
 Mulliken charges with hydrogens summed into heavy atoms:
               1
     1  C    0.322854
     2  C    0.246443
     3  C   -0.069212
     4  C    0.050937
     5  C    0.011750
     6  C    0.338804
     7  C    0.282154
     8  C   -0.077753
     9  C    0.046075
    10  C   -0.005868
    17  N   -0.475808
    18  N   -0.514451
    19  Ir  -0.200944
    20  O   -0.507570
    21  O   -0.491378
    22  O   -0.525917
    23  B    0.537381
    24  B    0.536574
    25  B    0.523782
    26  O   -0.528561
    27  O   -0.538733
    28  C    0.291891
    29  C    0.297419
    30  C    0.296114
    31  C    0.293399
    32  C    0.291702
    33  C    0.297697
    34  O   -0.531492
    35  C   -0.021157
    39  C   -0.016177
    43  C   -0.022710
    47  C   -0.006097
    51  C   -0.021868
    55  C   -0.015525
    59  C   -0.028590
    63  C   -0.016615
    67  C   -0.020940
    71  C   -0.012784
    75  C   -0.023545
    79  C   -0.023870
    84  C    0.584151
    85  O   -0.521572
    86  C   -0.068926
    89  C    0.097551
    90  C    0.033113
    92  N   -0.377773
    93  C    0.168969
    94  C    0.022059
    97  C    0.014937
    98  C    0.969278
    99  F   -0.314018
   100  F   -0.309435
   101  F   -0.302174
   102  C    0.969522
   103  F   -0.312262
   104  F   -0.314648
   105  F   -0.306183
 APT charges:
               1
     1  C    0.171118
     2  C    0.064301
     3  C   -0.195984
     4  C    0.084834
     5  C   -0.151158
     6  C    0.233728
     7  C    0.021700
     8  C   -0.178428
     9  C    0.094680
    10  C   -0.207592
    11  H    0.109227
    12  H    0.066579
    13  H    0.044355
    14  H    0.146507
    15  H    0.058494
    16  H    0.046299
    17  N   -0.172358
    18  N   -0.072595
    19  Ir  -1.153486
    20  O   -0.967080
    21  O   -0.932888
    22  O   -0.908413
    23  B    1.267686
    24  B    1.248040
    25  B    1.208113
    26  O   -0.948219
    27  O   -1.009624
    28  C    0.496798
    29  C    0.498346
    30  C    0.453906
    31  C    0.457506
    32  C    0.477700
    33  C    0.478608
    34  O   -0.948966
    35  C   -0.036400
    36  H    0.007010
    37  H   -0.005101
    38  H   -0.022336
    39  C   -0.006584
    40  H    0.006384
    41  H   -0.002020
    42  H   -0.020297
    43  C   -0.008487
    44  H    0.000455
    45  H    0.003288
    46  H   -0.016448
    47  C   -0.030845
    48  H    0.022068
    49  H   -0.027941
    50  H   -0.006929
    51  C   -0.002838
    52  H   -0.016930
    53  H   -0.003208
    54  H    0.000855
    55  C   -0.036553
    56  H    0.033316
    57  H   -0.025483
    58  H    0.000818
    59  C   -0.021521
    60  H   -0.010483
    61  H   -0.020241
    62  H   -0.003354
    63  C   -0.004535
    64  H    0.000452
    65  H   -0.017833
    66  H    0.002505
    67  C   -0.000211
    68  H   -0.000337
    69  H    0.005427
    70  H   -0.019723
    71  C   -0.025604
    72  H   -0.001087
    73  H   -0.024316
    74  H    0.005364
    75  C   -0.008467
    76  H   -0.013237
    77  H   -0.004497
    78  H    0.001051
    79  C   -0.032570
    80  H   -0.019542
    81  H    0.022329
    82  H   -0.011612
    83  H    0.296202
    84  C    0.816162
    85  O   -0.673158
    86  C    0.003849
    87  H   -0.020410
    88  H   -0.004610
    89  C    0.507171
    90  C   -0.002878
    91  H   -0.023395
    92  N   -0.832016
    93  C    0.352038
    94  C    0.006089
    95  H   -0.009225
    96  H   -0.028208
    97  C    0.079692
    98  C    1.757738
    99  F   -0.576241
   100  F   -0.528171
   101  F   -0.578980
   102  C    1.822699
   103  F   -0.625291
   104  F   -0.589772
   105  F   -0.514042
   106  H    0.013528
   107  H   -0.014518
   108  H   -0.020356
   109  H   -0.004429
   110  H   -0.069122
   111  H    0.010416
   112  H   -0.010478
   113  H   -0.028035
   114  H    0.002261
 Sum of APT charges =  -0.00000
 APT charges with hydrogens summed into heavy atoms:
               1
     1  C    0.171118
     2  C    0.173528
     3  C   -0.195984
     4  C    0.151413
     5  C   -0.106803
     6  C    0.233728
     7  C    0.168208
     8  C   -0.178428
     9  C    0.153174
    10  C   -0.161293
    17  N   -0.172358
    18  N   -0.072595
    19  Ir  -0.857284
    20  O   -0.967080
    21  O   -0.932888
    22  O   -0.908413
    23  B    1.267686
    24  B    1.248040
    25  B    1.208113
    26  O   -0.948219
    27  O   -1.009624
    28  C    0.496798
    29  C    0.498346
    30  C    0.453906
    31  C    0.457506
    32  C    0.477700
    33  C    0.478608
    34  O   -0.948966
    35  C   -0.056827
    39  C   -0.022517
    43  C   -0.021192
    47  C   -0.043648
    51  C   -0.022121
    55  C   -0.027902
    59  C   -0.055598
    63  C   -0.019411
    67  C   -0.014843
    71  C   -0.045642
    75  C   -0.025150
    79  C   -0.041395
    84  C    0.816162
    85  O   -0.673158
    86  C   -0.021170
    89  C    0.483776
    90  C   -0.066013
    92  N   -0.832016
    93  C    0.314606
    94  C   -0.015258
    97  C    0.043440
    98  C    1.757738
    99  F   -0.576241
   100  F   -0.528171
   101  F   -0.578980
   102  C    1.822699
   103  F   -0.625291
   104  F   -0.589772
   105  F   -0.514042
 Electronic spatial extent (au):  <R**2>=          33662.5047
 Charge=              0.0000 electrons
 Dipole moment (field-independent basis, Debye):
    X=              0.6199    Y=             -1.4821    Z=              1.7341  Tot=              2.3639
 Quadrupole moment (field-independent basis, Debye-Ang):
   XX=           -348.2897   YY=           -328.1506   ZZ=           -344.2283
   XY=             -1.1110   XZ=             -2.9953   YZ=            -11.4972
 Traceless Quadrupole moment (field-independent basis, Debye-Ang):
   XX=             -8.0668   YY=             12.0723   ZZ=             -4.0055
   XY=             -1.1110   XZ=             -2.9953   YZ=            -11.4972
 Octapole moment (field-independent basis, Debye-Ang**2):
  XXX=              0.3538  YYY=           -134.0502  ZZZ=            -23.7121  XYY=             28.6777
  XXY=             45.1365  XXZ=            -37.6282  XZZ=            -17.0297  YZZ=              4.4392
  YYZ=             65.1769  XYZ=            -12.4119
 Hexadecapole moment (field-independent basis, Debye-Ang**3):
 XXXX=         -19987.7441 YYYY=         -12369.7845 ZZZZ=          -9697.5931 XXXY=            -29.7970
 XXXZ=             64.0952 YYYX=            202.7730 YYYZ=           -246.5875 ZZZX=             52.8695
 ZZZY=            -20.0070 XXYY=          -5442.3753 XXZZ=          -4796.3434 YYZZ=          -3830.4660
 XXYZ=           -119.0520 YYXZ=            189.8613 ZZXY=             44.7748
 N-N= 1.037187879145D+04 E-N=-2.753220999124D+04  KE= 2.823585575754D+03
  Exact polarizability:     573.131       2.370     520.182      -0.973     -29.941     445.793
 Approx polarizability:     808.931      18.016     786.011      18.899     -60.961     644.427
   1 Symmetry operations used in ECPInt.
 ECPInt:  NShTT=   60031 NPrTT=  371420 LenC2=   45018 LenP2D=  138141.
 LDataN:  DoStor=T MaxTD1= 8 Len=  415
 Calling FoFJK, ICntrl=    100127 FMM=F ISym2X=0 I1Cent= 0 IOpClX= 0 NMat=1 NMatS=1 NMatT=0.
 Defaulting to unpruned grid for atomic number  77.
 Defaulting to unpruned grid for atomic number  77.
 Defaulting to unpruned grid for atomic number  77.
 Defaulting to unpruned grid for atomic number  77.
 Defaulting to unpruned grid for atomic number  77.
 Defaulting to unpruned grid for atomic number  77.
 Defaulting to unpruned grid for atomic number  77.
 Defaulting to unpruned grid for atomic number  77.
 Defaulting to unpruned grid for atomic number  77.
 Defaulting to unpruned grid for atomic number  77.
 Defaulting to unpruned grid for atomic number  77.
 Defaulting to unpruned grid for atomic number  77.
 Defaulting to unpruned grid for atomic number  77.
 Defaulting to unpruned grid for atomic number  77.
 Defaulting to unpruned grid for atomic number  77.
 Defaulting to unpruned grid for atomic number  77.
 Full mass-weighted force constant matrix:
 Low frequencies --- -689.4824   -8.9566   -0.0009   -0.0007   -0.0004    1.0091
 Low frequencies ---    5.1619   20.2722   24.1924
 ******    1 imaginary frequencies (negative Signs) ****** 
 Diagonal vibrational polarizability:
       98.3448913      79.2073548     110.9822789
 Harmonic frequencies (cm**-1), IR intensities (KM/Mole), Raman scattering
 activities (A**4/AMU), depolarization ratios for plane and unpolarized
 incident light, reduced masses (AMU), force constants (mDyne/A),
 and normal coordinates:
                      1                      2                      3
                      A                      A                      A
 Frequencies --   -689.4823                19.8833                23.8913
 Red. masses --      1.1684                 5.9214                 4.6395
 Frc consts  --      0.3273                 0.0014                 0.0016
 IR Inten    --    348.8638                 0.1066                 0.2542
  Atom AN      X      Y      Z        X      Y      Z        X      Y      Z
     1   6    -0.00   0.00   0.00     0.02   0.02   0.02    -0.01  -0.02  -0.00
     2   6     0.00  -0.00  -0.00     0.01   0.02  -0.02    -0.01  -0.02   0.01
     3   6    -0.00   0.00  -0.00     0.02   0.03  -0.03    -0.01  -0.02   0.02
     4   6    -0.00  -0.00  -0.00     0.03   0.03  -0.01    -0.01  -0.02   0.01
     5   6     0.00   0.00  -0.00     0.02   0.03   0.02    -0.01  -0.02   0.00
     6   6     0.00   0.00   0.00     0.01   0.01   0.03    -0.01  -0.02  -0.01
     7   6     0.00   0.00   0.00     0.01  -0.00   0.02    -0.01  -0.01   0.00
     8   6     0.00   0.00  -0.00     0.02  -0.01   0.02    -0.01  -0.01  -0.01
     9   6     0.00   0.00  -0.00     0.02   0.00   0.03    -0.01  -0.02  -0.02
    10   6     0.00   0.00  -0.00     0.02   0.01   0.04    -0.01  -0.02  -0.02
    11   1     0.01  -0.00  -0.01     0.01   0.02  -0.03    -0.01  -0.02   0.01
    12   1    -0.00  -0.00  -0.00     0.04   0.04  -0.02    -0.01  -0.02   0.02
    13   1     0.00   0.00  -0.00     0.03   0.03   0.03    -0.01  -0.02  -0.00
    14   1    -0.00   0.00   0.01     0.01  -0.01   0.01    -0.01  -0.00   0.01
    15   1     0.00   0.00   0.00     0.02   0.00   0.04    -0.01  -0.02  -0.03
    16   1     0.00   0.00  -0.01     0.02   0.02   0.05    -0.01  -0.02  -0.02
    17   7    -0.00   0.00  -0.00     0.01   0.02   0.01    -0.01  -0.02   0.00
    18   7     0.00   0.02   0.02     0.01   0.00   0.02    -0.01  -0.01   0.00
    19  77     0.00  -0.00  -0.01     0.00   0.00   0.02    -0.01  -0.01   0.01
    20   8    -0.00  -0.00   0.00     0.02   0.04   0.03     0.01  -0.01   0.01
    21   8    -0.00  -0.00   0.00     0.06  -0.00   0.02     0.05  -0.03  -0.02
    22   8    -0.00   0.00   0.00    -0.01   0.01   0.01    -0.01   0.00   0.01
    23   5    -0.01   0.01   0.03     0.01  -0.00   0.03     0.02  -0.02  -0.00
    24   5    -0.01  -0.01  -0.01     0.01   0.01   0.00    -0.00  -0.01   0.01
    25   5    -0.00   0.00   0.01    -0.01   0.01   0.01    -0.00  -0.00   0.00
    26   8    -0.00   0.00   0.00    -0.05   0.01  -0.02     0.01   0.00  -0.00
    27   8    -0.00  -0.00   0.00     0.00  -0.02  -0.04    -0.00   0.00   0.01
    28   6    -0.00   0.00  -0.00     0.01  -0.01  -0.03     0.00   0.01   0.00
    29   6    -0.00   0.00   0.00     0.03   0.04   0.01     0.01  -0.00   0.00
    30   6    -0.00   0.00   0.00    -0.04   0.00  -0.02    -0.01   0.02   0.01
    31   6    -0.00   0.00   0.00    -0.07   0.01  -0.02     0.01   0.01  -0.00
    32   6    -0.00   0.00   0.00     0.04  -0.01   0.04     0.07  -0.03  -0.02
    33   6     0.00   0.00  -0.00    -0.01  -0.03   0.09     0.04  -0.05   0.00
    34   8     0.00  -0.00   0.00    -0.04  -0.02   0.07     0.00  -0.03   0.01
    35   6     0.00   0.00   0.00     0.06   0.09  -0.03     0.01  -0.01   0.01
    36   1     0.00  -0.00   0.00     0.08   0.11  -0.00     0.01  -0.02   0.01
    37   1     0.00   0.00  -0.00     0.06   0.08  -0.06    -0.01  -0.01   0.01
    38   1     0.00   0.00   0.00     0.07   0.10  -0.05     0.01  -0.00  -0.00
    39   6     0.00   0.00   0.00     0.03   0.05   0.06     0.01  -0.01  -0.01
    40   1    -0.00   0.00   0.00     0.01   0.03   0.09     0.02  -0.00  -0.01
    41   1     0.00  -0.00   0.00     0.05   0.09   0.08     0.02  -0.01  -0.01
    42   1     0.00  -0.00  -0.00     0.04   0.06   0.04     0.02  -0.00  -0.01
    43   6    -0.00  -0.00   0.00     0.02  -0.01  -0.08     0.00   0.01   0.00
    44   1     0.00   0.00  -0.00     0.05  -0.00  -0.09    -0.00   0.01   0.01
    45   1    -0.00  -0.00  -0.00    -0.01  -0.03  -0.10    -0.00   0.02   0.01
    46   1     0.00   0.00   0.00     0.03  -0.01  -0.09     0.01   0.01  -0.00
    47   6     0.00  -0.00   0.00    -0.03  -0.04   0.00     0.01   0.01  -0.00
    48   1    -0.00   0.00   0.00    -0.04  -0.05   0.05     0.01   0.01  -0.00
    49   1     0.00  -0.00  -0.00    -0.02  -0.03   0.01     0.02   0.01  -0.00
    50   1    -0.00   0.00   0.00    -0.06  -0.07  -0.03     0.01   0.02   0.00
    51   6    -0.00  -0.00  -0.00     0.10  -0.03   0.06     0.11  -0.06  -0.03
    52   1    -0.00  -0.00   0.00     0.08  -0.04   0.09     0.12  -0.06  -0.04
    53   1    -0.00  -0.00  -0.00     0.13  -0.04   0.10     0.11  -0.09  -0.02
    54   1    -0.00  -0.00   0.00     0.13  -0.01   0.02     0.13  -0.04  -0.05
    55   6    -0.00   0.00   0.00     0.00   0.01  -0.01     0.07   0.01  -0.05
    56   1    -0.00   0.00   0.00    -0.03   0.02  -0.03     0.04   0.03  -0.04
    57   1     0.00   0.00   0.00    -0.02   0.01  -0.00     0.07   0.01  -0.06
    58   1    -0.00   0.00   0.00     0.04   0.01  -0.05     0.08   0.01  -0.06
    59   6    -0.00  -0.00  -0.00     0.02  -0.07   0.15     0.04  -0.09   0.02
    60   1     0.00  -0.00  -0.00     0.06  -0.07   0.14     0.05  -0.11   0.03
    61   1    -0.00  -0.00  -0.00     0.04  -0.08   0.17     0.07  -0.10   0.01
    62   1     0.00   0.00  -0.00    -0.02  -0.08   0.18     0.02  -0.09   0.05
    63   6    -0.00  -0.00   0.00    -0.07  -0.03   0.10     0.03  -0.03   0.00
    64   1     0.00   0.00  -0.00    -0.10  -0.05   0.14    -0.00  -0.05   0.02
    65   1    -0.00  -0.00  -0.00    -0.04  -0.04   0.11     0.05  -0.04  -0.01
    66   1    -0.00  -0.00  -0.00    -0.09  -0.00   0.06     0.01   0.00  -0.01
    67   6    -0.00   0.00   0.00    -0.10  -0.01  -0.06     0.02   0.03  -0.00
    68   1    -0.00   0.00   0.00    -0.12  -0.00  -0.08     0.03   0.02  -0.01
    69   1    -0.00  -0.00   0.00    -0.08  -0.04  -0.07     0.01   0.03  -0.00
    70   1    -0.00   0.00   0.00    -0.11   0.00  -0.07     0.02   0.04  -0.00
    71   6    -0.00   0.00   0.00    -0.10   0.05  -0.00     0.01   0.01  -0.00
    72   1    -0.00   0.00   0.00    -0.12   0.05  -0.01     0.02   0.00  -0.01
    73   1     0.00   0.00   0.00    -0.13   0.06  -0.01     0.01   0.02  -0.00
    74   1    -0.00  -0.00   0.00    -0.09   0.06   0.03     0.00  -0.00   0.00
    75   6    -0.00  -0.00   0.00    -0.05   0.02  -0.00    -0.01   0.02   0.01
    76   1     0.00  -0.00   0.00    -0.08   0.02  -0.02    -0.01   0.03   0.01
    77   1     0.00   0.00  -0.00    -0.03   0.01   0.00    -0.02   0.02   0.01
    78   1    -0.00  -0.00  -0.00    -0.06   0.05   0.02    -0.01   0.01   0.01
    79   6    -0.00  -0.00   0.00    -0.02  -0.03  -0.04    -0.01   0.03   0.01
    80   1    -0.00  -0.00  -0.00    -0.04  -0.04  -0.07    -0.01   0.04   0.01
    81   1    -0.00   0.00   0.00    -0.01  -0.06  -0.06    -0.01   0.03   0.01
    82   1     0.00   0.00  -0.00     0.00  -0.04  -0.02    -0.02   0.03   0.01
    83   1    -0.10   0.77   0.59     0.01  -0.01   0.01    -0.03  -0.01  -0.01
    84   6    -0.00   0.00   0.00    -0.03  -0.05  -0.02     0.03   0.10  -0.01
    85   8     0.01  -0.00   0.00    -0.05  -0.04   0.00     0.09   0.08   0.00
    86   6    -0.00   0.00  -0.00    -0.03  -0.09  -0.07     0.01   0.19  -0.01
    87   1     0.00  -0.00  -0.00    -0.04  -0.14  -0.10    -0.00   0.20  -0.01
    88   1     0.00   0.00  -0.00     0.01  -0.05  -0.12    -0.04   0.21  -0.01
    89   6    -0.02  -0.08   0.03    -0.02  -0.01   0.01    -0.01  -0.02   0.00
    90   6    -0.00   0.01   0.03    -0.04  -0.01   0.02    -0.06  -0.08   0.02
    91   1     0.05  -0.11  -0.15    -0.03  -0.01   0.02     0.05  -0.02   0.03
    92   7    -0.02  -0.00   0.02    -0.02  -0.04  -0.02    -0.03   0.05  -0.03
    93   6    -0.01  -0.01   0.00    -0.00  -0.05  -0.03    -0.10   0.07  -0.07
    94   6    -0.00  -0.00   0.00    -0.04  -0.06  -0.04    -0.15   0.04  -0.09
    95   1    -0.01  -0.00  -0.01     0.02  -0.03  -0.01    -0.13   0.04  -0.08
    96   1    -0.01  -0.00   0.00     0.02  -0.07  -0.06    -0.10   0.13  -0.10
    97   6    -0.00   0.00  -0.00    -0.05  -0.09  -0.03     0.08   0.24   0.02
    98   6    -0.00  -0.00  -0.00     0.03   0.05  -0.08    -0.02  -0.01   0.03
    99   9    -0.00   0.00   0.00     0.01   0.02   0.05    -0.03  -0.03   0.13
   100   9    -0.00   0.00   0.00     0.07  -0.06  -0.20     0.03  -0.07  -0.02
   101   9    -0.00   0.00   0.00     0.03   0.21  -0.14    -0.06   0.07  -0.00
   102   6     0.00   0.00  -0.00     0.02  -0.01   0.01    -0.01  -0.01  -0.01
[...]
 0159,0.00000255,-0.00000041,0.00000019,-0.00000081,-0.00000031,-0.0000
 0401,0.00000308,0.00000642,0.00000131,0.00000028,0.00000557,0.00000451
 ,-0.00000105,0.00001007,0.00002183,0.00002132,-0.00000610,-0.00002253,
 -0.00002833,-0.00001402,-0.00000033,-0.00000064,0.00000013,0.00000037,
 -0.00000059,0.00000042,0.00000074,0.00000040,-0.00000074,-0.00000036,0
 .00000044,0.00000031,0.00000022,0.00000039,0.00000098,0.00000013,-0.00
 000008,-0.00000022,0.00000014,-0.00000014,0.00000001,-0.00000004,-0.00
 000023,0.00000006,0.00000025,-0.00000066,0.00000014,-0.00000007,-0.000
 00008,-0.00000035,-0.00000009,0.00000027,0.00000005,0.00000024,-0.0000
 0005,0.00000017,0.00000055,-0.00000056,0.00000017,-0.00000014,0.000000
 16,0.00000015,0.00000014,-0.00000029,-0.00000011,0.00000009,0.00000022
 ,-0.00000005,-0.00000096,0.00000032,-0.00000099,0.00000008,-0.00000173
 ,-0.00000030,0.00000083,-0.00000094,0.00000216,-0.00000194,0.00000101,
 0.00000006,-0.00000234,0.00000101,-0.00000303,0.00000105,0.00000071,0.
 00000080,0.00000024,-0.00000131,-0.00000026,-0.00000161,0.00000118,-0.
 00000024,-0.00000124,-0.00000968,0.00001274,0.00000184,-0.00000186,0.0
 0000080,-0.00000132,-0.00000092,0.00000153,0.00000158,0.00000426,-0.00
 001121,-0.00000073,-0.00000475,0.00000239,-0.00000034,0.00000223,-0.00
 000288,0.00000010,-0.00000111,-0.00000109,-0.00000147,0.00000118,0.000
 00157,-0.00000044,-0.00000004,-0.00000090,0.00000022,-0.00000072,0.000
 00013,-0.00000067,0.00000016,-0.00000015,0.00000042,-0.00000005,-0.000
 00023,-0.00000090,0.00000003,-0.00000118,0.00000051,-0.00000145,-0.000
 00002,0.00000017,-0.00000017,-0.00000065,0.00000046,0.00000139,0.00000
 108,0.00000091,0.00000020,-0.00000054,0.00000055,-0.00000016,-0.000000
 46,-0.00000051,-0.00000042,0.00000029,-0.00000058,0.00000034,0.0000003
 0,0.00000112,-0.00000030,-0.00000119,0.00000068,-0.00000027,-0.0000002
 6,-0.00000035,0.00000053,0.00000009,-0.00000055,-0.00000085,0.00000024
 ,0.00000544,0.00000056,-0.00001089,-0.00006218,0.00177802,0.00013785,0
 .00033359,-0.00024190,0.00071092,-0.00671696,-0.00171837,-0.00093153,-
 0.00008155,-0.00046369,0.00001928,0.00045849,0.00006288,0.00008444,0.0
 0007569,0.00009570,-0.00011218,-0.00004453,-0.00000797,0.00002999,-0.0
 0000357,-0.00000742,0.00001206,-0.00056799,-0.00013011,0.00017502,-0.0
 0000012,-0.00010631,0.00001584,-0.00001430,0.00003053,0.00001750,-0.00
 000048,0.00000977,-0.00000852,0.00001260,-0.00002023,0.00001094,0.0053
 6939,0.00053607,-0.04864549,0.00090890,0.00014928,-0.00024345,-0.00042
 273,0.00005568,0.00026910,-0.00035977,-0.00005626,0.00026862,-0.000138
 45,0.00001720,0.00012273,-0.00001651,-0.00000243,-0.00000211,0.0000045
 4,0.00000283,0.00000200,0.00000568,0.00000189,-0.00000232,0.00000398,-
 0.00000175,0.00000130,0.00000939,-0.00000943,-0.00000833,-0.00000592,-
 0.00001762,-0.00001597,0.00000251,0.00000763,-0.00000564,-0.00001003,0
 .00000382,-0.00001369,0.00000677,-0.00000447,0.00000904,0.00000133,0.0
 0000219,0.00000177,0.02850759,0.00568062,0.00117233,-0.00520121,-0.002
 39723,0.04587767,-0.00003167,0.00001439,0.00003332,0.00008686,0.000018
 73,0.00000339,-0.00002592,-0.00002992,0.00002151,0.00001189,0.00005407
 ,0.00003075,0.00000128,-0.00000629,0.00000362,-0.00000966,0.00000856,0
 .00001020,0.00000146,0.00000684,0.00000142,0.00000252,-0.00000944,0.00
 000196,-0.00000647,0.00000800,-0.00000577,0.00000469,-0.00000600,-0.00
 000413,0.00000514,-0.00000936,-0.00000162,0.00000679,-0.00000081,-0.00
 000844,-0.00000390,-0.00000696,0.00001259,-0.00000239,0.00000371,-0.00
 000011,-0.00000068,0.00000042,0.00000132,-0.00000128,0.00000071,0.0000
 0457,-0.00002361,-0.00005042,0.00001658,-0.00001616,-0.00002833,0.0000
 0420,0.00002077,-0.00003024,-0.00007319,0.00002312,-0.00002244,0.00000
 965,-0.00001424,-0.00004066,-0.00000749,0.00002393,-0.00000462,-0.0000
 3653,0.00003881,0.00006757,0.00002738,-0.00004146,0.00002813,-0.000007
 02,-0.00002274,0.00003348,0.00002903,0.00001746,-0.00001822,-0.0000285
 1,0.00003056,-0.00001601,0.00000342,-0.00001121,0.00001179,-0.00000368
 ,-0.00001468,0.00000571,-0.00000372,-0.00001016,0.00000570,0.00001011,
 -0.00000185,0.00000096,0.00001244,0.00000828,0.00001241,0.00001086,0.0
 0001755,0.00001765,-0.00000210,-0.00003320,-0.00003150,-0.00001768,0.0
 0000258,0.00000223,0.00000013,-0.00000173,0.00000236,-0.00000193,-0.00
 000291,-0.00000335,0.00000119,0.00000326,-0.00000146,0.00000041,0.0000
 0075,-0.00000082,-0.00000029,-0.00000048,-0.00000042,-0.00000093,-0.00
 000096,0.00000048,0.00000065,0.00000183,-0.00000091,0.00000044,0.00000
 126,-0.00000016,0.00000010,-0.00000123,-0.00000020,-0.00000084,-0.0000
 0025,0.00000103,-0.00000076,0.00000136,-0.00000127,0.00000099,0.000000
 64,-0.00000138,-0.00000022,-0.00000103,0.00000181,-0.00000077,0.000001
 42,-0.00000204,0.00000033,-0.00000052,0.00000055,-0.00000069,-0.000000
 18,-0.00000185,-0.00000190,-0.00000122,-0.00000171,-0.00000062,0.00000
 013,0.00000052,0.00000147,0.00000027,0.00000062,0.00000075,-0.00000170
 ,-0.00000163,-0.00000232,0.00000068,0.00000140,0.00000182,-0.00000028,
 -0.00000165,-0.00000169,0.00000011,0.00000141,0.00000077,-0.00000734,-
 0.00000109,-0.00000656,0.00000929,-0.00000763,0.00000688,-0.00000312,0
 .00000172,0.00000264,-0.00000220,-0.00000172,-0.00000748,-0.00000572,-
 0.00000153,0.00000054,0.00000014,0.00000064,-0.00000055,-0.00000070,-0
 .00000177,-0.00000091,0.00000030,0.00000113,0.00000220,-0.00000006,-0.
 00000026,-0.00000111,-0.00000034,-0.00000139,0.00000057,-0.00000049,0.
 00000039,0.00000063,0.00000105,0.00000002,-0.00000158,-0.00000018,0.00
 000066,-0.00000141,-0.00000036,-0.00000113,0.00000041,0.00000012,0.000
 00005,-0.00000224,0.00000090,0.00000013,0.00000121,0.00000181,-0.00000
 032,-0.00000128,0.00000125,-0.00000044,-0.00000224,-0.00000066,0.00000
 036,0.00000098,-0.00000082,0.00000013,0.00000055,0.00000146,-0.0000004
 7,-0.00000186,0.00000229,-0.00000077,-0.00000144,-0.00000172,0.0000014
 5,0.00000126,-0.00000143,-0.00000054,0.00000188,-0.00000589,0.00004685
 ,0.00005330,0.00097479,0.00217201,0.00065065,-0.00075748,-0.00115192,-
 0.00022262,0.00315105,0.01320182,0.01367494,0.00055302,-0.00081675,-0.
 00013291,-0.00205218,0.00335630,-0.00066938,-0.00011191,-0.00009543,0.
 00008605,0.00001735,-0.00001023,-0.00001994,-0.00007512,0.00000051,-0.
 00002143,0.00038854,-0.00045380,-0.00009450,0.00005904,0.00022710,0.00
 005764,-0.00003733,-0.00008258,0.00000189,-0.00006647,-0.00006073,-0.0
 0003254,-0.00003389,-0.00017037,0.00000292,-0.05617171,-0.03706315,-0.
 03606383,-0.00011485,0.00001859,-0.00008316,0.00005748,-0.00000954,-0.
 00001711,0.00002908,-0.00008006,-0.00001149,-0.00000058,-0.00002096,-0
 .00001276,-0.00003995,-0.00000735,0.00000506,0.00001063,0.00000534,0.0
 0000220,0.00001384,0.00000409,-0.00000843,0.00001087,-0.00000171,0.000
 00090,-0.00000379,0.00001864,-0.00002492,0.00002217,0.00001791,0.00000
 037,0.00000052,-0.00002111,0.00001909,0.00001083,-0.00000357,0.0000083
 9,-0.00000911,0.00001038,-0.00001802,0.00000684,-0.00001558,0.00000869
 ,0.00052568,0.00572814,0.00565689,-0.00373561,-0.02148495,-0.02202056,
 0.05735905,-0.00004844,0.00005391,-0.00000456,0.00006578,-0.00011747,0
 .00003666,-0.00000780,0.00006702,0.00000105,-0.00004631,-0.00000594,0.
 00001915,0.00006318,0.00001992,0.00001989,0.00001924,0.00000975,0.0000
 0767,-0.00000596,-0.00000002,0.00000052,0.00000196,0.00000315,-0.00000
 069,0.00000305,0.00000198,-0.00000044,-0.00000209,-0.00000120,-0.00000
 181,-0.00002046,0.00002912,0.00002783,0.00000967,0.00001716,-0.0000131
 0,-0.00000223,0.00000023,0.00000058,-0.00000100,-0.00000286,0.00000019
 ,0.00000011,0.00000038,-0.00000052,-0.00000087,0.00000027,-0.00000020,
 -0.00004377,-0.00003378,0.00000518,-0.00000373,0.00001092,-0.00000403,
 0.00003429,0.00001531,-0.00000597,0.00002550,-0.00000861,0.00001330,0.
 00002192,-0.00000181,-0.00000888,0.00001515,0.00000931,-0.00001980,-0.
 00004601,-0.00001772,0.00000514,-0.00004305,0.00001176,-0.00000936,-0.
 00002395,-0.00001085,0.00002450,0.00001585,0.00000104,-0.00001651,0.00
 002976,-0.00000499,0.00000408,-0.00000714,0.00000644,-0.00000383,-0.00
 001715,0.00000129,-0.00000854,-0.00000699,0.00000067,0.00000546,-0.000
 00568,-0.00000163,0.00000919,-0.00000510,0.00001229,-0.00000188,-0.000
 03951,-0.00001410,0.00001559,0.00003693,0.00001504,-0.00000256,0.00000
 224,0.00000095,0.00000237,-0.00000173,-0.00000023,-0.00000132,-0.00000
 134,-0.00000023,-0.00000104,0.00000283,-0.00000058,0.00000083,0.000001
 31,-0.00000081,0.00000072,-0.00000126,0.00000121,0.00000070,-0.0000015
 3,-0.00000009,-0.00000080,0.00000234,-0.00000051,0.00000026,0.00000102
 ,-0.00000049,-0.00000051,-0.00000052,0.00000090,0.00000027,0.00000009,
 0.00000053,-0.00000064,0.00000110,-0.00000085,0.00000062,-0.00000014,-
 0.00000118,0.00000054,-0.00000026,0.00000135,0.00000010,0.00000092,-0.
 00000135,0.00000037,-0.00000031,0.00000051,-0.00000043,-0.00000220,0.0
 0000072,0.00000527,-0.00000080,0.00000050,-0.00000164,0.00000106,0.000
 00323,-0.00000520,0.00000417,-0.00000184,0.00000029,0.00000429,-0.0000
 0108,0.00000300,-0.00000104,0.00000002,-0.00000092,-0.00000070,-0.0000
 0094,-0.00000157,0.00000285,-0.00000190,0.00000083,0.00002160,0.000002
 81,0.00000953,-0.00001960,0.00001637,-0.00001891,0.00000215,-0.0000057
 5,-0.00000661,0.00000349,-0.00000134,0.00002279,0.00001348,0.00000344,
 -0.00000437,-0.00000126,-0.00000019,0.00000332,-0.00000103,-0.00000049
 ,0.00000135,0.00000316,-0.00000196,-0.00000696,0.00000039,-0.00000063,
 -0.00000061,-0.00000059,0.00000039,0.00000071,0.00000041,0.,0.00000078
 ,0.00000079,0.00000023,-0.00000147,-0.00000004,-0.00000039,-0.00000082
 ,-0.00000113,0.00000187,0.00000151,0.00000120,0.00000054,-0.00000197,0
 .00000056,-0.00000212,0.00000095,0.00000078,0.00000029,-0.00000042,0.0
 0000052,-0.00000047,-0.00000114,0.00000007,0.00000132,0.00000036,-0.00
 000006,-0.00000055,0.00000059,0.00000112,0.,-0.00000049,0.00000144,-0.
 00000048,-0.00000077,-0.00000114,-0.00000013,0.00000015,-0.00000031,0.
 00000113,0.00000060,-0.00002385,-0.00000562,0.00001117,-0.00225453,-0.
 00143791,0.00010131,-0.00004730,0.00182658,0.00016311,-0.00399295,-0.0
 1989431,-0.01853305,-0.00066181,0.00079486,0.00003552,0.00347794,-0.00
 355693,0.00189589,-0.00009771,-0.00000242,0.00003679,0.00004648,-0.000
 00516,-0.00003411,0.00004049,0.00002515,-0.00001244,0.00012525,0.00013
 543,0.00005152,-0.00013297,-0.00028412,-0.00023842,0.00012190,0.000019
 21,-0.00002647,0.00012193,0.00001227,0.00009956,0.00014292,0.00022327,
 0.00013548,-0.03592312,-0.18312447,-0.13158994,0.00015784,-0.00060585,
 -0.00001042,-0.00016831,0.00019578,0.00010600,-0.00001324,0.00026932,-
 0.00017956,-0.00002022,0.00005799,-0.00003450,-0.00001594,-0.00001334,
 -0.00000997,0.00000569,0.00000811,0.00000688,0.00000511,0.00000276,0.0
 0000016,0.00000365,0.00000266,0.00000159,0.00000913,-0.00000888,0.0000
 5426,-0.00004544,-0.00001629,-0.00000938,-0.00001319,0.00001101,0.0000
 0380,0.00001285,0.00000507,0.00001052,-0.00000412,-0.00000175,0.000016
 11,-0.00001432,0.00000685,0.00000055,0.00255545,0.00918421,0.00912086,
 -0.00017451,-0.00419452,-0.00318339,0.03677334,0.20029334,0.00004008,-
 0.00006203,0.00002715,-0.00018079,0.00012739,-0.00007695,0.00009656,-0
 .00000296,-0.00013793,0.00004839,-0.00019575,-0.00002860,-0.00003436,-
 0.00004308,-0.00002113,-0.00005718,-0.00004053,-0.00001669,0.00000502,
 0.00001101,-0.00001014,0.00003162,-0.00001233,0.00001507,-0.00002447,-
 0.00000159,-0.00000102,0.00004605,0.00002048,0.00001563,-0.00001430,0.
 00002485,-0.00000850,-0.00003929,-0.00005367,0.00000938,0.00003587,0.0
 0002050,-0.00002439,0.00000068,-0.00000031,-0.00000023,0.00000474,0.00
 000098,-0.00000299,-0.00000349,-0.00000724,-0.00001008,0.00008406,0.00
 009829,0.00000737,0.00002762,0.00002201,0.00000892,0.00001356,-0.00001
 102,0.00005053,0.00001914,-0.00001336,0.00001848,0.00000829,-0.0000123
 1,0.00001320,0.00001571,-0.00000246,-0.00000841,-0.00003228,0.00000596
 ,-0.00003920,-0.00002764,0.00001929,-0.00001690,-0.00003045,0.00000861
 ,0.00001399,0.00001153,-0.00000542,-0.00000935,0.00002443,-0.00001040,
 0.00000819,-0.00000690,0.00000670,-0.00000479,-0.00000973,-0.00000021,
 -0.00000619,-0.00001017,0.00000302,0.00000924,-0.00000520,-0.00000142,
 0.00000403,-0.00000486,0.00000438,-0.00000461,0.,0.00000814,0.00000733
 ,0.00003097,-0.00002007,0.00001491,0.00000098,-0.00000020,0.00000151,-
 0.00000068,-0.00000056,0.00000023,-0.00000012,0.00000026,-0.00000148,0
 .00000142,0.00000008,0.00000098,0.00000108,-0.00000012,0.00000092,-0.0
 0000040,0.00000089,0.00000016,-0.00000078,-0.00000038,0.00000017,0.000
 00136,-0.00000065,0.00000030,0.00000113,-0.00000100,0.00000014,-0.0000
 0037,0.00000077,0.00000001,-0.00000034,0.00000035,-0.00000033,0.000001
 13,-0.00000083,0.00000069,0.00000088,-0.00000119,0.00000071,0.00000037
 ,0.00000113,0.00000027,0.00000097,-0.00000135,0.00000034,-0.00000072,0
 .00000034,-0.00000003,0.00000266,-0.00000062,0.00000103,-0.00000089,0.
 00000084,-0.00000013,-0.00000086,0.00000030,-0.00000183,0.00000187,-0.
 00000164,0.00000099,0.00000232,-0.00000097,0.00000208,-0.00000158,0.00
 000034,-0.00000015,-0.00000073,0.00000007,-0.00000067,0.00000187,-0.00
 000143,0.00000082,-0.00000847,0.00000659,-0.00001622,0.00000087,-0.000
 00200,-0.00000136,0.00000177,-0.00000299,0.00000122,0.00000457,-0.0000
 0202,0.00000910,-0.00000329,0.00000215,-0.00000258,0.00000199,0.,0.000
 00355,-0.00000035,-0.00000199,0.00000060,0.00000158,-0.00000004,-0.000
 00063,0.00000057,-0.00000045,0.00000057,-0.00000049,-0.00000019,0.0000
 0014,0.00000093,0.00000004,0.00000064,0.00000039,0.00000024,-0.0000010
 6,-0.00000123,0.00000192,0.00000075,-0.00000052,0.00000065,0.00000062,
 0.00000093,0.00000014,-0.00000130,0.00000036,-0.00000152,0.00000065,-0
 .00000093,-0.00000007,-0.00000164,0.00000116,-0.00000104,-0.00000094,-
 0.00000045,0.00000080,0.00000095,0.00000027,0.00000015,0.00000167,0.00
 000196,0.,-0.00000075,0.00000165,-0.00000089,-0.00000107,-0.00000087,-
 0.00000030,-0.00000034,-0.00000063,0.00000053,0.00000040,0.00001397,-0
 .00001099,-0.00003736,-0.00061118,-0.00173434,0.00061518,-0.00052067,0
 .00144971,0.00007665,0.00202549,0.00610867,0.00586029,0.00066890,-0.00
 031410,0.00057374,-0.00114492,0.00153622,0.00067693,0.00011097,0.00000
 385,-0.00006660,-0.00001404,0.00001632,0.00001464,0.00003496,-0.000006
 16,0.00001398,0.00000599,0.00052158,-0.00025443,-0.00010040,-0.0000030
 2,-0.00001111,-0.00001852,0.00004223,0.00004129,-0.00000634,0.00001979
 ,-0.00001240,0.00001876,-0.00002685,0.00000522,-0.03439527,-0.13200521
 ,-0.17252553,-0.00072522,0.00054011,0.00092943,0.00036864,-0.00025121,
 -0.00028747,0.00021220,-0.00000759,-0.00009565,0.00012294,-0.00008536,
 -0.00021482,-0.00004970,-0.00002825,-0.00001977,0.00001595,0.00001973,
 0.00001445,0.00001481,0.00000818,-0.00000205,0.00000970,0.00000211,0.0
 0000452,0.00001144,-0.00001347,-0.00000860,0.00001626,-0.00001208,-0.0
 0002978,0.00001017,-0.00000037,-0.00001563,-0.00000328,-0.00000153,-0.
 00000407,0.00000249,-0.00000617,0.00001127,-0.00000103,0.00000160,-0.0
 0000575,-0.00614174,-0.02068123,-0.01859922,0.00080400,0.00312119,0.00
 114118,0.03918913,0.14191706,0.18241647\\-0.00000463,0.00000596,-0.000
 00170,0.00000049,0.00000479,0.00000137,-0.00000032,-0.00001081,0.00000
 301,0.00000653,0.00000161,0.00000220,-0.00000612,-0.00000731,-0.000000
 18,0.00000461,-0.00000542,0.00000204,0.00000791,-0.00000064,-0.0000010
 7,-0.00000713,0.00000180,-0.00000190,0.00000226,-0.00000203,-0.0000014
 4,0.00000013,-0.00000205,0.00000165,-0.00000028,-0.00000212,0.00000029
 ,-0.00000397,0.00000148,-0.00000074,-0.00000039,0.00000191,-0.00000017
 ,-0.00000276,0.00000388,-0.00000218,-0.00000211,-0.00000002,-0.0000007
 6,-0.00000471,0.00000353,-0.00000313,-0.00000547,-0.00000780,-0.000000
 72,-0.00000911,0.00000516,-0.00000330,0.00000151,0.00000167,-0.0000010
 5,0.00000265,0.00000089,0.00000149,0.00000416,-0.00000596,0.00000488,-
 0.00000367,0.00000340,0.00000158,-0.00000355,0.00000481,-0.00000260,0.
 00000057,0.00000034,-0.00000159,0.00000115,-0.00000213,-0.00000327,-0.
 00000222,0.00000165,0.00000243,0.00000131,0.00000315,-0.00000021,-0.00
 000191,0.00000028,-0.00000316,0.00000237,0.00000406,-0.00000116,0.0000
 0018,-0.00000203,0.00000013,0.00000413,-0.00000089,-0.00000170,0.00000
 218,-0.00000024,-0.00000039,-0.00000254,0.00000153,0.00000161,0.000004
 30,-0.00000134,0.00000181,-0.00000065,-0.00000021,-0.00000497,-0.00000
 054,0.00000075,0.00000124,0.00000060,0.00000327,-0.00000058,0.00000477
 ,0.00000090,0.00000071,0.00000127,0.00000196,0.00000061,0.00000109,0.0
 0000065,0.00000076,0.00000310,0.00000065,-0.00000220,0.00000110,0.0000
 0111,0.00000006,0.00000117,0.00000605,-0.00000691,0.00000012,0.0000034
 8,0.00000027,-0.00000051,0.00000015,0.00000114,0.00000332,-0.00000142,
 0.00000069,0.00000907,-0.00000005,-0.00000120,-0.00000325,-0.00000006,
 -0.00000092,-0.00000111,0.00000354,-0.00000132,-0.00000061,0.00000055,
 0.00000129,0.00000328,-0.00000171,0.00000146,0.00000135,0.00000054,0.0
 0000202,0.00000121,-0.00000111,0.00000072,0.00000032,0.00000034,0.0000
 0074,-0.00000021,-0.00000182,-0.00000096,0.00000045,-0.00000071,0.0000
 0022,0.00000222,0.00000238,0.00000314,0.00000070,-0.00000026,0.0000004
 5,0.00000178,-0.00000408,0.00000379,0.00000094,-0.00000085,0.00000069,
 -0.00000003,-0.00000123,0.00000143,0.00000040,-0.00000023,-0.00000040,
 -0.00000165,0.00000174,-0.00000283,0.00000406,-0.00000449,0.00000339,0
 .00000026,-0.00000117,0.00000091,-0.00000237,-0.00000061,0.00000253,-0
 .00000184,-0.00000118,0.00000309,0.00000154,0.00000398,-0.00000066,-0.
 00000214,0.00000016,-0.00000279,0.00000025,0.00000004,-0.00000161,-0.0
 0000295,-0.00000109,-0.00000040,-0.00000010,0.00000035,-0.00000064,-0.
 00000073,-0.00000042,0.00000075,-0.00000020,-0.00000030,-0.00000069,-0
 .00000541,-0.00000184,-0.00000324,-0.00000044,-0.00000039,-0.00000063,
 -0.00000052,0.00000295,-0.00000013,-0.00000025,-0.00000008,-0.00000002
 ,0.00000105,-0.00000647,-0.00000757,-0.00000398,0.00000185,0.00000245,
 0.00000001,0.00000051,0.00000032,-0.00000066,0.00000659,0.00000025,0.0
 0000016,-0.00000111,0.00000071,-0.00000513,-0.00000812,0.00000207,0.00
 000303,0.00000762,-0.00000181,-0.00000227,-0.00000517,-0.00000251,0.00
 000111,-0.00000098,0.00000160,0.00000187,0.00000258,0.00000499,0.00000
 362,0.00000189,0.00000090,-0.00000501,-0.00000549,0.00000289,0.0000001
 6,0.00000043,-0.00000012,-0.00000099,-0.00000396,0.00000304,0.00000199
 ,-0.00000439,-0.00000225,0.00001079,-0.00000165,0.00000099,-0.00000160
 ,0.00000261,0.00000221,0.00000228,0.00000028,0.00000195,-0.00000217,-0
 .00000196,-0.00000001,-0.00000347,-0.00000897,0.00000568,-0.00000344,-
 0.00000248,0.00000172,0.00000273,0.00000181,-0.00000219,-0.00000237,-0
 .00000348,0.00000391,-0.00000300,0.00000216,-0.00000195,-0.00000149,0.
 00000392,-0.00000325,-0.00000190,0.00000236,-0.00000434,-0.00000112,0.
 00000227,-0.00000419,-0.00000192,-0.00000015,-0.00000084,-0.00000290,0
 .00000234,0.00000284,0.00000048,-0.00000037,0.00000033,0.00000493,0.00
 000193,-0.00000082,0.00000191,-0.00000075,-0.00000230,0.00000109,0.000
 00558,-0.00000015,-0.00000073,-0.00000210,0.00000157,0.00000258,-0.000
 00094,0.00000098,0.,0.00000045,0.00000184\\\@
 The archive entry for this job was punched.


 THESE ARE THE TIMES THAT TRY MENS SOULS.
 THE SUMMER SOLDIER AND THE SUNSHINE PATRIOT WILL IN THIS CRISIS,
 SHRINK FROM THE SERVICE OF HIS COUNTRY.  BUT HE THAT STANDS NOW,
 DESERVES THE LOVE AND THANKS OF MAN AND WOMAN.
 TYRANNY, LIKE HELL, IS NOT EASILY CONQUERED,
 YET WE HAVE THIS CONSOLATION WITH US,
 THAT THE HARDER THE CONFLICT, THE MORE GLORIOUS THE TRIUMPH.
 WHAT WE OBTAIN TOO CHEAP, WE ESTEEM TOO LIGHTLY, 
 'TIS DEARNESS ONLY THAT GIVES EVERYTHING ITS VALUE.

                                              -- TOM PAINE
 Job cpu time:       2 days  8 hours 57 minutes 40.1 seconds.
 Elapsed time:       0 days  3 hours 37 minutes 38.1 seconds.
 File lengths (MBytes):  RWF=  11041 Int=      0 D2E=      0 Chk=     59 Scr=      1
 Normal termination of Gaussian 16 at Sat Dec  7 22:25:15 2024.
