/mnt/lustre/scratch/nvme/SLURM/9663508/usccqdma.jxnis1DF3s
OMP_STACKSIZE=0m
GAUSS_PDEF=16
GAUSS_MDEF=65536MB
GAUSS_RDEF=SCF=Direct
 Entering Gaussian System, Link 0=g16.exe
 Initial command:
 /opt/cesga/2020/software/Core/g16/c1/l1.exe "/mnt/lustre/scratch/nvme/SLURM/9663508/usccqdma.jxnis1DF3s/Gau-3206571.inp" -scrdir="/mnt/lustre/scratch/nvme/SLURM/9663508/usccqdma.jxnis1DF3s/"
 Default is to use a total of  16 processors:
                               16 via shared-memory
                                1 via Linda
 Entering Link 1 = /opt/cesga/2020/software/Core/g16/c1/l1.exe PID=   3206599.
  
 Copyright (c) 1988-2019, Gaussian, Inc.  All Rights Reserved.
  
 This is part of the Gaussian(R) 16 program.  It is based on
 the Gaussian(R) 09 system (copyright 2009, Gaussian, Inc.),
 the Gaussian(R) 03 system (copyright 2003, Gaussian, Inc.),
 the Gaussian(R) 98 system (copyright 1998, Gaussian, Inc.),
 the Gaussian(R) 94 system (copyright 1995, Gaussian, Inc.),
 the Gaussian 92(TM) system (copyright 1992, Gaussian, Inc.),
 the Gaussian 90(TM) system (copyright 1990, Gaussian, Inc.),
 the Gaussian 88(TM) system (copyright 1988, Gaussian, Inc.),
 the Gaussian 86(TM) system (copyright 1986, Carnegie Mellon
 University), and the Gaussian 82(TM) system (copyright 1983,
 Carnegie Mellon University). Gaussian is a federally registered
 trademark of Gaussian, Inc.
  
 This software contains proprietary and confidential information,
 including trade secrets, belonging to Gaussian, Inc.
  
 This software is provided under written license and may be
 used, copied, transmitted, or stored only in accord with that
 written license.
  
 The following legend is applicable only to US Government
 contracts under FAR:
  
                    RESTRICTED RIGHTS LEGEND
  
 Use, reproduction and disclosure by the US Government is
 subject to restrictions as set forth in subparagraphs (a)
 and (c) of the Commercial Computer Software - Restricted
 Rights clause in FAR 52.227-19.
  
 Gaussian, Inc.
 340 Quinnipiac St., Bldg. 40, Wallingford CT 06492
  
  
 ---------------------------------------------------------------
 Warning -- This program may not be used in any manner that
 competes with the business of Gaussian, Inc. or will provide
 assistance to any competitor of Gaussian, Inc.  The licensee
 of this program is prohibited from giving any competitor of
 Gaussian, Inc. access to this program.  By using this program,
 the user acknowledges that Gaussian, Inc. is engaged in the
 business of creating and licensing software in the field of
 computational chemistry and represents and warrants to the
 licensee that it is not a competitor of Gaussian, Inc. and that
 it will not use this program in any manner prohibited above.
 ---------------------------------------------------------------
  

 Cite this work as:
 Gaussian 16, Revision C.01,
 M. J. Frisch, G. W. Trucks, H. B. Schlegel, G. E. Scuseria, 
 M. A. Robb, J. R. Cheeseman, G. Scalmani, V. Barone, 
 G. A. Petersson, H. Nakatsuji, X. Li, M. Caricato, A. V. Marenich, 
 J. Bloino, B. G. Janesko, R. Gomperts, B. Mennucci, H. P. Hratchian, 
 J. V. Ortiz, A. F. Izmaylov, J. L. Sonnenberg, D. Williams-Young, 
 F. Ding, F. Lipparini, F. Egidi, J. Goings, B. Peng, A. Petrone, 
 T. Henderson, D. Ranasinghe, V. G. Zakrzewski, J. Gao, N. Rega, 
 G. Zheng, W. Liang, M. Hada, M. Ehara, K. Toyota, R. Fukuda, 
 J. Hasegawa, M. Ishida, T. Nakajima, Y. Honda, O. Kitao, H. Nakai, 
 T. Vreven, K. Throssell, J. A. Montgomery, Jr., J. E. Peralta, 
 F. Ogliaro, M. J. Bearpark, J. J. Heyd, E. N. Brothers, K. N. Kudin, 
 V. N. Staroverov, T. A. Keith, R. Kobayashi, J. Normand, 
 K. Raghavachari, A. P. Rendell, J. C. Burant, S. S. Iyengar, 
 J. Tomasi, M. Cossi, J. M. Millam, M. Klene, C. Adamo, R. Cammi, 
 J. W. Ochterski, R. L. Martin, K. Morokuma, O. Farkas, 
 J. B. Foresman, and D. J. Fox, Gaussian, Inc., Wallingford CT, 2019.
 
 ******************************************
 Gaussian 16:  ES64L-G16RevC.01  3-Jul-2019
                 7-Dec-2024 
 ******************************************
 Default route: SCF=Direct
 ----------------------------------------------------
 # m06/genecp scf=tight int=ultrafine 5d freq=noraman
 ----------------------------------------------------
 1/10=4,30=1,38=1/1,3;
 2/12=2,17=6,18=5,40=1/2;
 3/5=7,8=1,11=2,16=1,17=8,25=1,30=1,71=2,74=-54,75=-5,140=1/1,2,3;
 4//1;
 5/5=2,32=2,38=5,98=1/2;
 8/6=4,10=90,11=11/1;
 11/6=1,8=1,9=11,15=111,16=1/1,2,10;
 10/6=1/2;
 6/7=2,8=2,9=2,10=2,28=1/1;
 7/8=1,10=1,25=1/1,2,3,16;
 1/10=4,30=1/3;
 99//99;
 ------
 OPT-TS
 ------
 Symbolic Z-matrix:
 Charge =  0 Multiplicity = 1
 C                    -1.82622   2.67197   0.42685 
 C                    -2.96879   0.65025   0.43572 
 C                    -4.18425   1.29458   0.59998 
 C                    -4.2145    2.68543   0.67395 
 C                    -3.02077   3.37785   0.58543 
 C                    -0.51014   3.34094   0.4012 
 C                     1.78567   3.04699   0.54821 
 C                     2.01077   4.41193   0.44195 
 C                     0.91782   5.26246   0.29309 
 C                    -0.35618   4.72379   0.2743 
 H                    -2.89128  -0.43201   0.34411 
 H                    -5.16012   3.2096    0.79874 
 H                    -3.016     4.46194   0.66152 
 H                     2.60116   2.33064   0.64751 
 H                     1.07178   6.33563   0.19275 
 H                    -1.21802   5.37236   0.14104 
 N                    -1.81095   1.32131   0.34778 
 N                     0.55646   2.53111   0.52786 
 Ir                    0.12156   0.3467    0.14347 
 O                     1.04711  -0.81414   2.78937 
 O                     4.43122  -0.26766  -0.63132 
 O                    -1.60324  -1.80081  -1.08286 
 B                     3.45864  -0.61485  -1.52549 
 B                     0.00183  -0.59648   1.89809 
 B                    -0.41579  -1.52069  -0.37685 
 O                     0.24503  -2.72181  -0.10722 
 O                    -1.18221  -1.14229   2.41911 
 C                    -0.92868  -1.54638   3.77169 
 C                     0.61064  -1.76806   3.7642 
 C                    -1.83524  -3.21562  -1.02083 
 C                    -0.39359  -3.76756  -0.84618 
 C                     4.71409  -1.43958   0.16726 
 C                     4.19765  -2.6041   -0.74202 
 O                     3.20314  -1.9581   -1.56744 
 C                     1.31089  -1.48354   5.0777 
 H                     0.95475  -2.15875   5.86941 
 H                     2.39072  -1.64234   4.95499 
 H                     1.16035  -0.44852   5.40392 
 C                     1.00903  -3.14818   3.25326 
 H                     2.09624  -3.16359   3.09603 
 H                     0.75468  -3.94306   3.96803 
 H                     0.5333   -3.35942   2.2857 
 C                    -1.35934  -0.39643   4.6738 
 H                    -0.76469   0.50444   4.47327 
 H                    -2.41158  -0.16141   4.46752 
 H                    -1.26517  -0.64909   5.73874 
 C                    -1.75175  -2.78007   4.08562 
 H                    -2.82115  -2.53585   4.03403 
 H                    -1.55687  -3.59083   3.37367 
 H                    -1.53572  -3.14824   5.09914 
 C                     6.20243  -1.47365   0.45392 
 H                     6.46929  -0.62348   1.09414 
 H                     6.47321  -2.39574   0.98771 
 H                     6.80216  -1.40846  -0.46064 
 C                     3.94085  -1.30154   1.46782 
 H                     4.18136  -0.33087   1.92181 
 H                     2.85567  -1.3283    1.32055 
 H                     4.21967  -2.08923   2.18285 
 C                     5.25591  -3.13978  -1.69592 
 H                     4.77006  -3.80106  -2.42503 
 H                     5.74694  -2.32827  -2.24936 
 H                     6.02621  -3.71742  -1.16822 
 C                     3.54644  -3.74456   0.01409 
 H                     3.30143  -4.56018  -0.68099 
 H                     4.23113  -4.14957   0.77324 
 H                     2.61658  -3.41679   0.49422 
 C                    -0.29813  -5.06379  -0.06589 
 H                     0.75368  -5.36727   0.02459 
 H                    -0.70475  -4.9574    0.94701 
 H                    -0.84174  -5.87196  -0.57678 
 C                     0.35421  -3.89888  -2.16814 
 H                     0.27097  -2.97355  -2.75677 
 H                     1.42064  -4.04732  -1.95723 
 H                    -0.01246  -4.74002  -2.77256 
 C                    -2.54868  -3.66193  -2.28141 
 H                    -2.69372  -4.75212  -2.28564 
 H                    -3.53944  -3.18903  -2.32993 
 H                    -1.99786  -3.38351  -3.18797 
 C                    -2.7236   -3.46593   0.19164 
 H                    -2.23945  -3.10913   1.11161 
 H                    -3.65646  -2.89986   0.06484 
 H                    -2.98489  -4.52689   0.30497 
 H                     1.61706  -0.24624   0.0618 
 C                     0.47468   0.51664  -2.95745 
 O                     0.35214   1.3906   -2.07938 
 C                    -0.74249  -0.0045   -3.69459 
 H                    -0.63719   0.17923  -4.77668 
 H                    -0.78209  -1.09862  -3.56604 
 C                     2.86598   0.44809  -2.53462 
 H                     3.64452   0.72317  -3.26755 
 H                     2.6023    1.36709  -2.00178 
 N                     1.68533   0.00802  -3.27465 
 C                     1.93     -0.99905  -4.28674 
 H                     2.35864  -1.89837  -3.8249 
 H                     1.01181  -1.27456  -4.80851 
 H                     2.64427  -0.61298  -5.02948 
 C                    -2.03546   0.58513  -3.16627 
 H                    -2.06681   0.39814  -2.08541 
 H                    -2.0289    1.67763  -3.29583 
 C                    -3.26423  -0.03876  -3.81125 
 H                    -3.37529   0.31982  -4.84985 
 H                    -3.11878  -1.12993  -3.87681 
 C                    -4.54231   0.23544  -3.02784 
 H                    -5.38991  -0.26608  -3.5189 
 H                    -4.44574  -0.23491  -2.03325 
 C                    -4.85082   1.71676  -2.86992 
 H                    -5.80715   1.87752  -2.35669 
 H                    -4.07366   2.22998  -2.28441 
 H                    -4.90503   2.21431  -3.84941 
 C                    -5.46028   0.52689   0.75097 
 F                    -5.87667   0.53918   2.0224 
 F                    -6.44091   1.07402   0.01886 
 F                    -5.33667  -0.74699   0.37696 
 C                     3.39133   4.98902   0.44078 
 F                     3.69576   5.493    -0.76124 
 F                     3.48648   5.99714   1.3173 
 F                     4.3163    4.08386   0.75194 
 

 GradGradGradGradGradGradGradGradGradGradGradGradGradGradGradGradGradGrad
 Berny optimization.
 Initialization pass.
 Trust Radius=3.00D-01 FncErr=1.00D-07 GrdErr=1.00D-07 EigMax=2.50D+02 EigMin=1.00D-04
 Number of steps in this run=      2 maximum allowed number of steps=      2.
 GradGradGradGradGradGradGradGradGradGradGradGradGradGradGradGradGradGrad

 Stoichiometry    C38H59B3F6IrN3O7
 Framework group  C1[X(C38H59B3F6IrN3O7)]
 Deg. of freedom   345
 Full point group                 C1      NOp   1
 Largest Abelian subgroup         C1      NOp   1
 Largest concise Abelian subgroup C1      NOp   1
                         Standard orientation:                         
 ---------------------------------------------------------------------
 Center     Atomic      Atomic             Coordinates (Angstroms)
 Number     Number       Type             X           Y           Z
 ---------------------------------------------------------------------
      1          6           0       -1.826222    2.671969    0.426850
      2          6           0       -2.968790    0.650248    0.435720
      3          6           0       -4.184251    1.294577    0.599980
      4          6           0       -4.214502    2.685427    0.673950
      5          6           0       -3.020772    3.377848    0.585430
      6          6           0       -0.510142    3.340940    0.401200
      7          6           0        1.785668    3.046991    0.548210
      8          6           0        2.010767    4.411932    0.441950
      9          6           0        0.917816    5.262461    0.293090
     10          6           0       -0.356183    4.723790    0.274300
     11          1           0       -2.891279   -0.432012    0.344110
     12          1           0       -5.160122    3.209596    0.798740
     13          1           0       -3.016003    4.461938    0.661520
     14          1           0        2.601158    2.330642    0.647510
     15          1           0        1.071775    6.335631    0.192750
     16          1           0       -1.218024    5.372359    0.141040
     17          7           0       -1.810951    1.321309    0.347780
     18          7           0        0.556458    2.531110    0.527860
     19         77           0        0.121560    0.346700    0.143470
     20          8           0        1.047111   -0.814139    2.789370
     21          8           0        4.431221   -0.267656   -0.631320
     22          8           0       -1.603238   -1.800811   -1.082860
     23          5           0        3.458641   -0.614847   -1.525490
     24          5           0        0.001831   -0.596480    1.898090
     25          5           0       -0.415788   -1.520690   -0.376850
     26          8           0        0.245033   -2.721810   -0.107220
     27          8           0       -1.182209   -1.142291    2.419110
     28          6           0       -0.928678   -1.546381    3.771690
     29          6           0        0.610642   -1.768059    3.764200
     30          6           0       -1.835237   -3.215621   -1.020830
     31          6           0       -0.393587   -3.767560   -0.846180
     32          6           0        4.714091   -1.439576    0.167260
     33          6           0        4.197652   -2.604097   -0.742020
     34          8           0        3.203142   -1.958097   -1.567440
     35          6           0        1.310892   -1.483539    5.077700
     36          1           0        0.954752   -2.158749    5.869410
     37          1           0        2.390722   -1.642338    4.954990
     38          1           0        1.160351   -0.448519    5.403920
     39          6           0        1.009033   -3.148179    3.253260
     40          1           0        2.096243   -3.163588    3.096030
     41          1           0        0.754683   -3.943059    3.968030
     42          1           0        0.533303   -3.359420    2.285700
     43          6           0       -1.359339   -0.396431    4.673800
     44          1           0       -0.764690    0.504439    4.473270
     45          1           0       -2.411580   -0.161412    4.467520
     46          1           0       -1.265169   -0.649091    5.738740
     47          6           0       -1.751747   -2.780071    4.085620
     48          1           0       -2.821148   -2.535852    4.034030
     49          1           0       -1.556867   -3.590831    3.373670
     50          1           0       -1.535717   -3.148241    5.099140
     51          6           0        6.202432   -1.473645    0.453920
     52          1           0        6.469291   -0.623475    1.094140
     53          1           0        6.473212   -2.395735    0.987710
     54          1           0        6.802161   -1.408455   -0.460640
     55          6           0        3.940851   -1.301537    1.467820
     56          1           0        4.181361   -0.330867    1.921810
     57          1           0        2.855671   -1.328298    1.320550
     58          1           0        4.219672   -2.089227    2.182850
     59          6           0        5.255913   -3.139776   -1.695920
     60          1           0        4.770063   -3.801056   -2.425030
     61          1           0        5.746942   -2.328265   -2.249360
     62          1           0        6.026213   -3.717415   -1.168220
     63          6           0        3.546443   -3.744557    0.014090
     64          1           0        3.301434   -4.560177   -0.680990
     65          1           0        4.231134   -4.149567    0.773240
     66          1           0        2.616583   -3.416788    0.494220
     67          6           0       -0.298126   -5.063790   -0.065890
     68          1           0        0.753685   -5.367269    0.024590
     69          1           0       -0.704746   -4.957401    0.947010
     70          1           0       -0.841735   -5.871961   -0.576780
     71          6           0        0.354213   -3.898880   -2.168140
     72          1           0        0.270973   -2.973550   -2.756770
     73          1           0        1.420644   -4.047319   -1.957230
     74          1           0       -0.012456   -4.740020   -2.772560
     75          6           0       -2.548677   -3.661932   -2.281410
     76          1           0       -2.693716   -4.752122   -2.285640
     77          1           0       -3.539437   -3.189033   -2.329930
     78          1           0       -1.997857   -3.383512   -3.187970
     79          6           0       -2.723597   -3.465932    0.191640
     80          1           0       -2.239447   -3.109132    1.111610
     81          1           0       -3.656457   -2.899863    0.064840
     82          1           0       -2.984886   -4.526892    0.304970
     83          1           0        1.617061   -0.246239    0.061800
     84          6           0        0.474680    0.516640   -2.957450
     85          8           0        0.352139    1.390600   -2.079380
     86          6           0       -0.742490   -0.004501   -3.694590
     87          1           0       -0.637190    0.179230   -4.776680
     88          1           0       -0.782089   -1.098621   -3.566040
     89          6           0        2.865980    0.448092   -2.534620
     90          1           0        3.644520    0.723173   -3.267550
     91          1           0        2.602299    1.367092   -2.001780
     92          7           0        1.685330    0.008021   -3.274650
     93          6           0        1.930001   -0.999048   -4.286740
     94          1           0        2.358642   -1.898368   -3.824900
     95          1           0        1.011811   -1.274559   -4.808510
     96          1           0        2.644271   -0.612978   -5.029480
     97          6           0       -2.035460    0.585128   -3.166270
     98          1           0       -2.066810    0.398138   -2.085410
     99          1           0       -2.028901    1.677628   -3.295830
    100          6           0       -3.264230   -0.038763   -3.811250
    101          1           0       -3.375290    0.319817   -4.849850
    102          1           0       -3.118779   -1.129932   -3.876810
    103          6           0       -4.542310    0.235436   -3.027840
    104          1           0       -5.389909   -0.266084   -3.518900
    105          1           0       -4.445739   -0.234914   -2.033250
    106          6           0       -4.850821    1.716756   -2.869920
    107          1           0       -5.807151    1.877515   -2.356690
    108          1           0       -4.073661    2.229977   -2.284410
    109          1           0       -4.905031    2.214306   -3.849410
    110          6           0       -5.460280    0.526886    0.750970
    111          9           0       -5.876670    0.539175    2.022400
    112          9           0       -6.440911    1.074015    0.018860
    113          9           0       -5.336669   -0.746994    0.376960
    114          6           0        3.391326    4.989023    0.440780
    115          9           0        3.695756    5.493003   -0.761240
    116          9           0        3.486476    5.997143    1.317300
    117          9           0        4.316297    4.083863    0.751940
 ---------------------------------------------------------------------
 Rotational constants (GHZ):           0.0506248           0.0416511           0.0347979
 General basis read from cards:  (5D, 7F)
 ======================================================================================================
                                       Pseudopotential Parameters
 ======================================================================================================
  Center     Atomic      Valence      Angular      Power
  Number     Number     Electrons     Momentum     of R      Exponent        Coefficient   SO-Coeffient
 ======================================================================================================
    1          6
                                   No pseudopotential on this center.
    2          6
                                   No pseudopotential on this center.
    3          6
                                   No pseudopotential on this center.
    4          6
                                   No pseudopotential on this center.
    5          6
                                   No pseudopotential on this center.
    6          6
                                   No pseudopotential on this center.
    7          6
                                   No pseudopotential on this center.
    8          6
                                   No pseudopotential on this center.
    9          6
                                   No pseudopotential on this center.
   10          6
                                   No pseudopotential on this center.
   11          1
                                   No pseudopotential on this center.
   12          1
                                   No pseudopotential on this center.
   13          1
                                   No pseudopotential on this center.
   14          1
                                   No pseudopotential on this center.
   15          1
                                   No pseudopotential on this center.
   16          1
                                   No pseudopotential on this center.
   17          7
                                   No pseudopotential on this center.
   18          7
                                   No pseudopotential on this center.
   19         77           17
                                      G and up 
                                                     1      823.5880147       -0.15780140    0.00000000
                                                     2      364.6613336    -1517.52704460    0.00000000
                                                     2       55.7082801     -316.53065290    0.00000000
                                                     2       12.0464544      -91.88809410    0.00000000
                                                     2        3.5120610       -9.22417730    0.00000000
                                      S - G
                                                     0      188.0490770        3.15780140    0.00000000
                                                     1      340.4194712       26.83225770    0.00000000
                                                     2      128.2373673      800.42500070    0.00000000
                                                     2       33.8644961      369.40506830    0.00000000
                                                     2        4.7560005      242.41718990    0.00000000
                                                     2        3.9649974     -118.21732820    0.00000000
                                      P - G
                                                     0      289.7291139        2.15780140    0.00000000
                                                     1       87.4633789       61.96786100    0.00000000
                                                     2       30.4363766      269.05819860    0.00000000
                                                     2        4.0553412      231.16547930    0.00000000
                                                     2        3.5525341     -133.69526670    0.00000000
                                      D - G
                                                     0      136.4017106        3.15780140    0.00000000
                                                     1       95.0776925       45.93498030    0.00000000
                                                     2       49.2258410      359.03446680    0.00000000
                                                     2       15.0874145      176.47401190    0.00000000
                                                     2        4.0405764       54.51552860    0.00000000
                                      F - G
                                                     0      127.3507908        3.95461970    0.00000000
                                                     1       66.2364374       52.97736550    0.00000000
                                                     2       34.4299229      274.86433830    0.00000000
                                                     2       10.1995721      137.20473380    0.00000000
                                                     2        2.5409702       14.86333050    0.00000000
   20          8
                                   No pseudopotential on this center.
   21          8
                                   No pseudopotential on this center.
   22          8
                                   No pseudopotential on this center.
   23          5
                                   No pseudopotential on this center.
   24          5
                                   No pseudopotential on this center.
   25          5
                                   No pseudopotential on this center.
   26          8
                                   No pseudopotential on this center.
   27          8
                                   No pseudopotential on this center.
   28          6
                                   No pseudopotential on this center.
   29          6
                                   No pseudopotential on this center.
   30          6
                                   No pseudopotential on this center.
   31          6
                                   No pseudopotential on this center.
   32          6
                                   No pseudopotential on this center.
   33          6
                                   No pseudopotential on this center.
   34          8
                                   No pseudopotential on this center.
   35          6
                                   No pseudopotential on this center.
   36          1
                                   No pseudopotential on this center.
   37          1
                                   No pseudopotential on this center.
   38          1
                                   No pseudopotential on this center.
   39          6
                                   No pseudopotential on this center.
   40          1
                                   No pseudopotential on this center.
   41          1
                                   No pseudopotential on this center.
   42          1
                                   No pseudopotential on this center.
   43          6
                                   No pseudopotential on this center.
   44          1
                                   No pseudopotential on this center.
   45          1
                                   No pseudopotential on this center.
   46          1
                                   No pseudopotential on this center.
   47          6
                                   No pseudopotential on this center.
   48          1
                                   No pseudopotential on this center.
   49          1
                                   No pseudopotential on this center.
   50          1
                                   No pseudopotential on this center.
   51          6
                                   No pseudopotential on this center.
   52          1
                                   No pseudopotential on this center.
   53          1
                                   No pseudopotential on this center.
   54          1
                                   No pseudopotential on this center.
   55          6
                                   No pseudopotential on this center.
   56          1
                                   No pseudopotential on this center.
   57          1
                                   No pseudopotential on this center.
   58          1
                                   No pseudopotential on this center.
   59          6
                                   No pseudopotential on this center.
   60          1
                                   No pseudopotential on this center.
   61          1
                                   No pseudopotential on this center.
   62          1
                                   No pseudopotential on this center.
   63          6
                                   No pseudopotential on this center.
   64          1
                                   No pseudopotential on this center.
   65          1
                                   No pseudopotential on this center.
   66          1
                                   No pseudopotential on this center.
   67          6
                                   No pseudopotential on this center.
   68          1
                                   No pseudopotential on this center.
   69          1
                                   No pseudopotential on this center.
   70          1
                                   No pseudopotential on this center.
   71          6
                                   No pseudopotential on this center.
   72          1
                                   No pseudopotential on this center.
   73          1
                                   No pseudopotential on this center.
   74          1
                                   No pseudopotential on this center.
   75          6
                                   No pseudopotential on this center.
   76          1
                                   No pseudopotential on this center.
   77          1
                                   No pseudopotential on this center.
   78          1
                                   No pseudopotential on this center.
   79          6
                                   No pseudopotential on this center.
   80          1
                                   No pseudopotential on this center.
   81          1
                                   No pseudopotential on this center.
   82          1
                                   No pseudopotential on this center.
   83          1
                                   No pseudopotential on this center.
   84          6
                                   No pseudopotential on this center.
   85          8
                                   No pseudopotential on this center.
   86          6
                                   No pseudopotential on this center.
   87          1
                                   No pseudopotential on this center.
   88          1
                                   No pseudopotential on this center.
   89          6
                                   No pseudopotential on this center.
   90          1
                                   No pseudopotential on this center.
   91          1
                                   No pseudopotential on this center.
   92          7
                                   No pseudopotential on this center.
   93          6
                                   No pseudopotential on this center.
   94          1
                                   No pseudopotential on this center.
   95          1
                                   No pseudopotential on this center.
   96          1
                                   No pseudopotential on this center.
   97          6
                                   No pseudopotential on this center.
   98          1
                                   No pseudopotential on this center.
   99          1
                                   No pseudopotential on this center.
  100          6
                                   No pseudopotential on this center.
  101          1
                                   No pseudopotential on this center.
  102          1
                                   No pseudopotential on this center.
  103          6
                                   No pseudopotential on this center.
  104          1
                                   No pseudopotential on this center.
  105          1
                                   No pseudopotential on this center.
  106          6
                                   No pseudopotential on this center.
  107          1
                                   No pseudopotential on this center.
  108          1
                                   No pseudopotential on this center.
  109          1
                                   No pseudopotential on this center.
  110          6
                                   No pseudopotential on this center.
  111          9
                                   No pseudopotential on this center.
  112          9
                                   No pseudopotential on this center.
  113          9
                                   No pseudopotential on this center.
  114          6
                                   No pseudopotential on this center.
  115          9
                                   No pseudopotential on this center.
  116          9
                                   No pseudopotential on this center.
  117          9
                                   No pseudopotential on this center.
 ======================================================================================================
 There are   997 symmetry adapted cartesian basis functions of A   symmetry.
 There are   938 symmetry adapted basis functions of A   symmetry.
   938 basis functions,  1875 primitive gaussians,   997 cartesian basis functions
   225 alpha electrons      225 beta electrons
       nuclear repulsion energy     10521.1336033115 Hartrees.
 NAtoms=  117 NActive=  117 NUniq=  117 SFac= 1.00D+00 NAtFMM=   60 NAOKFM=T Big=T
 Integral buffers will be    131072 words long.
 Raffenetti 2 integral format.
 Two-electron integral symmetry is turned on.
 One-electron integrals computed using PRISM.
   1 Symmetry operations used in ECPInt.
 ECPInt:  NShTT=   62835 NPrTT=  387974 LenC2=   46528 LenP2D=  142072.
 LDataN:  DoStor=T MaxTD1= 6 Len=  172
 NBasis=   938 RedAO= T EigKep=  4.69D-04  NBF=   938
 NBsUse=   938 1.00D-06 EigRej= -1.00D+00 NBFU=   938
 Defaulting to unpruned grid for atomic number  77.
 ExpMin= 2.90D-02 ExpMax= 7.00D+03 ExpMxC= 1.05D+03 IAcc=3 IRadAn=         5 AccDes= 0.00D+00
 Harris functional with IExCor= 1009 and IRadAn=       5 diagonalized for initial guess.
 HarFok:  IExCor= 1009 AccDes= 0.00D+00 IRadAn=         5 IDoV= 1 UseB2=F ITyADJ=14
 ICtDFT=  3500011 ScaDFX=  1.000000  1.000000  1.000000  1.000000
 Defaulting to unpruned grid for atomic number  77.
 FoFCou: FMM=F IPFlag=           0 FMFlag=      100000 FMFlg1=        2001
         NFxFlg=           0 DoJE=T BraDBF=F KetDBF=T FulRan=T
         wScrn=  0.000000 ICntrl=       500 IOpCl=  0 I1Cent=   200000004 NGrid=           0
         NMat0=    1 NMatS0=      1 NMatT0=    0 NMatD0=    1 NMtDS0=    0 NMtDT0=    0
 Petite list used in FoFCou.
 Requested convergence on RMS density matrix=1.00D-08 within 128 cycles.
 Requested convergence on MAX density matrix=1.00D-06.
 Requested convergence on             energy=1.00D-06.
 No special actions if energy rises.
 Defaulting to unpruned grid for atomic number  77.
 Defaulting to unpruned grid for atomic number  77.
 Defaulting to unpruned grid for atomic number  77.
 Defaulting to unpruned grid for atomic number  77.
 Defaulting to unpruned grid for atomic number  77.
 Defaulting to unpruned grid for atomic number  77.
 Defaulting to unpruned grid for atomic number  77.
 Defaulting to unpruned grid for atomic number  77.
 Defaulting to unpruned grid for atomic number  77.
 Defaulting to unpruned grid for atomic number  77.
 Defaulting to unpruned grid for atomic number  77.
 Defaulting to unpruned grid for atomic number  77.
 Defaulting to unpruned grid for atomic number  77.
 Defaulting to unpruned grid for atomic number  77.
 Defaulting to unpruned grid for atomic number  77.
 Defaulting to unpruned grid for atomic number  77.
 SCF Done:  E(RM06) =  -2951.42528502     A.U. after   16 cycles
            NFock= 16  Conv=0.70D-08     -V/T= 2.0310
 DoSCS=F DFT=T ScalE2(SS,OS)=  1.000000  1.000000
 Range of M.O.s used for correlation:     1   938
 NBasis=   938 NAE=   225 NBE=   225 NFC=     0 NFV=     0
 NROrb=    938 NOA=   225 NOB=   225 NVA=   713 NVB=   713
   1 Symmetry operations used in ECPInt.
 ECPInt:  NShTT=   62835 NPrTT=  387974 LenC2=   46528 LenP2D=  142072.
 LDataN:  DoStor=T MaxTD1= 7 Len=  274
 Number of processors reduced to   6 by ecpmxn.
 Symmetrizing basis deriv contribution to polar:
 IMax=3 JMax=2 DiffMx= 0.00D+00
 G2DrvN: will do   118 centers at a time, making    1 passes.
 Calling FoFCou, ICntrl=  3107 FMM=T I1Cent=   0 AccDes= 0.00D+00.
 Defaulting to unpruned grid for atomic number  77.
 Defaulting to unpruned grid for atomic number  77.
 Defaulting to unpruned grid for atomic number  77.
 Defaulting to unpruned grid for atomic number  77.
 Defaulting to unpruned grid for atomic number  77.
 Defaulting to unpruned grid for atomic number  77.
 Defaulting to unpruned grid for atomic number  77.
 Defaulting to unpruned grid for atomic number  77.
 Defaulting to unpruned grid for atomic number  77.
 Defaulting to unpruned grid for atomic number  77.
 Defaulting to unpruned grid for atomic number  77.
 Defaulting to unpruned grid for atomic number  77.
 Defaulting to unpruned grid for atomic number  77.
 Defaulting to unpruned grid for atomic number  77.
 Defaulting to unpruned grid for atomic number  77.
 Defaulting to unpruned grid for atomic number  77.
 End of G2Drv F.D. properties file   721 does not exist.
 End of G2Drv F.D. properties file   722 does not exist.
 End of G2Drv F.D. properties file   788 does not exist.
          IDoAtm=11111111111111111111111111111111111111111111111111
          IDoAtm=11111111111111111111111111111111111111111111111111
          IDoAtm=11111111111111111
          Differentiating once with respect to electric field.
                with respect to dipole field.
          Differentiating once with respect to nuclear coordinates.
 Defaulting to unpruned grid for atomic number  77.
 CalDSu exits because no D1Ps are significant.
 Defaulting to unpruned grid for atomic number  77.
 Defaulting to unpruned grid for atomic number  77.
 Defaulting to unpruned grid for atomic number  77.
 Defaulting to unpruned grid for atomic number  77.
 Defaulting to unpruned grid for atomic number  77.
 Defaulting to unpruned grid for atomic number  77.
 Defaulting to unpruned grid for atomic number  77.
 Defaulting to unpruned grid for atomic number  77.
 Defaulting to unpruned grid for atomic number  77.
 Defaulting to unpruned grid for atomic number  77.
 Defaulting to unpruned grid for atomic number  77.
 Defaulting to unpruned grid for atomic number  77.
 Defaulting to unpruned grid for atomic number  77.
 Defaulting to unpruned grid for atomic number  77.
 Defaulting to unpruned grid for atomic number  77.
 Defaulting to unpruned grid for atomic number  77.
          There are   354 degrees of freedom in the 1st order CPHF.  IDoFFX=6 NUNeed=     3.
    351 vectors produced by pass  0 Test12= 1.60D-13 1.00D-09 XBig12= 5.69D+02 1.08D+01.
 AX will form    72 AO Fock derivatives at one time.
    351 vectors produced by pass  1 Test12= 1.60D-13 1.00D-09 XBig12= 9.24D+01 1.32D+00.
    351 vectors produced by pass  2 Test12= 1.60D-13 1.00D-09 XBig12= 1.30D+00 1.25D-01.
    351 vectors produced by pass  3 Test12= 1.60D-13 1.00D-09 XBig12= 1.00D-02 1.06D-02.
    351 vectors produced by pass  4 Test12= 1.60D-13 1.00D-09 XBig12= 4.36D-05 4.87D-04.
    310 vectors produced by pass  5 Test12= 1.60D-13 1.00D-09 XBig12= 9.57D-08 1.42D-05.
     80 vectors produced by pass  6 Test12= 1.60D-13 1.00D-09 XBig12= 1.44D-10 5.48D-07.
      3 vectors produced by pass  7 Test12= 1.60D-13 1.00D-09 XBig12= 1.92D-13 2.46D-08.
 InvSVY:  IOpt=1 It=  1 EMax= 7.11D-15
 Solved reduced A of dimension  2148 with   354 vectors.
 Isotropic polarizability for W=    0.000000      526.65 Bohr**3.
 End of Minotr F.D. properties file   721 does not exist.
 End of Minotr F.D. properties file   722 does not exist.
 End of Minotr F.D. properties file   788 does not exist.
 Hyperfine terms turned off by default for NAtoms > 100.

 **********************************************************************

            Population analysis using the SCF Density.

 **********************************************************************

 Orbital symmetries:
       Occupied  (A) (A) (A) (A) (A) (A) (A) (A) (A) (A) (A) (A)
                 (A) (A) (A) (A) (A) (A) (A) (A) (A) (A) (A) (A)
                 (A) (A) (A) (A) (A) (A) (A) (A) (A) (A) (A) (A)
                 (A) (A) (A) (A) (A) (A) (A) (A) (A) (A) (A) (A)
                 (A) (A) (A) (A) (A) (A) (A) (A) (A) (A) (A) (A)
                 (A) (A) (A) (A) (A) (A) (A) (A) (A) (A) (A) (A)
                 (A) (A) (A) (A) (A) (A) (A) (A) (A) (A) (A) (A)
                 (A) (A) (A) (A) (A) (A) (A) (A) (A) (A) (A) (A)
                 (A) (A) (A) (A) (A) (A) (A) (A) (A) (A) (A) (A)
                 (A) (A) (A) (A) (A) (A) (A) (A) (A) (A) (A) (A)
                 (A) (A) (A) (A) (A) (A) (A) (A) (A) (A) (A) (A)
                 (A) (A) (A) (A) (A) (A) (A) (A) (A) (A) (A) (A)
                 (A) (A) (A) (A) (A) (A) (A) (A) (A) (A) (A) (A)
                 (A) (A) (A) (A) (A) (A) (A) (A) (A) (A) (A) (A)
                 (A) (A) (A) (A) (A) (A) (A) (A) (A) (A) (A) (A)
                 (A) (A) (A) (A) (A) (A) (A) (A) (A) (A) (A) (A)
                 (A) (A) (A) (A) (A) (A) (A) (A) (A) (A) (A) (A)
                 (A) (A) (A) (A) (A) (A) (A) (A) (A) (A) (A) (A)
                 (A) (A) (A) (A) (A) (A) (A) (A) (A)
       Virtual   (A) (A) (A) (A) (A) (A) (A) (A) (A) (A) (A) (A)
                 (A) (A) (A) (A) (A) (A) (A) (A) (A) (A) (A) (A)
                 (A) (A) (A) (A) (A) (A) (A) (A) (A) (A) (A) (A)
                 (A) (A) (A) (A) (A) (A) (A) (A) (A) (A) (A) (A)
                 (A) (A) (A) (A) (A) (A) (A) (A) (A) (A) (A) (A)
                 (A) (A) (A) (A) (A) (A) (A) (A) (A) (A) (A) (A)
                 (A) (A) (A) (A) (A) (A) (A) (A) (A) (A) (A) (A)
                 (A) (A) (A) (A) (A) (A) (A) (A) (A) (A) (A) (A)
                 (A) (A) (A) (A) (A) (A) (A) (A) (A) (A) (A) (A)
                 (A) (A) (A) (A) (A) (A) (A) (A) (A) (A) (A) (A)
                 (A) (A) (A) (A) (A) (A) (A) (A) (A) (A) (A) (A)
                 (A) (A) (A) (A) (A) (A) (A) (A) (A) (A) (A) (A)
                 (A) (A) (A) (A) (A) (A) (A) (A) (A) (A) (A) (A)
                 (A) (A) (A) (A) (A) (A) (A) (A) (A) (A) (A) (A)
                 (A) (A) (A) (A) (A) (A) (A) (A) (A) (A) (A) (A)
                 (A) (A) (A) (A) (A) (A) (A) (A) (A) (A) (A) (A)
                 (A) (A) (A) (A) (A) (A) (A) (A) (A) (A) (A) (A)
                 (A) (A) (A) (A) (A) (A) (A) (A) (A) (A) (A) (A)
                 (A) (A) (A) (A) (A) (A) (A) (A) (A) (A) (A) (A)
                 (A) (A) (A) (A) (A) (A) (A) (A) (A) (A) (A) (A)
                 (A) (A) (A) (A) (A) (A) (A) (A) (A) (A) (A) (A)
                 (A) (A) (A) (A) (A) (A) (A) (A) (A) (A) (A) (A)
                 (A) (A) (A) (A) (A) (A) (A) (A) (A) (A) (A) (A)
                 (A) (A) (A) (A) (A) (A) (A) (A) (A) (A) (A) (A)
                 (A) (A) (A) (A) (A) (A) (A) (A) (A) (A) (A) (A)
                 (A) (A) (A) (A) (A) (A) (A) (A) (A) (A) (A) (A)
                 (A) (A) (A) (A) (A) (A) (A) (A) (A) (A) (A) (A)
                 (A) (A) (A) (A) (A) (A) (A) (A) (A) (A) (A) (A)
                 (A) (A) (A) (A) (A) (A) (A) (A) (A) (A) (A) (A)
                 (A) (A) (A) (A) (A) (A) (A) (A) (A) (A) (A) (A)
                 (A) (A) (A) (A) (A) (A) (A) (A) (A) (A) (A) (A)
                 (A) (A) (A) (A) (A) (A) (A) (A) (A) (A) (A) (A)
                 (A) (A) (A) (A) (A) (A) (A) (A) (A) (A) (A) (A)
                 (A) (A) (A) (A) (A) (A) (A) (A) (A) (A) (A) (A)
                 (A) (A) (A) (A) (A) (A) (A) (A) (A) (A) (A) (A)
                 (A) (A) (A) (A) (A) (A) (A) (A) (A) (A) (A) (A)
                 (A) (A) (A) (A) (A) (A) (A) (A) (A) (A) (A) (A)
                 (A) (A) (A) (A) (A) (A) (A) (A) (A) (A) (A) (A)
                 (A) (A) (A) (A) (A) (A) (A) (A) (A) (A) (A) (A)
                 (A) (A) (A) (A) (A) (A) (A) (A) (A) (A) (A) (A)
                 (A) (A) (A) (A) (A) (A) (A) (A) (A) (A) (A) (A)
                 (A) (A) (A) (A) (A) (A) (A) (A) (A) (A) (A) (A)
                 (A) (A) (A) (A) (A) (A) (A) (A) (A) (A) (A) (A)
                 (A) (A) (A) (A) (A) (A) (A) (A) (A) (A) (A) (A)
                 (A) (A) (A) (A) (A) (A) (A) (A) (A) (A) (A) (A)
                 (A) (A) (A) (A) (A) (A) (A) (A) (A) (A) (A) (A)
                 (A) (A) (A) (A) (A) (A) (A) (A) (A) (A) (A) (A)
                 (A) (A) (A) (A) (A) (A) (A) (A) (A) (A) (A) (A)
                 (A) (A) (A) (A) (A) (A) (A) (A) (A) (A) (A) (A)
                 (A) (A) (A) (A) (A) (A) (A) (A) (A) (A) (A) (A)
                 (A) (A) (A) (A) (A) (A) (A) (A) (A) (A) (A) (A)
                 (A) (A) (A) (A) (A) (A) (A) (A) (A) (A) (A) (A)
                 (A) (A) (A) (A) (A) (A) (A) (A) (A) (A) (A) (A)
                 (A) (A) (A) (A) (A) (A) (A) (A) (A) (A) (A) (A)
                 (A) (A) (A) (A) (A) (A) (A) (A) (A) (A) (A) (A)
                 (A) (A) (A) (A) (A) (A) (A) (A) (A) (A) (A) (A)
                 (A) (A) (A) (A) (A) (A) (A) (A) (A) (A) (A) (A)
                 (A) (A) (A) (A) (A) (A) (A) (A) (A) (A) (A) (A)
                 (A) (A) (A) (A) (A) (A) (A) (A) (A) (A) (A) (A)
                 (A) (A) (A) (A) (A)
 The electronic state is 1-A.
 Alpha  occ. eigenvalues --  -24.83277 -24.83208 -24.82923 -24.82795 -24.82599
 Alpha  occ. eigenvalues --  -24.82555 -19.21638 -19.21456 -19.19871 -19.19519
 Alpha  occ. eigenvalues --  -19.19502 -19.19427 -19.19060 -14.45834 -14.45111
 Alpha  occ. eigenvalues --  -14.43202 -10.51468 -10.51429 -10.35070 -10.33136
 Alpha  occ. eigenvalues --  -10.32865 -10.31765 -10.31074 -10.30280 -10.30072
 Alpha  occ. eigenvalues --  -10.29838 -10.29726 -10.29699 -10.29490 -10.29380
 Alpha  occ. eigenvalues --  -10.29195 -10.28900 -10.28857 -10.28711 -10.28466
 Alpha  occ. eigenvalues --  -10.27504 -10.24944 -10.24573 -10.23191 -10.23128
 Alpha  occ. eigenvalues --  -10.22935 -10.22837 -10.22801 -10.22654 -10.22589
 Alpha  occ. eigenvalues --  -10.22417 -10.22411 -10.22315 -10.22131 -10.22107
 Alpha  occ. eigenvalues --  -10.22066 -10.21777 -10.21283 -10.20761  -6.81315
 Alpha  occ. eigenvalues --   -6.78729  -6.78262  -3.60324  -2.02982  -2.02360
 Alpha  occ. eigenvalues --   -2.01440  -1.35821  -1.35798  -1.27336  -1.27291
 Alpha  occ. eigenvalues --   -1.26767  -1.26763  -1.07329  -1.05510  -1.05213
 Alpha  occ. eigenvalues --   -1.05064  -1.00889  -1.00700  -0.98560  -0.98439
 Alpha  occ. eigenvalues --   -0.98283  -0.94593  -0.86824  -0.85982  -0.84314
 Alpha  occ. eigenvalues --   -0.81094  -0.80827  -0.80596  -0.79975  -0.79670
 Alpha  occ. eigenvalues --   -0.76900  -0.75720  -0.75055  -0.74490  -0.74196
 Alpha  occ. eigenvalues --   -0.72578  -0.72410  -0.71243  -0.70342  -0.70124
 Alpha  occ. eigenvalues --   -0.69752  -0.69424  -0.68799  -0.67599  -0.67404
 Alpha  occ. eigenvalues --   -0.67247  -0.67004  -0.66569  -0.65334  -0.62234
 Alpha  occ. eigenvalues --   -0.62066  -0.61803  -0.61782  -0.61478  -0.61385
 Alpha  occ. eigenvalues --   -0.61098  -0.60778  -0.60719  -0.60358  -0.56889
 Alpha  occ. eigenvalues --   -0.56509  -0.55612  -0.54562  -0.54513  -0.54065
 Alpha  occ. eigenvalues --   -0.53845  -0.53391  -0.52974  -0.52396  -0.51817
 Alpha  occ. eigenvalues --   -0.50669  -0.50033  -0.49421  -0.49325  -0.49146
 Alpha  occ. eigenvalues --   -0.49032  -0.48910  -0.48653  -0.48317  -0.47735
 Alpha  occ. eigenvalues --   -0.47507  -0.47167  -0.46694  -0.46603  -0.46395
 Alpha  occ. eigenvalues --   -0.46176  -0.45993  -0.45901  -0.45668  -0.45586
 Alpha  occ. eigenvalues --   -0.45278  -0.45116  -0.44946  -0.44683  -0.44327
 Alpha  occ. eigenvalues --   -0.44274  -0.44197  -0.43854  -0.43602  -0.43385
 Alpha  occ. eigenvalues --   -0.43306  -0.43089  -0.43043  -0.43004  -0.42883
 Alpha  occ. eigenvalues --   -0.42833  -0.41608  -0.41066  -0.40777  -0.40461
 Alpha  occ. eigenvalues --   -0.40333  -0.40146  -0.40101  -0.39945  -0.39848
 Alpha  occ. eigenvalues --   -0.39739  -0.39480  -0.39458  -0.39223  -0.38909
 Alpha  occ. eigenvalues --   -0.38784  -0.38646  -0.38607  -0.38449  -0.38010
 Alpha  occ. eigenvalues --   -0.37539  -0.37283  -0.37265  -0.37117  -0.36843
 Alpha  occ. eigenvalues --   -0.36463  -0.36319  -0.36229  -0.35921  -0.35827
 Alpha  occ. eigenvalues --   -0.35742  -0.35490  -0.35337  -0.35068  -0.34712
 Alpha  occ. eigenvalues --   -0.34553  -0.34357  -0.34118  -0.34059  -0.33388
 Alpha  occ. eigenvalues --   -0.33320  -0.32948  -0.32814  -0.32402  -0.32177
 Alpha  occ. eigenvalues --   -0.31735  -0.31530  -0.30897  -0.30793  -0.30676
 Alpha  occ. eigenvalues --   -0.30492  -0.29749  -0.29371  -0.28319  -0.28048
 Alpha  occ. eigenvalues --   -0.27384  -0.27186  -0.26474  -0.25472  -0.25378
 Alpha  occ. eigenvalues --   -0.25025  -0.23773  -0.20594  -0.20112  -0.18915
 Alpha virt. eigenvalues --   -0.08608  -0.04776  -0.03972  -0.00521   0.02417
 Alpha virt. eigenvalues --    0.03342   0.04446   0.05153   0.06558   0.06809
 Alpha virt. eigenvalues --    0.07426   0.07931   0.08890   0.09043   0.09271
 Alpha virt. eigenvalues --    0.09696   0.10124   0.10718   0.10824   0.11586
 Alpha virt. eigenvalues --    0.11691   0.12037   0.12382   0.12468   0.12665
 Alpha virt. eigenvalues --    0.12941   0.13228   0.13417   0.13661   0.13958
 Alpha virt. eigenvalues --    0.14337   0.14586   0.14792   0.15221   0.15312
 Alpha virt. eigenvalues --    0.15508   0.15659   0.15755   0.16112   0.16256
 Alpha virt. eigenvalues --    0.16328   0.16469   0.16712   0.16815   0.17110
 Alpha virt. eigenvalues --    0.17374   0.17458   0.17565   0.17775   0.18040
 Alpha virt. eigenvalues --    0.18227   0.18307   0.18738   0.18878   0.19059
 Alpha virt. eigenvalues --    0.19107   0.19210   0.19391   0.19550   0.19895
 Alpha virt. eigenvalues --    0.20044   0.20158   0.20197   0.20418   0.20455
 Alpha virt. eigenvalues --    0.20602   0.20807   0.21065   0.21259   0.21701
 Alpha virt. eigenvalues --    0.21841   0.22103   0.22293   0.22316   0.22574
 Alpha virt. eigenvalues --    0.22941   0.23029   0.23221   0.23532   0.23648
 Alpha virt. eigenvalues --    0.23876   0.24035   0.24277   0.24680   0.24747
 Alpha virt. eigenvalues --    0.25087   0.25254   0.25381   0.25514   0.25886
 Alpha virt. eigenvalues --    0.26144   0.26343   0.26540   0.26642   0.26953
 Alpha virt. eigenvalues --    0.26998   0.27529   0.27572   0.27752   0.28157
 Alpha virt. eigenvalues --    0.28328   0.28907   0.29027   0.29267   0.29653
 Alpha virt. eigenvalues --    0.30050   0.30729   0.31378   0.31520   0.32075
 Alpha virt. eigenvalues --    0.32681   0.32910   0.33547   0.33999   0.34633
 Alpha virt. eigenvalues --    0.35246   0.35549   0.35893   0.36087   0.36507
 Alpha virt. eigenvalues --    0.37219   0.37631   0.38398   0.38846   0.39415
 Alpha virt. eigenvalues --    0.40071   0.40504   0.41468   0.42050   0.42982
 Alpha virt. eigenvalues --    0.45291   0.45658   0.46036   0.46540   0.47216
 Alpha virt. eigenvalues --    0.47886   0.48408   0.48656   0.49732   0.50085
 Alpha virt. eigenvalues --    0.50519   0.50722   0.51070   0.51270   0.51707
 Alpha virt. eigenvalues --    0.51829   0.51966   0.52436   0.52623   0.52802
 Alpha virt. eigenvalues --    0.53199   0.53342   0.53646   0.54034   0.54465
 Alpha virt. eigenvalues --    0.55002   0.55097   0.55500   0.55970   0.56211
 Alpha virt. eigenvalues --    0.56257   0.56604   0.56676   0.57010   0.57464
 Alpha virt. eigenvalues --    0.57879   0.57970   0.58180   0.58421   0.59018
 Alpha virt. eigenvalues --    0.59144   0.59355   0.59576   0.59788   0.60125
 Alpha virt. eigenvalues --    0.60337   0.60565   0.60747   0.61005   0.62054
 Alpha virt. eigenvalues --    0.62338   0.62621   0.62828   0.63115   0.63466
 Alpha virt. eigenvalues --    0.63854   0.64230   0.64351   0.64614   0.64854
 Alpha virt. eigenvalues --    0.65052   0.65624   0.66161   0.66434   0.66668
 Alpha virt. eigenvalues --    0.66817   0.67189   0.67603   0.67824   0.68058
 Alpha virt. eigenvalues --    0.68355   0.68640   0.69196   0.69611   0.70053
 Alpha virt. eigenvalues --    0.70287   0.70404   0.70688   0.70976   0.71258
 Alpha virt. eigenvalues --    0.71830   0.71886   0.72221   0.72447   0.72889
 Alpha virt. eigenvalues --    0.73013   0.73190   0.73559   0.74089   0.74397
 Alpha virt. eigenvalues --    0.74547   0.74808   0.75164   0.75319   0.75979
 Alpha virt. eigenvalues --    0.76222   0.76834   0.77045   0.77195   0.77834
 Alpha virt. eigenvalues --    0.78184   0.78341   0.78752   0.78975   0.79472
 Alpha virt. eigenvalues --    0.79545   0.80485   0.80622   0.81458   0.81825
 Alpha virt. eigenvalues --    0.82085   0.82247   0.82412   0.82897   0.83218
 Alpha virt. eigenvalues --    0.83790   0.83979   0.84159   0.84402   0.84480
 Alpha virt. eigenvalues --    0.84623   0.85066   0.85279   0.85306   0.85866
 Alpha virt. eigenvalues --    0.86106   0.86386   0.86544   0.86788   0.86963
 Alpha virt. eigenvalues --    0.87096   0.87205   0.87823   0.88066   0.88298
 Alpha virt. eigenvalues --    0.88633   0.89054   0.89212   0.89628   0.89828
 Alpha virt. eigenvalues --    0.89891   0.90234   0.90532   0.90754   0.90986
 Alpha virt. eigenvalues --    0.91173   0.91427   0.91652   0.91931   0.92237
 Alpha virt. eigenvalues --    0.92423   0.92586   0.93013   0.93350   0.93696
 Alpha virt. eigenvalues --    0.94298   0.94432   0.94505   0.94758   0.95172
 Alpha virt. eigenvalues --    0.95802   0.95896   0.96214   0.96276   0.96702
 Alpha virt. eigenvalues --    0.96981   0.97476   0.97750   0.97977   0.98169
 Alpha virt. eigenvalues --    0.98362   0.99354   0.99623   0.99834   1.00049
 Alpha virt. eigenvalues --    1.00211   1.00794   1.00877   1.01793   1.02351
 Alpha virt. eigenvalues --    1.02468   1.02668   1.03405   1.03854   1.04298
 Alpha virt. eigenvalues --    1.04690   1.05628   1.05898   1.06475   1.07566
 Alpha virt. eigenvalues --    1.07676   1.07876   1.08598   1.09003   1.09214
 Alpha virt. eigenvalues --    1.09590   1.09731   1.09914   1.10602   1.10935
 Alpha virt. eigenvalues --    1.11935   1.12006   1.12399   1.12983   1.13745
 Alpha virt. eigenvalues --    1.13936   1.15425   1.15535   1.15921   1.16173
 Alpha virt. eigenvalues --    1.17044   1.17392   1.18074   1.18116   1.18410
 Alpha virt. eigenvalues --    1.18642   1.19346   1.19510   1.19729   1.20259
 Alpha virt. eigenvalues --    1.20804   1.21379   1.22301   1.22825   1.23131
 Alpha virt. eigenvalues --    1.23797   1.24480   1.24661   1.24916   1.25634
 Alpha virt. eigenvalues --    1.26179   1.26583   1.27098   1.27648   1.28078
 Alpha virt. eigenvalues --    1.28387   1.29506   1.30710   1.31025   1.31559
 Alpha virt. eigenvalues --    1.31906   1.32910   1.33582   1.33776   1.33918
 Alpha virt. eigenvalues --    1.34234   1.34611   1.35011   1.35478   1.35726
 Alpha virt. eigenvalues --    1.36133   1.36273   1.37087   1.37634   1.38001
 Alpha virt. eigenvalues --    1.38327   1.38824   1.39028   1.39100   1.39497
 Alpha virt. eigenvalues --    1.39846   1.40022   1.41108   1.41310   1.41558
 Alpha virt. eigenvalues --    1.41987   1.42650   1.43086   1.43277   1.44256
 Alpha virt. eigenvalues --    1.44353   1.44741   1.45163   1.45452   1.45694
 Alpha virt. eigenvalues --    1.45995   1.46675   1.47824   1.48048   1.48998
 Alpha virt. eigenvalues --    1.49153   1.49968   1.50922   1.51274   1.51413
 Alpha virt. eigenvalues --    1.52056   1.53253   1.53773   1.54190   1.54607
 Alpha virt. eigenvalues --    1.55357   1.56529   1.57009   1.57902   1.58608
 Alpha virt. eigenvalues --    1.59509   1.59850   1.60492   1.60693   1.61382
 Alpha virt. eigenvalues --    1.61688   1.63329   1.63550   1.64161   1.64373
 Alpha virt. eigenvalues --    1.64717   1.65294   1.65745   1.66053   1.67094
 Alpha virt. eigenvalues --    1.67461   1.67861   1.68340   1.68741   1.69508
 Alpha virt. eigenvalues --    1.69854   1.70314   1.71008   1.71299   1.72013
 Alpha virt. eigenvalues --    1.72745   1.72846   1.73349   1.74010   1.74698
 Alpha virt. eigenvalues --    1.75104   1.75686   1.75932   1.76751   1.77016
 Alpha virt. eigenvalues --    1.77413   1.77546   1.78276   1.78788   1.78935
 Alpha virt. eigenvalues --    1.80058   1.80890   1.81141   1.81893   1.82016
 Alpha virt. eigenvalues --    1.82094   1.82814   1.83147   1.83491   1.84022
 Alpha virt. eigenvalues --    1.84634   1.85018   1.85401   1.85502   1.85919
 Alpha virt. eigenvalues --    1.86493   1.86684   1.86959   1.87445   1.87554
 Alpha virt. eigenvalues --    1.87869   1.88061   1.88570   1.89116   1.89449
 Alpha virt. eigenvalues --    1.89768   1.90043   1.90618   1.91171   1.91389
 Alpha virt. eigenvalues --    1.91786   1.91933   1.92302   1.92660   1.93092
 Alpha virt. eigenvalues --    1.93332   1.93660   1.93880   1.94243   1.94349
 Alpha virt. eigenvalues --    1.94531   1.94907   1.95156   1.95663   1.95865
 Alpha virt. eigenvalues --    1.96242   1.96474   1.97187   1.97863   1.98557
 Alpha virt. eigenvalues --    1.98981   1.99273   2.00072   2.00283   2.00423
 Alpha virt. eigenvalues --    2.01062   2.01439   2.01906   2.02059   2.02300
 Alpha virt. eigenvalues --    2.02549   2.02763   2.02948   2.03150   2.03454
 Alpha virt. eigenvalues --    2.03515   2.04390   2.04471   2.04700   2.05108
 Alpha virt. eigenvalues --    2.05654   2.06435   2.06768   2.06874   2.06967
 Alpha virt. eigenvalues --    2.07362   2.07922   2.08017   2.08495   2.08920
 Alpha virt. eigenvalues --    2.09464   2.09629   2.09848   2.10001   2.10519
 Alpha virt. eigenvalues --    2.11103   2.11271   2.11509   2.11743   2.11852
 Alpha virt. eigenvalues --    2.12785   2.12960   2.13383   2.13657   2.14005
 Alpha virt. eigenvalues --    2.14574   2.14883   2.15487   2.15812   2.16081
 Alpha virt. eigenvalues --    2.16565   2.16984   2.17544   2.18390   2.18568
 Alpha virt. eigenvalues --    2.19040   2.19261   2.19501   2.19763   2.19922
 Alpha virt. eigenvalues --    2.20205   2.20636   2.20688   2.21313   2.21506
 Alpha virt. eigenvalues --    2.21907   2.22301   2.22682   2.23081   2.23216
 Alpha virt. eigenvalues --    2.23557   2.23870   2.24145   2.24585   2.24695
 Alpha virt. eigenvalues --    2.25150   2.25886   2.26886   2.27155   2.27552
 Alpha virt. eigenvalues --    2.27656   2.27773   2.28093   2.28306   2.28609
 Alpha virt. eigenvalues --    2.29121   2.30281   2.30799   2.32038   2.32275
 Alpha virt. eigenvalues --    2.32537   2.32709   2.33415   2.33623   2.33829
 Alpha virt. eigenvalues --    2.34184   2.34609   2.35721   2.35905   2.36777
 Alpha virt. eigenvalues --    2.37050   2.39231   2.39772   2.40130   2.40515
 Alpha virt. eigenvalues --    2.41076   2.42055   2.42572   2.43862   2.44231
 Alpha virt. eigenvalues --    2.44627   2.45481   2.46967   2.47588   2.48665
 Alpha virt. eigenvalues --    2.48926   2.49049   2.49509   2.49816   2.50242
 Alpha virt. eigenvalues --    2.50681   2.51500   2.52105   2.52755   2.53221
 Alpha virt. eigenvalues --    2.54281   2.54946   2.59015   2.59379   2.60032
 Alpha virt. eigenvalues --    2.60563   2.60807   2.61160   2.62753   2.63380
 Alpha virt. eigenvalues --    2.64087   2.64832   2.65319   2.65793   2.65873
 Alpha virt. eigenvalues --    2.66485   2.67232   2.67488   2.69044   2.70729
 Alpha virt. eigenvalues --    2.73196   2.73940   2.76561   2.76728   2.76872
 Alpha virt. eigenvalues --    2.77205   2.78081   2.78895   2.79112   2.79607
 Alpha virt. eigenvalues --    2.80197   2.80403   2.80617   2.81402   2.81838
 Alpha virt. eigenvalues --    2.82012   2.82316   2.84039   2.84491   2.85299
 Alpha virt. eigenvalues --    2.86760   2.87660   2.89053   2.90129   2.91911
 Alpha virt. eigenvalues --    2.92453   2.92762   2.93810   2.95015   2.96460
 Alpha virt. eigenvalues --    2.97530   2.99270   3.00673   3.02009   3.02942
 Alpha virt. eigenvalues --    3.05319   3.05782   3.05998   3.07260   3.08473
 Alpha virt. eigenvalues --    3.09543   3.10271   3.11981   3.12195   3.13385
 Alpha virt. eigenvalues --    3.13420   3.13990   3.14195   3.22077   3.24917
 Alpha virt. eigenvalues --    3.31585   3.44815  11.66866
          Condensed to atoms (all electrons):
 Mulliken charges:
               1
     1  C    0.311678
     2  C    0.071662
     3  C   -0.075930
     4  C   -0.159459
     5  C   -0.186207
     6  C    0.315743
     7  C    0.038491
     8  C   -0.075129
     9  C   -0.157424
    10  C   -0.188430
    11  H    0.221181
    12  H    0.200208
    13  H    0.175518
    14  H    0.233830
    15  H    0.201499
    16  H    0.180573
    17  N   -0.548990
    18  N   -0.488268
    19  Ir  -0.040763
    20  O   -0.506782
    21  O   -0.512925
    22  O   -0.539719
    23  B    0.704377
    24  B    0.440643
    25  B    0.410441
    26  O   -0.515319
    27  O   -0.537828
    28  C    0.301744
    29  C    0.295324
    30  C    0.299762
    31  C    0.296677
    32  C    0.278291
    33  C    0.292202
    34  O   -0.501777
    35  C   -0.506882
    36  H    0.146225
    37  H    0.165439
    38  H    0.168325
    39  C   -0.501607
    40  H    0.153942
    41  H    0.142271
    42  H    0.177691
    43  C   -0.514231
    44  H    0.176429
    45  H    0.167902
    46  H    0.148994
    47  C   -0.505423
    48  H    0.167120
    49  H    0.161687
    50  H    0.150253
    51  C   -0.509783
    52  H    0.174641
    53  H    0.152009
    54  H    0.163866
    55  C   -0.502461
    56  H    0.169985
    57  H    0.231163
    58  H    0.135052
    59  C   -0.505192
    60  H    0.165790
    61  H    0.162805
    62  H    0.157805
    63  C   -0.506618
    64  H    0.150831
    65  H    0.147379
    66  H    0.203528
    67  C   -0.505801
    68  H    0.163749
    69  H    0.163211
    70  H    0.150020
    71  C   -0.477926
    72  H    0.141452
    73  H    0.165397
    74  H    0.143882
    75  C   -0.506114
    76  H    0.152665
    77  H    0.165743
    78  H    0.157955
    79  C   -0.513475
    80  H    0.181961
    81  H    0.158038
    82  H    0.147730
    83  H    0.011230
    84  C    0.641021
    85  O   -0.516818
    86  C   -0.411903
    87  H    0.168624
    88  H    0.173047
    89  C   -0.383284
    90  H    0.164123
    91  H    0.209624
    92  N   -0.373817
    93  C   -0.385307
    94  H    0.208914
    95  H    0.181383
    96  H    0.173936
    97  C   -0.260136
    98  H    0.186470
    99  H    0.152919
   100  C   -0.279241
   101  H    0.134367
   102  H    0.137821
   103  C   -0.275539
   104  H    0.150310
   105  H    0.127163
   106  C   -0.492652
   107  H    0.158876
   108  H    0.147435
   109  H    0.155900
   110  C    0.972840
   111  F   -0.307519
   112  F   -0.314369
   113  F   -0.304472
   114  C    0.968038
   115  F   -0.309327
   116  F   -0.316366
   117  F   -0.305608
 Sum of Mulliken charges =  -0.00000
 Mulliken charges with hydrogens summed into heavy atoms:
               1
     1  C    0.311678
     2  C    0.292843
     3  C   -0.075930
     4  C    0.040749
     5  C   -0.010689
     6  C    0.315743
     7  C    0.272321
     8  C   -0.075129
     9  C    0.044074
    10  C   -0.007857
    17  N   -0.548990
    18  N   -0.488268
    19  Ir  -0.029533
    20  O   -0.506782
    21  O   -0.512925
    22  O   -0.539719
    23  B    0.704377
    24  B    0.440643
    25  B    0.410441
    26  O   -0.515319
    27  O   -0.537828
    28  C    0.301744
    29  C    0.295324
    30  C    0.299762
    31  C    0.296677
    32  C    0.278291
    33  C    0.292202
    34  O   -0.501777
    35  C   -0.026893
    39  C   -0.027704
    43  C   -0.020906
    47  C   -0.026364
    51  C   -0.019266
    55  C    0.033739
    59  C   -0.018791
    63  C   -0.004880
    67  C   -0.028821
    71  C   -0.027194
    75  C   -0.029751
    79  C   -0.025746
    84  C    0.641021
    85  O   -0.516818
    86  C   -0.070232
    89  C   -0.009537
    92  N   -0.373817
    93  C    0.178926
    97  C    0.079253
   100  C   -0.007054
   103  C    0.001934
   106  C   -0.030441
   110  C    0.972840
   111  F   -0.307519
   112  F   -0.314369
   113  F   -0.304472
   114  C    0.968038
   115  F   -0.309327
   116  F   -0.316366
   117  F   -0.305608
 APT charges:
               1
     1  C    0.110156
     2  C    0.012382
     3  C   -0.122871
     4  C   -0.003038
     5  C   -0.141203
     6  C    0.245801
     7  C    0.083486
     8  C   -0.192303
     9  C    0.090941
    10  C   -0.198770
    11  H    0.118973
    12  H    0.061722
    13  H    0.042034
    14  H    0.081944
    15  H    0.058667
    16  H    0.046488
    17  N    0.042917
    18  N   -0.157213
    19  Ir  -0.516855
    20  O   -0.986224
    21  O   -0.889972
    22  O   -0.962881
    23  B    1.139624
    24  B    1.316081
    25  B    1.236797
    26  O   -0.981206
    27  O   -0.984177
    28  C    0.500191
    29  C    0.472875
    30  C    0.466753
    31  C    0.463004
    32  C    0.470229
    33  C    0.492583
    34  O   -0.889810
    35  C   -0.003061
    36  H   -0.019377
    37  H   -0.001639
    38  H   -0.003488
    39  C   -0.030461
    40  H   -0.009237
    41  H   -0.032402
    42  H    0.030769
    43  C   -0.036284
    44  H    0.003070
    45  H   -0.000718
    46  H   -0.022005
    47  C   -0.003740
    48  H    0.000632
    49  H   -0.007754
    50  H   -0.021588
    51  C   -0.006218
    52  H    0.003079
    53  H   -0.006916
    54  H   -0.011436
    55  C   -0.061837
    56  H    0.005283
    57  H    0.072801
    58  H   -0.020058
    59  C   -0.025495
    60  H    0.001381
    61  H   -0.003280
    62  H   -0.014142
    63  C   -0.030739
    64  H   -0.002010
    65  H   -0.010535
    66  H    0.051996
    67  C    0.003797
    68  H   -0.000273
    69  H   -0.006670
    70  H   -0.020468
    71  C   -0.007483
    72  H   -0.014738
    73  H    0.003991
    74  H   -0.032457
    75  C   -0.006297
    76  H   -0.020269
    77  H    0.000518
    78  H   -0.004034
    79  C   -0.027707
    80  H    0.023662
    81  H    0.000456
    82  H   -0.023419
    83  H   -0.146138
    84  C    1.120158
    85  O   -0.930599
    86  C    0.000388
    87  H   -0.030970
    88  H    0.010559
    89  C   -0.012960
    90  H   -0.030216
    91  H    0.052986
    92  N   -0.718679
    93  C    0.282636
    94  H    0.022168
    95  H    0.025016
    96  H   -0.045389
    97  C    0.050111
    98  H    0.013866
    99  H   -0.025561
   100  C    0.124322
   101  H   -0.067369
   102  H   -0.046066
   103  C    0.126475
   104  H   -0.060938
   105  H   -0.050635
   106  C    0.053627
   107  H   -0.001311
   108  H   -0.035297
   109  H   -0.026963
   110  C    1.775453
   111  F   -0.599109
   112  F   -0.590097
   113  F   -0.510988
   114  C    1.842270
   115  F   -0.604544
   116  F   -0.624343
   117  F   -0.522190
 Sum of APT charges =  -0.00000
 APT charges with hydrogens summed into heavy atoms:
               1
     1  C    0.110156
     2  C    0.131355
     3  C   -0.122871
     4  C    0.058684
     5  C   -0.099168
     6  C    0.245801
     7  C    0.165430
     8  C   -0.192303
     9  C    0.149608
    10  C   -0.152282
    17  N    0.042917
    18  N   -0.157213
    19  Ir  -0.662994
    20  O   -0.986224
    21  O   -0.889972
    22  O   -0.962881
    23  B    1.139624
    24  B    1.316081
    25  B    1.236797
    26  O   -0.981206
    27  O   -0.984177
    28  C    0.500191
    29  C    0.472875
    30  C    0.466753
    31  C    0.463004
    32  C    0.470229
    33  C    0.492583
    34  O   -0.889810
    35  C   -0.027564
    39  C   -0.041330
    43  C   -0.055937
    47  C   -0.032451
    51  C   -0.021491
    55  C   -0.003811
    59  C   -0.041536
    63  C    0.008713
    67  C   -0.023614
    71  C   -0.050687
    75  C   -0.030082
    79  C   -0.027009
    84  C    1.120158
    85  O   -0.930599
    86  C   -0.020023
    89  C    0.009811
    92  N   -0.718679
    93  C    0.284432
    97  C    0.038416
   100  C    0.010887
   103  C    0.014902
   106  C   -0.009944
   110  C    1.775453
   111  F   -0.599109
   112  F   -0.590097
   113  F   -0.510988
   114  C    1.842270
   115  F   -0.604544
   116  F   -0.624343
   117  F   -0.522190
 Electronic spatial extent (au):  <R**2>=          35963.5357
 Charge=             -0.0000 electrons
 Dipole moment (field-independent basis, Debye):
    X=             -1.1541    Y=              2.0890    Z=             -1.6171  Tot=              2.8829
 Quadrupole moment (field-independent basis, Debye-Ang):
   XX=           -359.9289   YY=           -326.0975   ZZ=           -344.3841
   XY=            -21.4325   XZ=             -5.2758   YZ=              4.7782
 Traceless Quadrupole moment (field-independent basis, Debye-Ang):
   XX=            -16.4587   YY=             17.3727   ZZ=             -0.9139
   XY=            -21.4325   XZ=             -5.2758   YZ=              4.7782
 Octapole moment (field-independent basis, Debye-Ang**2):
  XXX=             62.1824  YYY=            204.6909  ZZZ=             -5.6808  XYY=            -79.7056
  XXY=             10.9309  XXZ=              1.3383  XZZ=             24.6727  YZZ=              2.2353
  YYZ=             24.2693  XYZ=            -12.9733
 Hexadecapole moment (field-independent basis, Debye-Ang**3):
 XXXX=         -19940.7852 YYYY=         -14539.9619 ZZZZ=         -10220.5087 XXXY=            -99.6982
 XXXZ=            -90.4292 YYYX=            -49.4625 YYYZ=            121.8655 ZZZX=           -203.7717
 ZZZY=            -16.2424 XXYY=          -5757.3620 XXZZ=          -5045.8937 YYZZ=          -4362.2403
 XXYZ=             45.7053 YYXZ=            -64.4507 ZZXY=            113.2719
 N-N= 1.052113360331D+04 E-N=-2.792312725396D+04  KE= 2.862801442137D+03
  Exact polarizability:     581.772     -12.692     559.799      -0.594       5.014     438.369
 Approx polarizability:     835.714      -9.503     823.650      -9.109       9.761     615.627
   1 Symmetry operations used in ECPInt.
 ECPInt:  NShTT=   62835 NPrTT=  387974 LenC2=   46528 LenP2D=  142072.
 LDataN:  DoStor=T MaxTD1= 8 Len=  415
 Calling FoFJK, ICntrl=    100127 FMM=F ISym2X=0 I1Cent= 0 IOpClX= 0 NMat=1 NMatS=1 NMatT=0.
 Defaulting to unpruned grid for atomic number  77.
 Defaulting to unpruned grid for atomic number  77.
 Defaulting to unpruned grid for atomic number  77.
 Defaulting to unpruned grid for atomic number  77.
 Defaulting to unpruned grid for atomic number  77.
 Defaulting to unpruned grid for atomic number  77.
 Defaulting to unpruned grid for atomic number  77.
 Defaulting to unpruned grid for atomic number  77.
 Defaulting to unpruned grid for atomic number  77.
 Defaulting to unpruned grid for atomic number  77.
 Defaulting to unpruned grid for atomic number  77.
 Defaulting to unpruned grid for atomic number  77.
 Defaulting to unpruned grid for atomic number  77.
 Defaulting to unpruned grid for atomic number  77.
 Defaulting to unpruned grid for atomic number  77.
 Defaulting to unpruned grid for atomic number  77.
 Full mass-weighted force constant matrix:
 Low frequencies ---   -8.6455   -7.1622   -0.0008   -0.0005   -0.0004    1.7055
 Low frequencies ---   13.9541   15.7702   22.4775
 Diagonal vibrational polarizability:
       79.6755175      66.6117014     197.1756484
 Harmonic frequencies (cm**-1), IR intensities (KM/Mole), Raman scattering
 activities (A**4/AMU), depolarization ratios for plane and unpolarized
 incident light, reduced masses (AMU), force constants (mDyne/A),
 and normal coordinates:
                      1                      2                      3
                      A                      A                      A
 Frequencies --     13.8192                14.8619                22.3670
 Red. masses --      6.7044                 4.0442                 5.7985
 Frc consts  --      0.0008                 0.0005                 0.0017
 IR Inten    --      0.0095                 0.0664                 1.4910
  Atom AN      X      Y      Z        X      Y      Z        X      Y      Z
     1   6     0.00   0.01  -0.04    -0.01  -0.00   0.01     0.01   0.00  -0.06
     2   6    -0.01   0.01  -0.04    -0.01   0.00  -0.00     0.00   0.01   0.02
     3   6    -0.01   0.02  -0.06    -0.01   0.01   0.00    -0.01   0.02  -0.07
     4   6    -0.00   0.02  -0.08    -0.01   0.01   0.01    -0.00   0.03  -0.17
     5   6    -0.00   0.01  -0.07    -0.00   0.00   0.02     0.00   0.02  -0.16
     6   6     0.00   0.00  -0.01    -0.00  -0.01   0.01     0.01  -0.00  -0.05
     7   6     0.00  -0.01   0.03    -0.01  -0.01  -0.00     0.00  -0.00   0.04
     8   6     0.01  -0.01   0.09    -0.00  -0.01  -0.02     0.01  -0.01  -0.04
     9   6     0.02   0.00   0.10     0.00  -0.01  -0.02     0.02  -0.01  -0.13
    10   6     0.02   0.01   0.05    -0.00  -0.01  -0.01     0.02  -0.01  -0.14
    11   1    -0.01   0.01  -0.04    -0.02   0.00  -0.01     0.00   0.00   0.10
    12   1    -0.00   0.03  -0.10    -0.00   0.01   0.02    -0.01   0.04  -0.25
    13   1     0.00   0.02  -0.09     0.00   0.00   0.03     0.00   0.02  -0.24
    14   1    -0.00  -0.02   0.01    -0.01  -0.01  -0.00    -0.00   0.00   0.11
    15   1     0.02   0.00   0.15     0.00  -0.01  -0.04     0.03  -0.02  -0.20
    16   1     0.02   0.02   0.06    -0.00  -0.01  -0.01     0.03  -0.01  -0.21
    17   7    -0.00   0.01  -0.03    -0.01  -0.00   0.01     0.01  -0.00   0.02
    18   7    -0.00  -0.01  -0.02    -0.01  -0.01   0.01     0.00   0.00   0.03
    19  77    -0.01  -0.00  -0.02    -0.01  -0.01   0.01     0.00  -0.00   0.07
    20   8     0.05   0.04  -0.03     0.02  -0.00  -0.01     0.03  -0.05   0.04
    21   8     0.01   0.01  -0.07     0.05   0.04  -0.01    -0.03   0.02   0.02
    22   8    -0.02  -0.02   0.02    -0.02   0.01  -0.02     0.01   0.02   0.04
    23   5    -0.02   0.00  -0.03     0.02   0.03   0.02    -0.03   0.04   0.02
    24   5     0.03   0.03  -0.01     0.00  -0.02   0.00     0.02  -0.03   0.05
    25   5    -0.01  -0.01   0.01    -0.02  -0.00  -0.01     0.01   0.00   0.04
    26   8    -0.01  -0.00   0.02    -0.03  -0.01  -0.01     0.01  -0.00   0.02
    27   8     0.04   0.03   0.03     0.02  -0.04   0.01     0.02  -0.03   0.06
    28   6     0.09   0.04   0.03     0.05  -0.07  -0.00     0.03  -0.06   0.05
    29   6     0.09   0.04  -0.01     0.05  -0.03  -0.03     0.03  -0.07   0.03
    30   6    -0.02  -0.02   0.05    -0.02   0.01  -0.03     0.01   0.02   0.01
    31   6    -0.02  -0.01   0.04    -0.03  -0.00  -0.02     0.00   0.01   0.00
    32   6     0.02   0.02  -0.05     0.04   0.06   0.02    -0.00  -0.00  -0.02
    33   6    -0.02   0.01  -0.01    -0.05   0.04   0.10     0.01   0.02  -0.05
    34   8    -0.03   0.00  -0.00    -0.03   0.04   0.08    -0.01   0.03  -0.02
    35   6     0.13   0.05  -0.04     0.07  -0.05  -0.03     0.05  -0.09   0.02
    36   1     0.16   0.05  -0.02     0.10  -0.08  -0.04     0.06  -0.10   0.02
    37   1     0.12   0.06  -0.07     0.07  -0.02  -0.06     0.05  -0.09   0.01
    38   1     0.13   0.05  -0.04     0.05  -0.06  -0.01     0.05  -0.10   0.04
    39   6     0.08   0.04  -0.02     0.08  -0.01  -0.07     0.02  -0.06   0.00
    40   1     0.07   0.04  -0.05     0.07   0.02  -0.08     0.02  -0.06  -0.01
    41   1     0.10   0.04  -0.01     0.11  -0.04  -0.08     0.03  -0.07  -0.01
    42   1     0.05   0.03  -0.00     0.06  -0.00  -0.06     0.02  -0.04   0.00
    43   6     0.11   0.04   0.04     0.04  -0.10   0.03     0.05  -0.08   0.08
    44   1     0.10   0.04   0.02     0.02  -0.08   0.04     0.04  -0.08   0.09
    45   1     0.10   0.03   0.07     0.03  -0.11   0.06     0.04  -0.08   0.10
    46   1     0.15   0.04   0.04     0.06  -0.12   0.02     0.06  -0.11   0.07
    47   6     0.10   0.04   0.06     0.08  -0.09  -0.01     0.03  -0.07   0.03
    48   1     0.10   0.03   0.09     0.07  -0.11   0.01     0.03  -0.06   0.04
    49   1     0.08   0.03   0.06     0.08  -0.07  -0.03     0.03  -0.05   0.01
    50   1     0.13   0.04   0.05     0.10  -0.11  -0.03     0.04  -0.09   0.02
    51   6     0.03   0.01  -0.10     0.05   0.02  -0.04    -0.00   0.01  -0.02
    52   1     0.06   0.02  -0.13     0.11   0.04  -0.09    -0.01  -0.00   0.01
    53   1     0.03   0.02  -0.08     0.03   0.03  -0.00     0.02  -0.00  -0.06
    54   1    -0.00  -0.02  -0.12     0.01  -0.05  -0.07    -0.01   0.06  -0.02
    55   6     0.06   0.06  -0.03     0.10   0.15   0.05    -0.00  -0.06  -0.01
    56   1     0.10   0.06  -0.05     0.19   0.15   0.01    -0.02  -0.07   0.02
    57   1     0.06   0.09   0.00     0.09   0.22   0.10    -0.00  -0.08  -0.00
    58   1     0.06   0.07  -0.03     0.08   0.16   0.07     0.02  -0.08  -0.03
    59   6    -0.06  -0.04  -0.02    -0.10  -0.08   0.10     0.01   0.08  -0.09
    60   1    -0.09  -0.05   0.01    -0.15  -0.09   0.16     0.02   0.10  -0.11
    61   1    -0.06  -0.06  -0.06    -0.07  -0.14   0.04    -0.01   0.12  -0.06
    62   1    -0.05  -0.03  -0.03    -0.12  -0.09   0.12     0.03   0.08  -0.12
    63   6    -0.03   0.04   0.04    -0.09   0.12   0.18     0.04  -0.02  -0.09
    64   1    -0.06   0.03   0.06    -0.16   0.09   0.23     0.06  -0.00  -0.12
    65   1    -0.01   0.05   0.03    -0.09   0.12   0.18     0.06  -0.03  -0.11
    66   1    -0.01   0.07   0.05    -0.06   0.19   0.19     0.04  -0.06  -0.08
    67   6    -0.01  -0.00   0.06    -0.04  -0.00  -0.02     0.00  -0.00  -0.02
    68   1    -0.01   0.00   0.05    -0.04  -0.01  -0.01     0.00  -0.00  -0.03
    69   1     0.00   0.01   0.06    -0.05  -0.00  -0.02     0.01  -0.02  -0.02
    70   1    -0.01  -0.01   0.08    -0.04  -0.00  -0.03     0.00   0.01  -0.04
    71   6    -0.04  -0.03   0.03    -0.01  -0.00  -0.01     0.00   0.04  -0.00
    72   1    -0.05  -0.04   0.02     0.00  -0.00  -0.01     0.01   0.05   0.02
    73   1    -0.03  -0.02   0.02    -0.02  -0.02   0.00     0.00   0.02  -0.00
    74   1    -0.04  -0.04   0.05    -0.01   0.00  -0.02    -0.00   0.05  -0.02
    75   6    -0.04  -0.04   0.07    -0.01   0.01  -0.04     0.00   0.04   0.01
    76   1    -0.05  -0.04   0.09    -0.02   0.01  -0.04     0.00   0.04  -0.01
    77   1    -0.04  -0.03   0.07    -0.01   0.02  -0.04     0.00   0.04   0.02
    78   1    -0.05  -0.06   0.06    -0.00   0.02  -0.03    -0.00   0.05   0.01
    79   6    -0.01   0.01   0.07    -0.03   0.01  -0.04     0.01   0.00   0.01
    80   1     0.01   0.03   0.06    -0.04   0.00  -0.03     0.01  -0.02   0.02
    81   1    -0.01   0.01   0.07    -0.03   0.01  -0.04     0.01   0.01   0.03
    82   1    -0.00   0.01   0.10    -0.04   0.01  -0.04     0.00   0.00  -0.00
    83   1    -0.01  -0.01  -0.03    -0.02  -0.02   0.00     0.01   0.00   0.06
    84   6    -0.04  -0.04  -0.03     0.02   0.01   0.01    -0.05   0.03   0.04
    85   8    -0.05  -0.03  -0.04     0.01   0.01   0.01    -0.06   0.01   0.06
    86   6    -0.04  -0.05  -0.02     0.02   0.01   0.01    -0.04   0.03   0.03
    87   1    -0.04  -0.07  -0.02     0.03   0.00   0.01    -0.03   0.03   0.03
    88   1    -0.03  -0.05  -0.01     0.01   0.01   0.02    -0.03   0.03   0.02
    89   6    -0.04  -0.01  -0.03     0.02   0.02   0.01    -0.05   0.05   0.05
[...]
 3,-0.00000919,-0.00001963,0.00001790,0.00000643,-0.00000097,-0.0000123
 3,0.00002855,-0.00000110,0.00000514,-0.00001223,-0.00000514,-0.0000176
 8,0.00000925,0.00000613,0.00001951,-0.00000231,-0.00002201,-0.00000324
 ,0.00003426,0.00000462,-0.00000057,-0.00002744,0.00000472,0.00000399,-
 0.00001025,-0.00000211,-0.00000812,0.00002968,-0.00000324,0.00000165,0
 .00002528,-0.00000274,-0.00000094,-0.00000887,0.00000009,0.00001564,-0
 .00000020,-0.00000034,-0.00001347,0.00001744,0.00001341,-0.00002158,0.
 00001176,-0.00000523,0.00001990,-0.00001812,0.00000660,-0.00002656,0.0
 0000818,-0.00000823,0.00001419,0.00000340,-0.00000148,-0.00002678,0.00
 003374,-0.00000665,0.00001970,-0.00003882,-0.00000077,0.00002159,-0.00
 001564,0.00000761,-0.00003653,0.00001900,0.00001896,-0.00000072,0.0000
 0312,-0.00000699,0.00000294,-0.00000305,-0.00001299,0.00000210,0.00000
 483,0.00001428,-0.00001267,0.00000748,0.00000408,-0.00000985,0.0000030
 9,-0.00000859,-0.00000494,-0.00000300,0.00001141,-0.00001024,0.0000113
 9,-0.00000625,0.00000537,-0.00001169,0.00000192,-0.00000656,-0.0000069
 4,0.00000827,0.00000086,-0.00000034,-0.00000628,0.00000181,0.00000856,
 -0.00000552,-0.00001096,-0.00000165,-0.00000815,0.00000145,-0.00000803
 ,0.00000602,-0.00000522,0.00001357,0.00000142,0.00000940,-0.00000009,-
 0.00000513,-0.00001253,-0.00000869,-0.00000485,-0.00001298,-0.00000066
 ,-0.00000265,-0.00001584,-0.00000249,-0.00000034,0.00000792,-0.0000020
 4,-0.00000059,0.00000603,0.00000743,-0.00001225,-0.00001525,0.00000052
 ,0.00000492,0.00000721,-0.00000620,0.00000289,0.00000779,0.00000063,-0
 .00000558,-0.00001814,0.00000432,-0.00000894,0.00002756,-0.00001090,0.
 00007621,0.00016776,0.00014982,-0.00011283,-0.00025541,-0.00007489,-0.
 00001857,-0.00001160,-0.00002906,-0.00000651,0.00000427,-0.00000495,-0
 .00000824,-0.00000363,-0.00000351,0.00003840,-0.00000427,0.00010273,-0
 .00002678,0.00005185,0.00004629,0.00008574,0.00004151,-0.00003191,-0.0
 0001773,-0.00014221,-0.00007555,-0.00004287,0.00007634,0.00005047,0.00
 001037,-0.00001201,-0.00000247,-0.00001307,-0.00001077,-0.00001663,0.0
 0000824,0.00000201,-0.00000202,0.00000533,-0.00000224,-0.00000956,0.00
 000514,0.00000699,0.00000166,0.00001076,-0.00000972,0.00000737,0.00000
 875,0.00001295,0.00001728,-0.00000470,0.00000191,-0.00001066,-0.000002
 71,-0.00000873,-0.00000102,0.00000505,-0.00000655,-0.00000109,-0.00001
 840,-0.00000627,-0.00000850,0.00000502,0.00001158,-0.00000026,0.000011
 68,0.00000797,0.00001241,-0.00000766,-0.00000066,0.00000911,-0.0000073
 7,-0.00001201,-0.00000781,0.00000506,-0.00000057,-0.00000973,0.0003154
 2,0.00013249,-0.00012248,-0.00011578,-0.00003544,0.00011630,-0.0001089
 4,-0.00000846,-0.00000026,-0.00005692,-0.00005079,0.00001691,-0.026145
 73,-0.10329992,-0.16183470,0.00516624,-0.03335831,-0.08053855,0.017365
 32,0.17182314,0.23411318,0.00045624,-0.00011121,0.00001949,0.00008237,
 0.00014940,-0.00002307,-0.00033753,-0.00022359,-0.00003350,0.00018415,
 -0.00011466,-0.00004443,-0.00030553,-0.00012730,0.00003257,0.00070899,
 0.00059791,-0.00002909,-0.00121159,0.00270770,-0.00045481,-0.03871278,
 0.03598986,-0.01270221,-0.00543544,-0.00789853,-0.00011860,-0.00205106
 ,0.00144516,0.00014927,-0.00002898,0.00003350,0.00001342,-0.00003508,0
 .00000583,0.00000466,0.00014278,-0.00007080,-0.00001760,-0.00152533,-0
 .00114145,-0.00027599,0.00059562,-0.00000855,-0.00005362,-0.00082884,-
 0.00033328,0.00007748,-0.00070348,-0.00000118,-0.00005798,-0.00082210,
 -0.00004270,0.00013665,-0.00002576,-0.00052613,0.00081031,0.00043608,-
 0.00031081,0.00061621,0.00075009,0.00048760,0.00043501,-0.00017919,-0.
 00056486,-0.00018507,-0.00116414,-0.00018603,-0.00047779,-0.00035589,0
 .00080051,-0.00129225,0.00007502,0.00118268,0.00012710,0.00011580,-0.0
 0073675,-0.00002761,-0.00000239,-0.00032851,0.00053989,-0.00009926,0.0
 0009803,-0.00025610,0.00000152,0.00014167,-0.00016916,0.00000983,0.000
 25452,-0.00001882,0.00003760,0.00015129,0.00012112,-0.00011555,-0.0001
 2525,0.00007841,-0.00020542,-0.00000708,-0.00012710,0.00047577,0.00014
 109,0.00018652,-0.00001738,-0.00001890,0.00001394,0.00001176,0.0000036
 2,0.00002202,0.00004628,-0.00003155,0.00000158,-0.00003375,0.00000910,
 0.00000012,-0.00004222,-0.00002557,0.00003145,0.00004222,-0.00001175,0
 .00000416,0.00000724,-0.00003187,0.00000360,-0.00000937,0.00002832,-0.
 00000545,0.00002011,-0.00000419,0.00004074,-0.00003112,0.00000152,-0.0
 0003230,0.00003382,0.00000861,-0.00001684,-0.00000684,-0.00001307,0.00
 004636,0.00001077,-0.00001083,0.00003089,0.00001278,0.00000392,-0.0000
 1296,-0.00000795,0.00000026,-0.00001323,-0.00000595,-0.00001919,0.0000
 3156,-0.00003443,-0.00007432,-0.00012420,0.00005292,-0.00000017,0.0001
 2650,0.00002345,0.00006969,0.00000250,0.00003178,-0.00003829,-0.000026
 11,-0.00002008,-0.00020881,-0.00007583,-0.00003442,0.00004121,0.000080
 93,-0.00005554,0.00010553,0.00002249,0.00001395,0.00004170,0.00000678,
 0.00003132,0.00000151,0.00003309,0.00001047,0.00003447,0.00002513,0.00
 000242,0.00000685,-0.00004369,0.00001440,-0.00002994,-0.00000051,0.000
 01970,0.00001771,0.00005110,-0.00000151,0.00004809,0.00001761,0.000016
 42,-0.00002084,0.00001198,-0.00004527,0.00000640,-0.00003202,-0.000008
 16,-0.00001183,-0.00002553,0.00002302,-0.00001800,0.00000597,-0.000006
 74,0.00000908,-0.00000302,-0.00000582,-0.00002240,0.00000313,-0.000031
 67,-0.00001240,-0.00003014,-0.00001640,0.00000136,0.00001973,0.0000200
 7,-0.00002232,0.00000126,0.00000642,-0.00001690,-0.00002549,-0.0000099
 9,-0.00003616,0.00000872,-0.00001179,-0.00003147,-0.00000953,0.0000127
 3,0.00001049,-0.00000096,-0.00000138,0.00001460,-0.00000545,-0.0000134
 0,-0.00004378,-0.00000184,-0.00000028,0.00002529,-0.00001208,0.0000262
 2,0.00001405,0.00000792,-0.00001349,-0.00003724,0.00000696,0.00037797,
 -0.00002029,-0.00013706,-0.00080157,0.00092113,0.00094234,0.00024279,-
 0.00059572,-0.00098993,0.00002092,-0.00005297,-0.00002255,0.00000838,0
 .00000606,-0.00003603,-0.00000325,-0.00001898,0.00001059,-0.00004891,-
 0.00017960,-0.00005612,0.00006358,-0.00000563,-0.00014571,-0.00023956,
 0.00004591,0.00007133,0.00070378,-0.00024184,-0.00018244,0.00005001,0.
 00008324,0.00013414,-0.00001851,-0.00005302,-0.00004646,0.00000064,0.0
 0001281,0.00002527,0.00002652,-0.00000684,-0.00006640,-0.00000237,0.00
 002248,0.00004231,0.00002541,0.00002587,-0.00000302,0.00001150,-0.0000
 2401,0.00002380,0.00001547,0.00000139,-0.00000076,-0.00000771,0.000008
 34,-0.00003194,0.00000103,-0.00002646,-0.00000303,-0.00000332,-0.00000
 381,0.00004320,-0.00001457,-0.00001892,-0.00002743,0.00000776,0.000035
 87,-0.00001525,0.00004766,0.00001999,0.00002144,0.00001672,-0.00000747
 ,0.00001565,-0.00004056,-0.00002502,0.00000146,-0.00000211,-0.00000090
 ,-0.00003035,0.00076344,0.00048447,-0.00008806,-0.00026151,-0.00011778
 ,0.00018457,-0.00027060,-0.00004225,-0.00004179,-0.00013081,-0.0002398
 2,-0.00001860,-0.22463079,0.10318965,-0.04079023,0.01269773,0.01170213
 ,-0.01705520,0.00432389,0.02682914,0.01117024,0.25711907,-0.00013148,0
 .00025381,0.00000614,-0.00008256,-0.00002678,0.00002615,0.00008103,-0.
 00002484,-0.00000052,-0.00004681,0.00011932,0.00001967,-0.00005079,-0.
 00005295,-0.00000185,-0.00071284,0.00046716,-0.00010525,-0.00062991,-0
 .00564629,-0.00007271,0.00354885,0.00416288,0.00177245,0.00078320,0.00
 038698,0.00020037,-0.00070653,-0.00016066,-0.00004743,0.00001818,-0.00
 001303,-0.00000361,-0.00000314,-0.00000589,-0.00000082,-0.00001982,0.0
 0002158,0.00000394,-0.00096431,0.00261199,-0.00013433,-0.00062067,0.00
 043335,-0.00012087,0.00004071,0.00002314,-0.00004547,0.00027218,0.0000
 1054,-0.00000410,-0.00007906,0.00154044,-0.00029405,0.00002068,-0.0000
 0755,-0.00014150,-0.00022100,-0.00002093,-0.00006100,-0.00032667,-0.00
 057753,-0.00032567,-0.00009488,-0.00001091,-0.00003575,0.00067383,0.00
 039495,0.00048460,0.00027317,-0.00010478,0.00018567,0.00011449,-0.0000
 4487,0.00004774,-0.00009242,0.00002790,-0.00003496,-0.00012827,0.00000
 049,-0.00000013,0.00004104,-0.00001167,-0.00000994,0.00003775,0.000045
 34,-0.00005253,0.00002209,0.00000500,0.00000485,0.00003250,0.00002702,
 0.00000892,-0.00005287,0.00022794,-0.00012075,0.00004580,0.00007758,0.
 00005889,-0.00022028,-0.00031384,-0.00011688,0.00001659,-0.00000115,0.
 00000800,-0.00001466,-0.00001622,0.00000580,-0.00002038,0.00002492,-0.
 00001101,0.00001905,0.00000069,-0.00001271,0.00002190,-0.00000509,0.00
 000031,-0.00002106,0.00001668,-0.00001123,-0.00000999,-0.00000631,0.00
 001152,0.00000602,-0.00000070,-0.00000137,-0.00000840,0.00001220,-0.00
 000105,0.00001590,-0.00001102,-0.00000129,-0.00001961,-0.00000210,-0.0
 0000230,0.00000459,-0.00000136,0.00000128,-0.00001154,0.00000573,-0.00
 000329,-0.00001516,-0.00000006,0.00000020,0.00000634,0.00000264,0.0000
 0181,0.00000530,-0.00000026,-0.00000029,0.00003697,0.00004130,0.000086
 85,-0.00005866,0.00001173,-0.00008068,-0.00000688,-0.00006160,0.000003
 74,-0.00000846,0.00001951,-0.00000527,0.00005457,0.00015419,0.00009959
 ,-0.00002848,-0.00002904,-0.00010307,0.00003515,-0.00001990,-0.0000249
 3,0.00000566,-0.00007821,-0.00000063,-0.00001880,-0.00002138,-0.000028
 43,-0.00001227,-0.00002596,-0.00002425,-0.00000489,0.00000729,0.000028
 46,0.00000465,0.00000849,0.00000773,-0.00000865,-0.00002228,-0.0000378
 6,-0.00000909,-0.00003994,-0.00002037,-0.00000279,0.00001229,0.0000039
 0,0.00002736,0.00000868,0.00001025,0.00000377,-0.00000641,0.00000432,-
 0.00000315,0.00001241,0.00000050,0.00000381,0.00000163,0.00000361,-0.0
 0000598,-0.00000445,-0.00000673,0.00001416,-0.00000512,0.00000364,0.00
 000882,0.00000172,0.00000204,-0.00000680,0.00002093,0.00000358,-0.0000
 0989,-0.00000850,-0.00000230,-0.00000213,0.00000250,-0.00000144,0.0000
 0142,-0.00000175,-0.00000064,-0.00001142,0.00000239,0.00000008,0.00000
 557,-0.00000213,0.00000209,0.00000025,0.00000141,0.00000336,0.00000448
 ,-0.00000037,-0.00000266,-0.00000977,0.00000312,-0.00000219,0.00000044
 ,-0.00000279,0.00000143,-0.00021690,0.00002889,0.00005351,0.00033607,-
 0.00026497,-0.00020197,-0.00012909,0.00019152,0.00014319,-0.00002769,-
 0.00000177,0.00001129,-0.00000770,-0.00000585,-0.00000646,-0.00000675,
 0.00000957,-0.00000127,-0.00000082,0.00015148,0.00004708,-0.00001467,-
 0.00000984,0.00004017,0.00015971,-0.00006625,0.00007378,-0.00027096,0.
 00002400,-0.00006625,-0.00007801,0.00000321,0.00001903,0.00002052,0.00
 001891,0.00002531,-0.00001314,-0.00001847,-0.00002203,0.00001288,0.000
 00463,0.00001343,0.00000339,-0.00003630,-0.00001464,0.00000748,-0.0000
 0389,0.00000351,-0.00000605,0.00001497,-0.00000152,-0.00000155,0.00000
 594,0.00001725,-0.00000402,0.00000039,-0.00000883,-0.00000022,0.000010
 83,0.00000337,0.00000489,-0.00000921,-0.00000562,-0.00000738,0.0000025
 1,0.00000244,0.00000114,0.00000419,-0.00000566,-0.00000579,-0.00000083
 ,0.00000481,-0.00000562,0.00000257,0.00000330,0.00000487,-0.00000400,0
 .00000354,-0.00000036,0.00000074,-0.00000968,0.00000157,-0.00008409,0.
 00000346,0.00000756,0.00001771,-0.00000616,-0.00001216,0.00001788,-0.0
 0001155,-0.00000507,0.00004615,0.00000706,0.10965570,-0.16671370,0.033
 21106,0.02197208,-0.02829839,0.04129095,0.04057783,-0.06225623,-0.0165
 3491,-0.17274679,0.25340450,0.00007526,-0.00004686,-0.00000237,0.00000
 897,0.00001827,-0.00000008,-0.00003239,-0.00002800,0.00000034,0.000029
 98,-0.00001124,0.00001697,-0.00003117,-0.00000752,0.00001668,0.0002403
 3,-0.00016074,-0.00000766,0.00015908,0.00124692,-0.00052512,-0.0051256
 0,0.00483429,0.00765713,-0.00114440,-0.00089277,0.00149727,0.00002601,
 0.00041794,-0.00048380,-0.00000525,0.00000417,-0.00000657,-0.00000349,
 0.00000150,-0.00000323,0.00001192,-0.00000399,-0.00003222,-0.00015183,
 -0.00050644,-0.00016302,0.00008245,-0.00006670,-0.00008251,-0.00009248
 ,-0.00006855,-0.00015922,-0.00008586,0.00000151,-0.00000791,-0.0003056
 2,-0.00026658,0.00015150,0.00003199,-0.00002852,0.00009810,0.00013034,
 -0.00001888,0.00017521,0.00018401,-0.00003306,0.00028849,0.00000401,-0
 .00005162,0.00001742,-0.00025268,0.00013983,-0.00032238,-0.00012872,0.
 00014114,-0.00030407,-0.00001146,0.00010037,-0.00004184,0.00002445,-0.
 00006776,0.00003203,0.00002945,-0.00005115,0.00013902,-0.00002487,0.00
 000576,-0.00006797,-0.00001062,-0.00000398,-0.00003114,0.00000456,0.00
 003049,-0.00000923,0.00000063,0.00000333,-0.00000811,-0.00001876,0.000
 06346,-0.00011574,-0.00007733,0.00000206,-0.00005606,0.00011427,-0.000
 08051,0.00013872,0.00000026,-0.00001367,-0.00000233,0.00000811,0.00000
 930,0.00000363,0.00001377,-0.00001792,-0.00000012,-0.00002029,0.000009
 20,0.00001228,-0.00000609,-0.00000065,0.00001268,0.00000592,-0.0000051
 6,-0.00000254,0.00000114,-0.00000258,-0.00000119,0.00000205,0.00000843
 ,0.00000032,-0.00000867,-0.00000917,0.00001403,-0.00000485,0.00000649,
 -0.00001019,0.00001060,0.00000348,-0.00000267,-0.00000335,-0.00000193,
 0.00001061,0.00000398,-0.00000197,0.00001188,0.00000565,-0.00000056,-0
 .00000354,-0.00000258,0.00000700,0.00000031,-0.00000265,-0.00000518,0.
 00000652,-0.00000873,-0.00003893,-0.00002522,0.00002326,0.00000832,0.0
 0001802,0.00000915,0.00000754,0.00000580,-0.00000650,0.00000549,0.0000
 0867,-0.00002580,-0.00009202,-0.00002230,0.00001556,0.00002448,0.00001
 960,-0.00001069,0.00001527,0.00000117,-0.00000172,0.00001294,0.0000167
 7,0.00002095,0.00001113,0.00001527,0.00000071,0.00001160,0.00000824,-0
 .00000799,-0.00000230,-0.00000623,0.00000619,-0.00001125,0.00000103,0.
 00000666,0.00000145,0.00001410,-0.00000142,0.00001104,0.00000765,0.000
 00680,-0.00001260,0.00000492,-0.00001313,-0.00000240,-0.00000884,0.000
 00041,0.00000178,-0.00000178,0.00000371,-0.00000356,-0.00000154,-0.000
 00515,-0.00000122,0.00000380,0.00000060,-0.00000077,0.00000205,-0.0000
 0786,0.00000627,-0.00000272,0.00000204,-0.00000455,0.00000475,0.000001
 58,-0.00000134,-0.00000231,0.00000069,-0.00000102,-0.00000012,-0.00000
 020,-0.00000370,-0.00000157,-0.00000071,-0.00000432,0.00000050,0.00000
 420,0.00000200,-0.00000095,-0.00000304,0.00000292,0.00000435,-0.000005
 84,-0.00000390,-0.00000122,0.00000005,0.00000102,-0.00000052,0.0000036
 0,0.00000115,0.00000080,-0.00000178,-0.00000442,0.00000084,0.00003988,
 -0.00000174,-0.00001076,0.00001997,0.00009174,0.00004571,-0.00005320,-
 0.00016066,0.00003402,-0.00000418,0.00000281,-0.00001911,-0.00000269,0
 .00000344,0.00000384,-0.00000187,-0.00000433,-0.00000422,0.00002171,-0
 .00002598,0.00007384,-0.00001884,0.00004053,0.00003596,0.00004330,0.00
 005183,-0.00004867,0.00001059,-0.00008971,-0.00000391,-0.00001343,0.00
 003957,0.00000892,-0.00000002,-0.00000953,-0.00000846,-0.00000243,-0.0
 0000378,-0.00000728,-0.00000261,0.00000014,0.00000160,0.00000174,0.000
 01024,-0.00000652,-0.00000384,0.00000361,-0.00000063,0.00000704,-0.000
 00943,0.00000246,0.00000303,0.00000579,0.00000381,-0.00000002,-0.00000
 016,0.00000182,-0.00000120,-0.00000718,-0.00000212,0.00000043,0.000001
 49,-0.00000506,-0.00000570,-0.00000263,-0.00000231,0.00000174,-0.00000
 014,0.00000510,0.00000369,0.00000174,0.00000294,-0.00000375,-0.0000002
 5,0.00000133,-0.00000203,-0.00000143,-0.00000698,0.00000327,-0.0000004
 6,0.00000318,0.00006831,0.00005210,-0.00006138,-0.00002939,-0.00001238
 ,0.00003948,-0.00001782,-0.00000924,0.00001077,-0.00001272,-0.00002273
 ,0.00000797,-0.04173422,0.03169220,-0.08771979,-0.03097212,0.04850230,
 -0.03200076,0.01903597,-0.02559669,0.01102148,0.05995764,-0.05907843,0
 .10069242\\0.00001634,0.00001299,0.00000579,-0.00002891,0.00003420,0.0
 0002798,-0.00001141,0.00001928,0.00000697,0.00000840,0.00000583,-0.000
 01001,-0.00000605,-0.00000314,-0.00000139,-0.00002048,0.00000968,-0.00
 000401,-0.00000077,0.00001014,0.00000087,0.00000359,0.00000796,0.00001
 365,-0.00000046,0.00000610,0.00000591,0.00000388,-0.00000959,0.0000086
 7,0.00000134,-0.00000417,0.00000187,0.00000018,0.00000062,-0.00000105,
 0.00000254,0.00000157,-0.00000020,0.00000092,-0.00000076,0.00000186,-0
 .00000154,-0.00000395,0.00000705,-0.00000148,0.00000236,0.00000218,0.0
 0000585,-0.00005309,-0.00001705,0.00002999,-0.00004293,0.00000290,-0.0
 0000950,0.00003656,-0.00000493,0.00000612,-0.00000050,-0.00001261,-0.0
 0003248,-0.00002187,-0.00001747,0.00001404,0.00002161,-0.00003388,0.00
 005218,0.00005512,0.00003718,0.00000053,0.00000229,0.00000946,-0.00003
 606,0.00003115,-0.00002399,-0.00001903,-0.00006497,0.00001415,0.000007
 02,0.00000318,0.00000230,-0.00000130,0.00000194,-0.00000051,-0.0000142
 5,-0.00000913,0.00000276,0.00000579,-0.00005949,-0.00001763,-0.0000098
 0,0.00002741,0.00000215,0.00000814,-0.00000746,0.00000848,-0.00003379,
 0.00000881,-0.00001883,-0.00000078,-0.00001734,0.00000355,-0.00001171,
 -0.00000588,-0.00000033,-0.00000210,-0.00000389,-0.00000052,0.00000406
 ,-0.00000191,-0.00000107,-0.00000322,-0.00000083,0.00000112,-0.0000049
 6,0.00000082,0.00000918,-0.00000474,-0.00000711,0.00000275,-0.00000147
 ,-0.00000543,0.00000054,0.00000476,-0.00000017,-0.00000370,0.00000426,
 -0.00000382,-0.00000821,-0.00000252,-0.00000398,0.00000247,-0.00000649
 ,-0.00000137,-0.00000020,-0.00000189,-0.00000418,0.00000358,0.00000143
 ,-0.00000685,-0.00000734,-0.00000555,-0.00000073,-0.00000317,0.0000002
 3,-0.00000219,-0.00000326,-0.00000257,-0.00000398,0.00000128,-0.000009
 68,-0.00000568,0.00000579,0.00000086,-0.00000199,0.00000358,0.00000146
 ,-0.00000024,0.00000216,0.00000319,-0.00000171,-0.00000664,-0.00000959
 ,0.00000165,0.00000278,0.00000453,-0.00000159,0.00000175,0.00000054,-0
 .00000386,0.00000078,0.00000220,0.00000368,0.00000307,0.00000903,-0.00
 000211,0.00001066,-0.00000395,0.00000028,-0.00000164,0.00000288,0.0000
 0522,0.00000156,0.00000457,-0.00000298,0.00000204,-0.00000579,0.000022
 10,-0.00004508,0.00001200,-0.00000825,-0.00001066,0.00000167,-0.000005
 21,0.00000480,0.00001872,0.00001067,0.00004316,-0.00001504,0.00000683,
 0.00000450,0.00001081,0.00000059,-0.00000104,-0.00000370,-0.00000343,-
 0.00000284,0.00000078,0.00000099,-0.00000287,0.00001270,0.00003328,-0.
 00002950,0.00000952,0.00000074,0.00000008,-0.00002791,-0.00003135,0.00
 002924,0.00000375,0.00000015,-0.00000446,0.00000617,0.00003822,0.00002
 504,0.00000195,-0.00000489,-0.00000600,-0.00000319,-0.00000474,-0.0000
 0749,0.00000132,-0.00003153,-0.00002861,0.00001199,-0.00000160,-0.0000
 0803,-0.00000283,-0.00000091,-0.00000351,-0.00000227,0.00000051,-0.000
 00240,-0.00000096,-0.00000228,-0.00000056,0.00000608,0.00000737,0.0000
 1822,0.00002190,-0.00003798,-0.00001333,-0.00000263,0.00003714,0.00002
 659,-0.00000470,-0.00002864,-0.00002580,0.00000665,0.00000934,0.000003
 10,0.00000999,0.00002638,0.00002128,0.00000270,-0.00000246,0.00000648,
 0.00000394,-0.00000032,0.00000187,-0.00000434,0.00000662,-0.00000729,-
 0.00001328,-0.00001245,0.00000327,-0.00000083,0.00000792,-0.00000334,0
 .00000029,-0.00000111,0.00000538,-0.00000204,0.00000502,-0.00000128,0.
 00000584,0.00000261,0.00000112,-0.00000111,-0.00004249,-0.00001406,0.0
 0000961,0.00007930,0.00003659,0.00000049,0.00000270,-0.00000176,-0.000
 00144,0.00000174,0.00002616,-0.00000010,0.00000755,-0.00000370,0.00000
 693,0.00000849,-0.00001076,0.00001683,-0.00001601,-0.00001340,-0.00000
 275,0.00000059,-0.00000511,-0.00001660,0.00001593,-0.00002438,-0.00000
 192,-0.00000030,0.00000084,0.00000186,0.00001064,-0.00001212,-0.000001
 19,0.00000387,-0.00001859,0.00000164,0.00000255,-0.00000814,0.00002142
 ,0.00000073,0.00003411,0.00000533,-0.00001724,-0.00002323,-0.00000505,
 -0.00000821,0.00000078,-0.00000482,-0.00001966,0.00000741,0.00000098,-
 0.00000526,0.00000699,0.00000161,-0.00000210,0.00000241,-0.00000157,-0
 .00000085,0.00000095,-0.00000172,-0.00000089,0.00000778\\\@
 The archive entry for this job was punched.


     SCHOPENHAUER'S LAW OF ENTROPY
 IF YOU PUT A SPOONFUL OF WINE IN A BARREL FULL
 OF SEWAGE, YOU GET SEWAGE.
 IF YOU PUT A SPOONFUL OF SEWAGE IN A BARREL FULL
 OF WINE, YOU GET SEWAGE.
 Job cpu time:       2 days  9 hours 31 minutes 34.6 seconds.
 Elapsed time:       0 days  3 hours 39 minutes 50.9 seconds.
 File lengths (MBytes):  RWF=  11754 Int=      0 D2E=      0 Chk=     62 Scr=      1
 Normal termination of Gaussian 16 at Sat Dec  7 22:27:29 2024.
