/mnt/lustre/scratch/nvme/SLURM/9663634/usccqdma.ZN2jXeUMc8
OMP_STACKSIZE=0m
GAUSS_PDEF=16
GAUSS_MDEF=65536MB
GAUSS_RDEF=SCF=Direct
 Entering Gaussian System, Link 0=g16.exe
 Initial command:
 /opt/cesga/2020/software/Core/g16/c1/l1.exe "/mnt/lustre/scratch/nvme/SLURM/9663634/usccqdma.ZN2jXeUMc8/Gau-664807.inp" -scrdir="/mnt/lustre/scratch/nvme/SLURM/9663634/usccqdma.ZN2jXeUMc8/"
 Default is to use a total of  16 processors:
                               16 via shared-memory
                                1 via Linda
 Entering Link 1 = /opt/cesga/2020/software/Core/g16/c1/l1.exe PID=    664835.
  
 Copyright (c) 1988-2019, Gaussian, Inc.  All Rights Reserved.
  
 This is part of the Gaussian(R) 16 program.  It is based on
 the Gaussian(R) 09 system (copyright 2009, Gaussian, Inc.),
 the Gaussian(R) 03 system (copyright 2003, Gaussian, Inc.),
 the Gaussian(R) 98 system (copyright 1998, Gaussian, Inc.),
 the Gaussian(R) 94 system (copyright 1995, Gaussian, Inc.),
 the Gaussian 92(TM) system (copyright 1992, Gaussian, Inc.),
 the Gaussian 90(TM) system (copyright 1990, Gaussian, Inc.),
 the Gaussian 88(TM) system (copyright 1988, Gaussian, Inc.),
 the Gaussian 86(TM) system (copyright 1986, Carnegie Mellon
 University), and the Gaussian 82(TM) system (copyright 1983,
 Carnegie Mellon University). Gaussian is a federally registered
 trademark of Gaussian, Inc.
  
 This software contains proprietary and confidential information,
 including trade secrets, belonging to Gaussian, Inc.
  
 This software is provided under written license and may be
 used, copied, transmitted, or stored only in accord with that
 written license.
  
 The following legend is applicable only to US Government
 contracts under FAR:
  
                    RESTRICTED RIGHTS LEGEND
  
 Use, reproduction and disclosure by the US Government is
 subject to restrictions as set forth in subparagraphs (a)
 and (c) of the Commercial Computer Software - Restricted
 Rights clause in FAR 52.227-19.
  
 Gaussian, Inc.
 340 Quinnipiac St., Bldg. 40, Wallingford CT 06492
  
  
 ---------------------------------------------------------------
 Warning -- This program may not be used in any manner that
 competes with the business of Gaussian, Inc. or will provide
 assistance to any competitor of Gaussian, Inc.  The licensee
 of this program is prohibited from giving any competitor of
 Gaussian, Inc. access to this program.  By using this program,
 the user acknowledges that Gaussian, Inc. is engaged in the
 business of creating and licensing software in the field of
 computational chemistry and represents and warrants to the
 licensee that it is not a competitor of Gaussian, Inc. and that
 it will not use this program in any manner prohibited above.
 ---------------------------------------------------------------
  

 Cite this work as:
 Gaussian 16, Revision C.01,
 M. J. Frisch, G. W. Trucks, H. B. Schlegel, G. E. Scuseria, 
 M. A. Robb, J. R. Cheeseman, G. Scalmani, V. Barone, 
 G. A. Petersson, H. Nakatsuji, X. Li, M. Caricato, A. V. Marenich, 
 J. Bloino, B. G. Janesko, R. Gomperts, B. Mennucci, H. P. Hratchian, 
 J. V. Ortiz, A. F. Izmaylov, J. L. Sonnenberg, D. Williams-Young, 
 F. Ding, F. Lipparini, F. Egidi, J. Goings, B. Peng, A. Petrone, 
 T. Henderson, D. Ranasinghe, V. G. Zakrzewski, J. Gao, N. Rega, 
 G. Zheng, W. Liang, M. Hada, M. Ehara, K. Toyota, R. Fukuda, 
 J. Hasegawa, M. Ishida, T. Nakajima, Y. Honda, O. Kitao, H. Nakai, 
 T. Vreven, K. Throssell, J. A. Montgomery, Jr., J. E. Peralta, 
 F. Ogliaro, M. J. Bearpark, J. J. Heyd, E. N. Brothers, K. N. Kudin, 
 V. N. Staroverov, T. A. Keith, R. Kobayashi, J. Normand, 
 K. Raghavachari, A. P. Rendell, J. C. Burant, S. S. Iyengar, 
 J. Tomasi, M. Cossi, J. M. Millam, M. Klene, C. Adamo, R. Cammi, 
 J. W. Ochterski, R. L. Martin, K. Morokuma, O. Farkas, 
 J. B. Foresman, and D. J. Fox, Gaussian, Inc., Wallingford CT, 2019.
 
 ******************************************
 Gaussian 16:  ES64L-G16RevC.01  3-Jul-2019
                 7-Dec-2024 
 ******************************************
 Default route: SCF=Direct
 ----------------------------------------------------
 # m06/genecp scf=tight int=ultrafine 5d freq=noraman
 ----------------------------------------------------
 1/10=4,30=1,38=1/1,3;
 2/12=2,17=6,18=5,40=1/2;
 3/5=7,8=1,11=2,16=1,17=8,25=1,30=1,71=2,74=-54,75=-5,140=1/1,2,3;
 4//1;
 5/5=2,32=2,38=5,98=1/2;
 8/6=4,10=90,11=11/1;
 11/6=1,8=1,9=11,15=111,16=1/1,2,10;
 10/6=1/2;
 6/7=2,8=2,9=2,10=2,28=1/1;
 7/8=1,10=1,25=1/1,2,3,16;
 1/10=4,30=1/3;
 99//99;
 ------
 OPT-TS
 ------
 Symbolic Z-matrix:
 Charge =  0 Multiplicity = 1
 C                    -0.91017  -1.687    -2.08535 
 C                    -2.55157  -1.13595  -0.57347 
 C                    -3.54287  -1.25194  -1.534 
 C                    -3.18761  -1.61699  -2.83053 
 C                    -1.85335  -1.84199  -3.10671 
 C                     0.53046  -1.82281  -2.32611 
 C                     2.67579  -1.36364  -1.59027 
 C                     3.23894  -2.09023  -2.62903 
 C                     2.40334  -2.70109  -3.55109 
 C                     1.03184  -2.56105  -3.39428 
 H                    -2.7775   -0.80854   0.43782 
 H                    -3.94516  -1.7017   -3.60808 
 H                    -1.53602  -2.08402  -4.11757 
 H                     3.30271  -0.86217  -0.8628 
 H                     2.80849  -3.29277  -4.36894 
 H                     0.34626  -3.05973  -4.07475 
 N                    -1.26094  -1.35393  -0.83385 
 N                     1.34942  -1.22313  -1.42943 
 Ir                    0.59828  -0.23116   0.31467 
 O                    -0.64414   2.61475  -0.09456 
 O                     2.72372   1.51785  -0.93417 
 O                    -1.89587   0.27001   1.96137 
 B                     1.95605   1.27964   0.20403 
 B                    -0.303     1.39794  -0.66899 
 B                    -0.54534  -0.00049   2.09238 
 O                    -0.21661  -0.27257   3.40221 
 O                    -0.84867   1.29381  -1.94245 
 C                    -1.42235   2.56636  -2.28642 
 C                    -1.69691   3.18618  -0.8879 
 C                    -2.52718  -0.1314    3.19757 
 C                    -1.36458   0.04463   4.21135 
 C                     3.77746   2.42297  -0.56314 
 C                     3.16062   3.16111   0.66013 
 O                     2.30776   2.15219   1.22161 
 C                    -1.6054    4.69719  -0.82616 
 H                    -1.78215   5.03513   0.20303 
 H                    -0.6182    5.06051  -1.13269 
 H                    -2.36499   5.16155  -1.47168 
 C                    -3.01277   2.72101  -0.27304 
 H                    -3.09963   1.62523  -0.29314 
 H                    -3.03195   3.02681   0.78102 
 H                    -3.88483   3.15471  -0.78104 
 C                    -0.37202   3.32667  -3.08451 
 H                    -0.08496   2.7226   -3.95422 
 H                    -0.74669   4.29481  -3.44327 
 H                     0.53391   3.49558  -2.48615 
 C                    -2.65469   2.33807  -3.13814 
 H                    -2.36341   1.88547  -4.0955 
 H                    -3.37001   1.66702  -2.64964 
 H                    -3.16221   3.28917  -3.35524 
 C                     4.99443   1.58024  -0.20391 
 H                     5.87169   2.20046   0.02288 
 H                     4.79436   0.93345   0.66114 
 H                     5.24526   0.93781  -1.05895 
 C                     4.10076   3.31126  -1.74734 
 H                     4.83981   4.07657  -1.46984 
 H                     4.52618   2.70819  -2.55967 
 H                     3.20638   3.81243  -2.13349 
 C                     4.16131   3.6003    1.70943 
 H                     4.70294   2.74828   2.1347 
 H                     4.89007   4.30509   1.28368 
 H                     3.63758   4.10849   2.52882 
 C                     2.27448   4.33337   0.26149 
 H                     1.69768   4.65286   1.13866 
 H                     2.86306   5.18619  -0.10302 
 H                     1.55148   4.03566  -0.50841 
 C                    -1.19903   1.48402   4.67754 
 H                    -1.9983    1.77929   5.37039 
 H                    -0.23812   1.57762   5.19762 
 H                    -1.19203   2.18056   3.82848 
 C                    -1.39975  -0.89184   5.40055 
 H                    -1.34028  -1.94088   5.09134 
 H                    -0.54543  -0.68617   6.05724 
 H                    -2.31974  -0.74571   5.98434 
 C                    -2.95615  -1.58578   3.04467 
 H                    -2.09702  -2.23109   2.80961 
 H                    -3.4371   -1.96254   3.95644 
 H                    -3.6861   -1.67274   2.22964 
 C                    -3.73825   0.7491    3.41891 
 H                    -4.22521   0.51265   4.37556 
 H                    -3.47513   1.81232   3.41039 
 H                    -4.46575   0.57559   2.61388 
 H                     0.59179   0.75498   1.61952 
 C                     2.88131  -3.62839   0.29384 
 O                     4.041    -3.95327   0.03512 
 C                     1.73623  -4.47347  -0.23321 
 H                     0.83212  -3.88682  -0.44431 
 H                     2.0908   -4.89783  -1.18149 
 C                     1.23785  -2.07873   1.4408 
 H                     0.50616  -2.88578   1.30531 
 H                     1.26705  -1.86588   2.5164 
 N                     2.57078  -2.56156   1.08287 
 C                     3.65894  -1.81639   1.67805 
 H                     4.58476  -2.01916   1.13144 
 H                     3.41234  -0.74398   1.65251 
 H                     3.80052  -2.10227   2.73149 
 C                     1.43032  -5.59791   0.75104 
 H                     2.34166  -6.17495   0.95242 
 H                     1.06642  -5.20098   1.70844 
 C                    -4.95919  -0.89342  -1.22136 
 F                    -5.28418   0.29043  -1.76374 
 F                    -5.8141   -1.79272  -1.72004 
 F                    -5.18086  -0.80082   0.09346 
 H                     4.3191   -2.19282  -2.67715 
 H                     0.66998  -6.28336   0.35685 
 

 GradGradGradGradGradGradGradGradGradGradGradGradGradGradGradGradGradGrad
 Berny optimization.
 Initialization pass.
 Trust Radius=3.00D-01 FncErr=1.00D-07 GrdErr=1.00D-07 EigMax=2.50D+02 EigMin=1.00D-04
 Number of steps in this run=      2 maximum allowed number of steps=      2.
 GradGradGradGradGradGradGradGradGradGradGradGradGradGradGradGradGradGrad

 Stoichiometry    C34H54B3F3IrN3O7
 Framework group  C1[X(C34H54B3F3IrN3O7)]
 Deg. of freedom   309
 Full point group                 C1      NOp   1
 Largest Abelian subgroup         C1      NOp   1
 Largest concise Abelian subgroup C1      NOp   1
                         Standard orientation:                         
 ---------------------------------------------------------------------
 Center     Atomic      Atomic             Coordinates (Angstroms)
 Number     Number       Type             X           Y           Z
 ---------------------------------------------------------------------
      1          6           0       -0.910170   -1.687000   -2.085351
      2          6           0       -2.551570   -1.135950   -0.573471
      3          6           0       -3.542870   -1.251941   -1.534001
      4          6           0       -3.187610   -1.616991   -2.830531
      5          6           0       -1.853350   -1.841990   -3.106711
      6          6           0        0.530460   -1.822810   -2.326111
      7          6           0        2.675790   -1.363639   -1.590271
      8          6           0        3.238940   -2.090229   -2.629031
      9          6           0        2.403340   -2.701089   -3.551091
     10          6           0        1.031840   -2.561050   -3.394281
     11          1           0       -2.777500   -0.808540    0.437819
     12          1           0       -3.945160   -1.701701   -3.608081
     13          1           0       -1.536020   -2.084020   -4.117571
     14          1           0        3.302710   -0.862169   -0.862801
     15          1           0        2.808490   -3.292769   -4.368941
     16          1           0        0.346260   -3.059730   -4.074751
     17          7           0       -1.260940   -1.353930   -0.833851
     18          7           0        1.349420   -1.223129   -1.429431
     19         77           0        0.598279   -0.231160    0.314669
     20          8           0       -0.644141    2.614750   -0.094561
     21          8           0        2.723719    1.517851   -0.934171
     22          8           0       -1.895871    0.270010    1.961369
     23          5           0        1.956049    1.279641    0.204029
     24          5           0       -0.303001    1.397940   -0.668991
     25          5           0       -0.545341   -0.000490    2.092379
     26          8           0       -0.216611   -0.272570    3.402209
     27          8           0       -0.848671    1.293810   -1.942451
     28          6           0       -1.422351    2.566360   -2.286421
     29          6           0       -1.696911    3.186180   -0.887901
     30          6           0       -2.527181   -0.131400    3.197569
     31          6           0       -1.364581    0.044630    4.211349
     32          6           0        3.777459    2.422971   -0.563141
     33          6           0        3.160619    3.161111    0.660129
     34          8           0        2.307759    2.152191    1.221609
     35          6           0       -1.605402    4.697190   -0.826161
     36          1           0       -1.782152    5.035130    0.203029
     37          1           0       -0.618202    5.060510   -1.132691
     38          1           0       -2.364992    5.161550   -1.471681
     39          6           0       -3.012771    2.721009   -0.273041
     40          1           0       -3.099631    1.625229   -0.293141
     41          1           0       -3.031951    3.026809    0.781019
     42          1           0       -3.884831    3.154709   -0.781041
     43          6           0       -0.372021    3.326670   -3.084511
     44          1           0       -0.084961    2.722600   -3.954221
     45          1           0       -0.746692    4.294810   -3.443271
     46          1           0        0.533909    3.495580   -2.486151
     47          6           0       -2.654691    2.338070   -3.138141
     48          1           0       -2.363411    1.885470   -4.095501
     49          1           0       -3.370011    1.667019   -2.649641
     50          1           0       -3.162211    3.289169   -3.355241
     51          6           0        4.994429    1.580241   -0.203911
     52          1           0        5.871689    2.200462    0.022879
     53          1           0        4.794359    0.933451    0.661139
     54          1           0        5.245259    0.937811   -1.058951
     55          6           0        4.100759    3.311261   -1.747341
     56          1           0        4.839808    4.076571   -1.469841
     57          1           0        4.526179    2.708191   -2.559671
     58          1           0        3.206379    3.812431   -2.133491
     59          6           0        4.161309    3.600301    1.709429
     60          1           0        4.702939    2.748281    2.134699
     61          1           0        4.890068    4.305091    1.283679
     62          1           0        3.637578    4.108491    2.528819
     63          6           0        2.274478    4.333371    0.261489
     64          1           0        1.697678    4.652861    1.138659
     65          1           0        2.863058    5.186191   -0.103021
     66          1           0        1.551478    4.035661   -0.508411
     67          6           0       -1.199031    1.484020    4.677539
     68          1           0       -1.998301    1.779290    5.370389
     69          1           0       -0.238121    1.577620    5.197619
     70          1           0       -1.192031    2.180560    3.828479
     71          6           0       -1.399750   -0.891840    5.400549
     72          1           0       -1.340280   -1.940880    5.091339
     73          1           0       -0.545430   -0.686170    6.057239
     74          1           0       -2.319740   -0.745710    5.984339
     75          6           0       -2.956150   -1.585780    3.044669
     76          1           0       -2.097020   -2.231090    2.809609
     77          1           0       -3.437100   -1.962541    3.956439
     78          1           0       -3.686100   -1.672741    2.229639
     79          6           0       -3.738251    0.749099    3.418909
     80          1           0       -4.225211    0.512649    4.375559
     81          1           0       -3.475131    1.812319    3.410389
     82          1           0       -4.465751    0.575589    2.613879
     83          1           0        0.591789    0.754980    1.619519
     84          6           0        2.881310   -3.628389    0.293839
     85          8           0        4.041000   -3.953269    0.035119
     86          6           0        1.736230   -4.473469   -0.233211
     87          1           0        0.832120   -3.886820   -0.444311
     88          1           0        2.090801   -4.897829   -1.181491
     89          6           0        1.237850   -2.078730    1.440799
     90          1           0        0.506160   -2.885780    1.305309
     91          1           0        1.267050   -1.865880    2.516399
     92          7           0        2.570780   -2.561559    1.082869
     93          6           0        3.658940   -1.816389    1.678049
     94          1           0        4.584760   -2.019159    1.131439
     95          1           0        3.412340   -0.743979    1.652509
     96          1           0        3.800520   -2.102269    2.731489
     97          6           0        1.430321   -5.597909    0.751039
     98          1           0        2.341661   -6.174949    0.952419
     99          1           0        1.066421   -5.200980    1.708439
    100          6           0       -4.959190   -0.893421   -1.221361
    101          9           0       -5.284181    0.290429   -1.763741
    102          9           0       -5.814100   -1.792721   -1.720041
    103          9           0       -5.180860   -0.800821    0.093459
    104          1           0        4.319100   -2.192819   -2.677151
    105          1           0        0.669981   -6.283360    0.356849
 ---------------------------------------------------------------------
 Rotational constants (GHZ):           0.0662388           0.0529270           0.0493558
 General basis read from cards:  (5D, 7F)
 ======================================================================================================
                                       Pseudopotential Parameters
 ======================================================================================================
  Center     Atomic      Valence      Angular      Power
  Number     Number     Electrons     Momentum     of R      Exponent        Coefficient   SO-Coeffient
 ======================================================================================================
    1          6
                                   No pseudopotential on this center.
    2          6
                                   No pseudopotential on this center.
    3          6
                                   No pseudopotential on this center.
    4          6
                                   No pseudopotential on this center.
    5          6
                                   No pseudopotential on this center.
    6          6
                                   No pseudopotential on this center.
    7          6
                                   No pseudopotential on this center.
    8          6
                                   No pseudopotential on this center.
    9          6
                                   No pseudopotential on this center.
   10          6
                                   No pseudopotential on this center.
   11          1
                                   No pseudopotential on this center.
   12          1
                                   No pseudopotential on this center.
   13          1
                                   No pseudopotential on this center.
   14          1
                                   No pseudopotential on this center.
   15          1
                                   No pseudopotential on this center.
   16          1
                                   No pseudopotential on this center.
   17          7
                                   No pseudopotential on this center.
   18          7
                                   No pseudopotential on this center.
   19         77           17
                                      G and up 
                                                     1      823.5880147       -0.15780140    0.00000000
                                                     2      364.6613336    -1517.52704460    0.00000000
                                                     2       55.7082801     -316.53065290    0.00000000
                                                     2       12.0464544      -91.88809410    0.00000000
                                                     2        3.5120610       -9.22417730    0.00000000
                                      S - G
                                                     0      188.0490770        3.15780140    0.00000000
                                                     1      340.4194712       26.83225770    0.00000000
                                                     2      128.2373673      800.42500070    0.00000000
                                                     2       33.8644961      369.40506830    0.00000000
                                                     2        4.7560005      242.41718990    0.00000000
                                                     2        3.9649974     -118.21732820    0.00000000
                                      P - G
                                                     0      289.7291139        2.15780140    0.00000000
                                                     1       87.4633789       61.96786100    0.00000000
                                                     2       30.4363766      269.05819860    0.00000000
                                                     2        4.0553412      231.16547930    0.00000000
                                                     2        3.5525341     -133.69526670    0.00000000
                                      D - G
                                                     0      136.4017106        3.15780140    0.00000000
                                                     1       95.0776925       45.93498030    0.00000000
                                                     2       49.2258410      359.03446680    0.00000000
                                                     2       15.0874145      176.47401190    0.00000000
                                                     2        4.0405764       54.51552860    0.00000000
                                      F - G
                                                     0      127.3507908        3.95461970    0.00000000
                                                     1       66.2364374       52.97736550    0.00000000
                                                     2       34.4299229      274.86433830    0.00000000
                                                     2       10.1995721      137.20473380    0.00000000
                                                     2        2.5409702       14.86333050    0.00000000
   20          8
                                   No pseudopotential on this center.
   21          8
                                   No pseudopotential on this center.
   22          8
                                   No pseudopotential on this center.
   23          5
                                   No pseudopotential on this center.
   24          5
                                   No pseudopotential on this center.
   25          5
                                   No pseudopotential on this center.
   26          8
                                   No pseudopotential on this center.
   27          8
                                   No pseudopotential on this center.
   28          6
                                   No pseudopotential on this center.
   29          6
                                   No pseudopotential on this center.
   30          6
                                   No pseudopotential on this center.
   31          6
                                   No pseudopotential on this center.
   32          6
                                   No pseudopotential on this center.
   33          6
                                   No pseudopotential on this center.
   34          8
                                   No pseudopotential on this center.
   35          6
                                   No pseudopotential on this center.
   36          1
                                   No pseudopotential on this center.
   37          1
                                   No pseudopotential on this center.
   38          1
                                   No pseudopotential on this center.
   39          6
                                   No pseudopotential on this center.
   40          1
                                   No pseudopotential on this center.
   41          1
                                   No pseudopotential on this center.
   42          1
                                   No pseudopotential on this center.
   43          6
                                   No pseudopotential on this center.
   44          1
                                   No pseudopotential on this center.
   45          1
                                   No pseudopotential on this center.
   46          1
                                   No pseudopotential on this center.
   47          6
                                   No pseudopotential on this center.
   48          1
                                   No pseudopotential on this center.
   49          1
                                   No pseudopotential on this center.
   50          1
                                   No pseudopotential on this center.
   51          6
                                   No pseudopotential on this center.
   52          1
                                   No pseudopotential on this center.
   53          1
                                   No pseudopotential on this center.
   54          1
                                   No pseudopotential on this center.
   55          6
                                   No pseudopotential on this center.
   56          1
                                   No pseudopotential on this center.
   57          1
                                   No pseudopotential on this center.
   58          1
                                   No pseudopotential on this center.
   59          6
                                   No pseudopotential on this center.
   60          1
                                   No pseudopotential on this center.
   61          1
                                   No pseudopotential on this center.
   62          1
                                   No pseudopotential on this center.
   63          6
                                   No pseudopotential on this center.
   64          1
                                   No pseudopotential on this center.
   65          1
                                   No pseudopotential on this center.
   66          1
                                   No pseudopotential on this center.
   67          6
                                   No pseudopotential on this center.
   68          1
                                   No pseudopotential on this center.
   69          1
                                   No pseudopotential on this center.
   70          1
                                   No pseudopotential on this center.
   71          6
                                   No pseudopotential on this center.
   72          1
                                   No pseudopotential on this center.
   73          1
                                   No pseudopotential on this center.
   74          1
                                   No pseudopotential on this center.
   75          6
                                   No pseudopotential on this center.
   76          1
                                   No pseudopotential on this center.
   77          1
                                   No pseudopotential on this center.
   78          1
                                   No pseudopotential on this center.
   79          6
                                   No pseudopotential on this center.
   80          1
                                   No pseudopotential on this center.
   81          1
                                   No pseudopotential on this center.
   82          1
                                   No pseudopotential on this center.
   83          1
                                   No pseudopotential on this center.
   84          6
                                   No pseudopotential on this center.
   85          8
                                   No pseudopotential on this center.
   86          6
                                   No pseudopotential on this center.
   87          1
                                   No pseudopotential on this center.
   88          1
                                   No pseudopotential on this center.
   89          6
                                   No pseudopotential on this center.
   90          1
                                   No pseudopotential on this center.
   91          1
                                   No pseudopotential on this center.
   92          7
                                   No pseudopotential on this center.
   93          6
                                   No pseudopotential on this center.
   94          1
                                   No pseudopotential on this center.
   95          1
                                   No pseudopotential on this center.
   96          1
                                   No pseudopotential on this center.
   97          6
                                   No pseudopotential on this center.
   98          1
                                   No pseudopotential on this center.
   99          1
                                   No pseudopotential on this center.
  100          6
                                   No pseudopotential on this center.
  101          9
                                   No pseudopotential on this center.
  102          9
                                   No pseudopotential on this center.
  103          9
                                   No pseudopotential on this center.
  104          1
                                   No pseudopotential on this center.
  105          1
                                   No pseudopotential on this center.
 ======================================================================================================
 There are   882 symmetry adapted cartesian basis functions of A   symmetry.
 There are   830 symmetry adapted basis functions of A   symmetry.
   830 basis functions,  1659 primitive gaussians,   882 cartesian basis functions
   197 alpha electrons      197 beta electrons
       nuclear repulsion energy      8569.7500094999 Hartrees.
 NAtoms=  105 NActive=  105 NUniq=  105 SFac= 1.00D+00 NAtFMM=   60 NAOKFM=T Big=T
 Integral buffers will be    131072 words long.
 Raffenetti 2 integral format.
 Two-electron integral symmetry is turned on.
 One-electron integrals computed using PRISM.
   1 Symmetry operations used in ECPInt.
 ECPInt:  NShTT=   50086 NPrTT=  307226 LenC2=   38921 LenP2D=  121058.
 LDataN:  DoStor=T MaxTD1= 6 Len=  172
 NBasis=   830 RedAO= T EigKep=  5.44D-04  NBF=   830
 NBsUse=   830 1.00D-06 EigRej= -1.00D+00 NBFU=   830
 Defaulting to unpruned grid for atomic number  77.
 ExpMin= 2.90D-02 ExpMax= 7.00D+03 ExpMxC= 1.05D+03 IAcc=3 IRadAn=         5 AccDes= 0.00D+00
 Harris functional with IExCor= 1009 and IRadAn=       5 diagonalized for initial guess.
 HarFok:  IExCor= 1009 AccDes= 0.00D+00 IRadAn=         5 IDoV= 1 UseB2=F ITyADJ=14
 ICtDFT=  3500011 ScaDFX=  1.000000  1.000000  1.000000  1.000000
 Defaulting to unpruned grid for atomic number  77.
 FoFCou: FMM=F IPFlag=           0 FMFlag=      100000 FMFlg1=        2001
         NFxFlg=           0 DoJE=T BraDBF=F KetDBF=T FulRan=T
         wScrn=  0.000000 ICntrl=       500 IOpCl=  0 I1Cent=   200000004 NGrid=           0
         NMat0=    1 NMatS0=      1 NMatT0=    0 NMatD0=    1 NMtDS0=    0 NMtDT0=    0
 Petite list used in FoFCou.
 Requested convergence on RMS density matrix=1.00D-08 within 128 cycles.
 Requested convergence on MAX density matrix=1.00D-06.
 Requested convergence on             energy=1.00D-06.
 No special actions if energy rises.
 Defaulting to unpruned grid for atomic number  77.
 Defaulting to unpruned grid for atomic number  77.
 Defaulting to unpruned grid for atomic number  77.
 Defaulting to unpruned grid for atomic number  77.
 Defaulting to unpruned grid for atomic number  77.
 Defaulting to unpruned grid for atomic number  77.
 Defaulting to unpruned grid for atomic number  77.
 Defaulting to unpruned grid for atomic number  77.
 Defaulting to unpruned grid for atomic number  77.
 Defaulting to unpruned grid for atomic number  77.
 Defaulting to unpruned grid for atomic number  77.
 Defaulting to unpruned grid for atomic number  77.
 Defaulting to unpruned grid for atomic number  77.
 Defaulting to unpruned grid for atomic number  77.
 Defaulting to unpruned grid for atomic number  77.
 Defaulting to unpruned grid for atomic number  77.
 EnCoef did     3 forward-backward iterations
 SCF Done:  E(RM06) =  -2496.58854989     A.U. after   17 cycles
            NFock= 17  Conv=0.68D-08     -V/T= 2.0358
 DoSCS=F DFT=T ScalE2(SS,OS)=  1.000000  1.000000
 Range of M.O.s used for correlation:     1   830
 NBasis=   830 NAE=   197 NBE=   197 NFC=     0 NFV=     0
 NROrb=    830 NOA=   197 NOB=   197 NVA=   633 NVB=   633

 **** Warning!!: The smallest alpha delta epsilon is  0.95556699D-01

   1 Symmetry operations used in ECPInt.
 ECPInt:  NShTT=   50086 NPrTT=  307226 LenC2=   38921 LenP2D=  121058.
 LDataN:  DoStor=T MaxTD1= 7 Len=  274
 Number of processors reduced to   8 by ecpmxn.
 Symmetrizing basis deriv contribution to polar:
 IMax=3 JMax=2 DiffMx= 0.00D+00
 G2DrvN: will do   106 centers at a time, making    1 passes.
 Calling FoFCou, ICntrl=  3107 FMM=T I1Cent=   0 AccDes= 0.00D+00.
 Defaulting to unpruned grid for atomic number  77.
 Defaulting to unpruned grid for atomic number  77.
 Defaulting to unpruned grid for atomic number  77.
 Defaulting to unpruned grid for atomic number  77.
 Defaulting to unpruned grid for atomic number  77.
 Defaulting to unpruned grid for atomic number  77.
 Defaulting to unpruned grid for atomic number  77.
 Defaulting to unpruned grid for atomic number  77.
 Defaulting to unpruned grid for atomic number  77.
 Defaulting to unpruned grid for atomic number  77.
 Defaulting to unpruned grid for atomic number  77.
 Defaulting to unpruned grid for atomic number  77.
 Defaulting to unpruned grid for atomic number  77.
 Defaulting to unpruned grid for atomic number  77.
 Defaulting to unpruned grid for atomic number  77.
 Defaulting to unpruned grid for atomic number  77.
 End of G2Drv F.D. properties file   721 does not exist.
 End of G2Drv F.D. properties file   722 does not exist.
 End of G2Drv F.D. properties file   788 does not exist.
          IDoAtm=11111111111111111111111111111111111111111111111111
          IDoAtm=11111111111111111111111111111111111111111111111111
          IDoAtm=11111
          Differentiating once with respect to electric field.
                with respect to dipole field.
          Differentiating once with respect to nuclear coordinates.
 Defaulting to unpruned grid for atomic number  77.
 CalDSu exits because no D1Ps are significant.
 Defaulting to unpruned grid for atomic number  77.
 Defaulting to unpruned grid for atomic number  77.
 Defaulting to unpruned grid for atomic number  77.
 Defaulting to unpruned grid for atomic number  77.
 Defaulting to unpruned grid for atomic number  77.
 Defaulting to unpruned grid for atomic number  77.
 Defaulting to unpruned grid for atomic number  77.
 Defaulting to unpruned grid for atomic number  77.
 Defaulting to unpruned grid for atomic number  77.
 Defaulting to unpruned grid for atomic number  77.
 Defaulting to unpruned grid for atomic number  77.
 Defaulting to unpruned grid for atomic number  77.
 Defaulting to unpruned grid for atomic number  77.
 Defaulting to unpruned grid for atomic number  77.
 Defaulting to unpruned grid for atomic number  77.
 Defaulting to unpruned grid for atomic number  77.
          There are   318 degrees of freedom in the 1st order CPHF.  IDoFFX=6 NUNeed=     3.
    315 vectors produced by pass  0 Test12= 1.25D-13 1.00D-09 XBig12= 5.18D+02 8.14D+00.
 AX will form    72 AO Fock derivatives at one time.
    315 vectors produced by pass  1 Test12= 1.25D-13 1.00D-09 XBig12= 7.70D+01 8.73D-01.
    315 vectors produced by pass  2 Test12= 1.25D-13 1.00D-09 XBig12= 8.80D-01 7.21D-02.
    315 vectors produced by pass  3 Test12= 1.25D-13 1.00D-09 XBig12= 6.67D-03 5.28D-03.
    315 vectors produced by pass  4 Test12= 1.25D-13 1.00D-09 XBig12= 2.58D-05 3.23D-04.
    278 vectors produced by pass  5 Test12= 1.25D-13 1.00D-09 XBig12= 5.45D-08 1.01D-05.
     81 vectors produced by pass  6 Test12= 1.25D-13 1.00D-09 XBig12= 8.53D-11 4.34D-07.
      3 vectors produced by pass  7 Test12= 1.25D-13 1.00D-09 XBig12= 1.19D-13 2.12D-08.
 InvSVY:  IOpt=1 It=  1 EMax= 2.13D-14
 Solved reduced A of dimension  1937 with   318 vectors.
 Isotropic polarizability for W=    0.000000      477.52 Bohr**3.
 End of Minotr F.D. properties file   721 does not exist.
 End of Minotr F.D. properties file   722 does not exist.
 End of Minotr F.D. properties file   788 does not exist.
 Hyperfine terms turned off by default for NAtoms > 100.

 **********************************************************************

            Population analysis using the SCF Density.

 **********************************************************************

 Orbital symmetries:
       Occupied  (A) (A) (A) (A) (A) (A) (A) (A) (A) (A) (A) (A)
                 (A) (A) (A) (A) (A) (A) (A) (A) (A) (A) (A) (A)
                 (A) (A) (A) (A) (A) (A) (A) (A) (A) (A) (A) (A)
                 (A) (A) (A) (A) (A) (A) (A) (A) (A) (A) (A) (A)
                 (A) (A) (A) (A) (A) (A) (A) (A) (A) (A) (A) (A)
                 (A) (A) (A) (A) (A) (A) (A) (A) (A) (A) (A) (A)
                 (A) (A) (A) (A) (A) (A) (A) (A) (A) (A) (A) (A)
                 (A) (A) (A) (A) (A) (A) (A) (A) (A) (A) (A) (A)
                 (A) (A) (A) (A) (A) (A) (A) (A) (A) (A) (A) (A)
                 (A) (A) (A) (A) (A) (A) (A) (A) (A) (A) (A) (A)
                 (A) (A) (A) (A) (A) (A) (A) (A) (A) (A) (A) (A)
                 (A) (A) (A) (A) (A) (A) (A) (A) (A) (A) (A) (A)
                 (A) (A) (A) (A) (A) (A) (A) (A) (A) (A) (A) (A)
                 (A) (A) (A) (A) (A) (A) (A) (A) (A) (A) (A) (A)
                 (A) (A) (A) (A) (A) (A) (A) (A) (A) (A) (A) (A)
                 (A) (A) (A) (A) (A) (A) (A) (A) (A) (A) (A) (A)
                 (A) (A) (A) (A) (A)
       Virtual   (A) (A) (A) (A) (A) (A) (A) (A) (A) (A) (A) (A)
                 (A) (A) (A) (A) (A) (A) (A) (A) (A) (A) (A) (A)
                 (A) (A) (A) (A) (A) (A) (A) (A) (A) (A) (A) (A)
                 (A) (A) (A) (A) (A) (A) (A) (A) (A) (A) (A) (A)
                 (A) (A) (A) (A) (A) (A) (A) (A) (A) (A) (A) (A)
                 (A) (A) (A) (A) (A) (A) (A) (A) (A) (A) (A) (A)
                 (A) (A) (A) (A) (A) (A) (A) (A) (A) (A) (A) (A)
                 (A) (A) (A) (A) (A) (A) (A) (A) (A) (A) (A) (A)
                 (A) (A) (A) (A) (A) (A) (A) (A) (A) (A) (A) (A)
                 (A) (A) (A) (A) (A) (A) (A) (A) (A) (A) (A) (A)
                 (A) (A) (A) (A) (A) (A) (A) (A) (A) (A) (A) (A)
                 (A) (A) (A) (A) (A) (A) (A) (A) (A) (A) (A) (A)
                 (A) (A) (A) (A) (A) (A) (A) (A) (A) (A) (A) (A)
                 (A) (A) (A) (A) (A) (A) (A) (A) (A) (A) (A) (A)
                 (A) (A) (A) (A) (A) (A) (A) (A) (A) (A) (A) (A)
                 (A) (A) (A) (A) (A) (A) (A) (A) (A) (A) (A) (A)
                 (A) (A) (A) (A) (A) (A) (A) (A) (A) (A) (A) (A)
                 (A) (A) (A) (A) (A) (A) (A) (A) (A) (A) (A) (A)
                 (A) (A) (A) (A) (A) (A) (A) (A) (A) (A) (A) (A)
                 (A) (A) (A) (A) (A) (A) (A) (A) (A) (A) (A) (A)
                 (A) (A) (A) (A) (A) (A) (A) (A) (A) (A) (A) (A)
                 (A) (A) (A) (A) (A) (A) (A) (A) (A) (A) (A) (A)
                 (A) (A) (A) (A) (A) (A) (A) (A) (A) (A) (A) (A)
                 (A) (A) (A) (A) (A) (A) (A) (A) (A) (A) (A) (A)
                 (A) (A) (A) (A) (A) (A) (A) (A) (A) (A) (A) (A)
                 (A) (A) (A) (A) (A) (A) (A) (A) (A) (A) (A) (A)
                 (A) (A) (A) (A) (A) (A) (A) (A) (A) (A) (A) (A)
                 (A) (A) (A) (A) (A) (A) (A) (A) (A) (A) (A) (A)
                 (A) (A) (A) (A) (A) (A) (A) (A) (A) (A) (A) (A)
                 (A) (A) (A) (A) (A) (A) (A) (A) (A) (A) (A) (A)
                 (A) (A) (A) (A) (A) (A) (A) (A) (A) (A) (A) (A)
                 (A) (A) (A) (A) (A) (A) (A) (A) (A) (A) (A) (A)
                 (A) (A) (A) (A) (A) (A) (A) (A) (A) (A) (A) (A)
                 (A) (A) (A) (A) (A) (A) (A) (A) (A) (A) (A) (A)
                 (A) (A) (A) (A) (A) (A) (A) (A) (A) (A) (A) (A)
                 (A) (A) (A) (A) (A) (A) (A) (A) (A) (A) (A) (A)
                 (A) (A) (A) (A) (A) (A) (A) (A) (A) (A) (A) (A)
                 (A) (A) (A) (A) (A) (A) (A) (A) (A) (A) (A) (A)
                 (A) (A) (A) (A) (A) (A) (A) (A) (A) (A) (A) (A)
                 (A) (A) (A) (A) (A) (A) (A) (A) (A) (A) (A) (A)
                 (A) (A) (A) (A) (A) (A) (A) (A) (A) (A) (A) (A)
                 (A) (A) (A) (A) (A) (A) (A) (A) (A) (A) (A) (A)
                 (A) (A) (A) (A) (A) (A) (A) (A) (A) (A) (A) (A)
                 (A) (A) (A) (A) (A) (A) (A) (A) (A) (A) (A) (A)
                 (A) (A) (A) (A) (A) (A) (A) (A) (A) (A) (A) (A)
                 (A) (A) (A) (A) (A) (A) (A) (A) (A) (A) (A) (A)
                 (A) (A) (A) (A) (A) (A) (A) (A) (A) (A) (A) (A)
                 (A) (A) (A) (A) (A) (A) (A) (A) (A) (A) (A) (A)
                 (A) (A) (A) (A) (A) (A) (A) (A) (A) (A) (A) (A)
                 (A) (A) (A) (A) (A) (A) (A) (A) (A) (A) (A) (A)
                 (A) (A) (A) (A) (A) (A) (A) (A) (A) (A) (A) (A)
                 (A) (A) (A) (A) (A) (A) (A) (A) (A) (A) (A) (A)
                 (A) (A) (A) (A) (A) (A) (A) (A) (A)
 The electronic state is 1-A.
 Alpha  occ. eigenvalues --  -24.83844 -24.83366 -24.83151 -19.22852 -19.22261
 Alpha  occ. eigenvalues --  -19.21063 -19.20837 -19.20633 -19.20616 -19.15294
 Alpha  occ. eigenvalues --  -14.46251 -14.44652 -14.39850 -10.51877 -10.32708
 Alpha  occ. eigenvalues --  -10.32170 -10.31228 -10.31217 -10.30964 -10.30905
 Alpha  occ. eigenvalues --  -10.30401 -10.30112 -10.29935 -10.29766 -10.29671
 Alpha  occ. eigenvalues --  -10.29633 -10.29468 -10.28944 -10.28738 -10.28343
 Alpha  occ. eigenvalues --  -10.27494 -10.24106 -10.24088 -10.24079 -10.23803
 Alpha  occ. eigenvalues --  -10.23321 -10.23247 -10.23216 -10.23106 -10.23090
 Alpha  occ. eigenvalues --  -10.22890 -10.22886 -10.22853 -10.22617 -10.22516
 Alpha  occ. eigenvalues --  -10.22255 -10.22200  -6.83926  -6.81391  -6.80057
 Alpha  occ. eigenvalues --   -3.65250  -2.08436  -2.07389  -2.05379  -1.36267
 Alpha  occ. eigenvalues --   -1.27806  -1.27233  -1.08599  -1.06827  -1.06599
 Alpha  occ. eigenvalues --   -1.01608  -1.01271  -1.00637  -0.99903  -0.99638
 Alpha  occ. eigenvalues --   -0.98088  -0.90846  -0.86456  -0.84272  -0.83512
 Alpha  occ. eigenvalues --   -0.82090  -0.80893  -0.80761  -0.79235  -0.76909
 Alpha  occ. eigenvalues --   -0.76439  -0.75269  -0.75266  -0.74038  -0.71754
 Alpha  occ. eigenvalues --   -0.70829  -0.70671  -0.69062  -0.68985  -0.68841
 Alpha  occ. eigenvalues --   -0.68627  -0.68037  -0.67923  -0.65797  -0.65523
 Alpha  occ. eigenvalues --   -0.64513  -0.63441  -0.62270  -0.62239  -0.62067
 Alpha  occ. eigenvalues --   -0.61792  -0.61712  -0.60563  -0.57565  -0.56559
 Alpha  occ. eigenvalues --   -0.56192  -0.55233  -0.54983  -0.54311  -0.53964
 Alpha  occ. eigenvalues --   -0.53485  -0.52497  -0.51090  -0.50610  -0.50106
 Alpha  occ. eigenvalues --   -0.49756  -0.49619  -0.49059  -0.48399  -0.48156
 Alpha  occ. eigenvalues --   -0.48084  -0.47633  -0.47297  -0.46899  -0.46827
 Alpha  occ. eigenvalues --   -0.46723  -0.46629  -0.46056  -0.45782  -0.45624
 Alpha  occ. eigenvalues --   -0.45477  -0.45220  -0.44954  -0.44872  -0.44388
 Alpha  occ. eigenvalues --   -0.44230  -0.44081  -0.43953  -0.43795  -0.43590
 Alpha  occ. eigenvalues --   -0.43349  -0.42399  -0.41564  -0.41276  -0.41154
 Alpha  occ. eigenvalues --   -0.41105  -0.40715  -0.40508  -0.40416  -0.40335
 Alpha  occ. eigenvalues --   -0.40208  -0.40077  -0.39978  -0.39859  -0.39648
 Alpha  occ. eigenvalues --   -0.39403  -0.39268  -0.39032  -0.38739  -0.38115
 Alpha  occ. eigenvalues --   -0.37933  -0.37849  -0.37754  -0.37496  -0.36984
 Alpha  occ. eigenvalues --   -0.36913  -0.36831  -0.36718  -0.36338  -0.36177
 Alpha  occ. eigenvalues --   -0.35974  -0.35573  -0.35419  -0.35241  -0.35084
 Alpha  occ. eigenvalues --   -0.34582  -0.34405  -0.34122  -0.33895  -0.33520
 Alpha  occ. eigenvalues --   -0.33232  -0.33059  -0.32821  -0.32651  -0.32438
 Alpha  occ. eigenvalues --   -0.32289  -0.31953  -0.31624  -0.31474  -0.30661
 Alpha  occ. eigenvalues --   -0.30622  -0.29432  -0.28313  -0.27514  -0.27136
 Alpha  occ. eigenvalues --   -0.26769  -0.26660  -0.25101  -0.23601  -0.22623
 Alpha  occ. eigenvalues --   -0.21579  -0.17155
 Alpha virt. eigenvalues --   -0.07599  -0.04397  -0.03540   0.00330   0.00782
 Alpha virt. eigenvalues --    0.02362   0.04622   0.05404   0.05950   0.06536
 Alpha virt. eigenvalues --    0.07240   0.07879   0.08257   0.09210   0.10064
 Alpha virt. eigenvalues --    0.10078   0.10332   0.10715   0.11042   0.11316
 Alpha virt. eigenvalues --    0.11977   0.12531   0.12671   0.13186   0.13515
 Alpha virt. eigenvalues --    0.13663   0.13866   0.14136   0.14250   0.14524
 Alpha virt. eigenvalues --    0.14781   0.15006   0.15086   0.15459   0.15614
 Alpha virt. eigenvalues --    0.15689   0.15828   0.16068   0.16175   0.16340
 Alpha virt. eigenvalues --    0.16464   0.16708   0.17122   0.17151   0.17247
 Alpha virt. eigenvalues --    0.17429   0.17671   0.18165   0.18281   0.18377
 Alpha virt. eigenvalues --    0.18690   0.18924   0.18979   0.19111   0.19386
 Alpha virt. eigenvalues --    0.19555   0.19599   0.19777   0.19890   0.20104
 Alpha virt. eigenvalues --    0.20447   0.20501   0.20870   0.20975   0.21180
 Alpha virt. eigenvalues --    0.21636   0.22142   0.22298   0.22515   0.22743
 Alpha virt. eigenvalues --    0.23088   0.23357   0.23417   0.23696   0.23805
 Alpha virt. eigenvalues --    0.24067   0.24204   0.24340   0.24539   0.24822
 Alpha virt. eigenvalues --    0.24905   0.25126   0.25401   0.25817   0.26194
 Alpha virt. eigenvalues --    0.26598   0.26840   0.27036   0.27194   0.27531
 Alpha virt. eigenvalues --    0.28040   0.28244   0.28419   0.28841   0.29211
 Alpha virt. eigenvalues --    0.29825   0.30303   0.30501   0.30776   0.31212
 Alpha virt. eigenvalues --    0.31572   0.31999   0.32249   0.33244   0.34016
 Alpha virt. eigenvalues --    0.34182   0.35011   0.35807   0.36532   0.36813
 Alpha virt. eigenvalues --    0.37344   0.37627   0.38456   0.39086   0.40270
 Alpha virt. eigenvalues --    0.41993   0.43339   0.43822   0.44977   0.45590
 Alpha virt. eigenvalues --    0.46753   0.47418   0.47826   0.48161   0.48694
 Alpha virt. eigenvalues --    0.49077   0.49568   0.49970   0.50514   0.50725
 Alpha virt. eigenvalues --    0.50796   0.51337   0.51583   0.52060   0.52411
 Alpha virt. eigenvalues --    0.52592   0.53150   0.53342   0.53631   0.53943
 Alpha virt. eigenvalues --    0.54481   0.55099   0.55345   0.55984   0.56256
 Alpha virt. eigenvalues --    0.56731   0.56857   0.56955   0.57127   0.57359
 Alpha virt. eigenvalues --    0.57883   0.57997   0.58326   0.58702   0.59144
 Alpha virt. eigenvalues --    0.59339   0.59593   0.60053   0.60219   0.60580
 Alpha virt. eigenvalues --    0.60993   0.61300   0.61445   0.61789   0.62125
 Alpha virt. eigenvalues --    0.62242   0.62507   0.63206   0.63558   0.63815
 Alpha virt. eigenvalues --    0.64055   0.64280   0.64490   0.64686   0.65042
 Alpha virt. eigenvalues --    0.65590   0.65762   0.66033   0.66459   0.67025
 Alpha virt. eigenvalues --    0.67243   0.67535   0.67979   0.68239   0.68556
 Alpha virt. eigenvalues --    0.69112   0.69434   0.70043   0.70415   0.70616
 Alpha virt. eigenvalues --    0.71063   0.71434   0.71577   0.72018   0.72403
 Alpha virt. eigenvalues --    0.72861   0.72925   0.73202   0.73684   0.74177
 Alpha virt. eigenvalues --    0.74476   0.75047   0.75454   0.76087   0.76439
 Alpha virt. eigenvalues --    0.77110   0.77723   0.78097   0.78356   0.78738
 Alpha virt. eigenvalues --    0.79099   0.79692   0.79986   0.80419   0.80824
 Alpha virt. eigenvalues --    0.81194   0.81241   0.81476   0.82166   0.82703
 Alpha virt. eigenvalues --    0.82731   0.83031   0.83109   0.83529   0.83655
 Alpha virt. eigenvalues --    0.83900   0.84407   0.84541   0.84714   0.84834
 Alpha virt. eigenvalues --    0.85232   0.85556   0.85842   0.86098   0.86289
 Alpha virt. eigenvalues --    0.86745   0.86954   0.87115   0.87389   0.87594
 Alpha virt. eigenvalues --    0.87782   0.88056   0.88565   0.88747   0.88977
 Alpha virt. eigenvalues --    0.89226   0.89382   0.89765   0.90338   0.90448
 Alpha virt. eigenvalues --    0.90538   0.90765   0.90921   0.91215   0.91695
 Alpha virt. eigenvalues --    0.91959   0.92307   0.92449   0.92751   0.93225
 Alpha virt. eigenvalues --    0.93361   0.93816   0.94507   0.94603   0.94833
 Alpha virt. eigenvalues --    0.95346   0.95645   0.95974   0.96261   0.96508
 Alpha virt. eigenvalues --    0.97091   0.97241   0.97820   0.98167   0.98371
 Alpha virt. eigenvalues --    0.99023   0.99241   0.99420   0.99971   1.00364
 Alpha virt. eigenvalues --    1.00967   1.01282   1.01911   1.01971   1.02641
 Alpha virt. eigenvalues --    1.02900   1.03287   1.04173   1.04773   1.05328
 Alpha virt. eigenvalues --    1.05720   1.06039   1.06492   1.07294   1.07699
 Alpha virt. eigenvalues --    1.07955   1.08947   1.09574   1.10272   1.10774
 Alpha virt. eigenvalues --    1.11072   1.11311   1.12432   1.12567   1.13836
 Alpha virt. eigenvalues --    1.14042   1.14611   1.15630   1.16278   1.16660
 Alpha virt. eigenvalues --    1.16671   1.16942   1.17242   1.17406   1.18462
 Alpha virt. eigenvalues --    1.18760   1.19049   1.20423   1.21176   1.21358
 Alpha virt. eigenvalues --    1.21976   1.22883   1.23513   1.24444   1.24827
 Alpha virt. eigenvalues --    1.25124   1.25580   1.25909   1.25984   1.26617
 Alpha virt. eigenvalues --    1.27231   1.28257   1.28909   1.29773   1.30281
 Alpha virt. eigenvalues --    1.30913   1.31902   1.32383   1.33451   1.34125
 Alpha virt. eigenvalues --    1.34373   1.34521   1.34985   1.35780   1.36035
 Alpha virt. eigenvalues --    1.36440   1.37467   1.37979   1.38349   1.39038
 Alpha virt. eigenvalues --    1.39234   1.39410   1.40026   1.41050   1.41326
 Alpha virt. eigenvalues --    1.41976   1.42495   1.42620   1.42966   1.43663
 Alpha virt. eigenvalues --    1.43852   1.44531   1.45073   1.45463   1.45873
 Alpha virt. eigenvalues --    1.46614   1.46686   1.47062   1.47605   1.48455
 Alpha virt. eigenvalues --    1.48752   1.49663   1.50240   1.51652   1.52109
 Alpha virt. eigenvalues --    1.53320   1.53432   1.54243   1.55260   1.56554
 Alpha virt. eigenvalues --    1.57839   1.58114   1.58436   1.59278   1.59656
 Alpha virt. eigenvalues --    1.60837   1.61044   1.62136   1.62871   1.63398
 Alpha virt. eigenvalues --    1.65040   1.65536   1.66161   1.66521   1.66917
 Alpha virt. eigenvalues --    1.67332   1.67784   1.68313   1.68673   1.69324
 Alpha virt. eigenvalues --    1.69993   1.70499   1.70963   1.71681   1.72235
 Alpha virt. eigenvalues --    1.73498   1.74655   1.75069   1.75732   1.76329
 Alpha virt. eigenvalues --    1.76491   1.77316   1.77443   1.77923   1.78440
 Alpha virt. eigenvalues --    1.79426   1.79620   1.80630   1.80652   1.81124
 Alpha virt. eigenvalues --    1.81484   1.82181   1.82297   1.83296   1.83961
 Alpha virt. eigenvalues --    1.84353   1.84580   1.84876   1.85512   1.85778
 Alpha virt. eigenvalues --    1.86216   1.86890   1.87482   1.87774   1.88286
 Alpha virt. eigenvalues --    1.88530   1.89060   1.89276   1.89900   1.90207
 Alpha virt. eigenvalues --    1.90343   1.90817   1.91054   1.91327   1.91574
 Alpha virt. eigenvalues --    1.91598   1.91767   1.92252   1.92514   1.92717
 Alpha virt. eigenvalues --    1.93138   1.93218   1.93888   1.94524   1.95291
 Alpha virt. eigenvalues --    1.96408   1.96749   1.97150   1.97968   1.98389
 Alpha virt. eigenvalues --    1.98809   1.99352   1.99613   2.00167   2.00530
 Alpha virt. eigenvalues --    2.01165   2.01425   2.01612   2.01890   2.02677
 Alpha virt. eigenvalues --    2.02912   2.03266   2.04053   2.05027   2.05247
 Alpha virt. eigenvalues --    2.05481   2.05698   2.06189   2.06394   2.06686
 Alpha virt. eigenvalues --    2.07345   2.08343   2.08691   2.08921   2.09044
 Alpha virt. eigenvalues --    2.09346   2.09567   2.10204   2.10777   2.11148
 Alpha virt. eigenvalues --    2.11259   2.12162   2.12237   2.12340   2.12904
 Alpha virt. eigenvalues --    2.13204   2.13985   2.14138   2.14503   2.15361
 Alpha virt. eigenvalues --    2.15478   2.16169   2.16680   2.17073   2.17169
 Alpha virt. eigenvalues --    2.17556   2.18027   2.18328   2.18354   2.18714
 Alpha virt. eigenvalues --    2.19276   2.19378   2.19510   2.19978   2.20404
 Alpha virt. eigenvalues --    2.21059   2.21796   2.22048   2.22338   2.22736
 Alpha virt. eigenvalues --    2.23383   2.23775   2.23932   2.24109   2.24591
 Alpha virt. eigenvalues --    2.24737   2.24999   2.25701   2.25916   2.26234
 Alpha virt. eigenvalues --    2.26536   2.27628   2.27816   2.28658   2.29673
 Alpha virt. eigenvalues --    2.30092   2.30493   2.31337   2.31635   2.32057
 Alpha virt. eigenvalues --    2.32144   2.32292   2.32984   2.33135   2.33523
 Alpha virt. eigenvalues --    2.34512   2.34812   2.35374   2.36410   2.37753
 Alpha virt. eigenvalues --    2.38862   2.39416   2.40226   2.41010   2.42859
 Alpha virt. eigenvalues --    2.43963   2.44500   2.45069   2.46421   2.47042
 Alpha virt. eigenvalues --    2.47105   2.47687   2.48297   2.49001   2.49270
 Alpha virt. eigenvalues --    2.50335   2.51183   2.53348   2.53839   2.55230
 Alpha virt. eigenvalues --    2.57143   2.58893   2.59212   2.59568   2.59710
 Alpha virt. eigenvalues --    2.60214   2.61837   2.62487   2.63652   2.64223
 Alpha virt. eigenvalues --    2.64544   2.66137   2.66729   2.67347   2.69128
 Alpha virt. eigenvalues --    2.69924   2.70119   2.72036   2.73392   2.76936
 Alpha virt. eigenvalues --    2.77229   2.77551   2.77900   2.78147   2.78427
 Alpha virt. eigenvalues --    2.78707   2.79471   2.79688   2.79942   2.80548
 Alpha virt. eigenvalues --    2.80919   2.81425   2.82678   2.83585   2.83891
 Alpha virt. eigenvalues --    2.85640   2.87789   2.88405   2.89239   2.90471
 Alpha virt. eigenvalues --    2.93198   2.94262   2.95021   2.95675   2.96545
 Alpha virt. eigenvalues --    2.97416   2.99644   3.02702   3.03399   3.05653
 Alpha virt. eigenvalues --    3.06065   3.06545   3.07459   3.09618   3.11182
 Alpha virt. eigenvalues --    3.11595   3.12734   3.13414   3.21761   3.24998
 Alpha virt. eigenvalues --    3.31927   3.44307  13.02114
          Condensed to atoms (all electrons):
 Mulliken charges:
               1
     1  C    0.287479
     2  C    0.035104
     3  C   -0.072106
     4  C   -0.154551
     5  C   -0.181474
     6  C    0.313711
     7  C    0.090083
     8  C   -0.141575
     9  C   -0.143131
    10  C   -0.182976
    11  H    0.201041
    12  H    0.199845
    13  H    0.179313
    14  H    0.194018
    15  H    0.186839
    16  H    0.171310
    17  N   -0.430259
    18  N   -0.538865
    19  Ir  -0.153576
    20  O   -0.510628
    21  O   -0.526695
    22  O   -0.497096
    23  B    0.391200
    24  B    0.501433
    25  B    0.525042
    26  O   -0.495641
    27  O   -0.520053
    28  C    0.299897
    29  C    0.284674
    30  C    0.290180
    31  C    0.294068
    32  C    0.293737
    33  C    0.288072
    34  O   -0.507253
    35  C   -0.511667
    36  H    0.172736
    37  H    0.168530
    38  H    0.151152
    39  C   -0.473899
    40  H    0.141640
    41  H    0.169181
    42  H    0.149492
    43  C   -0.502887
    44  H    0.172393
    45  H    0.150443
    46  H    0.166802
    47  C   -0.506607
    48  H    0.160335
    49  H    0.156711
    50  H    0.153149
    51  C   -0.511169
    52  H    0.158973
    53  H    0.169876
    54  H    0.163286
    55  C   -0.508441
    56  H    0.152633
    57  H    0.169976
    58  H    0.171474
    59  C   -0.513478
    60  H    0.173906
    61  H    0.149276
    62  H    0.174469
    63  C   -0.491906
    64  H    0.176038
    65  H    0.145172
    66  H    0.161296
    67  C   -0.519881
    68  H    0.154193
    69  H    0.184279
    70  H    0.189026
    71  C   -0.517964
    72  H    0.178266
    73  H    0.179976
    74  H    0.153919
    75  C   -0.522417
    76  H    0.189178
    77  H    0.165886
    78  H    0.163925
    79  C   -0.507889
    80  H    0.158445
    81  H    0.178194
    82  H    0.169209
    83  H    0.189878
    84  C    0.543265
    85  O   -0.547301
    86  C   -0.361415
    87  H    0.147776
    88  H    0.163462
    89  C   -0.339698
    90  H    0.142886
    91  H    0.179093
    92  N   -0.363408
    93  C   -0.378833
    94  H    0.192124
    95  H    0.182023
    96  H    0.178567
    97  C   -0.506809
    98  H    0.184618
    99  H    0.171790
   100  C    0.964339
   101  F   -0.301805
   102  F   -0.314727
   103  F   -0.312236
   104  H    0.197855
   105  H    0.162159
 Sum of Mulliken charges =  -0.00000
 Mulliken charges with hydrogens summed into heavy atoms:
               1
     1  C    0.287479
     2  C    0.236146
     3  C   -0.072106
     4  C    0.045294
     5  C   -0.002160
     6  C    0.313711
     7  C    0.284101
     8  C    0.056279
     9  C    0.043708
    10  C   -0.011666
    17  N   -0.430259
    18  N   -0.538865
    19  Ir  -0.153576
    20  O   -0.510628
    21  O   -0.526695
    22  O   -0.497096
    23  B    0.391200
    24  B    0.501433
    25  B    0.714920
    26  O   -0.495641
    27  O   -0.520053
    28  C    0.299897
    29  C    0.284674
    30  C    0.290180
    31  C    0.294068
    32  C    0.293737
    33  C    0.288072
    34  O   -0.507253
    35  C   -0.019248
    39  C   -0.013587
    43  C   -0.013250
    47  C   -0.036412
    51  C   -0.019034
    55  C   -0.014358
    59  C   -0.015827
    63  C   -0.009401
    67  C    0.007617
    71  C   -0.005803
    75  C   -0.003428
    79  C   -0.002041
    84  C    0.543265
    85  O   -0.547301
    86  C   -0.050176
    89  C   -0.017720
    92  N   -0.363408
    93  C    0.173881
    97  C    0.011759
   100  C    0.964339
   101  F   -0.301805
   102  F   -0.314727
   103  F   -0.312236
 APT charges:
               1
     1  C    0.284778
     2  C    0.077710
     3  C   -0.239536
     4  C    0.125018
     5  C   -0.201882
     6  C    0.075618
     7  C    0.077336
     8  C   -0.032268
     9  C    0.086278
    10  C   -0.140132
    11  H    0.135254
    12  H    0.056506
    13  H    0.048403
    14  H    0.074649
    15  H    0.036653
    16  H    0.044331
    17  N   -0.276882
    18  N   -0.013951
    19  Ir  -0.836646
    20  O   -0.907952
    21  O   -0.985675
    22  O   -0.991386
    23  B    1.285492
    24  B    1.109610
    25  B    1.397205
    26  O   -1.004301
    27  O   -0.870249
    28  C    0.451355
    29  C    0.442310
    30  C    0.512185
    31  C    0.527664
    32  C    0.532354
    33  C    0.513189
    34  O   -1.002343
    35  C    0.006797
    36  H    0.001408
    37  H   -0.001940
    38  H   -0.017918
    39  C   -0.017826
    40  H   -0.009580
    41  H   -0.004853
    42  H   -0.019812
    43  C   -0.014613
    44  H   -0.000864
    45  H   -0.022863
    46  H   -0.007374
    47  C   -0.008534
    48  H   -0.002868
    49  H    0.008963
    50  H   -0.010988
    51  C   -0.046304
    52  H   -0.018851
    53  H    0.014023
    54  H    0.003235
    55  C   -0.013977
    56  H   -0.015276
    57  H    0.001354
    58  H    0.004650
    59  C   -0.009695
    60  H    0.002957
    61  H   -0.016116
    62  H    0.001565
    63  C   -0.033319
    64  H    0.007552
    65  H   -0.025987
    66  H    0.006960
    67  C   -0.041247
    68  H   -0.016632
    69  H    0.011018
    70  H    0.007367
    71  C   -0.013329
    72  H    0.008116
    73  H    0.004709
    74  H   -0.010972
    75  C   -0.046772
    76  H    0.006154
    77  H   -0.009792
    78  H    0.013330
    79  C   -0.014266
    80  H   -0.012258
    81  H    0.012965
    82  H    0.008261
    83  H    0.083763
    84  C    0.904167
    85  O   -0.800918
    86  C   -0.013892
    87  H   -0.028726
    88  H   -0.011295
    89  C    0.291823
    90  H   -0.075026
    91  H   -0.039207
    92  N   -0.772456
    93  C    0.254877
    94  H    0.044550
    95  H   -0.004569
    96  H   -0.044593
    97  C    0.075882
    98  H   -0.000417
    99  H    0.004585
   100  C    1.819636
   101  F   -0.594996
   102  F   -0.619315
   103  F   -0.539091
   104  H    0.057862
   105  H   -0.029892
 Sum of APT charges =  -0.00000
 APT charges with hydrogens summed into heavy atoms:
               1
     1  C    0.284778
     2  C    0.212964
     3  C   -0.239536
     4  C    0.181524
     5  C   -0.153479
     6  C    0.075618
     7  C    0.151985
     8  C    0.025594
     9  C    0.122931
    10  C   -0.095802
    17  N   -0.276882
    18  N   -0.013951
    19  Ir  -0.836646
    20  O   -0.907952
    21  O   -0.985675
    22  O   -0.991386
    23  B    1.285492
    24  B    1.109610
    25  B    1.480967
    26  O   -1.004301
    27  O   -0.870249
    28  C    0.451355
    29  C    0.442310
    30  C    0.512185
    31  C    0.527664
    32  C    0.532354
    33  C    0.513189
    34  O   -1.002343
    35  C   -0.011653
    39  C   -0.052072
    43  C   -0.045714
    47  C   -0.013428
    51  C   -0.047897
    55  C   -0.023248
    59  C   -0.021289
    63  C   -0.044795
    67  C   -0.039493
    71  C   -0.011476
    75  C   -0.037081
    79  C   -0.005298
    84  C    0.904167
    85  O   -0.800918
    86  C   -0.053913
    89  C    0.177590
    92  N   -0.772456
    93  C    0.250264
    97  C    0.050157
   100  C    1.819636
   101  F   -0.594996
   102  F   -0.619315
   103  F   -0.539091
 Electronic spatial extent (au):  <R**2>=          27443.2016
 Charge=             -0.0000 electrons
 Dipole moment (field-independent basis, Debye):
    X=             -3.5121    Y=              1.4982    Z=             -3.4678  Tot=              5.1580
 Quadrupole moment (field-independent basis, Debye-Ang):
   XX=           -322.8190   YY=           -318.7623   ZZ=           -286.5786
   XY=             19.6136   XZ=            -10.2822   YZ=             12.1733
 Traceless Quadrupole moment (field-independent basis, Debye-Ang):
   XX=            -13.4324   YY=             -9.3757   ZZ=             22.8080
   XY=             19.6136   XZ=            -10.2822   YZ=             12.1733
 Octapole moment (field-independent basis, Debye-Ang**2):
  XXX=              9.8182  YYY=             56.8082  ZZZ=              5.9240  XYY=            -73.0139
  XXY=             98.4144  XXZ=              0.6682  XZZ=            -44.5998  YZZ=            -72.3954
  YYZ=            -36.3583  XYZ=             16.9539
 Hexadecapole moment (field-independent basis, Debye-Ang**3):
 XXXX=         -15028.4093 YYYY=         -11610.5029 ZZZZ=          -8901.6696 XXXY=            475.1031
 XXXZ=            -44.5696 YYYX=            378.2159 YYYZ=             45.3787 ZZZX=             -9.1841
 ZZZY=            275.2947 XXYY=          -4605.3998 XXZZ=          -3769.1394 YYZZ=          -3310.1149
 XXYZ=             71.7372 YYXZ=             22.7490 ZZXY=            -64.0798
 N-N= 8.569750009500D+03 E-N=-2.294374628008D+04  KE= 2.410247564301D+03
  Exact polarizability:     521.256     -15.188     445.907      -3.744      32.791     465.398
 Approx polarizability:     779.479     -27.252     614.253      -6.144      67.981     709.854
   1 Symmetry operations used in ECPInt.
 ECPInt:  NShTT=   50086 NPrTT=  307226 LenC2=   38921 LenP2D=  121058.
 LDataN:  DoStor=T MaxTD1= 8 Len=  415
 Calling FoFJK, ICntrl=    100127 FMM=F ISym2X=0 I1Cent= 0 IOpClX= 0 NMat=1 NMatS=1 NMatT=0.
 Defaulting to unpruned grid for atomic number  77.
 Defaulting to unpruned grid for atomic number  77.
 Defaulting to unpruned grid for atomic number  77.
 Defaulting to unpruned grid for atomic number  77.
 Defaulting to unpruned grid for atomic number  77.
 Defaulting to unpruned grid for atomic number  77.
 Defaulting to unpruned grid for atomic number  77.
 Defaulting to unpruned grid for atomic number  77.
 Defaulting to unpruned grid for atomic number  77.
 Defaulting to unpruned grid for atomic number  77.
 Defaulting to unpruned grid for atomic number  77.
 Defaulting to unpruned grid for atomic number  77.
 Defaulting to unpruned grid for atomic number  77.
 Defaulting to unpruned grid for atomic number  77.
 Defaulting to unpruned grid for atomic number  77.
 Defaulting to unpruned grid for atomic number  77.
 Full mass-weighted force constant matrix:
 Low frequencies --- -102.3512   -5.5271   -1.7028   -0.0008   -0.0006   -0.0006
 Low frequencies ---    5.0661   19.6998   23.5660
 ******    1 imaginary frequencies (negative Signs) ****** 
 Diagonal vibrational polarizability:
      101.3278051     141.2032502      83.7337044
 Harmonic frequencies (cm**-1), IR intensities (KM/Mole), Raman scattering
 activities (A**4/AMU), depolarization ratios for plane and unpolarized
 incident light, reduced masses (AMU), force constants (mDyne/A),
 and normal coordinates:
                      1                      2                      3
                      A                      A                      A
 Frequencies --   -102.3493                19.6953                23.5088
 Red. masses --      3.5419                 5.1784                 5.8666
 Frc consts  --      0.0219                 0.0012                 0.0019
 IR Inten    --      2.9012                 0.8775                 0.2207
  Atom AN      X      Y      Z        X      Y      Z        X      Y      Z
     1   6     0.02   0.01  -0.04    -0.03   0.01  -0.01    -0.02  -0.02   0.02
     2   6     0.04   0.01  -0.02    -0.03   0.01  -0.02     0.00   0.04   0.02
     3   6     0.03  -0.00  -0.01    -0.03   0.03  -0.02    -0.01   0.03   0.03
     4   6     0.01  -0.01  -0.01    -0.03   0.03  -0.02    -0.02  -0.01   0.04
     5   6     0.01  -0.00  -0.03    -0.03   0.02  -0.02    -0.03  -0.04   0.03
     6   6     0.02   0.00  -0.06    -0.03  -0.01  -0.01    -0.02  -0.03   0.01
     7   6     0.02   0.00  -0.06    -0.03  -0.04   0.01    -0.02   0.00  -0.03
     8   6     0.02  -0.02  -0.05    -0.03  -0.04   0.00    -0.02  -0.01  -0.03
     9   6     0.02  -0.02  -0.04    -0.03  -0.02  -0.01    -0.03  -0.03  -0.01
    10   6     0.02  -0.02  -0.05    -0.03  -0.00  -0.01    -0.03  -0.04   0.01
    11   1     0.06   0.03  -0.02    -0.03   0.01  -0.02     0.02   0.08   0.01
    12   1     0.00  -0.01   0.00    -0.02   0.04  -0.03    -0.03  -0.02   0.05
    13   1    -0.00  -0.01  -0.03    -0.02   0.03  -0.02    -0.04  -0.07   0.04
    14   1     0.02   0.01  -0.06    -0.02  -0.06   0.02    -0.01   0.02  -0.05
    15   1     0.02  -0.04  -0.03    -0.04  -0.01  -0.01    -0.03  -0.04  -0.00
    16   1     0.02  -0.03  -0.04    -0.03   0.01  -0.02    -0.03  -0.05   0.02
    17   7     0.04   0.02  -0.04    -0.03   0.01  -0.01    -0.00   0.01   0.01
    18   7     0.02   0.01  -0.07    -0.03  -0.02   0.00    -0.01  -0.01  -0.01
    19  77     0.01  -0.03   0.05    -0.02  -0.01  -0.01    -0.01  -0.02   0.00
    20   8    -0.02   0.04   0.07     0.01   0.00   0.02    -0.01  -0.00  -0.02
    21   8    -0.06   0.03  -0.04    -0.01  -0.03  -0.03    -0.01   0.00   0.01
    22   8    -0.03   0.04  -0.04    -0.01  -0.02  -0.00    -0.00   0.06   0.02
    23   5    -0.08   0.06  -0.05     0.00  -0.03  -0.02    -0.02  -0.01   0.01
    24   5     0.00   0.03   0.11    -0.01   0.00   0.00    -0.00  -0.01   0.00
    25   5    -0.03   0.00  -0.07    -0.01   0.00   0.00    -0.02  -0.02  -0.01
    26   8    -0.03   0.03  -0.05    -0.00   0.02   0.00    -0.02  -0.10  -0.02
    27   8     0.03   0.01   0.09    -0.02   0.02   0.01     0.02  -0.01  -0.01
    28   6     0.02  -0.01   0.06    -0.01   0.03   0.02     0.03  -0.02  -0.03
    29   6    -0.01   0.02   0.04     0.01   0.02   0.03     0.00  -0.01  -0.04
    30   6    -0.02   0.04  -0.03    -0.00  -0.03  -0.00    -0.02   0.04   0.00
    31   6    -0.01   0.04  -0.04    -0.01   0.00  -0.00    -0.00  -0.08   0.00
    32   6    -0.03   0.01  -0.03     0.01  -0.05  -0.04    -0.02   0.01   0.02
    33   6    -0.01   0.02  -0.03     0.04  -0.05  -0.03    -0.03  -0.00   0.02
    34   8    -0.04   0.05  -0.04     0.03  -0.04  -0.02    -0.03  -0.01   0.01
    35   6    -0.01   0.02   0.01     0.02   0.01   0.04     0.00  -0.01  -0.05
    36   1    -0.03   0.04   0.00     0.03   0.01   0.05    -0.01   0.00  -0.06
    37   1    -0.01   0.02   0.02     0.02   0.01   0.04     0.01  -0.01  -0.04
    38   1    -0.00   0.00  -0.01     0.02   0.03   0.05     0.01  -0.01  -0.07
    39   6    -0.02   0.03   0.02     0.01   0.02   0.04    -0.01  -0.00  -0.06
    40   1    -0.02   0.03   0.03     0.00   0.02   0.03    -0.01  -0.00  -0.06
    41   1    -0.03   0.04   0.02     0.02   0.01   0.04    -0.03   0.00  -0.07
    42   1    -0.01   0.02   0.00     0.01   0.03   0.05     0.00  -0.00  -0.08
    43   6     0.01  -0.01   0.04    -0.01   0.02   0.02     0.04  -0.02  -0.02
    44   1     0.03  -0.03   0.06    -0.02   0.03   0.01     0.06  -0.03  -0.01
    45   1    -0.01  -0.03   0.01    -0.00   0.03   0.03     0.04  -0.03  -0.04
    46   1     0.00   0.02   0.04    -0.00   0.01   0.02     0.03  -0.01  -0.00
    47   6     0.03  -0.04   0.05    -0.02   0.05   0.03     0.04  -0.03  -0.05
    48   1     0.04  -0.04   0.05    -0.03   0.05   0.02     0.06  -0.03  -0.04
    49   1     0.03  -0.04   0.05    -0.02   0.05   0.03     0.03  -0.03  -0.06
    50   1     0.02  -0.04   0.03    -0.01   0.05   0.04     0.04  -0.03  -0.07
    51   6    -0.05  -0.02  -0.03     0.00  -0.07  -0.07    -0.02   0.01   0.02
    52   1    -0.04  -0.04  -0.02     0.01  -0.09  -0.08    -0.02   0.02   0.03
    53   1    -0.07  -0.02  -0.03     0.00  -0.08  -0.07    -0.02   0.01   0.02
    54   1    -0.06  -0.02  -0.03    -0.02  -0.07  -0.08    -0.01   0.02   0.02
    55   6    -0.01  -0.00  -0.03     0.00  -0.05  -0.04    -0.02   0.01   0.03
    56   1     0.01  -0.02  -0.03     0.02  -0.06  -0.05    -0.02   0.01   0.03
    57   1    -0.02  -0.01  -0.03    -0.02  -0.05  -0.05    -0.01   0.02   0.03
    58   1     0.01   0.02  -0.03     0.00  -0.04  -0.02    -0.02   0.01   0.02
    59   6    -0.01  -0.00  -0.03     0.06  -0.07  -0.04    -0.04  -0.00   0.03
    60   1    -0.03  -0.02  -0.03     0.05  -0.09  -0.05    -0.03  -0.00   0.03
    61   1     0.01  -0.02  -0.02     0.07  -0.08  -0.05    -0.04   0.00   0.04
    62   1     0.00   0.01  -0.03     0.08  -0.07  -0.03    -0.04  -0.01   0.03
    63   6     0.02   0.05  -0.03     0.05  -0.03  -0.01    -0.03  -0.00   0.02
    64   1     0.02   0.06  -0.03     0.07  -0.03   0.01    -0.04  -0.01   0.02
    65   1     0.04   0.03  -0.03     0.06  -0.04  -0.01    -0.03   0.00   0.03
    66   1     0.01   0.07  -0.03     0.03  -0.02   0.00    -0.03  -0.00   0.02
    67   6    -0.00   0.04  -0.04    -0.05   0.01  -0.01     0.09  -0.11   0.08
    68   1     0.00   0.04  -0.03    -0.05  -0.01  -0.01     0.11  -0.10   0.10
    69   1    -0.00   0.03  -0.05    -0.05   0.03  -0.01     0.09  -0.20   0.08
    70   1    -0.01   0.04  -0.04    -0.06   0.00  -0.01     0.12  -0.07   0.12
    71   6    -0.00   0.04  -0.04     0.01   0.01   0.00    -0.05  -0.14  -0.05
    72   1    -0.01   0.04  -0.04     0.03   0.01   0.01    -0.11  -0.13  -0.10
    73   1     0.00   0.04  -0.05     0.00   0.03   0.01    -0.03  -0.22  -0.04
    74   1     0.00   0.04  -0.03     0.00  -0.01  -0.00    -0.03  -0.12  -0.03
    75   6    -0.02   0.04  -0.02     0.03  -0.04  -0.00    -0.11   0.08  -0.06
    76   1    -0.01   0.04  -0.02     0.05  -0.02  -0.00    -0.15   0.04  -0.10
    77   1    -0.02   0.04  -0.02     0.04  -0.05  -0.00    -0.12   0.06  -0.07
    78   1    -0.02   0.04  -0.02     0.04  -0.06  -0.00    -0.13   0.16  -0.05
    79   6    -0.02   0.04  -0.02    -0.03  -0.06  -0.01     0.04   0.11   0.05
    80   1    -0.01   0.03  -0.01    -0.02  -0.07  -0.01     0.03   0.10   0.05
    81   1    -0.02   0.04  -0.01    -0.05  -0.05  -0.01     0.11   0.09   0.10
    82   1    -0.02   0.04  -0.01    -0.02  -0.08  -0.01     0.02   0.19   0.05
    83   1     0.68  -0.40   0.23    -0.02   0.00  -0.02     0.05  -0.06   0.03
    84   6    -0.00  -0.01  -0.02     0.12   0.07   0.07     0.08   0.04  -0.01
    85   8     0.00   0.01  -0.01     0.15   0.15   0.13     0.09   0.07  -0.01
    86   6     0.01  -0.02  -0.03     0.20  -0.01   0.01     0.11  -0.01  -0.00
    87   1     0.02  -0.03  -0.06     0.18  -0.07  -0.06     0.08  -0.04  -0.00
    88   1     0.04  -0.04  -0.01     0.29  -0.01   0.05     0.12   0.00  -0.00
    89   6    -0.04  -0.05  -0.03    -0.04  -0.03  -0.02     0.03  -0.01  -0.02
    90   1    -0.03  -0.05  -0.07     0.00  -0.05  -0.13     0.05  -0.03  -0.02
    91   1    -0.08  -0.08  -0.02    -0.14  -0.08  -0.01     0.02  -0.01  -0.02
    92   7    -0.03  -0.02  -0.01     0.01   0.05   0.06     0.04   0.03  -0.01
    93   6    -0.04  -0.01   0.00    -0.07   0.11   0.13     0.02   0.06  -0.01
    94   1    -0.03   0.00   0.02    -0.03   0.15   0.19     0.03   0.10  -0.02
    95   1    -0.05  -0.01  -0.00    -0.13   0.10   0.11    -0.02   0.05  -0.01
    96   1    -0.06  -0.00   0.01    -0.13   0.12   0.14     0.04   0.06  -0.02
    97   6    -0.00  -0.01  -0.01     0.21  -0.01   0.02     0.15  -0.01   0.01
    98   1    -0.01  -0.00   0.01     0.23   0.05   0.10     0.17   0.02   0.01
    99   1    -0.02   0.00  -0.03     0.12  -0.00  -0.01     0.14  -0.02   0.01
   100   6     0.03  -0.00   0.01    -0.03   0.03  -0.02    -0.00   0.07   0.02
   101   9     0.02  -0.01   0.01    -0.00   0.07   0.05    -0.02  -0.01  -0.15
   102   9     0.03  -0.01   0.01    -0.04   0.08  -0.09    -0.01  -0.01   0.17
   103   9     0.04  -0.00   0.01    -0.04  -0.04  -0.02     0.03   0.26   0.01
   104   1     0.02  -0.02  -0.05    -0.03  -0.05   0.01    -0.02   0.00  -0.04
   105   1     0.01  -0.02  -0.02     0.27  -0.06  -0.01     0.17  -0.04   0.01
                      4                      5                      6
                      A                      A                      A
 Frequencies --     27.3926                35.2727                40.3564
 Red. masses --      4.9532                 4.0377                 5.0160
 Frc consts  --      0.0022                 0.0030                 0.0048
 IR Inten    --      0.3890                 0.3793                 0.5839
  Atom AN      X      Y      Z        X      Y      Z        X      Y      Z
     1   6     0.00  -0.01  -0.02     0.02  -0.04   0.01    -0.02  -0.04   0.01
     2   6     0.02  -0.04   0.01     0.02   0.01  -0.01    -0.01   0.03  -0.00
     3   6     0.01  -0.04   0.03     0.03  -0.01  -0.01    -0.02   0.01  -0.00
     4   6    -0.01  -0.03   0.02     0.03  -0.05   0.00    -0.02  -0.02   0.01
     5   6    -0.01  -0.02  -0.00     0.03  -0.06   0.01    -0.02  -0.05   0.02
     6   6    -0.00   0.00  -0.04     0.02  -0.04   0.01    -0.02  -0.06   0.01
     7   6     0.00   0.01  -0.04     0.02  -0.00  -0.00    -0.01  -0.02  -0.05
     8   6    -0.00   0.03  -0.06     0.02  -0.04   0.03    -0.03  -0.08  -0.01
     9   6    -0.00   0.04  -0.06     0.03  -0.09   0.05    -0.04  -0.14   0.04
    10   6    -0.00   0.03  -0.05     0.03  -0.09   0.04    -0.04  -0.13   0.05
    11   1     0.03  -0.04   0.01     0.02   0.05  -0.02    -0.01   0.05  -0.01
    12   1    -0.02  -0.04   0.03     0.03  -0.07   0.00    -0.02  -0.04   0.01
    13   1    -0.03  -0.02  -0.01     0.03  -0.10   0.02    -0.03  -0.08   0.02
    14   1     0.00  -0.00  -0.04     0.01   0.04  -0.03    -0.01   0.04  -0.09
    15   1    -0.00   0.06  -0.08     0.03  -0.12   0.08    -0.05  -0.19   0.07
    16   1    -0.00   0.04  -0.06     0.03  -0.12   0.06    -0.05  -0.16   0.09
    17   7     0.02  -0.02  -0.01     0.02   0.01  -0.00    -0.02  -0.00   0.00
    18   7    -0.00  -0.00  -0.03     0.02  -0.01  -0.00    -0.01  -0.02  -0.03
    19  77    -0.02  -0.02  -0.03    -0.01  -0.00  -0.02     0.01  -0.01  -0.01
    20   8     0.01  -0.01  -0.01    -0.00   0.00   0.04     0.02   0.01  -0.01
    21   8     0.03  -0.02   0.05    -0.03   0.01  -0.02     0.04   0.01   0.03
    22   8    -0.02   0.01  -0.04    -0.02   0.02  -0.03     0.02   0.00  -0.01
    23   5     0.02  -0.05   0.04     0.01  -0.01   0.00    -0.02   0.02  -0.00
    24   5    -0.02  -0.02  -0.02    -0.04   0.00   0.01     0.00   0.00   0.00
    25   5    -0.03  -0.01  -0.03    -0.02  -0.01  -0.03     0.02  -0.01  -0.02
    26   8    -0.03   0.03  -0.03    -0.04  -0.04  -0.03     0.02  -0.02  -0.02
    27   8    -0.05  -0.01  -0.01    -0.07   0.03   0.03    -0.02  -0.01   0.01
    28   6    -0.02   0.01   0.00    -0.04   0.04   0.05    -0.01  -0.01   0.00
    29   6     0.02   0.01   0.00    -0.01   0.04   0.06     0.02   0.01  -0.00
    30   6    -0.02   0.08  -0.01    -0.03   0.01  -0.04     0.03  -0.00  -0.01
    31   6    -0.01   0.11  -0.03    -0.03  -0.02  -0.03     0.03  -0.01  -0.01
    32   6     0.02  -0.02   0.09    -0.02   0.01  -0.04     0.00   0.04   0.08
    33   6    -0.00  -0.05   0.09     0.02  -0.02   0.00    -0.08   0.06   0.02
    34   8    -0.00  -0.07   0.06     0.04  -0.04   0.01    -0.09   0.06  -0.00
    35   6     0.05   0.01   0.01     0.03   0.03   0.08     0.03   0.01  -0.02
    36   1     0.08   0.01   0.01     0.06   0.02   0.09     0.07   0.03  -0.02
    37   1     0.06  -0.01  -0.01     0.02   0.02   0.06     0.03  -0.00  -0.06
    38   1     0.05   0.03   0.02     0.02   0.06   0.11     0.02   0.01  -0.01
    39   6     0.01   0.05   0.02    -0.01   0.06   0.08     0.02   0.04   0.02
    40   1    -0.02   0.05   0.02    -0.03   0.06   0.07     0.01   0.04   0.05
    41   1     0.03   0.05   0.02     0.02   0.05   0.08     0.04   0.05   0.02
    42   1     0.02   0.07   0.03    -0.00   0.09   0.10     0.01   0.03   0.03
    43   6     0.00  -0.02  -0.00    -0.04   0.03   0.04    -0.01  -0.03  -0.02
    44   1    -0.03  -0.02  -0.01    -0.06   0.03   0.03    -0.04  -0.05  -0.02
    45   1     0.03  -0.01   0.00    -0.03   0.04   0.06    -0.00  -0.03  -0.03
[...]
 0000209,-0.00000136,0.00000167,0.00000143,-0.00000015,0.00000231,-0.00
 000031,0.00000046,0.00000049,0.00000226,-0.00000136,0.00000147,-0.0000
 0056,-0.00000072,-0.00000059,-0.00000154,-0.00000076,0.00000202,0.0000
 0035,0.00000076,0.00003254,0.00000418,-0.00016510,-0.00087268,0.000632
 76,0.00029832,0.00074750,-0.00016667,-0.00057730,0.00001292,0.00001577
 ,0.00007348,0.00004221,0.00000749,-0.00003526,-0.00004072,-0.00002085,
 -0.00004326,0.00012227,-0.00010653,0.00002802,-0.00001240,0.00001557,-
 0.00001153,0.00000701,0.00001308,-0.00001446,0.00000104,-0.00051470,0.
 00016606,0.00004263,0.00002789,-0.00001732,-0.00001747,0.00006081,0.00
 000132,0.00001580,-0.00002688,-0.00002674,-0.00002883,-0.00001312,-0.0
 0001186,0.00001056,-0.00002336,0.00000857,-0.00000375,-0.00001085,0.00
 001430,0.00000562,0.00000300,-0.00001215,0.00004275,0.00003919,-0.0000
 3444,-0.00002349,0.00000922,0.00000276,0.00000271,-0.00000076,0.000003
 99,-0.00000672,-0.00000421,0.00001783,-0.03015536,0.03747347,-0.000000
 53,0.00065299,-0.00022855,-0.00013850,0.00003685,-0.00000254,0.0000390
 0,0.00002092,0.00009168,0.00009107,-0.00000347,-0.00004283,-0.00010562
 ,0.00001850,-0.00001781,-0.00047883,-0.00066297,-0.00151440,0.02372849
 ,-0.00000265,0.00326186,0.01183913,-0.01205115,-0.05079096,-0.02111762
 ,0.00311295,0.00582014,-0.00240303,-0.00527830,-0.00028432,0.00000226,
 0.00000513,-0.00000668,0.00000236,0.00000807,-0.00000303,0.00001212,-0
 .00004276,0.00003606,-0.00026144,0.00169310,-0.00064403,0.00064164,0.0
 0224639,-0.00057145,-0.00106776,0.00006096,0.00026926,0.00017316,-0.00
 010060,-0.00011076,0.00298675,-0.00618431,-0.00148475,-0.00008515,0.00
 040997,0.00069186,-0.00002854,0.00001035,-0.00000402,-0.00009157,0.000
 07197,0.00003991,0.00003585,0.00001844,-0.00003045,0.00002625,0.000180
 83,-0.00008371,0.00008201,0.00003889,0.00000113,-0.00005995,-0.0001783
 2,0.00003378,0.00000960,0.00004889,-0.00005518,-0.00001513,0.00000079,
 -0.00003706,-0.00000779,-0.00000347,0.00000129,0.00000439,-0.00000507,
 0.00000646,-0.00000433,-0.00000720,0.00001283,-0.00000309,0.00001180,0
 .00000417,0.00004864,-0.00004146,0.00006456,0.00000901,0.00000742,-0.0
 0001640,-0.00003441,-0.00001797,0.00000829,0.00000081,0.00000057,-0.00
 000203,0.00000128,-0.00000049,-0.00000054,0.00000105,-0.00000031,0.000
 00201,-0.00000192,0.00000079,-0.00000045,-0.00000260,0.00000026,-0.000
 00267,-0.00000026,-0.00000070,0.00000076,0.00000176,-0.00000098,-0.000
 00030,-0.00000194,0.00000022,0.00000038,0.00000465,0.00000506,0.000004
 71,-0.00000369,-0.00000323,-0.00000382,-0.00000026,0.00000103,-0.00000
 124,-0.00000121,0.00000049,0.00000241,-0.00000094,0.00000166,0.0000002
 5,-0.00000087,-0.00000245,-0.00000073,0.00000132,-0.00000051,-0.000001
 25,-0.00000077,0.00000168,-0.00000005,0.00000466,0.00000643,-0.0000762
 2,-0.00000886,0.00002769,0.00001820,0.00001379,-0.00001608,-0.00003821
 ,-0.00001707,0.00000336,0.00011300,-0.00003438,0.00001669,0.00000978,0
 .00000189,-0.00000344,-0.00000302,0.00001152,-0.00000451,0.00000385,-0
 .00000505,0.00001109,-0.00000887,-0.00000269,-0.00000460,0.00000788,-0
 .00000274,0.00000163,-0.00000919,0.00000048,-0.00000126,-0.00000186,-0
 .00000301,0.00000435,0.00000222,-0.00000939,-0.00000179,0.00001126,-0.
 00000336,0.00000507,-0.00000002,0.00000228,0.00000213,0.00000054,-0.00
 000098,-0.00000141,-0.00000236,0.00000153,0.00000010,0.00000127,-0.000
 00043,-0.00000007,-0.00000037,-0.00000035,-0.00000041,-0.00000085,-0.0
 0000079,0.00000157,-0.00000024,0.00000409,-0.00000411,-0.00000132,0.00
 000220,0.00000163,0.00000032,-0.00000014,-0.00000109,-0.00000225,-0.00
 000127,0.00000196,-0.00000193,0.00000603,-0.00000170,-0.00000471,-0.00
 000161,0.00000076,-0.00000005,0.00000085,0.00000233,0.00000023,-0.0000
 0022,0.00000012,0.,0.00000142,0.00000303,-0.00000325,0.00000149,-0.000
 00061,-0.00000060,-0.00000039,0.00000104,0.00000076,-0.00000033,-0.000
 00072,-0.00000003,0.00013090,-0.00007209,-0.00012965,0.00135020,-0.000
 73491,-0.00043238,-0.00114685,-0.00015924,0.00073870,-0.00006000,0.000
 01936,-0.00002728,-0.00006627,-0.00003938,-0.00000530,0.00001224,0.000
 01112,0.00000585,0.00002311,-0.00006499,0.00002066,-0.00001953,-0.0000
 1255,0.00000966,-0.00001623,0.00000921,-0.00000097,-0.00028041,0.00064
 937,-0.00005960,0.00016469,-0.00001375,0.00004476,-0.00007767,-0.00001
 342,-0.00005054,0.00001900,-0.00000145,0.00001994,-0.00004132,0.000003
 69,0.00004175,-0.00002077,0.00002089,-0.00003295,0.00001131,0.00002012
 ,-0.00000652,-0.00000028,-0.00000160,0.00000817,0.00000982,-0.00003596
 ,0.00002007,0.00000590,-0.00000027,-0.00000333,-0.00000981,0.00000148,
 -0.00000263,-0.00000539,0.00000673,0.00000029,-0.01375081,0.01629426,0
 .04541106,-0.00004195,0.00001037,-0.00001059,-0.00001109,0.00000642,0.
 00001434,0.00002314,-0.00000174,-0.00002046,-0.00001284,0.00000685,0.0
 0001553,0.00003240,0.00000408,-0.00000288,-0.00000953,0.00000384,-0.00
 002561,-0.00000190,0.00000734,-0.00006914,0.00000441,0.00001471,0.0000
 2838,-0.00001262,-0.00001746,-0.00003046,0.00000454,-0.00000794,-0.000
 01150,-0.00000282,-0.00000067,-0.00000158,0.00000298,-0.00000290,0.000
 00183,-0.00000499,-0.00000478,0.00000420,0.00000411,0.00002173,-0.0000
 0448,-0.00000846,-0.00000254,0.00001100,0.00001448,-0.00000694,0.00001
 162,0.00001963,-0.00001907,0.00001220,0.00002532,0.00000792,-0.0000089
 8,0.00002166,-0.00002782,-0.00001133,0.00004895,-0.00005967,0.00001546
 ,-0.00004406,-0.00004611,0.00001638,0.00006966,-0.00000833,-0.00004061
 ,0.00006208,0.00006273,0.00001348,-0.00008258,0.00004866,-0.00002923,-
 0.00010200,0.00006007,0.00006912,0.00005680,-0.00001657,-0.00007279,0.
 00004456,-0.00004236,0.00004357,-0.00000960,0.00002795,-0.00001095,-0.
 00002080,0.00001315,-0.00001532,-0.00001708,-0.00001207,0.00002668,-0.
 00003823,0.00000797,0.00003326,0.00000952,0.00002894,0.00000234,0.0000
 1855,0.00003123,-0.00000835,-0.00002746,-0.00005984,-0.00000968,0.0000
 0194,-0.00000110,0.00000095,-0.00000107,0.00000001,-0.00000191,-0.0000
 0119,0.00000104,-0.00000076,0.00000264,-0.00000272,0.00000224,0.000003
 70,-0.00000040,0.00000279,-0.00000234,-0.00000073,-0.00000063,-0.00000
 188,0.00000077,-0.00000126,0.00000483,-0.00000171,0.00000168,-0.000000
 41,-0.00000419,-0.00000024,-0.00000085,0.00000217,-0.00000081,0.000001
 28,-0.00000468,0.00000202,0.00000168,0.00000253,0.00000030,0.00000224,
 -0.00000295,0.00000079,-0.00000096,0.00000227,0.00000078,-0.00000167,0
 .00000167,-0.00000041,0.00000257,-0.00000392,0.00000135,-0.00000061,-0
 .00000237,-0.00000982,-0.00000410,-0.00000555,0.00000070,0.00000305,0.
 00000638,0.00000806,0.00000294,0.00000246,-0.00000356,0.00000227,-0.00
 000261,0.00000086,-0.00000260,-0.00000263,-0.00000059,0.00000002,0.000
 00232,0.00000004,0.00000235,-0.00000149,0.00000162,-0.00000261,-0.0000
 0026,-0.00000141,0.00000292,0.00000129,0.00000221,-0.00000264,-0.00000
 256,0.00000161,0.00000207,-0.00000069,-0.00000208,-0.00000060,-0.00000
 390,0.00000073,0.00000166,0.00000087,-0.00000133,-0.00000188,-0.000004
 57,0.00000205,0.00000018,0.00000239,-0.00000069,0.00000516,-0.00000185
 ,-0.00000508,0.00000386,-0.00000331,-0.00000358,-0.00000147,0.00000119
 ,0.00000250,-0.00000160,0.00000271,0.00000089,0.00000177,-0.00000171,-
 0.00000501,-0.00000212,-0.00000091,0.00000294,-0.00000240,0.00000082,0
 .00000151,0.00000442,-0.00000039,-0.00000296,-0.00000364,0.00000672,-0
 .00000245,0.00000101,-0.00000480,0.00000476,0.00000343,-0.00000033,-0.
 00000559,-0.00000185,-0.00000060,0.00000233,0.00000222,0.00000096,-0.0
 0000088,0.00000204,-0.00000009,-0.00000378,-0.00000089,-0.00000039,0.0
 0000075,0.00000036,-0.00000037,0.00000261,-0.00000188,0.00000814,-0.00
 000600,0.00025517,0.00011947,0.00162350,0.00050381,-0.00062953,-0.0000
 8846,-0.00356649,-0.00223282,-0.00168386,0.00051449,0.00003334,0.00032
 060,-0.00016186,0.00008795,0.00000368,-0.00012040,0.00004597,-0.000023
 78,0.00005637,-0.00002106,0.00007348,0.00002187,-0.00002190,-0.0000193
 7,-0.00027070,-0.00040124,-0.00016017,0.00012039,0.00007611,-0.0000984
 5,0.00001474,0.00004435,0.00001170,-0.00000492,-0.00004760,-0.00000703
 ,-0.00004236,-0.00003952,-0.00002635,-0.17625016,-0.11408321,-0.069065
 51,-0.01617502,-0.01760433,-0.00943909,0.00854023,0.00812066,0.0041717
 4,-0.00008511,-0.00000696,-0.00000195,0.00002339,-0.00000902,0.0000033
 9,0.00003526,0.00001614,0.00000901,0.00001751,-0.00000055,-0.00000357,
 0.00000682,0.00000595,-0.00001583,0.18653082,-0.00011698,-0.00000231,0
 .00005410,0.00004391,-0.00001139,0.00003234,0.00003920,-0.00001093,-0.
 00005741,-0.00001701,0.00002010,0.00004963,0.00007050,0.00001270,0.000
 01781,-0.00002518,-0.00000862,0.00000677,-0.00001798,0.00001765,-0.000
 14924,0.00003469,0.00002377,0.00004991,-0.00006606,-0.00000397,-0.0000
 2764,0.00003844,0.00000184,-0.00003552,-0.00000634,-0.00001598,-0.0000
 1430,0.00000373,-0.00000692,0.00000465,-0.00000844,-0.00001048,0.00000
 706,0.00001184,0.00003292,-0.00000539,-0.00000508,0.00000062,0.0000039
 6,0.00001214,-0.00000482,0.00003192,0.00002292,0.00002374,-0.00003233,
 0.00005205,0.00001017,-0.00007182,0.00000091,-0.00005133,-0.00000149,0
 .00007425,-0.00007540,0.00002469,-0.00004270,-0.00004632,0.00001732,0.
 00015687,0.00001272,-0.00006136,0.00007645,0.00004478,0.00003134,-0.00
 012879,0.00004581,-0.00005198,-0.00023068,0.00009399,0.00009784,0.0001
 1663,-0.00002803,-0.00010435,0.00007018,-0.00003456,0.00005914,-0.0000
 1215,0.00002619,-0.00000962,-0.00003220,0.00001334,-0.00002062,-0.0000
 5404,-0.00005883,0.00005007,-0.00007569,0.00001337,0.00004472,-0.00000
 015,0.00003630,0.00000148,0.00001950,0.00003767,-0.00001021,-0.0000199
 5,-0.00006381,-0.00001362,0.00000493,-0.00000087,0.00000230,-0.0000016
 7,-0.00000035,-0.00000190,-0.00000005,0.00000273,-0.00000181,0.0000029
 9,-0.00000409,0.00000257,0.00000630,-0.00000377,0.00000404,-0.00000277
 ,0.00000108,-0.00000037,-0.00000166,0.00000002,-0.00000155,0.00000670,
 -0.00000200,0.00000124,0.00000076,-0.00000535,-0.00000114,-0.00000144,
 0.00000203,-0.00000118,0.00000127,-0.00000461,0.00000227,0.00000338,0.
 00000406,0.00000088,-0.00000012,-0.00000494,0.00000311,-0.00000126,0.0
 0000131,0.00000199,0.00000021,0.00000103,-0.00000204,0.00000362,-0.000
 00248,0.00000200,0.00000022,-0.00000259,-0.00001603,-0.00000455,-0.000
 00757,0.00000230,0.00000482,0.00000995,0.00001093,0.00000321,0.0000025
 4,-0.00000448,0.00000497,-0.00000266,0.00000096,-0.00000262,-0.0000024
 0,-0.00000056,-0.00000030,0.00000246,-0.00000054,0.00000289,-0.0000028
 4,0.00000273,-0.00000390,0.00000055,-0.00000184,0.00000458,0.00000164,
 0.00000347,-0.00000255,-0.00000280,0.00000196,0.00000261,-0.00000131,-
 0.00000260,-0.00000060,-0.00000447,0.00000049,0.00000148,-0.00000006,-
 0.00000234,-0.00000168,-0.00000481,0.00000236,0.00000007,0.00000294,0.
 00000012,0.00001601,-0.00000246,-0.00000682,0.00000428,-0.00000560,-0.
 00000569,0.00000044,0.00000381,0.00000639,-0.00000353,0.00000379,0.000
 00005,0.00000849,-0.00000627,-0.00000795,-0.00001067,0.00000096,0.0000
 0126,-0.00000032,0.00000533,0.00000610,0.00000623,-0.00000179,-0.00000
 683,0.00002221,0.00002714,-0.00000162,-0.00002826,-0.00002137,-0.00001
 084,0.00000381,0.00000143,-0.00000794,0.00001225,-0.00001296,0.0000070
 9,0.00001089,0.00001600,-0.00000353,0.00000344,-0.00000262,-0.00000544
 ,-0.00000394,0.00000732,0.00000219,0.00000346,-0.00000427,0.00000492,-
 0.00000014,0.00001306,-0.00001132,0.00244479,-0.00151634,0.00547401,-0
 .00135574,0.00033455,-0.00089828,-0.01712649,-0.01603316,-0.00853998,0
 .00055872,0.00067035,-0.00072125,0.00030497,0.00114112,-0.00015743,-0.
 00037427,0.00014017,0.00009718,-0.00004914,-0.00001779,-0.00000836,0.0
 0005707,-0.00002858,-0.00005473,-0.00063506,-0.00104667,-0.00050152,0.
 00031456,0.00028867,-0.00033378,-0.00001860,0.00006128,0.00004136,-0.0
 0000638,-0.00006427,-0.00001168,-0.00014625,-0.00011622,-0.00012025,-0
 .11446110,-0.14856307,-0.06269642,0.01186091,0.01189834,0.00698943,-0.
 00796803,-0.00718427,-0.00311348,-0.00008027,-0.00008625,0.00002316,0.
 00001409,0.00002588,-0.00001003,0.00004130,0.00004024,0.00000894,0.000
 01629,0.00001396,-0.00001387,0.00001158,0.00000977,-0.00001443,0.12653
 780,0.16000446,-0.00002683,0.00000664,0.00000631,0.00001066,-0.0000003
 1,0.00000707,0.00000708,-0.00000106,-0.00001695,-0.00001264,0.00000284
 ,0.00001283,0.00001218,-0.00000792,0.00000421,0.00000121,0.00000898,0.
 00002466,-0.00000937,-0.00000242,0.00004458,0.00000675,-0.00001360,-0.
 00000527,0.00002347,0.00000637,0.00002266,-0.00000351,-0.00002552,0.00
 001215,-0.00000082,-0.00000511,0.00000063,-0.00000100,0.00000054,0.000
 00105,-0.00000008,0.00000513,-0.00000533,-0.00000317,-0.00000925,0.000
 00032,0.00000541,0.00000406,-0.00001058,-0.00001044,0.00000983,-0.0000
 1481,-0.00000575,0.00000114,-0.00001507,0.00002388,-0.00001419,-0.0000
 2054,-0.00004492,-0.00004084,0.00005941,0.00000770,-0.00001253,0.00000
 191,-0.00000303,-0.00000304,0.00000131,0.00003573,0.00000633,-0.000010
 48,0.00000489,0.00000895,-0.00000833,0.00001602,0.00001505,-0.00000831
 ,-0.00004637,0.00000980,-0.00000504,0.00002646,-0.00001650,-0.00000088
 ,0.00000501,-0.00001007,0.00000553,-0.00000248,0.00000365,-0.00000084,
 -0.00000616,0.00000145,-0.00000042,-0.00002002,-0.00001955,0.00001165,
 -0.00001939,0.00000970,0.00000543,0.00000391,0.00000077,0.00000064,0.0
 0000167,0.00000225,-0.00000126,-0.00000488,-0.00000543,-0.00000069,0.0
 0000100,-0.00000006,0.00000017,-0.00000031,-0.00000014,-0.00000059,0.0
 0000005,0.00000036,-0.00000007,0.00000033,-0.00000060,0.00000051,0.000
 00087,0.00000044,-0.00000019,-0.00000050,0.00000041,-0.00000003,-0.000
 00093,-0.00000001,-0.00000109,0.00000068,-0.00000049,0.00000044,0.0000
 0059,-0.00000082,0.00000043,-0.00000004,0.00000018,-0.00000050,0.00000
 007,-0.00000086,0.00000043,0.00000030,0.00000024,-0.00000004,0.,-0.000
 00049,0.00000086,0.00000013,0.00000037,-0.00000044,-0.00000061,0.00000
 060,0.,0.00000035,-0.00000090,0.00000025,-0.00000054,0.00000011,0.0000
 0130,-0.00000015,0.00000070,-0.00000055,-0.00000008,-0.00000117,-0.000
 00080,0.00000006,-0.00000034,0.00000050,-0.00000106,0.00000020,0.00000
 027,-0.00000028,-0.00000027,-0.00000014,0.00000027,0.,0.00000003,0.000
 00010,0.00000024,-0.00000016,-0.00000008,-0.00000004,0.00000023,0.0000
 0014,-0.00000031,-0.00000035,-0.00000033,-0.00000016,0.00000017,-0.000
 00005,0.00000027,-0.00000023,-0.00000010,-0.00000042,0.00000060,0.,0.0
 0000019,-0.00000021,-0.00000027,-0.00000039,0.00000024,0.00000008,0.00
 000025,-0.00000009,0.00000369,-0.00000157,0.00000095,0.00000090,-0.000
 00111,-0.00000147,0.00000090,0.00000203,0.00000161,-0.00000073,-0.0000
 0049,0.00000068,0.00000405,0.00000316,-0.00000208,-0.00001190,-0.00000
 260,0.00000004,0.00000068,0.00000545,0.00000453,0.00000410,-0.00000535
 ,-0.00000214,0.00000935,0.00001671,0.00000495,-0.00001464,-0.00000977,
 -0.00000652,0.00000115,-0.00000323,-0.00000614,0.00000542,-0.00000756,
 0.00000399,0.00000393,0.00000519,0.00000091,0.00000006,-0.00000094,-0.
 00000202,-0.00000116,0.00000273,0.00000059,0.00000097,-0.00000179,0.00
 000212,0.00000011,0.00000361,-0.00000212,-0.00130099,0.00260952,-0.004
 36380,0.00111148,-0.00035151,0.00068676,0.01769618,0.01586616,0.008031
 94,-0.00052221,-0.00099423,0.00082270,-0.00006165,-0.00103907,0.001007
 46,0.00012093,0.00009909,0.00002929,-0.00021152,-0.00006372,-0.0001066
 7,-0.00005816,0.00003361,0.00003848,0.00070608,0.00049240,0.00089888,-
 0.00012797,-0.00007548,0.00026873,-0.00000386,-0.00005569,-0.00002672,
 -0.00001002,0.00000916,0.00002223,0.00010934,0.00012443,0.00009052,-0.
 06908309,-0.06232396,-0.08359665,-0.00222710,-0.00329194,-0.00287783,-
 0.02059840,-0.01563082,-0.00886003,-0.00003716,-0.00001539,0.00002287,
 0.00000771,0.00000381,-0.00000453,0.00001456,0.00000861,-0.00000145,0.
 00000999,0.00000230,-0.00001524,-0.00000446,-0.00000123,0.00000449,0.0
 7449259,0.06467619,0.08783220\\0.00000355,-0.00000200,-0.00000275,0.00
 000085,-0.00000297,-0.00000710,-0.00000172,0.00000210,0.00000748,-0.00
 000098,0.00000037,-0.00000065,0.00000102,-0.00000009,0.00000367,0.0000
 0083,0.00000067,-0.00000117,-0.00000591,0.00000433,0.00000360,0.000008
 69,0.00000312,-0.00000085,-0.00000681,-0.00000038,-0.00000381,-0.00000
 089,0.00000119,-0.00000181,-0.00000048,0.00000005,0.00000212,-0.000000
 83,-0.00000052,-0.00000098,0.00000067,0.00000037,-0.00000262,-0.000000
 95,-0.00000040,-0.00000204,0.00000124,0.00000011,-0.00000215,0.0000010
 1,0.00000125,0.00000006,-0.00000425,0.00000226,0.00000212,0.00000441,0
 .00000188,-0.00000270,0.00000091,-0.00000131,0.00000137,-0.00000327,0.
 00000241,-0.00000023,0.00000373,0.00000358,-0.00000324,-0.00000209,-0.
 00000032,-0.00000186,-0.00000389,-0.00000048,0.00000414,-0.00000111,-0
 .00000124,0.00000040,0.00000290,-0.00000074,0.00000383,0.00000050,-0.0
 0000092,-0.00000358,-0.00000196,0.00000441,0.00000106,-0.00000208,-0.0
 0000393,0.00000351,0.00000426,-0.00000407,-0.00000137,0.00000333,-0.00
 000554,0.00000052,0.00000434,-0.00000196,0.00000167,-0.00000234,-0.000
 00258,0.00000256,0.00000299,0.00000354,-0.00000094,-0.00000182,-0.0000
 0303,-0.00000026,-0.00000315,0.00000377,-0.00000054,0.00000001,-0.0000
 0012,0.00000011,-0.00000317,-0.00000066,0.00000179,0.00000238,-0.00000
 203,0.00000334,-0.00000490,0.00000085,0.00000807,0.00000062,-0.0000002
 7,-0.00000024,-0.00000016,-0.00000155,-0.00000370,0.00000106,-0.000000
 83,0.00000138,-0.00000140,0.00000666,0.00000354,0.00000024,-0.00000142
 ,-0.00000222,0.00000009,-0.00000190,0.00000117,-0.00000240,-0.00000029
 ,-0.00000020,-0.00000124,0.00000111,-0.00000152,-0.00000181,0.00000073
 ,0.00000300,0.00000033,0.00000011,-0.00000043,-0.00000109,-0.00000058,
 0.00000069,-0.00000139,0.00000164,-0.00000623,0.00000030,0.00000023,0.
 00000011,0.00000008,-0.00000036,0.00000076,-0.00000104,0.00000296,0.00
 000247,-0.00000234,0.00000132,0.00000032,0.00000043,0.00000245,0.00000
 009,-0.00000043,0.00000045,-0.00000058,-0.00000049,0.00000079,-0.00000
 026,-0.00000525,0.00000670,-0.00000083,0.00000157,-0.00000275,0.000001
 55,-0.00000126,-0.00000053,0.00000042,0.00000156,-0.00000167,-0.000001
 92,-0.00000050,0.00000365,0.00000298,0.00000034,-0.00000030,-0.0000011
 3,-0.00000153,-0.00000018,0.00000089,-0.00000147,-0.00000016,-0.000000
 53,0.00000885,-0.00000604,0.00000386,-0.00000253,0.00000092,0.00000266
 ,-0.00000477,-0.00000147,-0.00000224,-0.00000062,0.00000157,-0.0000021
 1,0.00000345,0.00000076,0.00000323,0.00000171,-0.00000212,-0.00000122,
 -0.00000181,-0.00000193,-0.00000235,-0.00000027,-0.00000070,0.00000090
 ,-0.00000453,-0.00000100,-0.00000036,0.00000238,-0.00000141,-0.0000007
 9,0.00000133,-0.00000063,-0.00000075,0.00000270,-0.00000110,0.00000184
 ,-0.00000508,-0.00000491,0.00000095,0.00000148,-0.00000094,-0.00000074
 ,0.00000096,0.00000237,0.00000022,0.00000185,0.00000032,0.00000290,0.0
 0000006,0.00000029,0.00000056,-0.00001054,-0.00000100,-0.00000206,0.00
 001284,-0.00000106,-0.00000519,0.00000055,-0.00000465,0.00000032,-0.00
 000070,0.00000093,-0.00000089,0.00000013,0.00000074,0.00000029,0.00000
 151,-0.00000473,-0.00000728,0.00000217,0.00000225,0.00000026,0.0000013
 5,0.00000005,0.00000166,-0.00000221,0.00000579,0.00000345,0.00000145,0
 .00000622,-0.00000157,0.00000124,-0.00000009,-0.00000169,0.00000074,-0
 .00000245,-0.00000074,0.00000017,-0.00000090,0.00000101,0.00000148,0.0
 0000657,-0.00000816,0.00000482,-0.00000277,0.00000046,0.00000007,0.000
 00023,0.00000127,0.00000460,-0.00000512,0.00000431,-0.00000044,0.00000
 377,0.00000138,-0.00000142,-0.00000321,0.00000114,0.00000057,-0.000002
 37,-0.00000313,-0.00000170,0.00000107,-0.00000046,0.00000034,-0.000000
 27,-0.00000129\\\@
 The archive entry for this job was punched.


 NO HUMAN INVESTIGATION CAN BECOME REAL SCIENCE
 WITHOUT GOING THROUGH MATHEMATICAL PEOPLE.
 -- LEONARDO DA VINCI, IN "PENSIERI" CA. 1492
 Job cpu time:       1 days 20 hours 21 minutes 27.0 seconds.
 Elapsed time:       0 days  2 hours 49 minutes 45.1 seconds.
 File lengths (MBytes):  RWF=   8253 Int=      0 D2E=      0 Chk=     49 Scr=      1
 Normal termination of Gaussian 16 at Sat Dec  7 21:43:06 2024.
