/mnt/lustre/scratch/nvme/SLURM/9663784/usccqdma.vhxNFma50S
OMP_STACKSIZE=0m
GAUSS_PDEF=16
GAUSS_MDEF=65536MB
GAUSS_RDEF=SCF=Direct
 Entering Gaussian System, Link 0=g16.exe
 Initial command:
 /opt/cesga/2020/software/Core/g16/c1/l1.exe "/mnt/lustre/scratch/nvme/SLURM/9663784/usccqdma.vhxNFma50S/Gau-3121985.inp" -scrdir="/mnt/lustre/scratch/nvme/SLURM/9663784/usccqdma.vhxNFma50S/"
 Default is to use a total of  16 processors:
                               16 via shared-memory
                                1 via Linda
 Entering Link 1 = /opt/cesga/2020/software/Core/g16/c1/l1.exe PID=   3122011.
  
 Copyright (c) 1988-2019, Gaussian, Inc.  All Rights Reserved.
  
 This is part of the Gaussian(R) 16 program.  It is based on
 the Gaussian(R) 09 system (copyright 2009, Gaussian, Inc.),
 the Gaussian(R) 03 system (copyright 2003, Gaussian, Inc.),
 the Gaussian(R) 98 system (copyright 1998, Gaussian, Inc.),
 the Gaussian(R) 94 system (copyright 1995, Gaussian, Inc.),
 the Gaussian 92(TM) system (copyright 1992, Gaussian, Inc.),
 the Gaussian 90(TM) system (copyright 1990, Gaussian, Inc.),
 the Gaussian 88(TM) system (copyright 1988, Gaussian, Inc.),
 the Gaussian 86(TM) system (copyright 1986, Carnegie Mellon
 University), and the Gaussian 82(TM) system (copyright 1983,
 Carnegie Mellon University). Gaussian is a federally registered
 trademark of Gaussian, Inc.
  
 This software contains proprietary and confidential information,
 including trade secrets, belonging to Gaussian, Inc.
  
 This software is provided under written license and may be
 used, copied, transmitted, or stored only in accord with that
 written license.
  
 The following legend is applicable only to US Government
 contracts under FAR:
  
                    RESTRICTED RIGHTS LEGEND
  
 Use, reproduction and disclosure by the US Government is
 subject to restrictions as set forth in subparagraphs (a)
 and (c) of the Commercial Computer Software - Restricted
 Rights clause in FAR 52.227-19.
  
 Gaussian, Inc.
 340 Quinnipiac St., Bldg. 40, Wallingford CT 06492
  
  
 ---------------------------------------------------------------
 Warning -- This program may not be used in any manner that
 competes with the business of Gaussian, Inc. or will provide
 assistance to any competitor of Gaussian, Inc.  The licensee
 of this program is prohibited from giving any competitor of
 Gaussian, Inc. access to this program.  By using this program,
 the user acknowledges that Gaussian, Inc. is engaged in the
 business of creating and licensing software in the field of
 computational chemistry and represents and warrants to the
 licensee that it is not a competitor of Gaussian, Inc. and that
 it will not use this program in any manner prohibited above.
 ---------------------------------------------------------------
  

 Cite this work as:
 Gaussian 16, Revision C.01,
 M. J. Frisch, G. W. Trucks, H. B. Schlegel, G. E. Scuseria, 
 M. A. Robb, J. R. Cheeseman, G. Scalmani, V. Barone, 
 G. A. Petersson, H. Nakatsuji, X. Li, M. Caricato, A. V. Marenich, 
 J. Bloino, B. G. Janesko, R. Gomperts, B. Mennucci, H. P. Hratchian, 
 J. V. Ortiz, A. F. Izmaylov, J. L. Sonnenberg, D. Williams-Young, 
 F. Ding, F. Lipparini, F. Egidi, J. Goings, B. Peng, A. Petrone, 
 T. Henderson, D. Ranasinghe, V. G. Zakrzewski, J. Gao, N. Rega, 
 G. Zheng, W. Liang, M. Hada, M. Ehara, K. Toyota, R. Fukuda, 
 J. Hasegawa, M. Ishida, T. Nakajima, Y. Honda, O. Kitao, H. Nakai, 
 T. Vreven, K. Throssell, J. A. Montgomery, Jr., J. E. Peralta, 
 F. Ogliaro, M. J. Bearpark, J. J. Heyd, E. N. Brothers, K. N. Kudin, 
 V. N. Staroverov, T. A. Keith, R. Kobayashi, J. Normand, 
 K. Raghavachari, A. P. Rendell, J. C. Burant, S. S. Iyengar, 
 J. Tomasi, M. Cossi, J. M. Millam, M. Klene, C. Adamo, R. Cammi, 
 J. W. Ochterski, R. L. Martin, K. Morokuma, O. Farkas, 
 J. B. Foresman, and D. J. Fox, Gaussian, Inc., Wallingford CT, 2019.
 
 ******************************************
 Gaussian 16:  ES64L-G16RevC.01  3-Jul-2019
                 7-Dec-2024 
 ******************************************
 Default route: SCF=Direct
 ----------------------------------------------------
 # m06/genecp scf=tight int=ultrafine 5d freq=noraman
 ----------------------------------------------------
 1/10=4,30=1,38=1/1,3;
 2/12=2,17=6,18=5,40=1/2;
 3/5=7,8=1,11=2,16=1,17=8,25=1,30=1,71=2,74=-54,75=-5,140=1/1,2,3;
 4//1;
 5/5=2,32=2,38=5,98=1/2;
 8/6=4,10=90,11=11/1;
 11/6=1,8=1,9=11,15=111,16=1/1,2,10;
 10/6=1/2;
 6/7=2,8=2,9=2,10=2,28=1/1;
 7/8=1,10=1,25=1/1,2,3,16;
 1/10=4,30=1/3;
 99//99;
 ------
 OPT-TS
 ------
 Symbolic Z-matrix:
 Charge =  0 Multiplicity = 1
 C                    -2.88663  -0.3031    3.57996 
 C                    -1.49022  -0.2852    3.60274 
 C                    -0.78915  -0.16833   2.41166 
 C                    -1.49769  -0.06995   1.20548 
 C                    -5.07378   0.03325   0.02607 
 C                    -5.6999    0.16733  -1.20208 
 C                    -4.93129   0.30584  -2.35765 
 C                    -3.55188   0.30271  -2.2297 
 H                    -2.89799   0.40776  -3.09521 
 C                    -3.68097   0.03901   0.07652 
 C                    -2.90789  -0.08842   1.3129 
 C                     2.49595  -2.51153  -0.93131 
 C                     2.16536  -2.69468   0.57849 
 C                     1.85908  -3.57576  -1.81502 
 H                     0.78968  -3.6868   -1.59249 
 H                     2.34532  -4.55319  -1.69636 
 H                     1.95629  -3.26745  -2.86348 
 C                     3.97146  -2.3896   -1.2525 
 H                     4.10371  -2.22413  -2.32945 
 H                     4.50536  -3.31182  -0.98135 
 H                     4.43838  -1.55135  -0.72278 
 C                     2.03107  -4.13545   1.02859 
 H                     1.79262  -4.16709   2.09913 
 H                     2.97257  -4.68215   0.87404 
 H                     1.23038  -4.65538   0.49173 
 C                     3.12165  -1.94878   1.49996 
 H                     3.21404  -0.89538   1.20412 
 H                     4.11807  -2.41048   1.52215 
 H                     2.71008  -1.96795   2.5175 
 B                     0.79857  -1.11562  -0.32641 
 N                    -3.58937  -0.20361   2.45986 
 N                    -2.94253   0.17207  -1.04643 
 O                     1.8435   -1.26541  -1.2358 
 O                     0.88836  -2.04782   0.69152 
 Ir                   -0.76415   0.12276  -0.60715 
 B                     0.9149    1.14318  -0.15002 
 O                     1.37692   2.0249   -1.11673 
 O                     1.68239   1.2181    1.00285 
 C                     2.63842   2.54758  -0.66336 
 C                     2.52388   2.38048   0.88044 
 C                     3.72961   1.68578  -1.28206 
 C                     2.77857   3.97983  -1.13777 
 C                     3.83501   2.11904   1.59291 
 C                     1.78752   3.5308    1.55393 
 H                     3.63577   0.64064  -0.96141 
 H                     4.73371   2.0553   -1.03335 
 H                     3.61407   1.70413  -2.37285 
 H                     2.84892   4.00039  -2.23262 
 H                     3.69202   4.4376   -0.73118 
 H                     1.91879   4.59178  -0.84462 
 H                     3.65253   1.98295   2.66661 
 H                     4.51989   2.97024   1.46991 
 H                     4.33265   1.21769   1.2174 
 H                     0.83751   3.74456   1.04717 
 H                     2.39033   4.44844   1.57302 
 H                     1.55946   3.24596   2.58857 
 H                    -3.45616  -0.39808   4.50634 
 H                     0.29802  -0.14831   2.405 
 H                    -5.62126  -0.07628   0.95866 
 H                    -6.78689   0.16513  -1.26422 
 H                    -5.38966   0.41419  -3.33695 
 H                    -0.96081  -0.3634    4.55128 
 

 GradGradGradGradGradGradGradGradGradGradGradGradGradGradGradGradGradGrad
 Berny optimization.
 Initialization pass.
 Trust Radius=3.00D-01 FncErr=1.00D-07 GrdErr=1.00D-07 EigMax=2.50D+02 EigMin=1.00D-04
 Number of steps in this run=      2 maximum allowed number of steps=      2.
 GradGradGradGradGradGradGradGradGradGradGradGradGradGradGradGradGradGrad

 Stoichiometry    C22H31B2IrN2O4
 Framework group  C1[X(C22H31B2IrN2O4)]
 Deg. of freedom   180
 Full point group                 C1      NOp   1
 Largest Abelian subgroup         C1      NOp   1
 Largest concise Abelian subgroup C1      NOp   1
                         Standard orientation:                         
 ---------------------------------------------------------------------
 Center     Atomic      Atomic             Coordinates (Angstroms)
 Number     Number       Type             X           Y           Z
 ---------------------------------------------------------------------
      1          6           0        2.886631    0.303099    3.579962
      2          6           0        1.490221    0.285200    3.602742
      3          6           0        0.789151    0.168331    2.411662
      4          6           0        1.497691    0.069950    1.205482
      5          6           0        5.073781   -0.033252    0.026072
      6          6           0        5.699901   -0.167332   -1.202078
      7          6           0        4.931291   -0.305842   -2.357648
      8          6           0        3.551881   -0.302711   -2.229698
      9          1           0        2.897991   -0.407761   -3.095208
     10          6           0        3.680971   -0.039011    0.076522
     11          6           0        2.907891    0.088419    1.312902
     12          6           0       -2.495947    2.511533   -0.931308
     13          6           0       -2.165357    2.694682    0.578492
     14          6           0       -1.859077    3.575762   -1.815018
     15          1           0       -0.789677    3.686802   -1.592488
     16          1           0       -2.345316    4.553192   -1.696358
     17          1           0       -1.956287    3.267452   -2.863478
     18          6           0       -3.971457    2.389603   -1.252498
     19          1           0       -4.103708    2.224133   -2.329448
     20          1           0       -4.505357    3.311824   -0.981348
     21          1           0       -4.438378    1.551354   -0.722778
     22          6           0       -2.031066    4.135452    1.028592
     23          1           0       -1.792616    4.167092    2.099132
     24          1           0       -2.972566    4.682153    0.874042
     25          1           0       -1.230376    4.655382    0.491732
     26          6           0       -3.121648    1.948783    1.499962
     27          1           0       -3.214038    0.895383    1.204122
     28          1           0       -4.118067    2.410483    1.522152
     29          1           0       -2.710078    1.967953    2.517502
     30          5           0       -0.798568    1.115622   -0.326408
     31          7           0        3.589371    0.203609    2.459862
     32          7           0        2.942531   -0.172071   -1.046428
     33          8           0       -1.843498    1.265412   -1.235798
     34          8           0       -0.888358    2.047822    0.691522
     35         77           0        0.764151   -0.122759   -0.607148
     36          5           0       -0.914900   -1.143178   -0.150018
     37          8           0       -1.376920   -2.024898   -1.116728
     38          8           0       -1.682390   -1.218098    1.002852
     39          6           0       -2.638420   -2.547577   -0.663358
     40          6           0       -2.523880   -2.380477    0.880442
     41          6           0       -3.729610   -1.685777   -1.282058
     42          6           0       -2.778571   -3.979827   -1.137768
     43          6           0       -3.835010   -2.119037    1.592912
     44          6           0       -1.787521   -3.530798    1.553932
     45          1           0       -3.635769   -0.640637   -0.961408
     46          1           0       -4.733710   -2.055296   -1.033348
     47          1           0       -3.614070   -1.704127   -2.372848
     48          1           0       -2.848921   -4.000387   -2.232618
     49          1           0       -3.692021   -4.437597   -0.731178
     50          1           0       -1.918792   -4.591778   -0.844618
     51          1           0       -3.652530   -1.982947    2.666612
     52          1           0       -4.519891   -2.970236    1.469912
     53          1           0       -4.332650   -1.217686    1.217402
     54          1           0       -0.837511   -3.744558    1.047172
     55          1           0       -2.390331   -4.448438    1.573022
     56          1           0       -1.559461   -3.245958    2.588572
     57          1           0        3.456161    0.398079    4.506342
     58          1           0       -0.298019    0.148311    2.405002
     59          1           0        5.621261    0.076278    0.958662
     60          1           0        6.786891   -0.165133   -1.264218
     61          1           0        5.389661   -0.414192   -3.336948
     62          1           0        0.960811    0.363401    4.551282
 ---------------------------------------------------------------------
 Rotational constants (GHZ):           0.1771484           0.1044362           0.0942199
 General basis read from cards:  (5D, 7F)
 ======================================================================================================
                                       Pseudopotential Parameters
 ======================================================================================================
  Center     Atomic      Valence      Angular      Power
  Number     Number     Electrons     Momentum     of R      Exponent        Coefficient   SO-Coeffient
 ======================================================================================================
    1          6
                                   No pseudopotential on this center.
    2          6
                                   No pseudopotential on this center.
    3          6
                                   No pseudopotential on this center.
    4          6
                                   No pseudopotential on this center.
    5          6
                                   No pseudopotential on this center.
    6          6
                                   No pseudopotential on this center.
    7          6
                                   No pseudopotential on this center.
    8          6
                                   No pseudopotential on this center.
    9          1
                                   No pseudopotential on this center.
   10          6
                                   No pseudopotential on this center.
   11          6
                                   No pseudopotential on this center.
   12          6
                                   No pseudopotential on this center.
   13          6
                                   No pseudopotential on this center.
   14          6
                                   No pseudopotential on this center.
   15          1
                                   No pseudopotential on this center.
   16          1
                                   No pseudopotential on this center.
   17          1
                                   No pseudopotential on this center.
   18          6
                                   No pseudopotential on this center.
   19          1
                                   No pseudopotential on this center.
   20          1
                                   No pseudopotential on this center.
   21          1
                                   No pseudopotential on this center.
   22          6
                                   No pseudopotential on this center.
   23          1
                                   No pseudopotential on this center.
   24          1
                                   No pseudopotential on this center.
   25          1
                                   No pseudopotential on this center.
   26          6
                                   No pseudopotential on this center.
   27          1
                                   No pseudopotential on this center.
   28          1
                                   No pseudopotential on this center.
   29          1
                                   No pseudopotential on this center.
   30          5
                                   No pseudopotential on this center.
   31          7
                                   No pseudopotential on this center.
   32          7
                                   No pseudopotential on this center.
   33          8
                                   No pseudopotential on this center.
   34          8
                                   No pseudopotential on this center.
   35         77           17
                                      G and up 
                                                     1      823.5880147       -0.15780140    0.00000000
                                                     2      364.6613336    -1517.52704460    0.00000000
                                                     2       55.7082801     -316.53065290    0.00000000
                                                     2       12.0464544      -91.88809410    0.00000000
                                                     2        3.5120610       -9.22417730    0.00000000
                                      S - G
                                                     0      188.0490770        3.15780140    0.00000000
                                                     1      340.4194712       26.83225770    0.00000000
                                                     2      128.2373673      800.42500070    0.00000000
                                                     2       33.8644961      369.40506830    0.00000000
                                                     2        4.7560005      242.41718990    0.00000000
                                                     2        3.9649974     -118.21732820    0.00000000
                                      P - G
                                                     0      289.7291139        2.15780140    0.00000000
                                                     1       87.4633789       61.96786100    0.00000000
                                                     2       30.4363766      269.05819860    0.00000000
                                                     2        4.0553412      231.16547930    0.00000000
                                                     2        3.5525341     -133.69526670    0.00000000
                                      D - G
                                                     0      136.4017106        3.15780140    0.00000000
                                                     1       95.0776925       45.93498030    0.00000000
                                                     2       49.2258410      359.03446680    0.00000000
                                                     2       15.0874145      176.47401190    0.00000000
                                                     2        4.0405764       54.51552860    0.00000000
                                      F - G
                                                     0      127.3507908        3.95461970    0.00000000
                                                     1       66.2364374       52.97736550    0.00000000
                                                     2       34.4299229      274.86433830    0.00000000
                                                     2       10.1995721      137.20473380    0.00000000
                                                     2        2.5409702       14.86333050    0.00000000
   36          5
                                   No pseudopotential on this center.
   37          8
                                   No pseudopotential on this center.
   38          8
                                   No pseudopotential on this center.
   39          6
                                   No pseudopotential on this center.
   40          6
                                   No pseudopotential on this center.
   41          6
                                   No pseudopotential on this center.
   42          6
                                   No pseudopotential on this center.
   43          6
                                   No pseudopotential on this center.
   44          6
                                   No pseudopotential on this center.
   45          1
                                   No pseudopotential on this center.
   46          1
                                   No pseudopotential on this center.
   47          1
                                   No pseudopotential on this center.
   48          1
                                   No pseudopotential on this center.
   49          1
                                   No pseudopotential on this center.
   50          1
                                   No pseudopotential on this center.
   51          1
                                   No pseudopotential on this center.
   52          1
                                   No pseudopotential on this center.
   53          1
                                   No pseudopotential on this center.
   54          1
                                   No pseudopotential on this center.
   55          1
                                   No pseudopotential on this center.
   56          1
                                   No pseudopotential on this center.
   57          1
                                   No pseudopotential on this center.
   58          1
                                   No pseudopotential on this center.
   59          1
                                   No pseudopotential on this center.
   60          1
                                   No pseudopotential on this center.
   61          1
                                   No pseudopotential on this center.
   62          1
                                   No pseudopotential on this center.
 ======================================================================================================
 There are   536 symmetry adapted cartesian basis functions of A   symmetry.
 There are   504 symmetry adapted basis functions of A   symmetry.
   504 basis functions,  1007 primitive gaussians,   536 cartesian basis functions
   118 alpha electrons      118 beta electrons
       nuclear repulsion energy      3538.2558907832 Hartrees.
 NAtoms=   62 NActive=   62 NUniq=   62 SFac= 1.00D+00 NAtFMM=   60 NAOKFM=T Big=T
 Integral buffers will be    131072 words long.
 Raffenetti 2 integral format.
 Two-electron integral symmetry is turned on.
 One-electron integrals computed using PRISM.
   1 Symmetry operations used in ECPInt.
 ECPInt:  NShTT=   18145 NPrTT=  111329 LenC2=   15044 LenP2D=   51115.
 LDataN:  DoStor=T MaxTD1= 6 Len=  172
 NBasis=   504 RedAO= T EigKep=  5.85D-04  NBF=   504
 NBsUse=   504 1.00D-06 EigRej= -1.00D+00 NBFU=   504
 Defaulting to unpruned grid for atomic number  77.
 ExpMin= 2.90D-02 ExpMax= 5.48D+03 ExpMxC= 8.25D+02 IAcc=3 IRadAn=         5 AccDes= 0.00D+00
 Harris functional with IExCor= 1009 and IRadAn=       5 diagonalized for initial guess.
 HarFok:  IExCor= 1009 AccDes= 0.00D+00 IRadAn=         5 IDoV= 1 UseB2=F ITyADJ=14
 ICtDFT=  3500011 ScaDFX=  1.000000  1.000000  1.000000  1.000000
 Defaulting to unpruned grid for atomic number  77.
 FoFCou: FMM=F IPFlag=           0 FMFlag=      100000 FMFlg1=        2001
         NFxFlg=           0 DoJE=T BraDBF=F KetDBF=T FulRan=T
         wScrn=  0.000000 ICntrl=       500 IOpCl=  0 I1Cent=   200000004 NGrid=           0
         NMat0=    1 NMatS0=      1 NMatT0=    0 NMatD0=    1 NMtDS0=    0 NMtDT0=    0
 Petite list used in FoFCou.
 Requested convergence on RMS density matrix=1.00D-08 within 128 cycles.
 Requested convergence on MAX density matrix=1.00D-06.
 Requested convergence on             energy=1.00D-06.
 No special actions if energy rises.
 Defaulting to unpruned grid for atomic number  77.
 Defaulting to unpruned grid for atomic number  77.
 Defaulting to unpruned grid for atomic number  77.
 Defaulting to unpruned grid for atomic number  77.
 Defaulting to unpruned grid for atomic number  77.
 Defaulting to unpruned grid for atomic number  77.
 Defaulting to unpruned grid for atomic number  77.
 Defaulting to unpruned grid for atomic number  77.
 Defaulting to unpruned grid for atomic number  77.
 Defaulting to unpruned grid for atomic number  77.
 Defaulting to unpruned grid for atomic number  77.
 Defaulting to unpruned grid for atomic number  77.
 Defaulting to unpruned grid for atomic number  77.
 Defaulting to unpruned grid for atomic number  77.
 Defaulting to unpruned grid for atomic number  77.
 Defaulting to unpruned grid for atomic number  77.
 SCF Done:  E(RM06) =  -1421.13122597     A.U. after   16 cycles
            NFock= 16  Conv=0.95D-08     -V/T= 2.0596
 DoSCS=F DFT=T ScalE2(SS,OS)=  1.000000  1.000000
 Range of M.O.s used for correlation:     1   504
 NBasis=   504 NAE=   118 NBE=   118 NFC=     0 NFV=     0
 NROrb=    504 NOA=   118 NOB=   118 NVA=   386 NVB=   386
   1 Symmetry operations used in ECPInt.
 ECPInt:  NShTT=   18145 NPrTT=  111329 LenC2=   15044 LenP2D=   51115.
 LDataN:  DoStor=T MaxTD1= 7 Len=  274
 Symmetrizing basis deriv contribution to polar:
 IMax=3 JMax=2 DiffMx= 0.00D+00
 G2DrvN: will do    63 centers at a time, making    1 passes.
 Calling FoFCou, ICntrl=  3107 FMM=T I1Cent=   0 AccDes= 0.00D+00.
 Defaulting to unpruned grid for atomic number  77.
 Defaulting to unpruned grid for atomic number  77.
 Defaulting to unpruned grid for atomic number  77.
 Defaulting to unpruned grid for atomic number  77.
 Defaulting to unpruned grid for atomic number  77.
 Defaulting to unpruned grid for atomic number  77.
 Defaulting to unpruned grid for atomic number  77.
 Defaulting to unpruned grid for atomic number  77.
 Defaulting to unpruned grid for atomic number  77.
 Defaulting to unpruned grid for atomic number  77.
 Defaulting to unpruned grid for atomic number  77.
 Defaulting to unpruned grid for atomic number  77.
 Defaulting to unpruned grid for atomic number  77.
 Defaulting to unpruned grid for atomic number  77.
 Defaulting to unpruned grid for atomic number  77.
 Defaulting to unpruned grid for atomic number  77.
 End of G2Drv F.D. properties file   721 does not exist.
 End of G2Drv F.D. properties file   722 does not exist.
 End of G2Drv F.D. properties file   788 does not exist.
          IDoAtm=11111111111111111111111111111111111111111111111111
          IDoAtm=111111111111
          Differentiating once with respect to electric field.
                with respect to dipole field.
          Differentiating once with respect to nuclear coordinates.
 Defaulting to unpruned grid for atomic number  77.
 CalDSu exits because no D1Ps are significant.
 Defaulting to unpruned grid for atomic number  77.
 Defaulting to unpruned grid for atomic number  77.
 Defaulting to unpruned grid for atomic number  77.
 Defaulting to unpruned grid for atomic number  77.
 Defaulting to unpruned grid for atomic number  77.
 Defaulting to unpruned grid for atomic number  77.
 Defaulting to unpruned grid for atomic number  77.
 Defaulting to unpruned grid for atomic number  77.
 Defaulting to unpruned grid for atomic number  77.
 Defaulting to unpruned grid for atomic number  77.
 Defaulting to unpruned grid for atomic number  77.
 Defaulting to unpruned grid for atomic number  77.
 Defaulting to unpruned grid for atomic number  77.
 Defaulting to unpruned grid for atomic number  77.
 Defaulting to unpruned grid for atomic number  77.
 Defaulting to unpruned grid for atomic number  77.
          There are   189 degrees of freedom in the 1st order CPHF.  IDoFFX=6 NUNeed=     3.
    186 vectors produced by pass  0 Test12= 4.55D-14 1.00D-09 XBig12= 4.04D+02 8.98D+00.
 AX will form    72 AO Fock derivatives at one time.
    186 vectors produced by pass  1 Test12= 4.55D-14 1.00D-09 XBig12= 1.18D+02 1.99D+00.
    186 vectors produced by pass  2 Test12= 4.55D-14 1.00D-09 XBig12= 3.47D+00 3.03D-01.
    186 vectors produced by pass  3 Test12= 4.55D-14 1.00D-09 XBig12= 2.66D-02 2.34D-02.
    186 vectors produced by pass  4 Test12= 4.55D-14 1.00D-09 XBig12= 8.93D-05 7.85D-04.
    175 vectors produced by pass  5 Test12= 4.55D-14 1.00D-09 XBig12= 1.89D-07 3.06D-05.
     59 vectors produced by pass  6 Test12= 4.55D-14 1.00D-09 XBig12= 2.93D-10 1.78D-06.
      3 vectors produced by pass  7 Test12= 4.55D-14 1.00D-09 XBig12= 4.49D-13 5.66D-08.
      2 vectors produced by pass  8 Test12= 4.55D-14 1.00D-09 XBig12= 7.45D-16 2.80D-09.
 InvSVY:  IOpt=1 It=  1 EMax= 1.65D-14
 Solved reduced A of dimension  1169 with   189 vectors.
 Isotropic polarizability for W=    0.000000      324.96 Bohr**3.
 End of Minotr F.D. properties file   721 does not exist.
 End of Minotr F.D. properties file   722 does not exist.
 End of Minotr F.D. properties file   788 does not exist.

 **********************************************************************

            Population analysis using the SCF Density.

 **********************************************************************

 Orbital symmetries:
       Occupied  (A) (A) (A) (A) (A) (A) (A) (A) (A) (A) (A) (A)
                 (A) (A) (A) (A) (A) (A) (A) (A) (A) (A) (A) (A)
                 (A) (A) (A) (A) (A) (A) (A) (A) (A) (A) (A) (A)
                 (A) (A) (A) (A) (A) (A) (A) (A) (A) (A) (A) (A)
                 (A) (A) (A) (A) (A) (A) (A) (A) (A) (A) (A) (A)
                 (A) (A) (A) (A) (A) (A) (A) (A) (A) (A) (A) (A)
                 (A) (A) (A) (A) (A) (A) (A) (A) (A) (A) (A) (A)
                 (A) (A) (A) (A) (A) (A) (A) (A) (A) (A) (A) (A)
                 (A) (A) (A) (A) (A) (A) (A) (A) (A) (A) (A) (A)
                 (A) (A) (A) (A) (A) (A) (A) (A) (A) (A)
       Virtual   (A) (A) (A) (A) (A) (A) (A) (A) (A) (A) (A) (A)
                 (A) (A) (A) (A) (A) (A) (A) (A) (A) (A) (A) (A)
                 (A) (A) (A) (A) (A) (A) (A) (A) (A) (A) (A) (A)
                 (A) (A) (A) (A) (A) (A) (A) (A) (A) (A) (A) (A)
                 (A) (A) (A) (A) (A) (A) (A) (A) (A) (A) (A) (A)
                 (A) (A) (A) (A) (A) (A) (A) (A) (A) (A) (A) (A)
                 (A) (A) (A) (A) (A) (A) (A) (A) (A) (A) (A) (A)
                 (A) (A) (A) (A) (A) (A) (A) (A) (A) (A) (A) (A)
                 (A) (A) (A) (A) (A) (A) (A) (A) (A) (A) (A) (A)
                 (A) (A) (A) (A) (A) (A) (A) (A) (A) (A) (A) (A)
                 (A) (A) (A) (A) (A) (A) (A) (A) (A) (A) (A) (A)
                 (A) (A) (A) (A) (A) (A) (A) (A) (A) (A) (A) (A)
                 (A) (A) (A) (A) (A) (A) (A) (A) (A) (A) (A) (A)
                 (A) (A) (A) (A) (A) (A) (A) (A) (A) (A) (A) (A)
                 (A) (A) (A) (A) (A) (A) (A) (A) (A) (A) (A) (A)
                 (A) (A) (A) (A) (A) (A) (A) (A) (A) (A) (A) (A)
                 (A) (A) (A) (A) (A) (A) (A) (A) (A) (A) (A) (A)
                 (A) (A) (A) (A) (A) (A) (A) (A) (A) (A) (A) (A)
                 (A) (A) (A) (A) (A) (A) (A) (A) (A) (A) (A) (A)
                 (A) (A) (A) (A) (A) (A) (A) (A) (A) (A) (A) (A)
                 (A) (A) (A) (A) (A) (A) (A) (A) (A) (A) (A) (A)
                 (A) (A) (A) (A) (A) (A) (A) (A) (A) (A) (A) (A)
                 (A) (A) (A) (A) (A) (A) (A) (A) (A) (A) (A) (A)
                 (A) (A) (A) (A) (A) (A) (A) (A) (A) (A) (A) (A)
                 (A) (A) (A) (A) (A) (A) (A) (A) (A) (A) (A) (A)
                 (A) (A) (A) (A) (A) (A) (A) (A) (A) (A) (A) (A)
                 (A) (A) (A) (A) (A) (A) (A) (A) (A) (A) (A) (A)
                 (A) (A) (A) (A) (A) (A) (A) (A) (A) (A) (A) (A)
                 (A) (A) (A) (A) (A) (A) (A) (A) (A) (A) (A) (A)
                 (A) (A) (A) (A) (A) (A) (A) (A) (A) (A) (A) (A)
                 (A) (A) (A) (A) (A) (A) (A) (A) (A) (A) (A) (A)
                 (A) (A) (A) (A) (A) (A) (A) (A) (A) (A) (A) (A)
                 (A) (A)
 The electronic state is 1-A.
 Alpha  occ. eigenvalues --  -19.21275 -19.21024 -19.20800 -19.20512 -14.44868
 Alpha  occ. eigenvalues --  -14.39295 -10.31306 -10.31003 -10.29990 -10.29802
 Alpha  occ. eigenvalues --  -10.29768 -10.29608 -10.28876 -10.27622 -10.27538
 Alpha  occ. eigenvalues --  -10.26911 -10.26803 -10.25618 -10.24531 -10.24283
 Alpha  occ. eigenvalues --  -10.23310 -10.23191 -10.23016 -10.22860 -10.22780
 Alpha  occ. eigenvalues --  -10.22748 -10.22353 -10.22294  -6.80709  -6.80670
 Alpha  occ. eigenvalues --   -3.62600  -2.05739  -2.04806  -2.03438  -1.06900
 Alpha  occ. eigenvalues --   -1.06601  -1.00015  -0.99792  -0.99090  -0.94365
 Alpha  occ. eigenvalues --   -0.83668  -0.81195  -0.80947  -0.80719  -0.79391
 Alpha  occ. eigenvalues --   -0.75307  -0.75188  -0.74828  -0.70805  -0.70583
 Alpha  occ. eigenvalues --   -0.68014  -0.67838  -0.67072  -0.66564  -0.62283
 Alpha  occ. eigenvalues --   -0.61662  -0.61289  -0.61018  -0.55637  -0.55168
 Alpha  occ. eigenvalues --   -0.55070  -0.54259  -0.53438  -0.51906  -0.50725
 Alpha  occ. eigenvalues --   -0.48305  -0.47780  -0.47148  -0.47073  -0.46819
 Alpha  occ. eigenvalues --   -0.46566  -0.45330  -0.45057  -0.44955  -0.44679
 Alpha  occ. eigenvalues --   -0.44479  -0.43988  -0.43834  -0.41798  -0.40935
 Alpha  occ. eigenvalues --   -0.40425  -0.40285  -0.40126  -0.40049  -0.39907
 Alpha  occ. eigenvalues --   -0.39743  -0.39638  -0.39244  -0.39134  -0.38000
 Alpha  occ. eigenvalues --   -0.37940  -0.37751  -0.36889  -0.36869  -0.36749
 Alpha  occ. eigenvalues --   -0.36297  -0.36157  -0.35319  -0.35199  -0.34126
 Alpha  occ. eigenvalues --   -0.33867  -0.33044  -0.32674  -0.32478  -0.32128
 Alpha  occ. eigenvalues --   -0.30916  -0.30604  -0.30546  -0.29328  -0.28939
 Alpha  occ. eigenvalues --   -0.28298  -0.26782  -0.26662  -0.26126  -0.25341
 Alpha  occ. eigenvalues --   -0.22781  -0.21717  -0.19790
 Alpha virt. eigenvalues --   -0.06308  -0.03688  -0.03399  -0.01091   0.02195
 Alpha virt. eigenvalues --    0.02380   0.03822   0.04180   0.06042   0.06606
 Alpha virt. eigenvalues --    0.07821   0.09832   0.10098   0.11387   0.11744
 Alpha virt. eigenvalues --    0.12885   0.13403   0.13690   0.13997   0.14501
 Alpha virt. eigenvalues --    0.14847   0.15124   0.15262   0.15617   0.15719
 Alpha virt. eigenvalues --    0.15966   0.16317   0.16594   0.17017   0.17289
 Alpha virt. eigenvalues --    0.17530   0.17736   0.18131   0.18265   0.18703
 Alpha virt. eigenvalues --    0.18912   0.19165   0.19326   0.19936   0.20129
 Alpha virt. eigenvalues --    0.20194   0.20704   0.21441   0.22374   0.22829
 Alpha virt. eigenvalues --    0.23439   0.23710   0.23820   0.24194   0.24623
 Alpha virt. eigenvalues --    0.25189   0.25930   0.26390   0.26691   0.27342
 Alpha virt. eigenvalues --    0.27582   0.27795   0.28071   0.28576   0.29683
 Alpha virt. eigenvalues --    0.29947   0.30344   0.30781   0.31395   0.31875
 Alpha virt. eigenvalues --    0.33398   0.34127   0.34635   0.34823   0.36580
 Alpha virt. eigenvalues --    0.37370   0.38920   0.39796   0.40169   0.41535
 Alpha virt. eigenvalues --    0.46046   0.46843   0.47900   0.49139   0.49744
 Alpha virt. eigenvalues --    0.50612   0.50838   0.51089   0.51641   0.52135
 Alpha virt. eigenvalues --    0.52732   0.53090   0.54531   0.54902   0.55446
 Alpha virt. eigenvalues --    0.55625   0.56311   0.56563   0.57088   0.57792
 Alpha virt. eigenvalues --    0.57876   0.58241   0.58819   0.58853   0.59165
 Alpha virt. eigenvalues --    0.59350   0.59945   0.60305   0.61188   0.61711
 Alpha virt. eigenvalues --    0.61790   0.62376   0.62558   0.62824   0.63390
 Alpha virt. eigenvalues --    0.63888   0.64307   0.64702   0.65608   0.66303
 Alpha virt. eigenvalues --    0.66770   0.67241   0.67582   0.68283   0.68465
 Alpha virt. eigenvalues --    0.69098   0.69606   0.70051   0.70828   0.70953
 Alpha virt. eigenvalues --    0.71997   0.72320   0.72506   0.72787   0.73817
 Alpha virt. eigenvalues --    0.74123   0.74391   0.75545   0.77433   0.77704
 Alpha virt. eigenvalues --    0.78158   0.78353   0.79160   0.80457   0.80894
 Alpha virt. eigenvalues --    0.81217   0.81333   0.82077   0.82846   0.83603
 Alpha virt. eigenvalues --    0.83867   0.84506   0.84868   0.85141   0.85328
 Alpha virt. eigenvalues --    0.85740   0.86143   0.86318   0.86742   0.86947
 Alpha virt. eigenvalues --    0.88081   0.88348   0.88397   0.89117   0.89251
 Alpha virt. eigenvalues --    0.89546   0.90100   0.90344   0.90837   0.91139
 Alpha virt. eigenvalues --    0.91384   0.92295   0.92745   0.92812   0.93454
 Alpha virt. eigenvalues --    0.93630   0.94416   0.94804   0.94991   0.95634
 Alpha virt. eigenvalues --    0.95926   0.96698   0.97066   0.97998   0.98812
 Alpha virt. eigenvalues --    0.99135   1.00408   1.00541   1.01990   1.02701
 Alpha virt. eigenvalues --    1.03458   1.03532   1.04417   1.05415   1.06464
 Alpha virt. eigenvalues --    1.08026   1.08618   1.10117   1.11410   1.12981
 Alpha virt. eigenvalues --    1.14095   1.14593   1.15708   1.16553   1.17065
 Alpha virt. eigenvalues --    1.18048   1.18539   1.20283   1.20891   1.21648
 Alpha virt. eigenvalues --    1.22185   1.23168   1.24635   1.26398   1.26857
 Alpha virt. eigenvalues --    1.27722   1.27863   1.28792   1.29323   1.30196
 Alpha virt. eigenvalues --    1.30786   1.32914   1.35269   1.35515   1.36933
 Alpha virt. eigenvalues --    1.39263   1.40328   1.40531   1.41434   1.42115
 Alpha virt. eigenvalues --    1.42624   1.44724   1.45004   1.45758   1.46328
 Alpha virt. eigenvalues --    1.47286   1.47672   1.49359   1.49847   1.50565
 Alpha virt. eigenvalues --    1.51934   1.52684   1.53516   1.56269   1.56551
 Alpha virt. eigenvalues --    1.57909   1.58836   1.60229   1.63061   1.63819
 Alpha virt. eigenvalues --    1.65028   1.65489   1.66248   1.66779   1.67749
 Alpha virt. eigenvalues --    1.69129   1.69898   1.72292   1.73779   1.74947
 Alpha virt. eigenvalues --    1.75722   1.76123   1.77025   1.78730   1.79335
 Alpha virt. eigenvalues --    1.80027   1.80548   1.81724   1.82042   1.82685
 Alpha virt. eigenvalues --    1.82926   1.83443   1.84383   1.86334   1.86692
 Alpha virt. eigenvalues --    1.86879   1.88808   1.89812   1.90177   1.90519
 Alpha virt. eigenvalues --    1.91081   1.91693   1.91795   1.92123   1.92640
 Alpha virt. eigenvalues --    1.93277   1.93873   1.94825   1.95920   1.97006
 Alpha virt. eigenvalues --    1.97868   1.98693   2.00713   2.01966   2.02316
 Alpha virt. eigenvalues --    2.03836   2.05449   2.06074   2.06362   2.06700
 Alpha virt. eigenvalues --    2.07506   2.07714   2.09513   2.10559   2.10954
 Alpha virt. eigenvalues --    2.12218   2.12596   2.13477   2.14098   2.14567
 Alpha virt. eigenvalues --    2.14914   2.15017   2.16838   2.17027   2.17951
 Alpha virt. eigenvalues --    2.18504   2.18789   2.19072   2.19638   2.20704
 Alpha virt. eigenvalues --    2.21061   2.21714   2.21933   2.23689   2.24098
 Alpha virt. eigenvalues --    2.24354   2.25413   2.26307   2.26317   2.26420
 Alpha virt. eigenvalues --    2.27874   2.28895   2.30249   2.32014   2.32219
 Alpha virt. eigenvalues --    2.32614   2.33262   2.33774   2.35034   2.35624
 Alpha virt. eigenvalues --    2.37290   2.38432   2.39496   2.42945   2.45975
 Alpha virt. eigenvalues --    2.47455   2.48102   2.48192   2.48839   2.49129
 Alpha virt. eigenvalues --    2.51349   2.52937   2.55530   2.58872   2.59108
 Alpha virt. eigenvalues --    2.59354   2.62791   2.63076   2.63694   2.63992
 Alpha virt. eigenvalues --    2.64606   2.66509   2.67614   2.71061   2.72269
 Alpha virt. eigenvalues --    2.75795   2.77307   2.77601   2.77962   2.79096
 Alpha virt. eigenvalues --    2.79819   2.80003   2.81191   2.82093   2.84063
 Alpha virt. eigenvalues --    2.86763   2.87291   2.88611   2.89358   2.93329
 Alpha virt. eigenvalues --    2.94835   2.95791   3.00732   3.01574   3.06795
 Alpha virt. eigenvalues --    3.09479   3.12034   3.23315   3.33255   3.42522
 Alpha virt. eigenvalues --    9.09992
          Condensed to atoms (all electrons):
 Mulliken charges:
               1
     1  C   -0.009890
     2  C   -0.159430
     3  C   -0.144455
     4  C   -0.128564
     5  C   -0.177407
     6  C   -0.129322
     7  C   -0.179371
     8  C    0.037141
     9  H    0.191269
    10  C    0.332832
    11  C    0.160376
    12  C    0.291503
    13  C    0.293958
    14  C   -0.514644
    15  H    0.178448
    16  H    0.152768
    17  H    0.173428
    18  C   -0.507329
    19  H    0.173091
    20  H    0.153670
    21  H    0.164513
    22  C   -0.511332
    23  H    0.172947
    24  H    0.149278
    25  H    0.173438
    26  C   -0.504263
    27  H    0.170211
    28  H    0.147842
    29  H    0.167977
    30  B    0.385663
    31  N   -0.424198
    32  N   -0.585495
    33  O   -0.520883
    34  O   -0.496554
    35  Ir   0.356784
    36  B    0.404299
    37  O   -0.504892
    38  O   -0.531408
    39  C    0.293183
    40  C    0.292599
    41  C   -0.502420
    42  C   -0.511585
    43  C   -0.508296
    44  C   -0.513095
    45  H    0.172391
    46  H    0.146211
    47  H    0.174887
    48  H    0.172587
    49  H    0.150348
    50  H    0.172880
    51  H    0.171921
    52  H    0.154655
    53  H    0.165959
    54  H    0.180526
    55  H    0.152474
    56  H    0.174075
    57  H    0.152985
    58  H    0.180460
    59  H    0.202546
    60  H    0.184316
    61  H    0.180138
    62  H    0.158259
 Sum of Mulliken charges =  -0.00000
 Mulliken charges with hydrogens summed into heavy atoms:
               1
     1  C    0.143095
     2  C   -0.001171
     3  C    0.036005
     4  C   -0.128564
     5  C    0.025139
     6  C    0.054994
     7  C    0.000766
     8  C    0.228410
    10  C    0.332832
    11  C    0.160376
    12  C    0.291503
    13  C    0.293958
    14  C   -0.009999
    18  C   -0.016055
    22  C   -0.015670
    26  C   -0.018234
    30  B    0.385663
    31  N   -0.424198
    32  N   -0.585495
    33  O   -0.520883
    34  O   -0.496554
    35  Ir   0.356784
    36  B    0.404299
    37  O   -0.504892
    38  O   -0.531408
    39  C    0.293183
    40  C    0.292599
    41  C   -0.008931
    42  C   -0.015771
    43  C   -0.015762
    44  C   -0.006020
 APT charges:
               1
     1  C   -0.007313
     2  C    0.066206
     3  C   -0.009284
     4  C    0.125762
     5  C   -0.312489
     6  C    0.233765
     7  C   -0.153540
     8  C    0.150801
     9  H    0.041377
    10  C    0.464893
    11  C   -0.084710
    12  C    0.509109
    13  C    0.517803
    14  C   -0.033941
    15  H    0.004658
    16  H   -0.019567
    17  H    0.002293
    18  C   -0.011308
    19  H    0.001412
    20  H   -0.018971
    21  H    0.001697
    22  C   -0.010067
    23  H    0.002683
    24  H   -0.014888
    25  H    0.001743
    26  C   -0.045759
    27  H    0.023647
    28  H   -0.021321
    29  H    0.002294
    30  B    1.230462
    31  N   -0.324308
    32  N   -0.418235
    33  O   -1.052523
    34  O   -0.946585
    35  Ir  -0.208639
    36  B    1.255250
    37  O   -1.061165
    38  O   -0.994193
    39  C    0.527527
    40  C    0.519526
    41  C   -0.046061
    42  C   -0.013930
    43  C   -0.011849
    44  C   -0.043784
    45  H    0.022765
    46  H   -0.023906
    47  H    0.004054
    48  H   -0.001040
    49  H   -0.016870
    50  H    0.002544
    51  H    0.004927
    52  H   -0.015320
    53  H   -0.000818
    54  H    0.006853
    55  H   -0.018543
    56  H    0.006917
    57  H   -0.023327
    58  H    0.078905
    59  H    0.086293
    60  H    0.027868
    61  H    0.032057
    62  H    0.008166
 Sum of APT charges =  -0.00000
 APT charges with hydrogens summed into heavy atoms:
               1
     1  C   -0.030640
     2  C    0.074372
     3  C    0.069621
     4  C    0.125762
     5  C   -0.226195
     6  C    0.261633
     7  C   -0.121483
     8  C    0.192177
    10  C    0.464893
    11  C   -0.084710
    12  C    0.509109
    13  C    0.517803
    14  C   -0.046557
    18  C   -0.027171
    22  C   -0.020529
    26  C   -0.041139
    30  B    1.230462
    31  N   -0.324308
    32  N   -0.418235
    33  O   -1.052523
    34  O   -0.946585
    35  Ir  -0.208639
    36  B    1.255250
    37  O   -1.061165
    38  O   -0.994193
    39  C    0.527527
    40  C    0.519526
    41  C   -0.043149
    42  C   -0.029297
    43  C   -0.023060
    44  C   -0.048557
 Electronic spatial extent (au):  <R**2>=          13183.9009
 Charge=              0.0000 electrons
 Dipole moment (field-independent basis, Debye):
    X=              0.7055    Y=             -0.2414    Z=             -1.6282  Tot=              1.7908
 Quadrupole moment (field-independent basis, Debye-Ang):
   XX=           -171.0113   YY=           -195.0574   ZZ=           -189.1385
   XY=             -1.6970   XZ=            -14.6797   YZ=             -1.2623
 Traceless Quadrupole moment (field-independent basis, Debye-Ang):
   XX=             14.0578   YY=             -9.9883   ZZ=             -4.0694
   XY=             -1.6970   XZ=            -14.6797   YZ=             -1.2623
 Octapole moment (field-independent basis, Debye-Ang**2):
  XXX=            177.9094  YYY=            -11.3194  ZZZ=            -65.7488  XYY=            -24.5517
  XXY=            -14.9023  XXZ=            -88.8703  XZZ=             53.4582  YZZ=             -3.1774
  YYZ=            -25.3500  XYZ=              8.0803
 Hexadecapole moment (field-independent basis, Debye-Ang**3):
 XXXX=          -8844.0960 YYYY=          -4793.8367 ZZZZ=          -2922.4426 XXXY=            -29.8168
 XXXZ=           -395.6158 YYYX=            -12.8635 YYYZ=            -14.4014 ZZZX=           -108.7633
 ZZZY=             52.7865 XXYY=          -2405.0261 XXZZ=          -2069.4965 YYZZ=          -1377.1058
 XXYZ=             21.8202 YYXZ=            -19.7902 ZZXY=            -11.5816
 N-N= 3.538255890783D+03 E-N=-1.035860382348D+04  KE= 1.341209075929D+03
  Exact polarizability:     397.984      -0.190     246.782      -8.168       9.462     330.105
 Approx polarizability:     541.711       0.950     348.635     -10.389      24.600     552.758
   1 Symmetry operations used in ECPInt.
 ECPInt:  NShTT=   18145 NPrTT=  111329 LenC2=   15044 LenP2D=   51115.
 LDataN:  DoStor=T MaxTD1= 8 Len=  415
 Calling FoFJK, ICntrl=    100127 FMM=F ISym2X=0 I1Cent= 0 IOpClX= 0 NMat=1 NMatS=1 NMatT=0.
 Defaulting to unpruned grid for atomic number  77.
 Defaulting to unpruned grid for atomic number  77.
 Defaulting to unpruned grid for atomic number  77.
 Defaulting to unpruned grid for atomic number  77.
 Defaulting to unpruned grid for atomic number  77.
 Defaulting to unpruned grid for atomic number  77.
 Defaulting to unpruned grid for atomic number  77.
 Defaulting to unpruned grid for atomic number  77.
 Defaulting to unpruned grid for atomic number  77.
 Defaulting to unpruned grid for atomic number  77.
 Defaulting to unpruned grid for atomic number  77.
 Defaulting to unpruned grid for atomic number  77.
 Defaulting to unpruned grid for atomic number  77.
 Defaulting to unpruned grid for atomic number  77.
 Defaulting to unpruned grid for atomic number  77.
 Defaulting to unpruned grid for atomic number  77.
 Full mass-weighted force constant matrix:
 Low frequencies ---   -5.1254    0.0001    0.0003    0.0006    3.5039    4.6040
 Low frequencies ---   19.5443   27.3110   30.5507
 Diagonal vibrational polarizability:
       53.0421251      93.3970742      21.5176388
 Harmonic frequencies (cm**-1), IR intensities (KM/Mole), Raman scattering
 activities (A**4/AMU), depolarization ratios for plane and unpolarized
 incident light, reduced masses (AMU), force constants (mDyne/A),
 and normal coordinates:
                      1                      2                      3
                      A                      A                      A
 Frequencies --     19.2968                27.2999                30.5472
 Red. masses --      5.7690                 4.3592                 3.5799
 Frc consts  --      0.0013                 0.0019                 0.0020
 IR Inten    --      0.4823                 0.0603                 0.1413
  Atom AN      X      Y      Z        X      Y      Z        X      Y      Z
     1   6    -0.00  -0.05   0.01    -0.00   0.19  -0.01     0.03   0.01  -0.01
     2   6    -0.01   0.04  -0.00    -0.00   0.14  -0.01     0.03   0.02  -0.01
     3   6    -0.00   0.08  -0.01     0.00   0.06  -0.00     0.03   0.02  -0.00
     4   6    -0.00   0.03  -0.00     0.00   0.04   0.00     0.02   0.01  -0.01
     5   6    -0.00  -0.22   0.03     0.01   0.04   0.01     0.02  -0.04  -0.02
     6   6    -0.00  -0.27   0.03     0.01  -0.04   0.02     0.01  -0.06  -0.02
     7   6    -0.00  -0.21   0.02     0.01  -0.12   0.03     0.01  -0.05  -0.01
     8   6    -0.00  -0.10   0.01     0.01  -0.12   0.03     0.01  -0.02  -0.01
     9   1    -0.01  -0.05   0.01     0.02  -0.18   0.03     0.00  -0.02  -0.01
    10   6    -0.00  -0.11   0.01     0.01   0.03   0.01     0.02  -0.01  -0.01
    11   6    -0.00  -0.05   0.01     0.00   0.08   0.00     0.02   0.00  -0.01
    12   6    -0.06   0.00  -0.00    -0.04  -0.04   0.05    -0.05  -0.04   0.04
    13   6    -0.07   0.01  -0.00     0.04   0.00   0.03    -0.03  -0.05   0.04
    14   6    -0.09   0.02   0.00    -0.10  -0.05  -0.01    -0.10  -0.01   0.04
    15   1    -0.09   0.05   0.00    -0.09  -0.03  -0.06    -0.10   0.03   0.02
    16   1    -0.11   0.01   0.00    -0.10  -0.05  -0.00    -0.13  -0.03   0.07
    17   1    -0.08   0.02   0.00    -0.15  -0.07   0.01    -0.11   0.00   0.04
    18   6    -0.06  -0.03  -0.00    -0.05  -0.07   0.12    -0.05  -0.09   0.07
    19   1    -0.05  -0.03  -0.00    -0.10  -0.11   0.14    -0.06  -0.09   0.07
    20   1    -0.08  -0.05   0.00    -0.05  -0.06   0.12    -0.08  -0.11   0.08
    21   1    -0.04  -0.05  -0.01    -0.02  -0.05   0.18    -0.01  -0.11   0.07
    22   6    -0.10   0.01   0.00     0.04   0.01  -0.01    -0.06  -0.05   0.05
    23   1    -0.11   0.01   0.00     0.10   0.04  -0.02    -0.05  -0.05   0.05
    24   1    -0.12  -0.01   0.00     0.03  -0.00   0.03    -0.08  -0.07   0.07
    25   1    -0.12   0.03   0.00     0.00   0.01  -0.07    -0.09  -0.02   0.04
    26   6    -0.05  -0.02  -0.00     0.09   0.01   0.09     0.00  -0.08   0.05
    27   1    -0.02  -0.02  -0.00     0.09   0.00   0.13     0.02  -0.08   0.03
    28   1    -0.06  -0.04  -0.01     0.08  -0.01   0.12    -0.01  -0.10   0.06
    29   1    -0.06  -0.01  -0.00     0.13   0.05   0.08     0.02  -0.08   0.04
    30   5    -0.03   0.04  -0.00     0.01  -0.01   0.00     0.00  -0.00   0.01
    31   7    -0.00  -0.09   0.01    -0.00   0.15  -0.00     0.03   0.00  -0.01
    32   7    -0.00  -0.05   0.01     0.01  -0.05   0.02     0.01  -0.00  -0.01
    33   8    -0.03   0.02  -0.00    -0.03  -0.03   0.04    -0.01  -0.01   0.02
    34   8    -0.05   0.04  -0.00     0.05   0.02  -0.02    -0.01  -0.01   0.02
    35  77    -0.00   0.07  -0.01     0.01  -0.02   0.01     0.01   0.01  -0.00
    36   5     0.02   0.04  -0.01     0.00  -0.01  -0.01     0.02  -0.00   0.00
    37   8     0.03   0.05  -0.02    -0.02   0.05  -0.05     0.07  -0.05   0.03
    38   8     0.04   0.00  -0.00     0.02  -0.06  -0.00    -0.03   0.05  -0.03
    39   6     0.06  -0.01   0.00    -0.03   0.05  -0.07     0.03  -0.00  -0.02
    40   6     0.09  -0.03   0.00    -0.01  -0.04  -0.06    -0.06   0.08  -0.02
    41   6     0.01  -0.04   0.04    -0.02   0.11  -0.00     0.09  -0.01  -0.14
    42   6     0.11  -0.01  -0.02    -0.07   0.08  -0.14     0.04  -0.02   0.04
    43   6     0.09  -0.10   0.04     0.00  -0.04  -0.03    -0.10   0.17  -0.13
    44   6     0.16  -0.01  -0.04    -0.03  -0.09  -0.13    -0.15   0.09   0.09
    45   1    -0.02  -0.05   0.06    -0.00   0.08   0.06     0.10   0.00  -0.20
    46   1     0.03  -0.09   0.05    -0.02   0.11  -0.02     0.07   0.03  -0.18
    47   1    -0.01  -0.02   0.04    -0.03   0.17  -0.01     0.15  -0.08  -0.13
    48   1     0.08   0.01  -0.02    -0.08   0.14  -0.14     0.12  -0.08   0.04
    49   1     0.13  -0.05  -0.00    -0.07   0.08  -0.16    -0.00   0.02   0.00
    50   1     0.14   0.02  -0.05    -0.08   0.04  -0.19     0.00  -0.03   0.14
    51   1     0.11  -0.11   0.03     0.02  -0.11  -0.02    -0.17   0.24  -0.13
    52   1     0.13  -0.13   0.04    -0.02  -0.01  -0.07    -0.12   0.18  -0.11
    53   1     0.05  -0.11   0.06     0.03  -0.00   0.03    -0.06   0.15  -0.23
    54   1     0.15   0.04  -0.06    -0.04  -0.09  -0.15    -0.12   0.03   0.17
    55   1     0.20  -0.04  -0.04    -0.06  -0.08  -0.17    -0.18   0.11   0.09
    56   1     0.17  -0.02  -0.04    -0.02  -0.16  -0.11    -0.22   0.13   0.09
    57   1    -0.01  -0.08   0.01    -0.01   0.25  -0.01     0.04   0.01  -0.01
    58   1    -0.01   0.14  -0.01     0.00   0.02  -0.00     0.03   0.03   0.00
    59   1     0.00  -0.26   0.03     0.00   0.10   0.01     0.02  -0.04  -0.02
    60   1    -0.00  -0.36   0.04     0.01  -0.03   0.03     0.01  -0.08  -0.02
    61   1    -0.00  -0.25   0.03     0.02  -0.18   0.04     0.00  -0.07  -0.01
    62   1    -0.01   0.08  -0.01    -0.01   0.16  -0.01     0.04   0.02  -0.00
                      4                      5                      6
                      A                      A                      A
 Frequencies --     34.2399                48.7079                63.3684
 Red. masses --      4.0591                 5.0125                 4.1926
 Frc consts  --      0.0028                 0.0070                 0.0099
 IR Inten    --      0.2366                 0.7976                 0.1341
  Atom AN      X      Y      Z        X      Y      Z        X      Y      Z
     1   6     0.04   0.15  -0.03     0.13  -0.06   0.00     0.00  -0.00  -0.00
     2   6     0.04   0.10  -0.01     0.13   0.01   0.04     0.00  -0.01   0.01
     3   6     0.03   0.04   0.01     0.09   0.05   0.05    -0.01  -0.00   0.02
     4   6     0.01   0.03   0.00     0.06   0.02   0.04    -0.01   0.01   0.01
     5   6    -0.01   0.02  -0.05     0.02  -0.05  -0.08    -0.03  -0.00  -0.03
     6   6    -0.02  -0.04  -0.05    -0.03  -0.01  -0.11    -0.04  -0.01  -0.03
     7   6    -0.04  -0.10  -0.03    -0.07   0.06  -0.08    -0.05  -0.01  -0.02
     8   6    -0.04  -0.09  -0.01    -0.06   0.07  -0.04    -0.05  -0.01  -0.01
     9   1    -0.05  -0.13   0.00    -0.10   0.12  -0.02    -0.06  -0.01  -0.00
    10   6    -0.00   0.02  -0.03     0.02  -0.02  -0.03    -0.03   0.00  -0.01
    11   6     0.01   0.06  -0.02     0.06  -0.03  -0.00    -0.01   0.01  -0.00
    12   6     0.06   0.06   0.00    -0.01  -0.06  -0.06     0.02   0.04   0.02
    13   6    -0.03  -0.03   0.03    -0.06   0.01  -0.06     0.07   0.10   0.00
    14   6     0.16   0.08   0.10     0.02  -0.10  -0.09     0.02  -0.02  -0.05
    15   1     0.15   0.04   0.19     0.01  -0.09  -0.06     0.03  -0.04  -0.09
    16   1     0.19   0.09   0.12     0.02  -0.09  -0.16     0.06   0.00  -0.08
    17   1     0.23   0.14   0.08     0.06  -0.15  -0.08    -0.02  -0.07  -0.03
    18   6     0.08   0.12  -0.11     0.00  -0.07  -0.11     0.00   0.08   0.08
    19   1     0.15   0.21  -0.13     0.04  -0.14  -0.10    -0.05   0.07   0.09
    20   1     0.09   0.12  -0.08    -0.00  -0.05  -0.19     0.04   0.10   0.08
    21   1     0.02   0.10  -0.20    -0.02  -0.03  -0.06    -0.00   0.10   0.11
    22   6    -0.03  -0.06   0.12    -0.08   0.03  -0.12     0.13   0.11  -0.06
    23   1    -0.12  -0.13   0.14    -0.12   0.09  -0.11     0.17   0.15  -0.07
    24   1    -0.01  -0.03   0.08    -0.08   0.02  -0.19     0.14   0.14  -0.05
    25   1     0.02  -0.05   0.21    -0.06   0.01  -0.12     0.13   0.06  -0.11
    26   6    -0.11  -0.06  -0.07    -0.08   0.04  -0.06     0.09   0.15   0.06
    27   1    -0.12  -0.04  -0.14    -0.06   0.03  -0.01     0.04   0.15   0.08
    28   1    -0.10  -0.04  -0.11    -0.08   0.04  -0.11     0.10   0.18   0.08
    29   1    -0.17  -0.14  -0.04    -0.11   0.09  -0.05     0.12   0.16   0.04
    30   5    -0.01  -0.01   0.03    -0.02  -0.02   0.05    -0.01   0.02   0.02
    31   7     0.03   0.12  -0.04     0.09  -0.08  -0.02    -0.01   0.00  -0.01
    32   7    -0.02  -0.03  -0.01    -0.02   0.03  -0.01    -0.04   0.00  -0.00
    33   8     0.04   0.05  -0.02     0.00  -0.07   0.01    -0.04   0.01   0.06
    34   8    -0.05  -0.07   0.08    -0.05   0.02   0.01     0.06   0.07  -0.01
    35  77    -0.01  -0.01   0.01     0.00   0.01   0.06    -0.03   0.00   0.02
    36   5    -0.01  -0.01   0.02     0.01  -0.00   0.07    -0.01  -0.01   0.02
    37   8     0.02  -0.01   0.00     0.01   0.05   0.02     0.08  -0.06   0.01
    38   8    -0.02  -0.02   0.00     0.00  -0.06   0.05    -0.06  -0.02  -0.02
    39   6     0.02  -0.03  -0.02    -0.00   0.05  -0.04     0.07  -0.09  -0.04
    40   6    -0.01  -0.03  -0.02    -0.03  -0.03  -0.02    -0.00  -0.06  -0.04
    41   6     0.02  -0.04  -0.04     0.02   0.09  -0.02     0.08  -0.13  -0.10
    42   6     0.04  -0.03  -0.03    -0.02   0.07  -0.11     0.15  -0.11  -0.02
    43   6    -0.03  -0.05  -0.04    -0.04  -0.02  -0.04    -0.05  -0.11  -0.11
    44   6    -0.01  -0.03  -0.01    -0.09  -0.08  -0.06     0.02  -0.01   0.02
    45   1     0.00  -0.04  -0.04     0.02   0.08   0.03     0.03  -0.13  -0.09
    46   1     0.02  -0.05  -0.05     0.01   0.09  -0.06     0.08  -0.16  -0.16
    47   1     0.03  -0.04  -0.04     0.05   0.14  -0.02     0.14  -0.13  -0.09
    48   1     0.06  -0.03  -0.03     0.01   0.13  -0.11     0.21  -0.13  -0.03
    49   1     0.04  -0.04  -0.04    -0.04   0.07  -0.15     0.15  -0.13  -0.06
    50   1     0.04  -0.02  -0.01    -0.04   0.04  -0.12     0.16  -0.07   0.03
    51   1    -0.04  -0.05  -0.03    -0.06  -0.08  -0.03    -0.12  -0.10  -0.10
    52   1    -0.01  -0.06  -0.05    -0.07   0.01  -0.10    -0.02  -0.13  -0.15
    53   1    -0.03  -0.05  -0.04    -0.00   0.02  -0.01    -0.06  -0.12  -0.14
    54   1     0.00  -0.01   0.01    -0.08  -0.09  -0.05     0.05   0.02   0.07
    55   1    -0.00  -0.03  -0.02    -0.12  -0.06  -0.13     0.05  -0.04   0.01
    56   1    -0.03  -0.03  -0.00    -0.11  -0.15  -0.04    -0.05   0.02   0.02
    57   1     0.05   0.20  -0.04     0.15  -0.10  -0.01     0.01  -0.00  -0.01
    58   1     0.03   0.01   0.02     0.09   0.10   0.08    -0.01  -0.01   0.02
    59   1     0.01   0.06  -0.06     0.05  -0.10  -0.09    -0.01  -0.00  -0.03
    60   1    -0.03  -0.05  -0.07    -0.03  -0.03  -0.14    -0.04  -0.02  -0.05
    61   1    -0.06  -0.15  -0.03    -0.10   0.09  -0.11    -0.07  -0.02  -0.03
    62   1     0.06   0.12  -0.00     0.15   0.03   0.05     0.01  -0.01   0.02
                      7                      8                      9
                      A                      A                      A
 Frequencies --     79.7355                93.2069               107.6555
 Red. masses --      4.3640                 4.7142                 4.8909
 Frc consts  --      0.0163                 0.0241                 0.0334
 IR Inten    --      1.0944                 0.3931                 2.8970
  Atom AN      X      Y      Z        X      Y      Z        X      Y      Z
     1   6    -0.04   0.08  -0.01    -0.02  -0.05  -0.00     0.01   0.08  -0.00
     2   6    -0.04   0.19  -0.03    -0.02  -0.15  -0.00     0.02  -0.14   0.02
     3   6    -0.03   0.16  -0.03    -0.02  -0.11  -0.01     0.01  -0.19   0.03
     4   6    -0.01   0.04  -0.02    -0.01  -0.00  -0.01     0.01  -0.03   0.01
     5   6    -0.00  -0.20   0.04    -0.00   0.07   0.01     0.01  -0.10   0.00
     6   6     0.01  -0.11   0.04     0.01  -0.04   0.03    -0.00  -0.21   0.01
     7   6     0.02   0.14   0.01     0.03  -0.12   0.03    -0.02  -0.06  -0.00
     8   6     0.02   0.24  -0.02     0.03  -0.06   0.01    -0.02   0.17  -0.01
     9   1     0.03   0.40  -0.05     0.04  -0.11   0.00    -0.03   0.29  -0.02
    10   6    -0.01  -0.05   0.01    -0.00   0.08  -0.01     0.01   0.11  -0.01
    11   6    -0.02  -0.03   0.00    -0.01   0.07  -0.01     0.01   0.11  -0.00
    12   6     0.01  -0.00   0.02    -0.02  -0.03   0.02     0.02  -0.04  -0.00
    13   6     0.02  -0.02   0.02    -0.03   0.00   0.01     0.01  -0.02  -0.00
    14   6     0.06  -0.02   0.03     0.10  -0.12  -0.01     0.01  -0.04  -0.02
    15   1     0.06  -0.07   0.03     0.11  -0.20   0.01     0.01  -0.03  -0.02
    16   1     0.10  -0.00   0.03     0.18  -0.07  -0.08     0.01  -0.04  -0.03
    17   1     0.05  -0.02   0.02     0.11  -0.17  -0.00     0.02  -0.06  -0.01
    18   6     0.01   0.06   0.02    -0.02   0.09  -0.02     0.03  -0.06  -0.01
    19   1    -0.00   0.08   0.02    -0.01   0.06  -0.01     0.04  -0.10  -0.00
    20   1     0.05   0.08   0.04     0.06   0.15  -0.06     0.01  -0.06  -0.04
    21   1    -0.02   0.07   0.01    -0.11   0.15   0.01     0.03  -0.06   0.01
    22   6     0.06  -0.02   0.03     0.04   0.01  -0.04     0.01  -0.01  -0.03
    23   1     0.07  -0.04   0.03     0.01   0.04  -0.03    -0.00   0.01  -0.02
    24   1     0.08   0.00   0.04     0.08   0.06  -0.09     0.01  -0.01  -0.05
    25   1     0.07  -0.04   0.03     0.09  -0.06  -0.03     0.02  -0.02  -0.03
    26   6     0.01  -0.00   0.02    -0.08   0.08   0.02     0.01  -0.00   0.00
    27   1    -0.01   0.00   0.02    -0.13   0.08   0.04     0.00  -0.01   0.01
    28   1     0.02   0.01   0.02    -0.06   0.13   0.00     0.01   0.00   0.00
    29   1     0.01  -0.01   0.02    -0.09   0.08   0.02     0.02  -0.00   0.00
    30   5    -0.02  -0.04  -0.00    -0.07  -0.06   0.05     0.02  -0.01   0.02
    31   7    -0.03  -0.03   0.01    -0.02   0.06  -0.01     0.01   0.19  -0.01
    32   7     0.01   0.13  -0.02     0.01   0.03  -0.01    -0.00   0.23  -0.01
    33   8    -0.03  -0.03   0.02    -0.10  -0.09   0.08     0.04  -0.03   0.01
    34   8     0.01  -0.04   0.00    -0.06  -0.06   0.05     0.02  -0.01   0.02
    35  77    -0.01  -0.01  -0.02    -0.00   0.04  -0.02     0.01  -0.00   0.01
    36   5     0.03  -0.06   0.01     0.08  -0.08  -0.00    -0.05   0.03  -0.04
    37   8     0.02  -0.07   0.02     0.06  -0.09   0.02    -0.07   0.04  -0.03
    38   8     0.05  -0.07   0.02     0.12  -0.08   0.02    -0.08   0.06  -0.05
    39   6     0.00  -0.03   0.01     0.03  -0.01   0.02    -0.05   0.01  -0.01
    40   6     0.00  -0.04   0.01     0.03  -0.02   0.02    -0.03   0.03  -0.02
    41   6     0.03   0.01   0.01     0.08   0.06   0.02    -0.09  -0.04  -0.00
    42   6    -0.05  -0.02   0.00    -0.07  -0.00   0.02    -0.00  -0.01   0.01
    43   6     0.01   0.02   0.01     0.05   0.09   0.01    -0.03  -0.03   0.01
    44   6    -0.06  -0.08   0.01    -0.07  -0.08   0.03     0.05   0.07  -0.02
    45   1     0.07   0.01   0.00     0.16   0.06  -0.00    -0.13  -0.04   0.00
    46   1     0.02   0.05   0.01     0.06   0.14   0.02    -0.07  -0.09   0.01
    47   1     0.03   0.00   0.01     0.08   0.04   0.01    -0.10  -0.04  -0.00
    48   1    -0.04  -0.01   0.00    -0.07   0.00   0.02    -0.03  -0.03   0.01
    49   1    -0.07   0.01  -0.00    -0.11   0.07   0.01     0.03  -0.04   0.04
    50   1    -0.07  -0.06   0.01    -0.12  -0.07   0.03     0.03   0.03  -0.00
    51   1     0.01   0.01   0.01     0.06   0.09   0.01    -0.02  -0.01   0.00
    52   1    -0.03   0.06   0.00    -0.02   0.15   0.02     0.01  -0.07   0.03
    53   1     0.05   0.05   0.00     0.13   0.13   0.00    -0.08  -0.06   0.01
    54   1    -0.07  -0.12   0.02    -0.09  -0.17   0.03     0.05   0.12  -0.03
    55   1    -0.11  -0.04   0.00    -0.15  -0.03   0.02     0.10   0.04   0.02
    56   1    -0.06  -0.09   0.02    -0.06  -0.11   0.03     0.06   0.11  -0.03
    57   1    -0.04   0.09  -0.01    -0.03  -0.06  -0.00     0.01   0.15  -0.01
    58   1    -0.02   0.22  -0.04    -0.01  -0.18  -0.00     0.01  -0.34   0.04
    59   1    -0.01  -0.37   0.07    -0.02   0.11   0.01     0.02  -0.21   0.01
    60   1     0.01  -0.22   0.07     0.02  -0.06   0.05    -0.00  -0.41   0.02
    61   1     0.03   0.23   0.00     0.04  -0.21   0.05    -0.03  -0.13   0.00
    62   1    -0.05   0.29  -0.04    -0.02  -0.24   0.01     0.02  -0.26   0.03
                     10                     11                     12
                      A                      A                      A
 Frequencies --    117.8814               126.7942               137.4763
 Red. masses --      4.7070                 3.5398                 3.5209
 Frc consts  --      0.0385                 0.0335                 0.0392
 IR Inten    --      0.8976                 0.3315                 0.4590
  Atom AN      X      Y      Z        X      Y      Z        X      Y      Z
     1   6    -0.00  -0.03  -0.00    -0.01   0.02   0.00     0.03   0.01  -0.01
     2   6    -0.00  -0.09   0.01    -0.01   0.01   0.00     0.03  -0.01  -0.00
     3   6    -0.01  -0.05   0.00    -0.01  -0.01   0.00     0.02  -0.01   0.00
     4   6    -0.01   0.02  -0.00    -0.01  -0.01   0.01     0.02  -0.01  -0.00
     5   6    -0.01   0.01  -0.00    -0.01  -0.02  -0.01     0.02  -0.00   0.02
     6   6    -0.00  -0.06   0.01    -0.02  -0.00  -0.02     0.04  -0.00   0.03
     7   6     0.00  -0.05   0.00    -0.03   0.02  -0.01     0.05   0.00   0.02
     8   6     0.00   0.03  -0.01    -0.03   0.01  -0.00     0.05   0.01  -0.00
     9   1     0.01   0.04  -0.01    -0.04   0.02   0.01     0.06   0.01  -0.01
    10   6    -0.01   0.07  -0.02    -0.01  -0.01   0.00     0.02   0.00  -0.00
    11   6    -0.01   0.06  -0.01    -0.01  -0.01   0.01     0.02  -0.00  -0.01
    12   6     0.02   0.07  -0.04    -0.01  -0.00  -0.00    -0.02   0.03  -0.01
    13   6     0.03   0.04  -0.04    -0.02  -0.01   0.01    -0.02   0.02   0.01
    14   6    -0.09   0.17  -0.01    -0.05   0.02   0.01    -0.14   0.12   0.01
    15   1    -0.10   0.26  -0.02    -0.04   0.03  -0.02    -0.13   0.15  -0.08
    16   1    -0.18   0.12   0.05    -0.06   0.02   0.05    -0.18   0.08   0.12
    17   1    -0.08   0.21  -0.02    -0.07   0.05   0.00    -0.21   0.19  -0.01
    18   6     0.03  -0.04  -0.02    -0.01  -0.05  -0.00    -0.01  -0.10  -0.00
    19   1     0.02   0.00  -0.03     0.00  -0.07  -0.00     0.00  -0.11  -0.00
    20   1    -0.05  -0.10   0.03    -0.03  -0.05  -0.03    -0.10  -0.15  -0.00
    21   1     0.11  -0.10  -0.06     0.01  -0.04   0.01     0.06  -0.14  -0.01
    22   6    -0.09   0.04   0.02     0.06  -0.01  -0.01     0.17   0.01  -0.02
    23   1    -0.07   0.01   0.01     0.06  -0.02  -0.01     0.18  -0.01  -0.02
    24   1    -0.15  -0.05   0.07     0.09   0.04  -0.01     0.26   0.15  -0.02
    25   1    -0.16   0.14   0.02     0.09  -0.06  -0.01     0.25  -0.11  -0.02
    26   6     0.10  -0.07  -0.05    -0.06   0.06   0.01    -0.14   0.17  -0.00
    27   1     0.20  -0.07  -0.07    -0.09   0.05   0.04    -0.23   0.16   0.04
    28   1     0.05  -0.16  -0.04    -0.05   0.10  -0.03    -0.09   0.27  -0.07
    29   1     0.10  -0.05  -0.05    -0.09   0.08   0.02    -0.19   0.17   0.02
    30   5     0.06   0.09  -0.05    -0.01  -0.02   0.00    -0.02  -0.01  -0.00
    31   7    -0.01   0.04  -0.01    -0.01   0.01   0.01     0.02   0.01  -0.01
    32   7    -0.00   0.08  -0.02    -0.02  -0.01   0.01     0.03   0.00  -0.01
    33   8     0.10   0.13  -0.09     0.02   0.02  -0.03     0.06   0.09  -0.08
    34   8     0.07   0.12  -0.07    -0.05  -0.06   0.04    -0.10  -0.11   0.08
    35  77    -0.02  -0.00   0.01     0.00  -0.01   0.00    -0.00  -0.00  -0.00
    36   5     0.04  -0.07   0.05     0.02  -0.01   0.00    -0.00  -0.01   0.00
    37   8     0.06  -0.11   0.07     0.11  -0.13   0.05    -0.03   0.02  -0.01
    38   8     0.05  -0.11   0.06    -0.08   0.09  -0.05     0.03  -0.05   0.02
    39   6     0.02  -0.04   0.03     0.03   0.02   0.00    -0.01  -0.02   0.00
    40   6     0.00  -0.07   0.03     0.02   0.02  -0.01    -0.01  -0.02   0.01
    41   6     0.10   0.05   0.03     0.16   0.16  -0.03    -0.05  -0.06   0.02
    42   6    -0.08  -0.02  -0.00    -0.16   0.03   0.02     0.05  -0.02  -0.01
    43   6     0.00  -0.02   0.02     0.00  -0.11  -0.01     0.00   0.03   0.00
    44   6    -0.08  -0.13   0.02     0.15   0.09  -0.03    -0.06  -0.05   0.01
    45   1     0.18   0.04   0.03     0.26   0.14   0.01    -0.08  -0.06   0.02
    46   1     0.06   0.13   0.01     0.10   0.27  -0.10    -0.03  -0.09   0.03
    47   1     0.11   0.05   0.03     0.22   0.18  -0.02    -0.06  -0.05   0.01
    48   1    -0.05   0.01  -0.00    -0.17   0.01   0.03     0.05  -0.01  -0.01
    49   1    -0.13   0.05  -0.04    -0.22   0.17   0.04     0.06  -0.06  -0.02
    50   1    -0.14  -0.10   0.01    -0.24  -0.08   0.03     0.07   0.01  -0.02
    51   1    -0.01  -0.07   0.03    -0.02  -0.13  -0.00     0.01   0.02   0.00
    52   1    -0.04   0.02  -0.03     0.08  -0.17  -0.04    -0.04   0.06   0.00
    53   1     0.07   0.02   0.04    -0.07  -0.14   0.01     0.04   0.05   0.00
    54   1    -0.09  -0.19   0.03     0.13   0.14  -0.10    -0.06  -0.08   0.04
    55   1    -0.14  -0.09  -0.01     0.22   0.05   0.05    -0.09  -0.03  -0.02
    56   1    -0.07  -0.18   0.03     0.21   0.15  -0.06    -0.08  -0.08   0.02
    57   1    -0.00  -0.05  -0.00    -0.01   0.04   0.00     0.04   0.01  -0.01
    58   1    -0.01  -0.09   0.01    -0.01  -0.01   0.00     0.02  -0.01   0.01
    59   1    -0.01  -0.00  -0.00     0.00  -0.03  -0.01     0.01  -0.00   0.02
    60   1     0.00  -0.12   0.02    -0.02  -0.00  -0.03     0.04  -0.01   0.04
    61   1     0.01  -0.11   0.01    -0.04   0.03  -0.02     0.06   0.00   0.02
    62   1     0.00  -0.16   0.01    -0.01   0.02   0.00     0.04  -0.01   0.00
                     13                     14                     15
                      A                      A                      A
 Frequencies --    139.9131               149.8489               165.9173
 Red. masses --      5.6836                 4.7879                 4.4671
 Frc consts  --      0.0656                 0.0633                 0.0725
 IR Inten    --      2.7239                 0.9632                 3.9836
  Atom AN      X      Y      Z        X      Y      Z        X      Y      Z
     1   6     0.10   0.02  -0.07    -0.03   0.20  -0.01    -0.11  -0.00  -0.04
     2   6     0.10   0.01  -0.03    -0.02   0.03   0.00    -0.11  -0.01  -0.06
     3   6     0.07  -0.02  -0.01    -0.02  -0.19   0.02    -0.08  -0.02  -0.06
     4   6     0.04  -0.03  -0.04    -0.01  -0.18   0.02    -0.05  -0.00  -0.05
     5   6     0.07  -0.01   0.07    -0.02  -0.11  -0.01    -0.05  -0.01  -0.01
     6   6     0.18   0.02   0.13    -0.03   0.05  -0.03    -0.02  -0.00   0.01
     7   6     0.25   0.02   0.07    -0.04   0.12  -0.04     0.01   0.00  -0.01
     8   6     0.24  -0.00  -0.03    -0.04  -0.01  -0.00     0.01   0.00  -0.04
     9   1     0.32  -0.01  -0.10    -0.05   0.01   0.00     0.03   0.00  -0.06
    10   6     0.06  -0.03  -0.05    -0.01  -0.16   0.02    -0.05  -0.00  -0.04
    11   6     0.04  -0.03  -0.07    -0.01  -0.13   0.02    -0.06  -0.00  -0.04
    12   6    -0.01   0.01   0.02     0.02   0.01   0.02     0.06  -0.04   0.03
    13   6    -0.04   0.05   0.02    -0.01   0.05   0.02     0.01  -0.01   0.04
    14   6     0.03  -0.03   0.01     0.01   0.01   0.00     0.06  -0.04   0.03
    15   1     0.02  -0.02   0.05    -0.00   0.06   0.04     0.05  -0.02   0.07
    16   1     0.03  -0.02  -0.06    -0.04  -0.01  -0.04     0.03  -0.05  -0.00
    17   1     0.08  -0.08   0.02     0.05  -0.03   0.01     0.10  -0.06   0.03
    18   6    -0.00   0.02  -0.01     0.04  -0.07  -0.02     0.08  -0.15  -0.04
    19   1     0.02  -0.02  -0.01     0.09  -0.14  -0.02     0.17  -0.31  -0.03
    20   1     0.01   0.04  -0.06    -0.01  -0.08  -0.10     0.01  -0.14  -0.22
    21   1    -0.03   0.05   0.01     0.06  -0.06   0.01     0.09  -0.10   0.04
    22   6    -0.12   0.07  -0.01    -0.09   0.08  -0.03    -0.02   0.01  -0.00
    23   1    -0.19   0.12  -0.00    -0.17   0.14  -0.01    -0.08   0.05   0.01
    24   1    -0.14   0.01  -0.09    -0.11   0.03  -0.12    -0.01   0.00  -0.08
    25   1    -0.12   0.09   0.01    -0.08   0.09   0.00     0.01  -0.00   0.02
    26   6    -0.03   0.03   0.02    -0.01   0.05   0.02    -0.01   0.03   0.04
    27   1    -0.00   0.03   0.03     0.02   0.04   0.03     0.02   0.01   0.10
    28   1    -0.04   0.01   0.01    -0.03   0.02  -0.02    -0.02   0.01  -0.02
    29   1    -0.03   0.05   0.02    -0.03   0.08   0.02    -0.05   0.09   0.06
    30   5     0.00   0.05   0.07     0.04   0.05   0.09     0.07   0.01   0.08
    31   7     0.06  -0.00  -0.09    -0.02   0.08   0.00    -0.08   0.01  -0.02
    32   7     0.12  -0.03  -0.09    -0.02  -0.14   0.02    -0.02  -0.00  -0.06
    33   8    -0.01  -0.01   0.08     0.07   0.03   0.06     0.10  -0.02   0.06
    34   8    -0.01   0.08   0.04     0.00   0.08   0.07     0.01   0.00   0.09
    35  77    -0.05  -0.00  -0.01     0.00   0.02   0.00    -0.01  -0.01  -0.03
    36   5    -0.05  -0.01   0.02     0.03  -0.04  -0.09     0.01   0.07   0.13
    37   8    -0.02  -0.03   0.03    -0.00  -0.05  -0.06     0.05   0.11   0.09
    38   8    -0.10   0.03  -0.01     0.08  -0.04  -0.06    -0.01   0.02   0.12
    39   6    -0.03  -0.02   0.00     0.00  -0.03  -0.02     0.06   0.07   0.04
    40   6    -0.05  -0.02  -0.00     0.04  -0.00  -0.02     0.00   0.01   0.05
    41   6    -0.01  -0.00  -0.01     0.00  -0.03  -0.01     0.07   0.08   0.04
    42   6    -0.06  -0.02   0.01    -0.04  -0.04   0.02     0.17   0.10  -0.06
    43   6    -0.07  -0.11  -0.01     0.07   0.10   0.01    -0.04  -0.03  -0.00
    44   6     0.02   0.02  -0.00    -0.00  -0.02  -0.01    -0.02   0.00   0.05
    45   1    -0.02  -0.01   0.02     0.04  -0.02  -0.05     0.02   0.05   0.13
    46   1    -0.02  -0.00  -0.04     0.00   0.01   0.04     0.06   0.03  -0.04
    47   1     0.02   0.02  -0.00    -0.04  -0.07  -0.02     0.13   0.17   0.05
    48   1    -0.07  -0.03   0.01    -0.08  -0.07   0.03     0.30   0.18  -0.07
    49   1    -0.06   0.00   0.02    -0.03  -0.01   0.07     0.15   0.01  -0.21
    50   1    -0.07  -0.03   0.01    -0.04  -0.05   0.01     0.17   0.12  -0.01
    51   1    -0.10  -0.14  -0.00     0.12   0.15  -0.01    -0.10  -0.11   0.02
    52   1    -0.02  -0.15  -0.06     0.02   0.13   0.08    -0.02  -0.03  -0.10
    53   1    -0.11  -0.12   0.01     0.11   0.10  -0.02    -0.03  -0.02   0.03
    54   1     0.02   0.06  -0.02    -0.02  -0.07  -0.03     0.02   0.04   0.11
    55   1     0.06  -0.01   0.02    -0.04   0.01   0.02    -0.01  -0.01  -0.04
    56   1     0.02   0.05  -0.01     0.03  -0.01  -0.02    -0.11  -0.05   0.08
    57   1     0.13   0.05  -0.09    -0.03   0.42  -0.03    -0.12   0.01  -0.03
    58   1     0.07  -0.02   0.02    -0.02  -0.29   0.02    -0.08  -0.03  -0.08
    59   1    -0.02  -0.01   0.12     0.00  -0.14  -0.01    -0.07  -0.01   0.01
    60   1     0.18   0.04   0.21    -0.03   0.13  -0.05    -0.02  -0.01   0.04
    61   1     0.32   0.05   0.10    -0.05   0.25  -0.06     0.03   0.01  -0.00
    62   1     0.13   0.03  -0.02    -0.02   0.09  -0.00    -0.12  -0.02  -0.06
                     16                     17                     18
                      A                      A                      A
 Frequencies --    174.4751               202.5362               206.8624
 Red. masses --      4.1827                 3.7757                 3.2011
 Frc consts  --      0.0750                 0.0913                 0.0807
 IR Inten    --      0.0530                 0.1818                 0.8984
  Atom AN      X      Y      Z        X      Y      Z        X      Y      Z
     1   6     0.03   0.10  -0.01    -0.00   0.05   0.00    -0.08  -0.00   0.02
     2   6     0.03  -0.08   0.01    -0.00  -0.01  -0.00    -0.08  -0.01  -0.05
     3   6     0.02  -0.15   0.02     0.01  -0.05  -0.00    -0.02  -0.01  -0.08
     4   6     0.01  -0.07   0.01     0.01  -0.03   0.00     0.05   0.00  -0.03
     5   6     0.01  -0.10   0.02     0.01  -0.03   0.00     0.06  -0.00  -0.04
     6   6     0.02  -0.00   0.02     0.00   0.04  -0.01     0.01  -0.01  -0.06
     7   6     0.02   0.09   0.00    -0.00   0.03  -0.00    -0.02  -0.00  -0.04
     8   6     0.02   0.02   0.00    -0.00  -0.04   0.01    -0.02   0.00   0.01
     9   1     0.03   0.04  -0.01    -0.01  -0.06   0.02    -0.05   0.01   0.03
    10   6     0.01  -0.08   0.01     0.01  -0.06   0.01     0.06   0.01   0.02
    11   6     0.01  -0.03   0.00     0.01  -0.04   0.01     0.05   0.01   0.02
    12   6    -0.07   0.03  -0.03     0.02  -0.03  -0.02    -0.02   0.03   0.02
    13   6    -0.03  -0.01  -0.04     0.04  -0.04  -0.02    -0.04   0.03   0.01
    14   6    -0.06   0.03  -0.03     0.02  -0.03  -0.03    -0.02   0.03   0.02
    15   1    -0.05  -0.01  -0.07     0.03  -0.07  -0.05    -0.03   0.06   0.05
    16   1    -0.02   0.04   0.00     0.05  -0.02   0.01    -0.05   0.02  -0.01
    17   1    -0.11   0.05  -0.04    -0.02  -0.01  -0.03     0.01   0.00   0.03
    18   6    -0.10   0.17   0.04     0.03  -0.06  -0.04    -0.04   0.08   0.06
    19   1    -0.20   0.34   0.02     0.06  -0.16  -0.03    -0.12   0.29   0.04
    20   1    -0.00   0.17   0.21     0.02  -0.03  -0.14    -0.01   0.04   0.27
    21   1    -0.13   0.13  -0.05     0.02  -0.01   0.02    -0.02  -0.00  -0.06
    22   6     0.01  -0.04   0.01     0.12  -0.07   0.04    -0.12   0.07  -0.06
    23   1     0.08  -0.09  -0.01     0.34  -0.17  -0.01    -0.39   0.17   0.00
    24   1     0.01  -0.02   0.09     0.10  -0.05   0.27    -0.08   0.05  -0.34
    25   1    -0.01  -0.02  -0.02     0.02  -0.05  -0.08     0.01   0.02   0.09
    26   6    -0.01  -0.03  -0.04     0.06  -0.07  -0.02    -0.06   0.06   0.01
    27   1    -0.05  -0.02  -0.08     0.08  -0.07  -0.02    -0.09   0.06   0.03
    28   1    -0.00  -0.01   0.01     0.05  -0.09  -0.01    -0.05   0.09   0.01
    29   1     0.02  -0.09  -0.06     0.06  -0.07  -0.02    -0.07   0.06   0.02
    30   5    -0.07  -0.02  -0.10     0.01  -0.02  -0.04    -0.00   0.02   0.02
    31   7     0.02   0.09  -0.02     0.01   0.02   0.01    -0.01   0.01   0.05
    32   7     0.01  -0.07   0.01     0.01  -0.07   0.02     0.03   0.01   0.03
    33   8    -0.12   0.00  -0.07     0.01  -0.03  -0.04    -0.02   0.03   0.03
    34   8    -0.03  -0.03  -0.10     0.03  -0.04  -0.03    -0.04   0.03   0.03
    35  77    -0.00  -0.02   0.00     0.01   0.07  -0.01     0.06  -0.01  -0.01
    36   5     0.02   0.04   0.08    -0.04   0.01   0.04    -0.01  -0.00   0.02
    37   8     0.05   0.08   0.06    -0.03  -0.01   0.05    -0.02  -0.00   0.03
    38   8     0.02   0.02   0.08    -0.07  -0.02   0.04    -0.04  -0.02   0.02
    39   6     0.05   0.06   0.02    -0.04  -0.02   0.04    -0.02  -0.01   0.02
    40   6     0.02   0.02   0.03    -0.06  -0.04   0.03    -0.04  -0.03   0.02
    41   6     0.06   0.07   0.02    -0.04  -0.02   0.05    -0.03  -0.01   0.04
    42   6     0.13   0.08  -0.05    -0.07  -0.02   0.05    -0.04  -0.02   0.03
    43   6    -0.00   0.00   0.00    -0.13  -0.15  -0.04    -0.08  -0.10  -0.03
    44   6    -0.00   0.01   0.03    -0.08  -0.04   0.04    -0.05  -0.03   0.03
    45   1     0.06   0.06   0.04    -0.09  -0.03   0.10    -0.06  -0.02   0.07
    46   1     0.06   0.06  -0.02    -0.04  -0.06  -0.01    -0.03  -0.04   0.01
    47   1     0.09   0.10   0.02    -0.01   0.04   0.05    -0.02   0.02   0.04
    48   1     0.25   0.14  -0.06    -0.16  -0.04   0.05    -0.11  -0.03   0.04
    49   1     0.10   0.03  -0.18    -0.05  -0.01   0.12    -0.01  -0.02   0.09
    50   1     0.11   0.09   0.00    -0.06  -0.02  -0.01    -0.02  -0.01  -0.01
    51   1    -0.04  -0.03   0.01    -0.26  -0.38   0.01    -0.18  -0.27   0.00
    52   1     0.00   0.00  -0.04    -0.10  -0.14  -0.29    -0.08  -0.07  -0.23
[...]
 68,-0.00003058,-0.00000952,0.00000403,-0.00002773,0.00072992,0.0000251
 3,0.00015507,0.35597293,-0.00000458,0.00014208,0.00001378,-0.00000388,
 0.00000169,-0.00000234,0.00002165,0.00011870,-0.00000035,0.00000663,-0
 .00029692,0.00002690,0.00310105,0.00555927,0.00021958,-0.00076935,-0.0
 4213841,0.00190221,-0.00313689,0.00507380,-0.00019661,-0.00041854,0.00
 794746,0.00144105,-0.00015962,-0.00046271,-0.00008328,0.00020256,0.008
 83950,0.00158479,0.00014334,-0.00063793,-0.00018887,-0.00000845,-0.000
 00488,-0.00000136,-0.00000064,0.00000876,0.00000552,0.00000042,-0.0000
 0109,-0.00000177,-0.00000131,0.00000114,0.00000115,0.00000054,0.000000
 03,0.00000015,0.00000067,0.00000022,-0.00000002,-0.00000094,0.00000431
 ,-0.00000176,0.00000044,0.00000033,0.00000050,-0.00000177,-0.00000012,
 0.00000053,-0.00000124,-0.00000070,-0.00000102,0.00000008,-0.00000015,
 0.00000025,0.00000078,0.00000067,0.00000010,-0.00000043,0.00000016,0.0
 0000025,-0.00000048,-0.00000088,-0.00000135,0.00000137,-0.00000060,-0.
 00000075,-0.00000109,-0.00000002,0.00000088,0.00000003,-0.00000001,-0.
 00000014,0.00000015,0.00000056,-0.00000098,-0.00003364,0.00001822,0.00
 008263,-0.00002350,-0.00000192,-0.00000249,0.00007378,-0.00303249,-0.0
 0024993,-0.00003195,0.00002911,-0.00000844,-0.00000496,-0.00000335,-0.
 00000141,0.00000724,-0.00035106,-0.00003495,0.00001547,0.00005772,-0.0
 0005808,0.00004430,0.00001696,0.00001022,0.00000628,-0.00000451,-0.000
 00178,-0.00000699,0.00001411,0.00000075,0.00000524,0.00000611,-0.00000
 204,-0.00000015,-0.00000009,-0.00000133,0.00000380,0.00000064,0.000002
 63,-0.00000030,0.00000044,0.00000037,-0.00000005,-0.00000127,-0.000001
 29,0.00000097,-0.00000024,0.00000100,0.00000047,-0.00000029,-0.0000001
 3,0.00000016,0.00000057,-0.00000051,-0.00000065,0.00000028,0.,0.000000
 60,0.00000164,-0.00000026,0.00000061,-0.00000094,-0.00000089,-0.000000
 03,0.00000038,0.00000053,0.00000014,-0.00000029,0.00000017,0.00000137,
 -0.00000080,-0.00000057,0.00000105,0.00000069,0.00000133,-0.00000047,-
 0.00000048,-0.00000012,-0.00000061,0.00000047,-0.00000001,0.00000078,0
 .00000135,0.00000231,0.00000357,0.00002198,0.00000648,-0.00003533,-0.0
 0419570,-0.00059889,0.00088846,0.02685979,-0.00001302,0.00001615,-0.00
 000639,0.00004117,0.00000096,-0.00000590,-0.00018554,-0.00000192,0.000
 12684,-0.00014823,0.00002163,-0.00053737,-0.02836462,-0.00003568,0.003
 72342,-0.01541903,0.00190115,-0.05983634,0.02617843,0.00003357,0.00669
 015,0.00295790,0.00144898,-0.00433128,0.00137573,-0.00007341,0.0002404
 0,-0.00236710,0.00158843,-0.00522102,-0.00108843,-0.00020791,0.0011888
 6,-0.00000090,-0.00000144,-0.00000080,0.00000689,-0.00000440,0.0000009
 4,-0.00000028,-0.00000029,-0.00000044,0.00000005,0.00000004,-0.0000004
 3,0.00000019,0.00000020,0.00000060,-0.00000047,0.00000062,0.00000052,0
 .00000012,0.00000041,0.00000055,-0.00000039,0.00000013,0.00000034,-0.0
 0000031,0.00000010,0.00000012,0.00000011,0.00000002,-0.00000024,-0.000
 00090,0.00000054,0.00000017,0.00000013,-0.00000066,-0.00000022,-0.0000
 0033,0.00000068,0.00000006,0.00000011,-0.00000002,0.00000042,-0.000000
 76,0.00000081,-0.00000094,0.00000094,0.00000015,-0.00000042,-0.0000010
 0,0.00000042,0.00000041,0.00000077,-0.00000099,0.00000088,0.00001514,-
 0.00000078,-0.00001301,0.00017955,0.00000955,-0.00005362,-0.00007428,-
 0.00023406,-0.00099919,-0.00001051,0.00000236,0.00000624,-0.00000887,0
 .00000859,0.00000447,-0.00006278,-0.00003619,-0.00001511,0.00001669,0.
 00001456,-0.00003426,0.00000336,-0.00000100,0.00000976,-0.00000888,-0.
 00001143,0.00000549,-0.00000350,0.00000145,0.00000044,0.00000593,0.000
 00816,0.00000028,-0.00000029,-0.00000009,-0.00000073,0.00000068,0.0000
 0072,0.00000102,-0.00000074,-0.00000109,0.00000024,-0.00000038,-0.0000
 0148,-0.00000084,0.00000030,-0.00000017,-0.00000014,-0.00000010,0.0000
 0001,0.00000029,-0.00000053,-0.00000023,0.00000031,-0.00000039,-0.0000
 0057,0.00000029,0.00000011,0.00000020,0.00000008,0.00000010,-0.0000002
 9,-0.00000018,0.00000051,0.00000048,0.00000033,-0.00000064,-0.00000036
 ,0.00000009,0.00000042,-0.00000003,-0.00000016,0.00000013,0.00000073,0
 .00000021,-0.00000058,-0.00000083,0.00000028,0.00000024,0.00000115,0.0
 0000052,-0.00000559,0.00000183,-0.00002252,-0.00001684,0.00000753,-0.0
 0004667,0.00066930,-0.00059481,0.00105335,0.01700350,-0.00333173,0.057
 13543,0.00007801,0.00000512,-0.00004488,-0.00001608,-0.00000307,0.0000
 4195,-0.00000138,0.00000300,-0.00004218,-0.00004243,-0.00001165,0.0002
 3691,-0.00168615,-0.00045257,0.00333520,0.01205311,-0.00187370,0.01710
 036,-0.10951388,0.01179417,-0.10868622,-0.00536042,0.00337400,-0.02983
 794,0.00076519,-0.00001313,0.00042185,-0.00149662,-0.00016368,0.001336
 17,0.00022053,0.00002132,-0.00009505,0.00002527,-0.00006146,0.00001844
 ,0.00005291,-0.00002054,0.,-0.00000757,0.00001675,-0.00000649,0.000001
 07,-0.00000320,-0.00000648,0.00000112,0.00000933,0.00000450,-0.0000051
 3,-0.00000315,0.00000455,-0.00000063,0.00001409,-0.00000275,-0.0000016
 2,-0.00000197,0.00000395,-0.00000750,0.00000268,0.00000023,0.00000286,
 -0.00000060,-0.00000007,-0.00000883,0.00000116,-0.00000080,0.00000151,
 0.00000048,-0.00000126,-0.00000333,0.00000551,-0.00000121,0.00000231,-
 0.00000004,0.00000053,-0.00000879,0.00000233,0.00000433,0.00000675,-0.
 00000020,0.00000136,-0.00000648,0.00000189,-0.00000247,0.00000191,-0.0
 0000025,0.00000027,-0.00000229,-0.00033538,0.00001851,0.00008772,0.000
 00519,-0.00004115,-0.00684936,-0.00006380,-0.00058144,-0.00016107,0.00
 017917,0.00005331,-0.00007268,0.00012272,-0.00004129,0.00082439,0.0000
 4680,-0.00037861,0.00003188,0.00033021,0.00006611,-0.00012754,-0.00016
 383,0.00004470,-0.00013443,-0.00013074,-0.00006743,0.00006037,0.000010
 79,0.00000852,0.00004045,0.00004808,-0.00001275,-0.00000830,-0.0000022
 4,-0.00000821,-0.00001199,-0.00000074,-0.00000563,-0.00000211,-0.00000
 979,0.00000129,-0.00001132,-0.00001239,0.00000324,0.00000719,-0.000001
 33,-0.00000025,-0.00000722,-0.00000029,0.00000120,0.00000031,-0.000000
 42,0.00000368,-0.00000256,-0.00000039,0.00000608,-0.00000253,-0.000007
 29,0.00000194,0.00000168,0.00000008,-0.00000378,0.00000040,0.00000176,
 -0.00000120,-0.00000660,-0.00000290,-0.00000199,0.00000173,0.00000180,
 0.00000015,0.00000079,0.00000492,0.00000077,-0.00000111,-0.00000937,-0
 .00000358,0.00000056,0.00000199,0.00000036,-0.00000379,-0.00000058,-0.
 00000550,0.00000087,-0.00000164,0.00001058,0.00048948,-0.00007652,0.00
 073945,0.00073590,0.00011291,-0.00066893,0.11007289,0.00000843,-0.0000
 6831,-0.00001707,-0.00000141,-0.00005552,0.00000046,0.00000432,-0.0000
 2853,-0.00000897,0.00000728,-0.00004343,0.00001488,-0.00051008,0.00673
 061,0.00105097,0.00157803,0.00158361,0.00223422,0.01192039,-0.03608114
 ,0.02855234,-0.00026990,-0.00041213,-0.00044834,0.00006096,-0.00322986
 ,-0.00040022,-0.00013719,-0.00044886,-0.00003778,0.00000769,-0.0011238
 3,-0.00013892,-0.00000619,0.00001739,0.00000076,-0.00000818,0.00001054
 ,0.00000717,0.00000227,-0.00000442,-0.00000298,-0.00000245,0.00000229,
 0.00000514,0.00000013,-0.00000187,-0.00000040,0.00000280,0.00000213,-0
 .00000149,-0.00000022,-0.00000284,-0.00000133,0.00000083,0.00000135,-0
 .00000019,0.00000094,-0.00000071,0.00000042,-0.00000244,-0.00000095,-0
 .00000126,0.00000249,0.00000037,0.00000149,-0.00000004,0.00000010,-0.0
 0000038,0.00000044,-0.00000110,0.00000045,-0.00000148,-0.00000103,-0.0
 0000070,0.00000279,-0.00000245,-0.00000166,-0.00000125,-0.00000029,0.0
 0000034,0.00000117,0.00000011,0.00000053,-0.00000045,0.00000057,-0.000
 00115,-0.00002519,0.00000381,0.00003018,0.00001194,0.00003955,0.000019
 02,-0.00009858,0.00830074,0.00069738,0.00001582,-0.00001412,-0.0000094
 5,0.00000917,-0.00002162,-0.00000378,-0.00001194,0.00023957,0.00001661
 ,0.00000207,-0.00000632,-0.00003110,0.00000122,-0.00001076,0.00000614,
 -0.00000950,-0.00001622,0.00000437,-0.00000136,0.00001230,0.00000284,0
 .00000402,0.00000860,-0.00000474,-0.00000140,-0.00000272,-0.00000152,-
 0.00000045,0.00000099,0.00000108,-0.00000040,-0.00000173,0.00000024,-0
 .00000214,-0.00000085,-0.00000148,0.00000079,-0.00000087,0.00000107,-0
 .00000043,0.00000043,0.00000016,-0.00000007,0.00000122,-0.00000013,-0.
 00000212,0.00000076,0.00000136,0.00000092,-0.00000056,0.00000077,0.000
 00108,-0.00000163,-0.00000292,-0.00000014,0.00000049,0.00000045,-0.000
 00096,-0.00000035,-0.00000028,0.00000139,-0.00000083,-0.00000048,0.000
 00206,0.00000202,0.00000124,-0.00000048,-0.00000115,-0.00000073,0.0000
 0023,0.00000035,0.00000023,-0.00000144,0.00004751,0.00000561,0.0000003
 3,-0.00000033,0.00000082,0.00008820,0.00029183,0.00010492,0.00004680,-
 0.00354711,-0.00052634,-0.01268978,0.02779847,-0.00005519,-0.00001563,
 0.00008014,0.00000538,-0.00000317,-0.00004016,-0.00001697,-0.00000839,
 0.00003300,-0.00000760,0.00000293,-0.00010159,0.00384713,0.00107229,-0
 .00213710,-0.01340987,0.00200891,-0.01667269,-0.10963031,0.02848795,-0
 .28883466,0.00225023,-0.00018423,0.00131089,-0.00029799,-0.00040614,0.
 00018915,0.00102919,-0.00006739,0.00022248,0.00002512,-0.00013799,0.00
 005024,0.00001760,-0.00004692,0.00000309,0.00004111,-0.00002099,0.0000
 0078,-0.00000233,0.00000779,-0.00000067,-0.00000060,-0.00000361,-0.000
 00257,-0.00000145,0.00000602,0.00000076,-0.00000071,-0.00000255,0.0000
 0196,-0.00000151,0.00000780,0.00000009,-0.00000047,-0.00000169,0.00000
 276,-0.00000457,0.00000263,-0.00000060,0.00000184,-0.00000056,-0.00000
 052,-0.00000513,0.00000172,-0.00000230,0.00000223,-0.00000073,-0.00000
 029,-0.00000376,0.00000376,0.00000013,0.00000184,-0.00000093,0.0000002
 0,-0.00000595,0.00000288,-0.00000057,0.00000456,0.00000021,0.00000018,
 -0.00000613,0.00000191,-0.00000067,0.00000246,-0.00000168,0.00000182,0
 .00010893,-0.00014743,0.00003185,-0.00011533,0.00001458,-0.00011529,-0
 .00004809,0.00075259,0.00184813,-0.00010217,0.00008430,0.00002489,-0.0
 0006488,0.00007619,-0.00002060,0.00020671,0.00005588,-0.00002134,0.000
 12915,0.00012733,0.00003320,-0.00009899,-0.00009170,0.00002045,-0.0000
 8809,-0.00006846,-0.00002821,0.00004419,0.00001858,0.00000966,0.000026
 42,0.00004020,-0.00000165,-0.00000720,-0.00000335,-0.00000371,-0.00000
 746,-0.00000084,-0.00000083,-0.00000204,-0.00000573,-0.00000129,-0.000
 00437,-0.00000683,-0.00000131,0.00000467,-0.00000119,0.00000026,-0.000
 00634,-0.00000018,-0.00000006,0.00000159,0.00000059,0.00000175,-0.0000
 0043,0.00000042,0.00000386,-0.00000259,-0.00000452,-0.00000010,0.00000
 173,0.00000059,-0.00000251,0.00000102,0.00000186,-0.00000058,-0.000004
 63,-0.00000290,-0.00000043,0.00000149,0.00000121,0.00000027,0.00000019
 ,0.00000474,-0.00000061,-0.00000346,-0.00000626,-0.00000087,0.00000226
 ,0.00000225,0.00000190,0.00000552,0.00000741,-0.00001788,-0.00000156,0
 .00000231,-0.00000632,-0.00075426,0.00008824,-0.00057334,-0.00007005,-
 0.00052672,0.00094057,0.11708277,-0.03112166,0.30378555,-0.00576615,0.
 00259646,-0.02951830,-0.12518267,0.00925176,-0.11801414,0.01129979,-0.
 00123181,0.01532756,-0.00071153,-0.00041291,0.00324884,-0.00008860,-0.
 00000043,-0.00003445,0.00006226,-0.00000149,0.00002599,0.00003353,0.00
 000350,-0.00003167,-0.00001759,0.00000314,-0.00004824,-0.00000785,0.00
 000315,-0.00002468,0.00005212,0.00006592,-0.00029765,-0.00103473,-0.00
 027209,0.00255775,-0.00000341,0.00000020,0.00000743,0.00000532,0.00003
 781,0.00001022,0.00000008,0.00000323,-0.00000644,-0.00000045,0.0000008
 2,0.00000200,0.00000114,-0.00000211,0.00000040,-0.00000010,-0.00000123
 ,-0.00000425,0.00000034,0.00000177,-0.00000346,0.00000048,-0.00000021,
 -0.00000468,0.00000063,-0.00000058,0.00000175,-0.00000333,-0.00000327,
 0.00000221,-0.00000649,-0.00000479,-0.00000120,0.00000479,0.00000932,-
 0.00000029,0.00000238,-0.00000110,-0.00000060,-0.00000298,-0.00000445,
 -0.00000568,-0.00001261,-0.00001560,0.00003382,-0.00000511,-0.00000435
 ,0.00000848,0.00000770,-0.00000670,-0.00001425,-0.00000460,0.00002818,
 -0.00001939,0.00000149,-0.00000947,0.00003239,-0.00701241,-0.00006899,
 -0.00120763,-0.00006465,0.00000682,-0.00003598,0.00002271,-0.00000650,
 -0.00002871,-0.00000833,-0.00001106,-0.00007187,0.00029873,-0.00004110
 ,0.00027260,0.00004001,-0.00002192,0.00005104,0.00000882,0.00003230,-0
 .00003520,-0.00001044,0.00004273,-0.00009145,-0.00000274,0.00000437,0.
 00000173,-0.00002526,-0.00005096,0.00000046,-0.00000047,-0.00000046,-0
 .00000087,0.00000088,-0.00000098,-0.00000594,0.00000247,0.00000542,0.0
 0001661,-0.00000539,0.00000575,0.00001214,-0.00000077,0.00000173,0.000
 00207,0.00000057,-0.00000030,0.00000126,0.00000017,0.00000092,-0.00000
 381,0.00000064,0.00000196,-0.00000388,0.00000091,0.00000005,0.00000130
 ,-0.00000104,-0.00000026,0.00000139,-0.00000728,-0.00001100,-0.0000101
 4,0.00000359,0.00000643,-0.00000762,-0.00000431,-0.00000022,0.00000262
 ,-0.00000185,-0.00000006,-0.00000533,0.00000421,0.00000541,-0.00000418
 ,0.00000585,-0.00001296,-0.00000695,0.00071516,0.00000526,0.00059786,0
 .00074919,0.00011798,-0.00057889,0.00015547,-0.00000693,0.00006555,-0.
 00000858,0.00000097,-0.00000337,0.00000259,0.00000066,-0.00001280,0.12
 651770,-0.00010722,0.00057671,-0.00061512,0.00916582,-0.03735296,0.019
 33093,0.00157750,0.00342028,0.00201871,-0.00034968,0.00833553,0.001064
 99,-0.00000831,0.00010669,0.00000421,-0.00000124,-0.00006619,0.0000080
 1,0.00002096,0.00002364,0.00000089,-0.00002075,0.00016896,-0.00000373,
 -0.00000118,-0.00000552,-0.00000102,0.00000213,-0.00172331,-0.00020684
 ,-0.00012627,-0.00015025,0.00011923,0.00000371,0.00000595,-0.00001100,
 -0.00002090,0.00002107,-0.00003602,-0.00000073,-0.00000182,0.00000418,
 -0.00000254,0.00000180,-0.00000340,0.00000279,-0.00000217,-0.00000269,
 -0.00000131,-0.00000134,0.00000429,0.00000173,0.00000184,0.00000377,-0
 .00000029,0.00000069,0.00000397,0.00000123,-0.00000198,-0.00000136,-0.
 00000084,0.00000098,-0.00000304,0.00000381,0.00000138,-0.00003328,0.00
 001149,-0.00000921,0.00001586,-0.00000694,-0.00000332,0.00001110,-0.00
 000020,-0.00000368,-0.00000314,0.00000396,-0.00000304,-0.00002672,-0.0
 0000808,-0.00000149,0.00001629,-0.00000173,0.00000041,0.00000553,0.000
 00820,0.00001720,0.00000753,0.00002259,0.00004028,-0.00000060,-0.00031
 028,0.00722098,0.00041228,0.00002305,0.00001721,0.00002653,-0.00001442
 ,-0.00001819,0.00002139,0.00006318,-0.00014089,0.00000095,0.00003498,-
 0.00035475,-0.00001215,0.00005588,0.00006527,-0.00000588,-0.00003214,-
 0.00003652,-0.00001165,-0.00013836,-0.00014327,-0.00003847,0.00001823,
 0.00000251,0.00001668,0.00000252,0.00010208,0.00004794,-0.00000480,-0.
 00000032,-0.00001360,-0.00000160,0.,-0.00000003,-0.00000537,-0.0000140
 3,0.00001686,0.00000466,-0.00002066,0.00003890,0.00000291,0.00000110,0
 .00000246,-0.00000341,-0.00000080,0.00000156,0.00000250,-0.00000047,-0
 .00000432,0.00000229,-0.00000219,-0.00000404,-0.00000384,-0.00000168,0
 .00000157,0.00000461,-0.00000423,0.00000477,-0.00000987,0.00000693,-0.
 00000865,-0.00000392,-0.00000086,-0.00000464,0.00000943,-0.00000442,-0
 .00000721,0.00000105,0.00000005,0.00000476,0.00000608,-0.00000296,-0.0
 0001227,-0.00001775,-0.00000172,-0.00001787,0.00008905,-0.00256022,-0.
 00024477,0.00009083,-0.00415514,-0.00046829,0.00000278,0.00008806,0.00
 001298,0.00000130,-0.00004419,-0.00000411,0.00000042,0.00003673,0.0000
 0430,-0.01003770,0.02656948,0.00285406,-0.00013497,0.00251911,-0.11866
 996,0.01918818,-0.26680043,-0.01526483,0.00175454,-0.01824684,0.003156
 19,0.00100861,-0.00226269,-0.00008202,0.00001838,-0.00007490,0.0000085
 1,-0.00001096,0.00004351,-0.00001031,0.00000699,-0.00003250,0.00002034
 ,0.00000874,0.00006221,0.00001977,-0.00000204,0.00000830,0.00005164,-0
 .00017239,0.00013863,0.00103208,-0.00000218,0.00006885,-0.00003915,0.0
 0013528,-0.00004662,-0.00015786,0.00005500,-0.00004980,0.00000179,-0.0
 0002515,0.00002094,0.00000130,0.00001417,-0.00000646,0.00000785,-0.000
 01637,-0.00000578,-0.00000405,0.00000553,0.00001037,0.00000517,-0.0000
 2409,0.00000982,-0.00000145,0.00000452,0.00000548,0.00001505,-0.000009
 61,-0.00000388,0.00000245,0.00000979,-0.00000370,0.00002603,0.00000191
 ,-0.00003030,0.00000351,-0.00002027,0.00002453,-0.00000150,-0.00001397
 ,0.00001276,0.00000145,0.00000807,0.00000060,0.00005404,0.00000339,-0.
 00006418,-0.00001589,0.00000227,-0.00000321,0.00000940,0.00000316,0.00
 002583,0.00000975,-0.00002181,0.00003072,-0.00051871,0.00044475,-0.000
 15059,-0.00005072,0.00048346,0.00186813,0.00000994,0.00000663,-0.00007
 235,0.00027209,-0.00022683,0.00001942,0.00026000,-0.00034576,0.0002478
 7,-0.00021044,-0.00000240,-0.00057262,-0.00058624,-0.00028903,-0.00018
 133,0.00030200,0.00019757,0.00003140,0.00033990,0.00020094,0.00025857,
 -0.00013058,-0.00003765,-0.00005937,-0.00005325,-0.00011494,-0.0000400
 3,0.00002370,0.00000877,0.00001947,0.00002049,0.00000431,0.00001134,0.
 00000259,0.00001934,-0.00002451,0.00000808,0.00002821,-0.00004805,-0.0
 0001183,-0.00000122,-0.00000622,0.00002003,0.00000234,-0.00000348,-0.0
 0000708,-0.00000194,0.00000711,-0.00000602,-0.00000064,0.00000333,0.00
 001191,0.00001316,-0.00000187,-0.00000595,-0.00000139,-0.00000596,0.00
 001160,0.00000563,0.00002507,0.00001055,-0.00000298,0.00001254,-0.0000
 0095,0.00000009,-0.00000431,0.00000460,-0.00001244,0.00000038,-0.00000
 372,0.00001025,0.00001654,0.00000651,0.00000787,0.00002332,-0.00052020
 ,-0.00025307,0.00012753,-0.00009475,-0.00049749,0.00107067,0.00002254,
 0.00000731,0.00001296,-0.00001425,-0.00000388,-0.00000615,-0.00000371,
 0.00000380,-0.00000873,0.12785853,-0.02142749,0.28207956\\0.00000033,0
 .00000094,0.00000476,-0.00000318,0.00000019,-0.00000611,0.00000091,-0.
 00000096,0.,0.00000158,-0.00000096,0.00000550,-0.00000805,0.00000216,0
 .00000960,0.00000378,0.00000124,-0.00000587,0.00000023,0.00000486,0.00
 001402,0.00000197,0.00000402,0.00001015,-0.00000007,-0.00000097,-0.000
 00131,0.00001196,-0.00000148,-0.00000717,-0.00000126,0.00000203,-0.000
 00244,-0.00000299,0.00001545,0.00000173,0.00000046,-0.00001047,-0.0000
 0330,-0.00000313,0.00000172,-0.00001367,-0.00000165,0.00000038,0.00000
 281,-0.00000095,-0.00000387,0.00000391,-0.00000375,-0.00000168,0.00000
 064,-0.00000101,-0.00001511,0.00000310,-0.00000111,0.00000272,-0.00000
 542,-0.00000251,0.00000503,-0.00000375,-0.00000281,0.00000299,-0.00000
 161,-0.00000157,0.00000201,0.00000471,-0.00000002,-0.00000089,-0.00000
 743,-0.00000267,0.00000094,-0.00000239,-0.00000410,-0.00000273,-0.0000
 0284,0.00000414,-0.00000079,-0.00000308,-0.00000738,-0.00002254,0.0000
 1104,-0.00000224,0.00000272,-0.00000297,-0.00000112,-0.00000080,0.0000
 0134,0.00000190,0.00001284,-0.00000547,0.00000010,0.00000019,0.0000039
 5,-0.00000172,0.00000550,-0.00000179,0.00000559,-0.00000955,0.00000446
 ,-0.00000289,0.00000036,0.00000580,-0.00001300,-0.00000612,0.00000052,
 0.00001105,0.00000222,-0.00001092,-0.00000649,-0.00000765,0.00000911,-
 0.00000421,0.00000052,0.00000477,0.00000306,0.00001089,-0.00000338,-0.
 00000756,-0.00000106,-0.00000437,0.00000962,-0.00000361,0.00000139,0.0
 0000127,-0.00000303,0.00000047,0.00000636,0.00000729,0.00000091,0.0000
 0166,0.00000218,0.00000258,0.00000052,0.00001353,-0.00001352,-0.000007
 63,0.00000014,-0.00000875,0.00000423,0.00000061,-0.00000017,0.00000062
 ,-0.00000155,0.00000075,-0.00000178,-0.00000250,-0.00000138,0.00000333
 ,0.00000013,0.00000377,0.00000049,-0.00000096,0.00000303,0.00000265,-0
 .00000628,0.00000150,0.00000254,-0.00000696,-0.00000264,0.00000521,-0.
 00000131,0.00000256,0.00000422,-0.00000187,-0.00000092,0.00000138,-0.0
 0000301,-0.00000122,0.00000222,0.00000135,0.00000197,0.00000475,0.0000
 0102,0.00000127,0.00000181,0.00000203,0.00000131,-0.00000196,0.0000044
 3,0.00000313,-0.00000303,0.00000355,-0.00000516,0.00000187,0.00000052,
 0.00000247\\\@
 The archive entry for this job was punched.


 My opinions may have changed, but not the fact that I am right.
                       -- Ashleigh Brilliant
 Job cpu time:       0 days  9 hours  1 minutes  7.0 seconds.
 Elapsed time:       0 days  0 hours 34 minutes 27.2 seconds.
 File lengths (MBytes):  RWF=   1794 Int=      0 D2E=      0 Chk=     19 Scr=      1
 Normal termination of Gaussian 16 at Sat Dec  7 22:37:53 2024.
