/mnt/lustre/scratch/nvme/SLURM/9663725/usccqdma.zmJo7fv5nK
OMP_STACKSIZE=0m
GAUSS_PDEF=16
GAUSS_MDEF=65536MB
GAUSS_RDEF=SCF=Direct
 Entering Gaussian System, Link 0=g16.exe
 Initial command:
 /opt/cesga/2020/software/Core/g16/c1/l1.exe "/mnt/lustre/scratch/nvme/SLURM/9663725/usccqdma.zmJo7fv5nK/Gau-145336.inp" -scrdir="/mnt/lustre/scratch/nvme/SLURM/9663725/usccqdma.zmJo7fv5nK/"
 Default is to use a total of  16 processors:
                               16 via shared-memory
                                1 via Linda
 Entering Link 1 = /opt/cesga/2020/software/Core/g16/c1/l1.exe PID=    145362.
  
 Copyright (c) 1988-2019, Gaussian, Inc.  All Rights Reserved.
  
 This is part of the Gaussian(R) 16 program.  It is based on
 the Gaussian(R) 09 system (copyright 2009, Gaussian, Inc.),
 the Gaussian(R) 03 system (copyright 2003, Gaussian, Inc.),
 the Gaussian(R) 98 system (copyright 1998, Gaussian, Inc.),
 the Gaussian(R) 94 system (copyright 1995, Gaussian, Inc.),
 the Gaussian 92(TM) system (copyright 1992, Gaussian, Inc.),
 the Gaussian 90(TM) system (copyright 1990, Gaussian, Inc.),
 the Gaussian 88(TM) system (copyright 1988, Gaussian, Inc.),
 the Gaussian 86(TM) system (copyright 1986, Carnegie Mellon
 University), and the Gaussian 82(TM) system (copyright 1983,
 Carnegie Mellon University). Gaussian is a federally registered
 trademark of Gaussian, Inc.
  
 This software contains proprietary and confidential information,
 including trade secrets, belonging to Gaussian, Inc.
  
 This software is provided under written license and may be
 used, copied, transmitted, or stored only in accord with that
 written license.
  
 The following legend is applicable only to US Government
 contracts under FAR:
  
                    RESTRICTED RIGHTS LEGEND
  
 Use, reproduction and disclosure by the US Government is
 subject to restrictions as set forth in subparagraphs (a)
 and (c) of the Commercial Computer Software - Restricted
 Rights clause in FAR 52.227-19.
  
 Gaussian, Inc.
 340 Quinnipiac St., Bldg. 40, Wallingford CT 06492
  
  
 ---------------------------------------------------------------
 Warning -- This program may not be used in any manner that
 competes with the business of Gaussian, Inc. or will provide
 assistance to any competitor of Gaussian, Inc.  The licensee
 of this program is prohibited from giving any competitor of
 Gaussian, Inc. access to this program.  By using this program,
 the user acknowledges that Gaussian, Inc. is engaged in the
 business of creating and licensing software in the field of
 computational chemistry and represents and warrants to the
 licensee that it is not a competitor of Gaussian, Inc. and that
 it will not use this program in any manner prohibited above.
 ---------------------------------------------------------------
  

 Cite this work as:
 Gaussian 16, Revision C.01,
 M. J. Frisch, G. W. Trucks, H. B. Schlegel, G. E. Scuseria, 
 M. A. Robb, J. R. Cheeseman, G. Scalmani, V. Barone, 
 G. A. Petersson, H. Nakatsuji, X. Li, M. Caricato, A. V. Marenich, 
 J. Bloino, B. G. Janesko, R. Gomperts, B. Mennucci, H. P. Hratchian, 
 J. V. Ortiz, A. F. Izmaylov, J. L. Sonnenberg, D. Williams-Young, 
 F. Ding, F. Lipparini, F. Egidi, J. Goings, B. Peng, A. Petrone, 
 T. Henderson, D. Ranasinghe, V. G. Zakrzewski, J. Gao, N. Rega, 
 G. Zheng, W. Liang, M. Hada, M. Ehara, K. Toyota, R. Fukuda, 
 J. Hasegawa, M. Ishida, T. Nakajima, Y. Honda, O. Kitao, H. Nakai, 
 T. Vreven, K. Throssell, J. A. Montgomery, Jr., J. E. Peralta, 
 F. Ogliaro, M. J. Bearpark, J. J. Heyd, E. N. Brothers, K. N. Kudin, 
 V. N. Staroverov, T. A. Keith, R. Kobayashi, J. Normand, 
 K. Raghavachari, A. P. Rendell, J. C. Burant, S. S. Iyengar, 
 J. Tomasi, M. Cossi, J. M. Millam, M. Klene, C. Adamo, R. Cammi, 
 J. W. Ochterski, R. L. Martin, K. Morokuma, O. Farkas, 
 J. B. Foresman, and D. J. Fox, Gaussian, Inc., Wallingford CT, 2019.
 
 ******************************************
 Gaussian 16:  ES64L-G16RevC.01  3-Jul-2019
                 7-Dec-2024 
 ******************************************
 Default route: SCF=Direct
 ----------------------------------------------------
 # m06/genecp scf=tight int=ultrafine 5d freq=noraman
 ----------------------------------------------------
 1/10=4,30=1,38=1/1,3;
 2/12=2,17=6,18=5,40=1/2;
 3/5=7,8=1,11=2,16=1,17=8,25=1,30=1,71=2,74=-54,75=-5,140=1/1,2,3;
 4//1;
 5/5=2,32=2,38=5,98=1/2;
 8/6=4,10=90,11=11/1;
 11/6=1,8=1,9=11,15=111,16=1/1,2,10;
 10/6=1/2;
 6/7=2,8=2,9=2,10=2,28=1/1;
 7/8=1,10=1,25=1/1,2,3,16;
 1/10=4,30=1/3;
 99//99;
 ------
 OPT-TS
 ------
 Symbolic Z-matrix:
 Charge =  0 Multiplicity = 1
 C                     2.24837   3.05252  -0.32922 
 H                     1.22337   3.39527  -0.17763 
 C                     3.3127    3.92863  -0.50382 
 C                     4.58272   3.39974  -0.6915 
 H                     5.43998   4.05254  -0.84487 
 C                     4.75199   2.02172  -0.68211 
 C                     4.95697  -0.95819  -0.41022 
 C                     4.95753  -2.34361  -0.32599 
 H                     5.89883  -2.88941  -0.3122 
 C                     3.74477  -3.0171   -0.24755 
 C                     2.5724   -2.274    -0.26339 
 H                     1.59067  -2.7386   -0.17656 
 C                     3.73975  -0.27759  -0.42763 
 C                     3.64373   1.19893  -0.48747 
 C                    -2.16488   3.33795   0.43413 
 C                    -3.02591   2.44712  -0.50542 
 C                    -2.45309   3.09311   1.91013 
 H                    -2.41345   2.01988   2.13731 
 H                    -3.43112   3.49449   2.20958 
 H                    -1.67817   3.59322   2.50624 
 C                    -2.22073   4.82292   0.1348 
 H                    -1.58507   5.36887   0.84454 
 H                    -3.24668   5.20464   0.24053 
 H                    -1.8689    5.04824  -0.87835 
 C                    -4.41769   2.13612   0.01032 
 H                    -4.95264   1.51662  -0.7221 
 H                    -4.99969   3.05686   0.16363 
 H                    -4.37636   1.58021   0.95368 
 C                    -3.10739   2.9855   -1.92876 
 H                    -2.10927   3.22962  -2.31521 
 H                    -3.74286   3.87924  -1.99823 
 H                    -3.53438   2.20711  -2.57423 
 C                    -1.99662  -1.89379  -2.77162 
 C                    -1.93503  -2.88215  -1.57302 
 C                    -3.26645  -1.05191  -2.77973 
 H                    -3.42901  -0.57929  -1.80313 
 H                    -4.14957  -1.64508  -3.05533 
 H                    -3.14334  -0.24927  -3.51891 
 C                    -1.79255  -2.53156  -4.13192 
 H                    -1.84924  -1.76142  -4.91185 
 H                    -2.57379  -3.27852  -4.3361 
 H                    -0.81356  -3.01729  -4.21156 
 C                    -3.27384  -3.43796  -1.12968 
 H                    -3.12938  -4.13078  -0.28945 
 H                    -3.75941  -3.9933   -1.94541 
 H                    -3.94661  -2.63977  -0.79778 
 C                    -0.94747  -4.02334  -1.78776 
 H                     0.02076  -3.64279  -2.14158 
 H                    -1.31668  -4.76486  -2.50934 
 H                    -0.78567  -4.52763  -0.825 
 B                    -0.94126   1.51364  -0.24708 
 B                    -0.67864  -1.01879  -1.1154 
 N                     2.41055   1.72409  -0.32542 
 N                     2.56943  -0.94131  -0.36126 
 O                    -0.83935   2.85117   0.17646 
 O                    -2.2704    1.23548  -0.55281 
 O                    -0.89918  -1.01519  -2.49451 
 O                    -1.39916  -2.0612   -0.52985 
 Ir                    0.65521   0.2728   -0.34984 
 H                     3.13953   5.00165  -0.49813 
 H                     3.70105  -4.10037  -0.17013 
 B                    -0.09953  -0.54839   1.29352 
 O                    -1.22085  -0.15382   2.0136 
 O                     0.56065  -1.58539   1.95614 
 C                    -1.16081  -0.77856   3.30038 
 C                    -0.28894  -2.03809   3.01978 
 C                    -0.4904    0.20825   4.24927 
 C                    -2.57314  -1.06773   3.76821 
 C                     0.57469  -2.48421   4.18373 
 C                    -1.09536  -3.21905   2.49389 
 H                     0.537     0.42642   3.92949 
 H                    -0.46726  -0.16292   5.28301 
 H                    -1.05272   1.15083   4.23482 
 H                    -3.1081   -0.12223   3.93091 
 H                    -2.56882  -1.62265   4.71774 
 H                    -3.13069  -1.64511   3.02293 
 H                     1.15296  -3.37191   3.89566 
 H                    -0.04576  -2.75271   5.0512 
 H                     1.28261  -1.70497   4.48704 
 H                    -1.73533  -2.91586   1.65708 
 H                    -1.7082   -3.67737   3.28249 
 H                    -0.39386  -3.97756   2.11866 
 H                     5.74002   1.59557  -0.83589 
 H                     5.89895  -0.41691  -0.44723 
 

 GradGradGradGradGradGradGradGradGradGradGradGradGradGradGradGradGradGrad
 Berny optimization.
 Initialization pass.
 Trust Radius=3.00D-01 FncErr=1.00D-07 GrdErr=1.00D-07 EigMax=2.50D+02 EigMin=1.00D-04
 Number of steps in this run=      2 maximum allowed number of steps=      2.
 GradGradGradGradGradGradGradGradGradGradGradGradGradGradGradGradGradGrad

 Stoichiometry    C28H44B3IrN2O6
 Framework group  C1[X(C28H44B3IrN2O6)]
 Deg. of freedom   246
 Full point group                 C1      NOp   1
 Largest Abelian subgroup         C1      NOp   1
 Largest concise Abelian subgroup C1      NOp   1
                         Standard orientation:                         
 ---------------------------------------------------------------------
 Center     Atomic      Atomic             Coordinates (Angstroms)
 Number     Number       Type             X           Y           Z
 ---------------------------------------------------------------------
      1          6           0        2.248369    3.052520   -0.329221
      2          1           0        1.223369    3.395269   -0.177631
      3          6           0        3.312699    3.928630   -0.503821
      4          6           0        4.582719    3.399741   -0.691501
      5          1           0        5.439979    4.052541   -0.844871
      6          6           0        4.751990    2.021721   -0.682111
      7          6           0        4.956972   -0.958189   -0.410221
      8          6           0        4.957532   -2.343609   -0.325991
      9          1           0        5.898832   -2.889408   -0.312201
     10          6           0        3.744773   -3.017099   -0.247551
     11          6           0        2.572402   -2.274000   -0.263391
     12          1           0        1.590672   -2.738601   -0.176561
     13          6           0        3.739751   -0.277589   -0.427631
     14          6           0        3.643730    1.198931   -0.487471
     15          6           0       -2.164881    3.337948    0.434129
     16          6           0       -3.025910    2.447117   -0.505421
     17          6           0       -2.453091    3.093107    1.910129
     18          1           0       -2.413450    2.019877    2.137309
     19          1           0       -3.431121    3.494487    2.209579
     20          1           0       -1.678171    3.593218    2.506239
     21          6           0       -2.220731    4.822918    0.134799
     22          1           0       -1.585072    5.368868    0.844539
     23          1           0       -3.246682    5.204637    0.240529
     24          1           0       -1.868902    5.048238   -0.878351
     25          6           0       -4.417690    2.136116    0.010319
     26          1           0       -4.952640    1.516616   -0.722101
     27          1           0       -4.999691    3.056856    0.163629
     28          1           0       -4.376360    1.580206    0.953679
     29          6           0       -3.107390    2.985497   -1.928761
     30          1           0       -2.109271    3.229618   -2.315211
     31          1           0       -3.742861    3.879237   -1.998231
     32          1           0       -3.534380    2.207107   -2.574231
     33          6           0       -1.996618   -1.893792   -2.771621
     34          6           0       -1.935028   -2.882152   -1.573021
     35          6           0       -3.266448   -1.051913   -2.779731
     36          1           0       -3.429009   -0.579293   -1.803131
     37          1           0       -4.149568   -1.645083   -3.055331
     38          1           0       -3.143339   -0.249273   -3.518911
     39          6           0       -1.792548   -2.531562   -4.131921
     40          1           0       -1.849238   -1.761422   -4.911851
     41          1           0       -2.573787   -3.278523   -4.336101
     42          1           0       -0.813557   -3.017292   -4.211561
     43          6           0       -3.273837   -3.437963   -1.129681
     44          1           0       -3.129377   -4.130783   -0.289451
     45          1           0       -3.759407   -3.993303   -1.945411
     46          1           0       -3.946608   -2.639773   -0.797781
     47          6           0       -0.947467   -4.023342   -1.787761
     48          1           0        0.020763   -3.642791   -2.141581
     49          1           0       -1.316677   -4.764862   -2.509341
     50          1           0       -0.785667   -4.527632   -0.825001
     51          5           0       -0.941260    1.513638   -0.247081
     52          5           0       -0.678638   -1.018792   -1.115401
     53          7           0        2.410550    1.724090   -0.325421
     54          7           0        2.569432   -0.941310   -0.361261
     55          8           0       -0.839350    2.851168    0.176459
     56          8           0       -2.270400    1.235478   -0.552811
     57          8           0       -0.899178   -1.015192   -2.494511
     58          8           0       -1.399158   -2.061202   -0.529851
     59         77           0        0.655211    0.272799   -0.349841
     60          1           0        3.139529    5.001650   -0.498131
     61          1           0        3.701053   -4.100369   -0.170131
     62          5           0       -0.099529   -0.548391    1.293519
     63          8           0       -1.220849   -0.153822    2.013599
     64          8           0        0.560652   -1.585391    1.956139
     65          6           0       -1.160809   -0.778562    3.300379
     66          6           0       -0.288938   -2.038091    3.019779
     67          6           0       -0.490399    0.208248    4.249269
     68          6           0       -2.573138   -1.067733    3.768209
     69          6           0        0.574692   -2.484211    4.183729
     70          6           0       -1.095357   -3.219052    2.493889
     71          1           0        0.537001    0.426419    3.929489
     72          1           0       -0.467259   -0.162922    5.283009
     73          1           0       -1.052720    1.150828    4.234819
     74          1           0       -3.108099   -0.122233    3.930909
     75          1           0       -2.568818   -1.622653    4.717739
     76          1           0       -3.130688   -1.645113    3.022929
     77          1           0        1.152963   -3.371911    3.895659
     78          1           0       -0.045758   -2.752711    5.051199
     79          1           0        1.282612   -1.704971    4.487039
     80          1           0       -1.735327   -2.915862    1.657079
     81          1           0       -1.708197   -3.677372    3.282489
     82          1           0       -0.393857   -3.977562    2.118659
     83          1           0        5.740020    1.595572   -0.835891
     84          1           0        5.898951   -0.416908   -0.447231
 ---------------------------------------------------------------------
 Rotational constants (GHZ):           0.0953525           0.0837942           0.0713970
 General basis read from cards:  (5D, 7F)
 ======================================================================================================
                                       Pseudopotential Parameters
 ======================================================================================================
  Center     Atomic      Valence      Angular      Power
  Number     Number     Electrons     Momentum     of R      Exponent        Coefficient   SO-Coeffient
 ======================================================================================================
    1          6
                                   No pseudopotential on this center.
    2          1
                                   No pseudopotential on this center.
    3          6
                                   No pseudopotential on this center.
    4          6
                                   No pseudopotential on this center.
    5          1
                                   No pseudopotential on this center.
    6          6
                                   No pseudopotential on this center.
    7          6
                                   No pseudopotential on this center.
    8          6
                                   No pseudopotential on this center.
    9          1
                                   No pseudopotential on this center.
   10          6
                                   No pseudopotential on this center.
   11          6
                                   No pseudopotential on this center.
   12          1
                                   No pseudopotential on this center.
   13          6
                                   No pseudopotential on this center.
   14          6
                                   No pseudopotential on this center.
   15          6
                                   No pseudopotential on this center.
   16          6
                                   No pseudopotential on this center.
   17          6
                                   No pseudopotential on this center.
   18          1
                                   No pseudopotential on this center.
   19          1
                                   No pseudopotential on this center.
   20          1
                                   No pseudopotential on this center.
   21          6
                                   No pseudopotential on this center.
   22          1
                                   No pseudopotential on this center.
   23          1
                                   No pseudopotential on this center.
   24          1
                                   No pseudopotential on this center.
   25          6
                                   No pseudopotential on this center.
   26          1
                                   No pseudopotential on this center.
   27          1
                                   No pseudopotential on this center.
   28          1
                                   No pseudopotential on this center.
   29          6
                                   No pseudopotential on this center.
   30          1
                                   No pseudopotential on this center.
   31          1
                                   No pseudopotential on this center.
   32          1
                                   No pseudopotential on this center.
   33          6
                                   No pseudopotential on this center.
   34          6
                                   No pseudopotential on this center.
   35          6
                                   No pseudopotential on this center.
   36          1
                                   No pseudopotential on this center.
   37          1
                                   No pseudopotential on this center.
   38          1
                                   No pseudopotential on this center.
   39          6
                                   No pseudopotential on this center.
   40          1
                                   No pseudopotential on this center.
   41          1
                                   No pseudopotential on this center.
   42          1
                                   No pseudopotential on this center.
   43          6
                                   No pseudopotential on this center.
   44          1
                                   No pseudopotential on this center.
   45          1
                                   No pseudopotential on this center.
   46          1
                                   No pseudopotential on this center.
   47          6
                                   No pseudopotential on this center.
   48          1
                                   No pseudopotential on this center.
   49          1
                                   No pseudopotential on this center.
   50          1
                                   No pseudopotential on this center.
   51          5
                                   No pseudopotential on this center.
   52          5
                                   No pseudopotential on this center.
   53          7
                                   No pseudopotential on this center.
   54          7
                                   No pseudopotential on this center.
   55          8
                                   No pseudopotential on this center.
   56          8
                                   No pseudopotential on this center.
   57          8
                                   No pseudopotential on this center.
   58          8
                                   No pseudopotential on this center.
   59         77           17
                                      G and up 
                                                     1      823.5880147       -0.15780140    0.00000000
                                                     2      364.6613336    -1517.52704460    0.00000000
                                                     2       55.7082801     -316.53065290    0.00000000
                                                     2       12.0464544      -91.88809410    0.00000000
                                                     2        3.5120610       -9.22417730    0.00000000
                                      S - G
                                                     0      188.0490770        3.15780140    0.00000000
                                                     1      340.4194712       26.83225770    0.00000000
                                                     2      128.2373673      800.42500070    0.00000000
                                                     2       33.8644961      369.40506830    0.00000000
                                                     2        4.7560005      242.41718990    0.00000000
                                                     2        3.9649974     -118.21732820    0.00000000
                                      P - G
                                                     0      289.7291139        2.15780140    0.00000000
                                                     1       87.4633789       61.96786100    0.00000000
                                                     2       30.4363766      269.05819860    0.00000000
                                                     2        4.0553412      231.16547930    0.00000000
                                                     2        3.5525341     -133.69526670    0.00000000
                                      D - G
                                                     0      136.4017106        3.15780140    0.00000000
                                                     1       95.0776925       45.93498030    0.00000000
                                                     2       49.2258410      359.03446680    0.00000000
                                                     2       15.0874145      176.47401190    0.00000000
                                                     2        4.0405764       54.51552860    0.00000000
                                      F - G
                                                     0      127.3507908        3.95461970    0.00000000
                                                     1       66.2364374       52.97736550    0.00000000
                                                     2       34.4299229      274.86433830    0.00000000
                                                     2       10.1995721      137.20473380    0.00000000
                                                     2        2.5409702       14.86333050    0.00000000
   60          1
                                   No pseudopotential on this center.
   61          1
                                   No pseudopotential on this center.
   62          5
                                   No pseudopotential on this center.
   63          8
                                   No pseudopotential on this center.
   64          8
                                   No pseudopotential on this center.
   65          6
                                   No pseudopotential on this center.
   66          6
                                   No pseudopotential on this center.
   67          6
                                   No pseudopotential on this center.
   68          6
                                   No pseudopotential on this center.
   69          6
                                   No pseudopotential on this center.
   70          6
                                   No pseudopotential on this center.
   71          1
                                   No pseudopotential on this center.
   72          1
                                   No pseudopotential on this center.
   73          1
                                   No pseudopotential on this center.
   74          1
                                   No pseudopotential on this center.
   75          1
                                   No pseudopotential on this center.
   76          1
                                   No pseudopotential on this center.
   77          1
                                   No pseudopotential on this center.
   78          1
                                   No pseudopotential on this center.
   79          1
                                   No pseudopotential on this center.
   80          1
                                   No pseudopotential on this center.
   81          1
                                   No pseudopotential on this center.
   82          1
                                   No pseudopotential on this center.
   83          1
                                   No pseudopotential on this center.
   84          1
                                   No pseudopotential on this center.
 ======================================================================================================
 There are   697 symmetry adapted cartesian basis functions of A   symmetry.
 There are   656 symmetry adapted basis functions of A   symmetry.
   656 basis functions,  1311 primitive gaussians,   697 cartesian basis functions
   153 alpha electrons      153 beta electrons
       nuclear repulsion energy      5531.1736509629 Hartrees.
 NAtoms=   84 NActive=   84 NUniq=   84 SFac= 1.00D+00 NAtFMM=   60 NAOKFM=T Big=T
 Integral buffers will be    131072 words long.
 Raffenetti 2 integral format.
 Two-electron integral symmetry is turned on.
 One-electron integrals computed using PRISM.
   1 Symmetry operations used in ECPInt.
 ECPInt:  NShTT=   31878 NPrTT=  193976 LenC2=   25661 LenP2D=   82533.
 LDataN:  DoStor=T MaxTD1= 6 Len=  172
 NBasis=   656 RedAO= T EigKep=  5.42D-04  NBF=   656
 NBsUse=   656 1.00D-06 EigRej= -1.00D+00 NBFU=   656
 Defaulting to unpruned grid for atomic number  77.
 ExpMin= 2.90D-02 ExpMax= 5.48D+03 ExpMxC= 8.25D+02 IAcc=3 IRadAn=         5 AccDes= 0.00D+00
 Harris functional with IExCor= 1009 and IRadAn=       5 diagonalized for initial guess.
 HarFok:  IExCor= 1009 AccDes= 0.00D+00 IRadAn=         5 IDoV= 1 UseB2=F ITyADJ=14
 ICtDFT=  3500011 ScaDFX=  1.000000  1.000000  1.000000  1.000000
 Defaulting to unpruned grid for atomic number  77.
 FoFCou: FMM=F IPFlag=           0 FMFlag=      100000 FMFlg1=        2001
         NFxFlg=           0 DoJE=T BraDBF=F KetDBF=T FulRan=T
         wScrn=  0.000000 ICntrl=       500 IOpCl=  0 I1Cent=   200000004 NGrid=           0
         NMat0=    1 NMatS0=      1 NMatT0=    0 NMatD0=    1 NMtDS0=    0 NMtDT0=    0
 Petite list used in FoFCou.
 Requested convergence on RMS density matrix=1.00D-08 within 128 cycles.
 Requested convergence on MAX density matrix=1.00D-06.
 Requested convergence on             energy=1.00D-06.
 No special actions if energy rises.
 Defaulting to unpruned grid for atomic number  77.
 Defaulting to unpruned grid for atomic number  77.
 Defaulting to unpruned grid for atomic number  77.
 Defaulting to unpruned grid for atomic number  77.
 Defaulting to unpruned grid for atomic number  77.
 Defaulting to unpruned grid for atomic number  77.
 Defaulting to unpruned grid for atomic number  77.
 Defaulting to unpruned grid for atomic number  77.
 Defaulting to unpruned grid for atomic number  77.
 Defaulting to unpruned grid for atomic number  77.
 Defaulting to unpruned grid for atomic number  77.
 Defaulting to unpruned grid for atomic number  77.
 Defaulting to unpruned grid for atomic number  77.
 Defaulting to unpruned grid for atomic number  77.
 Defaulting to unpruned grid for atomic number  77.
 Defaulting to unpruned grid for atomic number  77.
 SCF Done:  E(RM06) =  -1832.76987484     A.U. after   15 cycles
            NFock= 15  Conv=0.61D-08     -V/T= 2.0471
 DoSCS=F DFT=T ScalE2(SS,OS)=  1.000000  1.000000
 Range of M.O.s used for correlation:     1   656
 NBasis=   656 NAE=   153 NBE=   153 NFC=     0 NFV=     0
 NROrb=    656 NOA=   153 NOB=   153 NVA=   503 NVB=   503
   1 Symmetry operations used in ECPInt.
 ECPInt:  NShTT=   31878 NPrTT=  193976 LenC2=   25661 LenP2D=   82533.
 LDataN:  DoStor=T MaxTD1= 7 Len=  274
 Number of processors reduced to  11 by ecpmxn.
 Symmetrizing basis deriv contribution to polar:
 IMax=3 JMax=2 DiffMx= 0.00D+00
 G2DrvN: will do    85 centers at a time, making    1 passes.
 Calling FoFCou, ICntrl=  3107 FMM=T I1Cent=   0 AccDes= 0.00D+00.
 Defaulting to unpruned grid for atomic number  77.
 Defaulting to unpruned grid for atomic number  77.
 Defaulting to unpruned grid for atomic number  77.
 Defaulting to unpruned grid for atomic number  77.
 Defaulting to unpruned grid for atomic number  77.
 Defaulting to unpruned grid for atomic number  77.
 Defaulting to unpruned grid for atomic number  77.
 Defaulting to unpruned grid for atomic number  77.
 Defaulting to unpruned grid for atomic number  77.
 Defaulting to unpruned grid for atomic number  77.
 Defaulting to unpruned grid for atomic number  77.
 Defaulting to unpruned grid for atomic number  77.
 Defaulting to unpruned grid for atomic number  77.
 Defaulting to unpruned grid for atomic number  77.
 Defaulting to unpruned grid for atomic number  77.
 Defaulting to unpruned grid for atomic number  77.
 End of G2Drv F.D. properties file   721 does not exist.
 End of G2Drv F.D. properties file   722 does not exist.
 End of G2Drv F.D. properties file   788 does not exist.
          IDoAtm=11111111111111111111111111111111111111111111111111
          IDoAtm=1111111111111111111111111111111111
          Differentiating once with respect to electric field.
                with respect to dipole field.
          Differentiating once with respect to nuclear coordinates.
 Defaulting to unpruned grid for atomic number  77.
 CalDSu exits because no D1Ps are significant.
 Defaulting to unpruned grid for atomic number  77.
 Defaulting to unpruned grid for atomic number  77.
 Defaulting to unpruned grid for atomic number  77.
 Defaulting to unpruned grid for atomic number  77.
 Defaulting to unpruned grid for atomic number  77.
 Defaulting to unpruned grid for atomic number  77.
 Defaulting to unpruned grid for atomic number  77.
 Defaulting to unpruned grid for atomic number  77.
 Defaulting to unpruned grid for atomic number  77.
 Defaulting to unpruned grid for atomic number  77.
 Defaulting to unpruned grid for atomic number  77.
 Defaulting to unpruned grid for atomic number  77.
 Defaulting to unpruned grid for atomic number  77.
 Defaulting to unpruned grid for atomic number  77.
 Defaulting to unpruned grid for atomic number  77.
 Defaulting to unpruned grid for atomic number  77.
          There are   255 degrees of freedom in the 1st order CPHF.  IDoFFX=6 NUNeed=     3.
    252 vectors produced by pass  0 Test12= 7.70D-14 1.00D-09 XBig12= 4.48D+02 1.13D+01.
 AX will form    72 AO Fock derivatives at one time.
    252 vectors produced by pass  1 Test12= 7.70D-14 1.00D-09 XBig12= 6.15D+01 1.26D+00.
    252 vectors produced by pass  2 Test12= 7.70D-14 1.00D-09 XBig12= 8.36D-01 1.20D-01.
    252 vectors produced by pass  3 Test12= 7.70D-14 1.00D-09 XBig12= 5.23D-03 7.91D-03.
    252 vectors produced by pass  4 Test12= 7.70D-14 1.00D-09 XBig12= 1.85D-05 4.77D-04.
    229 vectors produced by pass  5 Test12= 7.70D-14 1.00D-09 XBig12= 4.42D-08 1.59D-05.
     61 vectors produced by pass  6 Test12= 7.70D-14 1.00D-09 XBig12= 7.43D-11 6.82D-07.
      3 vectors produced by pass  7 Test12= 7.70D-14 1.00D-09 XBig12= 1.13D-13 2.57D-08.
 InvSVY:  IOpt=1 It=  1 EMax= 2.84D-14
 Solved reduced A of dimension  1553 with   255 vectors.
 Isotropic polarizability for W=    0.000000      407.03 Bohr**3.
 End of Minotr F.D. properties file   721 does not exist.
 End of Minotr F.D. properties file   722 does not exist.
 End of Minotr F.D. properties file   788 does not exist.

 **********************************************************************

            Population analysis using the SCF Density.

 **********************************************************************

 Orbital symmetries:
       Occupied  (A) (A) (A) (A) (A) (A) (A) (A) (A) (A) (A) (A)
                 (A) (A) (A) (A) (A) (A) (A) (A) (A) (A) (A) (A)
                 (A) (A) (A) (A) (A) (A) (A) (A) (A) (A) (A) (A)
                 (A) (A) (A) (A) (A) (A) (A) (A) (A) (A) (A) (A)
                 (A) (A) (A) (A) (A) (A) (A) (A) (A) (A) (A) (A)
                 (A) (A) (A) (A) (A) (A) (A) (A) (A) (A) (A) (A)
                 (A) (A) (A) (A) (A) (A) (A) (A) (A) (A) (A) (A)
                 (A) (A) (A) (A) (A) (A) (A) (A) (A) (A) (A) (A)
                 (A) (A) (A) (A) (A) (A) (A) (A) (A) (A) (A) (A)
                 (A) (A) (A) (A) (A) (A) (A) (A) (A) (A) (A) (A)
                 (A) (A) (A) (A) (A) (A) (A) (A) (A) (A) (A) (A)
                 (A) (A) (A) (A) (A) (A) (A) (A) (A) (A) (A) (A)
                 (A) (A) (A) (A) (A) (A) (A) (A) (A)
       Virtual   (A) (A) (A) (A) (A) (A) (A) (A) (A) (A) (A) (A)
                 (A) (A) (A) (A) (A) (A) (A) (A) (A) (A) (A) (A)
                 (A) (A) (A) (A) (A) (A) (A) (A) (A) (A) (A) (A)
                 (A) (A) (A) (A) (A) (A) (A) (A) (A) (A) (A) (A)
                 (A) (A) (A) (A) (A) (A) (A) (A) (A) (A) (A) (A)
                 (A) (A) (A) (A) (A) (A) (A) (A) (A) (A) (A) (A)
                 (A) (A) (A) (A) (A) (A) (A) (A) (A) (A) (A) (A)
                 (A) (A) (A) (A) (A) (A) (A) (A) (A) (A) (A) (A)
                 (A) (A) (A) (A) (A) (A) (A) (A) (A) (A) (A) (A)
                 (A) (A) (A) (A) (A) (A) (A) (A) (A) (A) (A) (A)
                 (A) (A) (A) (A) (A) (A) (A) (A) (A) (A) (A) (A)
                 (A) (A) (A) (A) (A) (A) (A) (A) (A) (A) (A) (A)
                 (A) (A) (A) (A) (A) (A) (A) (A) (A) (A) (A) (A)
                 (A) (A) (A) (A) (A) (A) (A) (A) (A) (A) (A) (A)
                 (A) (A) (A) (A) (A) (A) (A) (A) (A) (A) (A) (A)
                 (A) (A) (A) (A) (A) (A) (A) (A) (A) (A) (A) (A)
                 (A) (A) (A) (A) (A) (A) (A) (A) (A) (A) (A) (A)
                 (A) (A) (A) (A) (A) (A) (A) (A) (A) (A) (A) (A)
                 (A) (A) (A) (A) (A) (A) (A) (A) (A) (A) (A) (A)
                 (A) (A) (A) (A) (A) (A) (A) (A) (A) (A) (A) (A)
                 (A) (A) (A) (A) (A) (A) (A) (A) (A) (A) (A) (A)
                 (A) (A) (A) (A) (A) (A) (A) (A) (A) (A) (A) (A)
                 (A) (A) (A) (A) (A) (A) (A) (A) (A) (A) (A) (A)
                 (A) (A) (A) (A) (A) (A) (A) (A) (A) (A) (A) (A)
                 (A) (A) (A) (A) (A) (A) (A) (A) (A) (A) (A) (A)
                 (A) (A) (A) (A) (A) (A) (A) (A) (A) (A) (A) (A)
                 (A) (A) (A) (A) (A) (A) (A) (A) (A) (A) (A) (A)
                 (A) (A) (A) (A) (A) (A) (A) (A) (A) (A) (A) (A)
                 (A) (A) (A) (A) (A) (A) (A) (A) (A) (A) (A) (A)
                 (A) (A) (A) (A) (A) (A) (A) (A) (A) (A) (A) (A)
                 (A) (A) (A) (A) (A) (A) (A) (A) (A) (A) (A) (A)
                 (A) (A) (A) (A) (A) (A) (A) (A) (A) (A) (A) (A)
                 (A) (A) (A) (A) (A) (A) (A) (A) (A) (A) (A) (A)
                 (A) (A) (A) (A) (A) (A) (A) (A) (A) (A) (A) (A)
                 (A) (A) (A) (A) (A) (A) (A) (A) (A) (A) (A) (A)
                 (A) (A) (A) (A) (A) (A) (A) (A) (A) (A) (A) (A)
                 (A) (A) (A) (A) (A) (A) (A) (A) (A) (A) (A) (A)
                 (A) (A) (A) (A) (A) (A) (A) (A) (A) (A) (A) (A)
                 (A) (A) (A) (A) (A) (A) (A) (A) (A) (A) (A) (A)
                 (A) (A) (A) (A) (A) (A) (A) (A) (A) (A) (A) (A)
                 (A) (A) (A) (A) (A) (A) (A) (A) (A) (A) (A) (A)
                 (A) (A) (A) (A) (A) (A) (A) (A) (A) (A) (A)
 The electronic state is 1-A.
 Alpha  occ. eigenvalues --  -19.18967 -19.18900 -19.18846 -19.18837 -19.18350
 Alpha  occ. eigenvalues --  -19.18288 -14.44738 -14.44365 -10.32445 -10.32041
 Alpha  occ. eigenvalues --  -10.30323 -10.30266 -10.29396 -10.28951 -10.28613
 Alpha  occ. eigenvalues --  -10.28374 -10.28267 -10.28252 -10.28192 -10.28046
 Alpha  occ. eigenvalues --  -10.27932 -10.27855 -10.27851 -10.27693 -10.22041
 Alpha  occ. eigenvalues --  -10.22001 -10.21916 -10.21791 -10.21737 -10.21662
 Alpha  occ. eigenvalues --  -10.21505 -10.21479 -10.21244 -10.20842 -10.20749
 Alpha  occ. eigenvalues --  -10.20453  -6.79175  -6.77863  -6.77238  -3.59322
 Alpha  occ. eigenvalues --   -2.02273  -2.01149  -2.00818  -1.04962  -1.04597
 Alpha  occ. eigenvalues --   -1.04496  -0.99984  -0.98050  -0.97648  -0.97587
 Alpha  occ. eigenvalues --   -0.97439  -0.84491  -0.83619  -0.82880  -0.79326
 Alpha  occ. eigenvalues --   -0.79146  -0.79069  -0.77528  -0.73802  -0.73651
 Alpha  occ. eigenvalues --   -0.73564  -0.69349  -0.69297  -0.69197  -0.69009
 Alpha  occ. eigenvalues --   -0.67977  -0.66597  -0.66471  -0.66442  -0.64647
 Alpha  occ. eigenvalues --   -0.63608  -0.60779  -0.60174  -0.60101  -0.57595
 Alpha  occ. eigenvalues --   -0.53692  -0.53485  -0.53374  -0.53301  -0.53125
 Alpha  occ. eigenvalues --   -0.52357  -0.51918  -0.51808  -0.50925  -0.49887
 Alpha  occ. eigenvalues --   -0.47210  -0.46537  -0.46198  -0.46137  -0.45916
 Alpha  occ. eigenvalues --   -0.45769  -0.45128  -0.45047  -0.44960  -0.44813
 Alpha  occ. eigenvalues --   -0.44039  -0.43366  -0.43172  -0.43054  -0.42585
 Alpha  occ. eigenvalues --   -0.42325  -0.42213  -0.42195  -0.40514  -0.39814
 Alpha  occ. eigenvalues --   -0.39311  -0.39201  -0.39050  -0.39019  -0.38838
 Alpha  occ. eigenvalues --   -0.38721  -0.38513  -0.38361  -0.38252  -0.38077
 Alpha  occ. eigenvalues --   -0.37756  -0.37663  -0.36566  -0.36422  -0.36340
 Alpha  occ. eigenvalues --   -0.35781  -0.35601  -0.35445  -0.35237  -0.35038
 Alpha  occ. eigenvalues --   -0.34860  -0.34748  -0.34400  -0.33811  -0.33612
 Alpha  occ. eigenvalues --   -0.33543  -0.33383  -0.32334  -0.31981  -0.31528
 Alpha  occ. eigenvalues --   -0.31104  -0.30938  -0.30197  -0.30021  -0.29934
 Alpha  occ. eigenvalues --   -0.29003  -0.28876  -0.28638  -0.28099  -0.26886
 Alpha  occ. eigenvalues --   -0.26019  -0.25048  -0.24685  -0.24417  -0.23582
 Alpha  occ. eigenvalues --   -0.20537  -0.19417  -0.19277
 Alpha virt. eigenvalues --   -0.07519  -0.04161  -0.03019   0.00571   0.01562
 Alpha virt. eigenvalues --    0.03841   0.04548   0.06387   0.07424   0.07621
 Alpha virt. eigenvalues --    0.08531   0.10387   0.10404   0.10762   0.10993
 Alpha virt. eigenvalues --    0.11775   0.12172   0.13364   0.13657   0.13784
 Alpha virt. eigenvalues --    0.14309   0.14781   0.15056   0.15097   0.15214
 Alpha virt. eigenvalues --    0.15492   0.15700   0.15910   0.16005   0.16173
 Alpha virt. eigenvalues --    0.16543   0.16769   0.16985   0.17032   0.17359
 Alpha virt. eigenvalues --    0.17537   0.17595   0.17872   0.18492   0.18668
 Alpha virt. eigenvalues --    0.19060   0.19215   0.19670   0.19941   0.20053
 Alpha virt. eigenvalues --    0.20133   0.20371   0.20557   0.20844   0.21062
 Alpha virt. eigenvalues --    0.21270   0.21445   0.21650   0.21708   0.21854
 Alpha virt. eigenvalues --    0.21997   0.22270   0.22932   0.23459   0.24326
 Alpha virt. eigenvalues --    0.24693   0.24703   0.25181   0.25323   0.25813
 Alpha virt. eigenvalues --    0.25920   0.26318   0.26645   0.26911   0.27193
 Alpha virt. eigenvalues --    0.27659   0.27734   0.27935   0.28475   0.28606
 Alpha virt. eigenvalues --    0.28664   0.29598   0.29659   0.29747   0.30139
 Alpha virt. eigenvalues --    0.30331   0.31489   0.32317   0.32496   0.33201
 Alpha virt. eigenvalues --    0.33400   0.35185   0.35779   0.36427   0.37064
 Alpha virt. eigenvalues --    0.38117   0.38688   0.39667   0.39902   0.41309
 Alpha virt. eigenvalues --    0.42717   0.43808   0.45039   0.46665   0.47259
 Alpha virt. eigenvalues --    0.48178   0.49383   0.50214   0.50543   0.51503
 Alpha virt. eigenvalues --    0.51756   0.51954   0.52006   0.52125   0.52778
 Alpha virt. eigenvalues --    0.53042   0.53295   0.53538   0.54580   0.55341
 Alpha virt. eigenvalues --    0.55787   0.55996   0.56975   0.57224   0.57404
 Alpha virt. eigenvalues --    0.57940   0.58225   0.58318   0.58483   0.58766
 Alpha virt. eigenvalues --    0.59069   0.59264   0.59332   0.59502   0.59612
 Alpha virt. eigenvalues --    0.60345   0.60473   0.60658   0.60739   0.61365
 Alpha virt. eigenvalues --    0.61674   0.62045   0.62466   0.62845   0.63228
 Alpha virt. eigenvalues --    0.63353   0.63796   0.64339   0.64932   0.65700
 Alpha virt. eigenvalues --    0.66194   0.66721   0.67237   0.67449   0.67589
 Alpha virt. eigenvalues --    0.68283   0.68810   0.69333   0.69807   0.70131
 Alpha virt. eigenvalues --    0.70804   0.70956   0.71193   0.71613   0.72501
 Alpha virt. eigenvalues --    0.73016   0.73378   0.74093   0.74284   0.74530
 Alpha virt. eigenvalues --    0.74718   0.74824   0.75145   0.75757   0.76342
 Alpha virt. eigenvalues --    0.76454   0.77442   0.78045   0.78310   0.78712
 Alpha virt. eigenvalues --    0.79487   0.79827   0.80359   0.80784   0.81579
 Alpha virt. eigenvalues --    0.82016   0.82208   0.82833   0.83007   0.83491
 Alpha virt. eigenvalues --    0.84338   0.84460   0.84667   0.84842   0.85228
 Alpha virt. eigenvalues --    0.85641   0.85926   0.86223   0.86395   0.86682
 Alpha virt. eigenvalues --    0.86855   0.87287   0.87932   0.88381   0.88846
 Alpha virt. eigenvalues --    0.88944   0.89308   0.89747   0.89859   0.90065
 Alpha virt. eigenvalues --    0.90378   0.90890   0.90997   0.91213   0.91508
 Alpha virt. eigenvalues --    0.91730   0.91862   0.92335   0.92627   0.92936
 Alpha virt. eigenvalues --    0.93038   0.93679   0.93829   0.94459   0.94701
 Alpha virt. eigenvalues --    0.95252   0.95618   0.95977   0.96119   0.96481
 Alpha virt. eigenvalues --    0.97006   0.97033   0.97509   0.97932   0.98112
 Alpha virt. eigenvalues --    0.98904   0.99512   0.99648   1.00196   1.00366
 Alpha virt. eigenvalues --    1.00650   1.01752   1.02344   1.02885   1.03543
 Alpha virt. eigenvalues --    1.03910   1.04048   1.04635   1.05812   1.06546
 Alpha virt. eigenvalues --    1.07233   1.08225   1.08418   1.08591   1.09652
 Alpha virt. eigenvalues --    1.09803   1.11459   1.11679   1.12877   1.13941
 Alpha virt. eigenvalues --    1.15504   1.15699   1.16813   1.17380   1.18739
 Alpha virt. eigenvalues --    1.20216   1.20665   1.21479   1.22112   1.22382
 Alpha virt. eigenvalues --    1.23080   1.23893   1.24608   1.24907   1.26319
 Alpha virt. eigenvalues --    1.26897   1.27675   1.28165   1.29564   1.30158
 Alpha virt. eigenvalues --    1.30762   1.32559   1.33006   1.34057   1.34231
 Alpha virt. eigenvalues --    1.35332   1.36288   1.38243   1.38772   1.39283
 Alpha virt. eigenvalues --    1.40015   1.40961   1.41825   1.42478   1.42941
 Alpha virt. eigenvalues --    1.43566   1.44711   1.44873   1.45192   1.45209
 Alpha virt. eigenvalues --    1.45794   1.46271   1.46783   1.47696   1.48848
 Alpha virt. eigenvalues --    1.49429   1.49948   1.51249   1.51636   1.52367
 Alpha virt. eigenvalues --    1.53479   1.53991   1.56135   1.57244   1.58365
 Alpha virt. eigenvalues --    1.58819   1.60324   1.60900   1.61577   1.63142
 Alpha virt. eigenvalues --    1.63981   1.65034   1.65597   1.66153   1.66592
 Alpha virt. eigenvalues --    1.66961   1.68943   1.69759   1.70005   1.70182
 Alpha virt. eigenvalues --    1.71150   1.71572   1.72482   1.73418   1.74278
 Alpha virt. eigenvalues --    1.76069   1.77125   1.77404   1.78288   1.78884
 Alpha virt. eigenvalues --    1.79399   1.79891   1.80772   1.81365   1.82055
 Alpha virt. eigenvalues --    1.82472   1.83915   1.83999   1.84320   1.84913
 Alpha virt. eigenvalues --    1.85496   1.86285   1.86536   1.86815   1.87981
 Alpha virt. eigenvalues --    1.88272   1.89161   1.90381   1.91215   1.91758
 Alpha virt. eigenvalues --    1.92218   1.92580   1.92827   1.92914   1.93436
 Alpha virt. eigenvalues --    1.93729   1.93852   1.94046   1.94268   1.94752
 Alpha virt. eigenvalues --    1.95400   1.96493   1.97669   1.97826   1.98421
 Alpha virt. eigenvalues --    1.98865   2.00401   2.01558   2.02070   2.02546
 Alpha virt. eigenvalues --    2.03447   2.03740   2.04404   2.04725   2.05185
 Alpha virt. eigenvalues --    2.06069   2.07416   2.07975   2.08124   2.08389
 Alpha virt. eigenvalues --    2.08610   2.08773   2.09067   2.10885   2.11471
 Alpha virt. eigenvalues --    2.11746   2.11854   2.12283   2.12436   2.13583
 Alpha virt. eigenvalues --    2.13899   2.15092   2.15595   2.15818   2.16449
 Alpha virt. eigenvalues --    2.16659   2.17254   2.17484   2.18075   2.18583
 Alpha virt. eigenvalues --    2.19313   2.20138   2.20255   2.20428   2.20604
 Alpha virt. eigenvalues --    2.21264   2.21934   2.22826   2.23129   2.23436
 Alpha virt. eigenvalues --    2.24003   2.24668   2.25277   2.25369   2.26313
 Alpha virt. eigenvalues --    2.26557   2.26821   2.27291   2.27561   2.28356
 Alpha virt. eigenvalues --    2.28500   2.28681   2.30129   2.30858   2.31961
 Alpha virt. eigenvalues --    2.33177   2.33436   2.33948   2.34858   2.35014
 Alpha virt. eigenvalues --    2.35378   2.36402   2.36670   2.39429   2.39923
 Alpha virt. eigenvalues --    2.40269   2.40535   2.45222   2.45737   2.46861
 Alpha virt. eigenvalues --    2.47223   2.48087   2.49333   2.49648   2.50285
 Alpha virt. eigenvalues --    2.50321   2.52378   2.52705   2.52860   2.55751
 Alpha virt. eigenvalues --    2.58867   2.59191   2.60608   2.61327   2.61523
 Alpha virt. eigenvalues --    2.61755   2.63191   2.65807   2.65956   2.66261
 Alpha virt. eigenvalues --    2.66573   2.67343   2.68519   2.70960   2.75629
 Alpha virt. eigenvalues --    2.78236   2.78671   2.79178   2.79469   2.80111
 Alpha virt. eigenvalues --    2.80495   2.81349   2.82292   2.82463   2.82784
 Alpha virt. eigenvalues --    2.83575   2.84583   2.85270   2.86300   2.88198
 Alpha virt. eigenvalues --    2.90635   2.91494   2.93071   2.93832   2.96664
 Alpha virt. eigenvalues --    2.97097   2.98037   2.98969   3.06403   3.06944
 Alpha virt. eigenvalues --    3.07270   3.12474   3.12605   3.13781   3.24211
 Alpha virt. eigenvalues --    3.29254   3.43829   9.31085
          Condensed to atoms (all electrons):
 Mulliken charges:
               1
     1  C    0.043704
     2  H    0.243676
     3  C   -0.176366
     4  C   -0.133016
     5  H    0.184160
     6  C   -0.189793
     7  C   -0.187984
     8  C   -0.135885
     9  H    0.181631
    10  C   -0.180172
    11  C    0.090556
    12  H    0.198030
    13  C    0.296010
    14  C    0.301736
    15  C    0.299910
    16  C    0.303576
    17  C   -0.512184
    18  H    0.191783
    19  H    0.140885
    20  H    0.157826
    21  C   -0.512573
    22  H    0.160609
    23  H    0.149601
    24  H    0.163724
    25  C   -0.506451
    26  H    0.161973
    27  H    0.143131
    28  H    0.175492
    29  C   -0.503771
    30  H    0.170673
    31  H    0.143208
    32  H    0.165253
    33  C    0.293931
    34  C    0.306649
    35  C   -0.507309
    36  H    0.192290
    37  H    0.137203
    38  H    0.161771
    39  C   -0.509293
    40  H    0.168861
    41  H    0.144398
    42  H    0.163961
    43  C   -0.511510
    44  H    0.160380
    45  H    0.147045
    46  H    0.178950
    47  C   -0.503958
    48  H    0.161221
    49  H    0.149680
    50  H    0.158189
    51  B    0.421155
    52  B    0.451802
    53  N   -0.533195
    54  N   -0.490337
    55  O   -0.549361
    56  O   -0.518692
    57  O   -0.526002
    58  O   -0.525623
    59  Ir   0.064586
    60  H    0.185790
    61  H    0.183786
    62  B    0.529987
    63  O   -0.516771
    64  O   -0.537321
    65  C    0.299575
    66  C    0.297358
    67  C   -0.507130
    68  C   -0.507354
    69  C   -0.507609
    70  C   -0.505886
    71  H    0.175280
    72  H    0.145494
    73  H    0.165505
    74  H    0.161808
    75  H    0.145042
    76  H    0.177969
    77  H    0.161025
    78  H    0.147101
    79  H    0.167046
    80  H    0.195836
    81  H    0.140091
    82  H    0.147068
    83  H    0.171579
    84  H    0.168984
 Sum of Mulliken charges =  -0.00000
 Mulliken charges with hydrogens summed into heavy atoms:
               1
     1  C    0.287380
     3  C    0.009424
     4  C    0.051144
     6  C   -0.018213
     7  C   -0.019000
     8  C    0.045746
    10  C    0.003614
    11  C    0.288586
    13  C    0.296010
    14  C    0.301736
    15  C    0.299910
    16  C    0.303576
    17  C   -0.021691
    21  C   -0.038639
    25  C   -0.025855
    29  C   -0.024636
    33  C    0.293931
    34  C    0.306649
    35  C   -0.016045
    39  C   -0.032073
    43  C   -0.025135
    47  C   -0.034867
    51  B    0.421155
    52  B    0.451802
    53  N   -0.533195
    54  N   -0.490337
    55  O   -0.549361
    56  O   -0.518692
    57  O   -0.526002
    58  O   -0.525623
    59  Ir   0.064586
    62  B    0.529987
    63  O   -0.516771
    64  O   -0.537321
    65  C    0.299575
    66  C    0.297358
    67  C   -0.020851
    68  C   -0.022534
    69  C   -0.032436
    70  C   -0.022891
 APT charges:
               1
     1  C    0.053277
     2  H    0.142818
     3  C   -0.065699
     4  C    0.127968
     5  H    0.029607
     6  C   -0.205863
     7  C   -0.166218
     8  C    0.078724
     9  H    0.028167
    10  C   -0.031964
    11  C    0.066330
    12  H    0.078054
    13  C    0.154256
    14  C    0.222153
    15  C    0.511598
    16  C    0.499164
    17  C   -0.052495
    18  H    0.040016
    19  H   -0.028455
    20  H   -0.005318
    21  C   -0.007026
    22  H   -0.009478
    23  H   -0.020742
    24  H   -0.003695
    25  C   -0.005210
    26  H   -0.007494
    27  H   -0.025685
    28  H    0.006639
    29  C   -0.031119
    30  H    0.002592
    31  H   -0.030837
    32  H    0.004001
    33  C    0.521695
    34  C    0.483986
    35  C   -0.051255
    36  H    0.038024
    37  H   -0.033277
    38  H   -0.000910
    39  C   -0.010597
    40  H   -0.005570
    41  H   -0.022569
    42  H   -0.004564
    43  C   -0.010101
    44  H   -0.003699
    45  H   -0.022383
    46  H    0.011010
    47  C   -0.025342
    48  H   -0.004675
    49  H   -0.025186
    50  H   -0.006071
    51  B    1.262036
    52  B    1.288018
    53  N   -0.222392
    54  N   -0.120201
    55  O   -1.030197
    56  O   -1.004668
    57  O   -1.031054
    58  O   -0.990296
    59  Ir  -0.633878
    60  H    0.038962
    61  H    0.039565
    62  B    1.251473
    63  O   -0.984867
    64  O   -0.972227
    65  C    0.498672
    66  C    0.515909
    67  C   -0.029292
    68  C   -0.007112
    69  C   -0.014149
    70  C   -0.052685
    71  H    0.001630
    72  H   -0.024960
    73  H    0.001887
    74  H   -0.006557
    75  H   -0.022522
    76  H    0.007764
    77  H   -0.006432
    78  H   -0.016730
    79  H   -0.002769
    80  H    0.051582
    81  H   -0.030582
    82  H   -0.004298
    83  H    0.039143
    84  H    0.034645
 Sum of APT charges =  -0.00000
 APT charges with hydrogens summed into heavy atoms:
               1
     1  C    0.196096
     3  C   -0.026738
     4  C    0.157574
     6  C   -0.166720
     7  C   -0.131574
     8  C    0.106892
    10  C    0.007601
    11  C    0.144384
    13  C    0.154256
    14  C    0.222153
    15  C    0.511598
    16  C    0.499164
    17  C   -0.046251
    21  C   -0.040940
    25  C   -0.031750
    29  C   -0.055363
    33  C    0.521695
    34  C    0.483986
    35  C   -0.047419
    39  C   -0.043301
    43  C   -0.025173
    47  C   -0.061274
    51  B    1.262036
    52  B    1.288018
    53  N   -0.222392
    54  N   -0.120201
    55  O   -1.030197
    56  O   -1.004668
    57  O   -1.031054
    58  O   -0.990296
    59  Ir  -0.633878
    62  B    1.251473
    63  O   -0.984867
    64  O   -0.972227
    65  C    0.498672
    66  C    0.515909
    67  C   -0.050735
    68  C   -0.028427
    69  C   -0.040081
    70  C   -0.035983
 Electronic spatial extent (au):  <R**2>=          18869.6929
 Charge=             -0.0000 electrons
 Dipole moment (field-independent basis, Debye):
    X=              7.0662    Y=              0.5276    Z=             -0.1218  Tot=              7.0869
 Quadrupole moment (field-independent basis, Debye-Ang):
   XX=           -210.0594   YY=           -228.2982   ZZ=           -256.7450
   XY=              3.8876   XZ=             -5.3647   YZ=             -1.2368
 Traceless Quadrupole moment (field-independent basis, Debye-Ang):
   XX=             21.6415   YY=              3.4027   ZZ=            -25.0441
   XY=              3.8876   XZ=             -5.3647   YZ=             -1.2368
 Octapole moment (field-independent basis, Debye-Ang**2):
  XXX=            280.6744  YYY=             60.1951  ZZZ=             -7.1753  XYY=             91.3048
  XXY=             33.3381  XXZ=            -47.3779  XZZ=             -5.1048  YZZ=             -1.3849
  YYZ=            -31.0078  XYZ=            -12.9074
 Hexadecapole moment (field-independent basis, Debye-Ang**3):
 XXXX=          -9324.3624 YYYY=          -8487.4544 ZZZZ=          -6123.7809 XXXY=             57.9644
 XXXZ=           -158.2676 YYYX=            114.9864 YYYZ=            -25.1123 ZZZX=            -19.8218
 ZZZY=            -45.2903 XXYY=          -2805.1166 XXZZ=          -2847.0811 YYZZ=          -2519.3124
 XXYZ=            -23.8949 YYXZ=            -40.4848 ZZXY=             51.5190
 N-N= 5.531173650963D+03 E-N=-1.530726577059D+04  KE= 1.750258819247D+03
  Exact polarizability:     459.783      -3.485     448.130      -4.482      -3.585     313.183
 Approx polarizability:     640.408      -7.456     656.843     -10.776      -9.075     448.683
   1 Symmetry operations used in ECPInt.
 ECPInt:  NShTT=   31878 NPrTT=  193976 LenC2=   25661 LenP2D=   82533.
 LDataN:  DoStor=T MaxTD1= 8 Len=  415
 Calling FoFJK, ICntrl=    100127 FMM=F ISym2X=0 I1Cent= 0 IOpClX= 0 NMat=1 NMatS=1 NMatT=0.
 Defaulting to unpruned grid for atomic number  77.
 Defaulting to unpruned grid for atomic number  77.
 Defaulting to unpruned grid for atomic number  77.
 Defaulting to unpruned grid for atomic number  77.
 Defaulting to unpruned grid for atomic number  77.
 Defaulting to unpruned grid for atomic number  77.
 Defaulting to unpruned grid for atomic number  77.
 Defaulting to unpruned grid for atomic number  77.
 Defaulting to unpruned grid for atomic number  77.
 Defaulting to unpruned grid for atomic number  77.
 Defaulting to unpruned grid for atomic number  77.
 Defaulting to unpruned grid for atomic number  77.
 Defaulting to unpruned grid for atomic number  77.
 Defaulting to unpruned grid for atomic number  77.
 Defaulting to unpruned grid for atomic number  77.
 Defaulting to unpruned grid for atomic number  77.
 Full mass-weighted force constant matrix:
 Low frequencies ---   -8.1567   -0.0005   -0.0001    0.0004    1.9220    6.9577
 Low frequencies ---   16.6601   20.0333   23.0506
 Diagonal vibrational polarizability:
       45.4160966      71.1310782     206.2070713
 Harmonic frequencies (cm**-1), IR intensities (KM/Mole), Raman scattering
 activities (A**4/AMU), depolarization ratios for plane and unpolarized
 incident light, reduced masses (AMU), force constants (mDyne/A),
 and normal coordinates:
                      1                      2                      3
                      A                      A                      A
 Frequencies --     16.0422                19.9939                22.9376
 Red. masses --      5.6605                 3.6344                 4.5193
 Frc consts  --      0.0009                 0.0009                 0.0014
 IR Inten    --      0.9489                 0.3661                 0.5840
  Atom AN      X      Y      Z        X      Y      Z        X      Y      Z
     1   6     0.02  -0.01   0.13     0.00   0.00  -0.03     0.00   0.00  -0.05
     2   1     0.01  -0.01   0.08    -0.00   0.00  -0.05     0.00   0.01  -0.06
     3   6     0.04  -0.01   0.25     0.00   0.00  -0.02     0.00  -0.00  -0.07
     4   6     0.04  -0.01   0.30     0.01   0.00   0.00     0.00  -0.01  -0.04
     5   1     0.06  -0.01   0.40     0.01   0.00   0.00     0.01  -0.02  -0.06
     6   6     0.03  -0.01   0.23     0.01   0.00   0.03     0.00  -0.01   0.01
     7   6    -0.02  -0.03   0.03     0.01   0.01   0.10     0.00   0.01   0.21
     8   6    -0.04  -0.04  -0.04     0.01   0.01   0.11     0.00   0.01   0.25
     9   1    -0.04  -0.05  -0.04     0.01   0.01   0.15     0.01   0.02   0.36
    10   6    -0.05  -0.03  -0.10     0.01   0.01   0.07     0.00   0.01   0.16
    11   6    -0.04  -0.01  -0.10     0.01   0.00   0.03    -0.00   0.00   0.03
    12   1    -0.04  -0.00  -0.15     0.01   0.00   0.00    -0.01  -0.00  -0.04
    13   6    -0.01  -0.02   0.03     0.01   0.00   0.05     0.00   0.00   0.08
    14   6     0.01  -0.01   0.10     0.01   0.00   0.02     0.00  -0.00   0.03
    15   6    -0.01  -0.00  -0.03     0.01   0.01  -0.02     0.02   0.00   0.02
    16   6    -0.02  -0.01  -0.02    -0.03  -0.05   0.07     0.01   0.02   0.01
    17   6    -0.00   0.01  -0.03     0.11   0.07   0.01     0.02  -0.02   0.02
    18   1     0.01   0.01  -0.02     0.15   0.08   0.05     0.01  -0.02  -0.00
    19   1     0.00   0.01  -0.02     0.12   0.06   0.05     0.03  -0.01   0.03
    20   1     0.00   0.02  -0.04     0.14   0.12  -0.06     0.03  -0.04   0.02
    21   6    -0.02  -0.00  -0.04    -0.03  -0.01  -0.09     0.02   0.01   0.04
    22   1    -0.02   0.00  -0.05     0.00   0.04  -0.15     0.03  -0.01   0.05
    23   1    -0.02  -0.01  -0.04    -0.03  -0.02  -0.04     0.03   0.01   0.06
    24   1    -0.03  -0.01  -0.05    -0.09  -0.05  -0.12     0.02   0.02   0.05
    25   6    -0.01  -0.01  -0.00     0.01  -0.06   0.19     0.01   0.02   0.02
    26   1    -0.02  -0.02   0.01    -0.03  -0.11   0.25    -0.00   0.04   0.01
    27   1    -0.02  -0.01  -0.00    -0.00  -0.07   0.19     0.01   0.03   0.04
    28   1    -0.00  -0.01  -0.00     0.10  -0.03   0.20     0.01   0.01   0.01
    29   6    -0.04  -0.02  -0.02    -0.15  -0.10   0.06     0.00   0.04   0.02
    30   1    -0.04  -0.02  -0.03    -0.18  -0.10  -0.03     0.00   0.04   0.02
    31   1    -0.04  -0.02  -0.02    -0.17  -0.12   0.07     0.01   0.04   0.04
    32   1    -0.04  -0.02  -0.01    -0.18  -0.13   0.12    -0.01   0.05   0.01
    33   6    -0.04  -0.04   0.01    -0.00   0.02  -0.02    -0.07   0.02   0.01
    34   6    -0.02  -0.02   0.03     0.01   0.00  -0.03    -0.03   0.01   0.00
    35   6    -0.05  -0.05   0.02    -0.01   0.01  -0.00    -0.07   0.01   0.06
    36   1    -0.04  -0.03   0.01    -0.00  -0.01   0.00    -0.04   0.01   0.07
    37   1    -0.05  -0.06   0.04    -0.01   0.01  -0.01    -0.08   0.01   0.08
    38   1    -0.06  -0.06   0.00    -0.02   0.02   0.01    -0.10   0.02   0.06
    39   6    -0.06  -0.06   0.02    -0.01   0.03  -0.03    -0.11   0.03  -0.00
    40   1    -0.07  -0.08   0.01    -0.02   0.04  -0.02    -0.14   0.03   0.01
    41   1    -0.06  -0.07   0.05    -0.01   0.03  -0.03    -0.12   0.03   0.02
    42   1    -0.06  -0.06   0.02    -0.01   0.04  -0.04    -0.11   0.03  -0.03
    43   6    -0.01  -0.02   0.06     0.02  -0.01  -0.03    -0.02   0.01   0.04
    44   1     0.01  -0.01   0.07     0.03  -0.02  -0.04     0.01  -0.00   0.03
    45   1    -0.01  -0.04   0.07     0.01  -0.00  -0.03    -0.05   0.02   0.05
    46   1    -0.01  -0.02   0.05     0.01  -0.02  -0.02    -0.00   0.01   0.07
    47   6    -0.01  -0.01   0.04     0.01   0.01  -0.05    -0.04   0.01  -0.04
    48   1    -0.01  -0.00   0.02     0.01   0.02  -0.05    -0.05   0.01  -0.07
    49   1    -0.00  -0.02   0.05     0.01   0.02  -0.05    -0.07   0.01  -0.03
    50   1     0.01   0.01   0.04     0.02   0.00  -0.06    -0.01  -0.00  -0.05
    51   5    -0.01  -0.00  -0.04    -0.00  -0.00  -0.02     0.00   0.00  -0.01
    52   5    -0.02  -0.00  -0.02     0.01   0.00  -0.02    -0.02   0.01  -0.02
    53   7     0.00  -0.01   0.06     0.00   0.00  -0.00     0.00   0.00  -0.00
    54   7    -0.02  -0.01  -0.04     0.01   0.00   0.02    -0.00  -0.00  -0.00
    55   8    -0.02   0.00  -0.04     0.00   0.02  -0.08     0.01  -0.00   0.01
    56   8    -0.02  -0.01  -0.02    -0.01  -0.03   0.06    -0.00   0.02  -0.00
    57   8    -0.04  -0.03  -0.02    -0.01   0.02  -0.02    -0.06   0.02  -0.02
    58   8    -0.01   0.01   0.01     0.01  -0.00  -0.03     0.01  -0.00  -0.01
    59  77    -0.01   0.00  -0.05     0.00  -0.00  -0.01    -0.00   0.00  -0.04
    60   1     0.05  -0.01   0.30     0.00   0.00  -0.05     0.00  -0.00  -0.10
    61   1    -0.06  -0.03  -0.15     0.01   0.01   0.08    -0.00   0.01   0.19
    62   5     0.03   0.03  -0.02    -0.01  -0.01  -0.02     0.03   0.01  -0.02
    63   8     0.04   0.03  -0.00     0.02   0.03   0.01     0.01  -0.04  -0.03
    64   8     0.05   0.04  -0.02    -0.05  -0.05  -0.04     0.07   0.05  -0.00
    65   6     0.07   0.04   0.00     0.03   0.03   0.00     0.00  -0.05  -0.03
    66   6     0.07   0.05  -0.00    -0.05  -0.02  -0.03     0.08  -0.00  -0.02
    67   6     0.08   0.06  -0.02     0.11  -0.01  -0.01    -0.08  -0.02  -0.00
    68   6     0.08   0.04   0.03     0.02   0.10   0.04     0.00  -0.13  -0.08
    69   6     0.09   0.06  -0.01    -0.04  -0.07  -0.05     0.08   0.05  -0.00
    70   6     0.07   0.04   0.02    -0.12   0.03  -0.02     0.16  -0.05  -0.04
    71   1     0.07   0.06  -0.04     0.11  -0.07  -0.04    -0.09   0.04   0.03
    72   1     0.10   0.07  -0.02     0.11  -0.02  -0.02    -0.08  -0.04  -0.01
    73   1     0.07   0.05  -0.02     0.16   0.02   0.00    -0.14  -0.06   0.00
    74   1     0.08   0.04   0.03     0.08   0.13   0.06    -0.05  -0.16  -0.10
    75   1     0.10   0.05   0.04     0.02   0.10   0.04     0.00  -0.13  -0.08
    76   1     0.07   0.03   0.05    -0.03   0.13   0.06     0.06  -0.16  -0.10
    77   1     0.10   0.06  -0.01    -0.10  -0.10  -0.07     0.14   0.08   0.00
    78   1     0.11   0.07   0.00    -0.04  -0.05  -0.04     0.08   0.01  -0.02
    79   1     0.09   0.07  -0.03     0.00  -0.11  -0.06     0.03   0.08   0.01
    80   1     0.06   0.03   0.03    -0.13   0.08  -0.00     0.16  -0.08  -0.05
    81   1     0.09   0.04   0.03    -0.12   0.05  -0.01     0.16  -0.08  -0.05
    82   1     0.07   0.04   0.02    -0.17   0.00  -0.06     0.21  -0.01  -0.02
    83   1     0.03  -0.01   0.27     0.01   0.00   0.05     0.00  -0.02   0.02
    84   1    -0.01  -0.04   0.08     0.01   0.01   0.12     0.00   0.01   0.29
                      4                      5                      6
                      A                      A                      A
 Frequencies --     27.0605                34.9321                38.3016
 Red. masses --      3.8501                 3.4150                 4.4702
 Frc consts  --      0.0017                 0.0025                 0.0039
 IR Inten    --      0.5511                 0.0325                 0.8060
  Atom AN      X      Y      Z        X      Y      Z        X      Y      Z
     1   6    -0.04   0.00  -0.00    -0.01   0.00  -0.00     0.03  -0.02  -0.03
     2   1    -0.05  -0.01   0.00    -0.01   0.00  -0.01     0.04   0.01  -0.02
     3   6    -0.06   0.02  -0.01    -0.01   0.00  -0.00     0.05  -0.04  -0.06
     4   6    -0.05   0.04  -0.01    -0.01   0.01  -0.00     0.03  -0.08  -0.07
     5   1    -0.06   0.05  -0.02    -0.01   0.01  -0.00     0.04  -0.10  -0.10
     6   6    -0.03   0.04   0.00    -0.01   0.01   0.00     0.00  -0.08  -0.04
     7   6     0.02   0.05   0.08     0.00   0.01   0.02    -0.06  -0.08   0.07
     8   6     0.04   0.05   0.09     0.00   0.01   0.03    -0.10  -0.08   0.07
     9   1     0.05   0.07   0.14     0.00   0.01   0.04    -0.11  -0.10   0.11
    10   6     0.05   0.03   0.06     0.00   0.01   0.02    -0.12  -0.05   0.02
    11   6     0.04   0.01   0.01     0.00   0.00   0.00    -0.10  -0.02  -0.02
    12   1     0.05  -0.01  -0.02     0.00   0.00  -0.00    -0.11  -0.00  -0.06
    13   6     0.01   0.03   0.03    -0.00   0.00   0.01    -0.05  -0.05   0.01
    14   6    -0.02   0.03   0.01    -0.00   0.00   0.00    -0.01  -0.05  -0.01
    15   6    -0.01  -0.03   0.03    -0.00   0.01  -0.00    -0.03   0.00   0.06
    16   6     0.01   0.01  -0.03     0.02   0.03  -0.05    -0.02   0.02   0.03
    17   6    -0.06  -0.07   0.02    -0.06  -0.02  -0.02    -0.04  -0.04   0.05
    18   1    -0.08  -0.08  -0.01    -0.07  -0.02  -0.03    -0.04  -0.05   0.02
    19   1    -0.07  -0.07  -0.01    -0.06  -0.01  -0.04    -0.05  -0.05   0.06
    20   1    -0.08  -0.10   0.06    -0.07  -0.04   0.02    -0.05  -0.05   0.07
    21   6     0.02  -0.02   0.08     0.02   0.01   0.02    -0.04   0.01   0.10
    22   1     0.01  -0.05   0.12     0.01  -0.01   0.05    -0.05  -0.01   0.12
    23   1     0.02  -0.01   0.06     0.03   0.02  -0.00    -0.04  -0.00   0.11
    24   1     0.06   0.01   0.10     0.06   0.03   0.04    -0.04   0.04   0.11
    25   6    -0.01   0.02  -0.09    -0.01   0.06  -0.12    -0.02  -0.01   0.02
    26   1     0.01   0.05  -0.13     0.01   0.08  -0.15    -0.01  -0.00  -0.00
    27   1    -0.00   0.03  -0.09     0.01   0.07  -0.14    -0.04  -0.02   0.03
    28   1    -0.06  -0.00  -0.10    -0.07   0.05  -0.12    -0.02  -0.03   0.00
    29   6     0.08   0.05  -0.01     0.10   0.05  -0.05    -0.02   0.06   0.05
    30   1     0.10   0.05   0.03     0.12   0.04   0.00    -0.03   0.08   0.06
    31   1     0.10   0.07  -0.01     0.11   0.05  -0.07    -0.03   0.06   0.07
    32   1     0.09   0.08  -0.05     0.12   0.05  -0.07    -0.02   0.08   0.02
    33   6     0.00  -0.00  -0.03    -0.05   0.00   0.04     0.08  -0.03  -0.05
    34   6    -0.07   0.02  -0.00     0.06  -0.04  -0.00     0.07  -0.02  -0.04
    35   6     0.04   0.05  -0.10    -0.09  -0.06   0.15     0.05  -0.07  -0.10
    36   1     0.02   0.08  -0.12    -0.05  -0.09   0.17     0.01  -0.05  -0.11
    37   1     0.03   0.08  -0.12    -0.08  -0.09   0.18     0.08  -0.10  -0.11
    38   1     0.10   0.02  -0.11    -0.17  -0.03   0.17     0.04  -0.08  -0.11
    39   6     0.02  -0.05  -0.01    -0.10   0.06   0.00     0.15  -0.03  -0.04
    40   1     0.08  -0.07  -0.03    -0.17   0.09   0.04     0.15  -0.04  -0.05
    41   1     0.00  -0.02  -0.01    -0.08   0.04   0.02     0.18  -0.06  -0.06
    42   1     0.01  -0.09   0.03    -0.09   0.10  -0.07     0.17   0.00  -0.00
    43   6    -0.11   0.10  -0.03     0.11  -0.13   0.05     0.08  -0.09  -0.11
    44   1    -0.17   0.11  -0.01     0.19  -0.15   0.02     0.08  -0.07  -0.09
    45   1    -0.11   0.10  -0.03     0.10  -0.12   0.05     0.15  -0.12  -0.12
    46   1    -0.09   0.13  -0.07     0.09  -0.18   0.11     0.02  -0.12  -0.15
    47   6    -0.12  -0.03   0.05     0.11   0.02  -0.09     0.15   0.03   0.01
    48   1    -0.09  -0.08   0.06     0.07   0.08  -0.13     0.15   0.09   0.07
    49   1    -0.14  -0.03   0.06     0.11   0.02  -0.10     0.23   0.01  -0.01
    50   1    -0.17  -0.01   0.07     0.18  -0.00  -0.12     0.12   0.04   0.02
    51   5    -0.01  -0.02   0.01     0.00   0.00   0.01    -0.02   0.03   0.02
    52   5    -0.01  -0.02  -0.01     0.00  -0.00  -0.00    -0.01   0.02  -0.01
    53   7    -0.02   0.01   0.01    -0.01   0.00  -0.00     0.00  -0.02  -0.00
    54   7     0.02   0.01  -0.01    -0.00   0.00   0.00    -0.06  -0.02  -0.02
    55   8    -0.01  -0.04   0.06     0.00  -0.00   0.03    -0.03   0.02   0.06
    56   8    -0.00  -0.00  -0.03     0.00   0.02  -0.02    -0.01   0.03  -0.00
    57   8     0.03  -0.04  -0.02    -0.07   0.04   0.01     0.04   0.01  -0.02
    58   8    -0.07   0.03  -0.01     0.07  -0.05   0.00    -0.01   0.02  -0.03
    59  77    -0.01  -0.02  -0.01    -0.00   0.00   0.00    -0.02   0.02  -0.00
    60   1    -0.07   0.02  -0.02    -0.01   0.00  -0.01     0.07  -0.04  -0.08
    61   1     0.07   0.03   0.06     0.01   0.01   0.02    -0.15  -0.05   0.02
    62   5     0.01  -0.02  -0.01    -0.01  -0.02  -0.01    -0.00   0.03   0.01
    63   8     0.04   0.01   0.02     0.00   0.01   0.00     0.00   0.02   0.02
    64   8    -0.00  -0.05  -0.03    -0.04  -0.04  -0.03     0.02   0.04  -0.00
    65   6     0.08   0.02   0.03     0.02   0.01   0.01     0.04   0.03   0.03
    66   6     0.01  -0.01  -0.00    -0.03  -0.02  -0.02     0.04   0.03   0.01
    67   6     0.16   0.01  -0.02     0.09  -0.01  -0.02     0.07   0.04  -0.00
    68   6     0.09   0.08   0.10     0.03   0.07   0.06     0.06   0.03   0.07
    69   6     0.03  -0.05  -0.03    -0.03  -0.06  -0.04     0.06   0.03  -0.00
    70   6    -0.06   0.02   0.02    -0.09   0.02  -0.01     0.03   0.03   0.02
    71   1     0.16  -0.05  -0.06     0.09  -0.06  -0.05     0.06   0.04  -0.03
    72   1     0.18   0.03  -0.01     0.10   0.00  -0.02     0.09   0.05   0.00
    73   1     0.21   0.04  -0.02     0.13   0.02  -0.03     0.06   0.04   0.00
    74   1     0.14   0.11   0.13     0.07   0.09   0.08     0.06   0.02   0.09
    75   1     0.12   0.08   0.10     0.05   0.06   0.06     0.09   0.03   0.08
    76   1     0.03   0.11   0.13    -0.02   0.09   0.08     0.04   0.02   0.09
    77   1    -0.01  -0.07  -0.05    -0.07  -0.09  -0.06     0.06   0.04  -0.01
    78   1     0.05  -0.02  -0.01    -0.02  -0.04  -0.03     0.07   0.03   0.01
    79   1     0.08  -0.08  -0.05     0.01  -0.10  -0.05     0.06   0.03  -0.01
    80   1    -0.07   0.05   0.04    -0.12   0.05   0.02     0.02   0.04   0.03
    81   1    -0.06   0.06   0.04    -0.08   0.02   0.01     0.04   0.03   0.02
    82   1    -0.10  -0.01   0.01    -0.14   0.00  -0.06     0.03   0.04   0.00
    83   1    -0.02   0.05   0.00    -0.00   0.01   0.01    -0.01  -0.11  -0.05
    84   1     0.01   0.07   0.11    -0.00   0.01   0.03    -0.05  -0.10   0.11
                      7                      8                      9
                      A                      A                      A
 Frequencies --     48.5940                58.6273                63.2629
 Red. masses --      4.3700                 4.3016                 4.7530
 Frc consts  --      0.0061                 0.0087                 0.0112
 IR Inten    --      0.3035                 0.1526                 0.3988
  Atom AN      X      Y      Z        X      Y      Z        X      Y      Z
     1   6    -0.01   0.01  -0.01    -0.03   0.02  -0.06     0.06   0.02  -0.07
     2   1    -0.01   0.00  -0.03    -0.04   0.02  -0.09     0.06   0.03  -0.11
     3   6    -0.01   0.02   0.02    -0.03   0.02  -0.03     0.08  -0.01  -0.06
     4   6    -0.01   0.03   0.04    -0.02   0.03   0.03     0.08  -0.03  -0.00
     5   1    -0.01   0.03   0.07    -0.02   0.03   0.06     0.10  -0.05   0.02
     6   6     0.00   0.03   0.03    -0.02   0.03   0.05     0.06  -0.03   0.03
     7   6     0.02   0.03  -0.01    -0.02   0.03   0.02    -0.01  -0.04   0.02
     8   6     0.03   0.03  -0.01    -0.02   0.03   0.01    -0.04  -0.04   0.02
     9   1     0.03   0.04  -0.01    -0.02   0.03   0.01    -0.06  -0.07   0.02
    10   6     0.03   0.02  -0.00    -0.02   0.02  -0.02    -0.06  -0.02  -0.00
    11   6     0.03   0.01  -0.01    -0.02   0.02  -0.03    -0.04   0.01  -0.01
    12   1     0.03   0.00  -0.00    -0.02   0.01  -0.04    -0.05   0.03  -0.02
    13   6     0.01   0.02  -0.01    -0.02   0.03   0.01     0.01  -0.01   0.01
    14   6     0.00   0.02  -0.01    -0.03   0.03   0.01     0.04  -0.01   0.00
    15   6     0.05  -0.01   0.10     0.06   0.09  -0.04    -0.07  -0.02  -0.01
    16   6     0.02   0.04   0.07     0.02   0.09   0.00    -0.02  -0.04  -0.04
    17   6     0.07  -0.07   0.09     0.08   0.14  -0.03    -0.08  -0.07  -0.02
    18   1     0.06  -0.08   0.03     0.05   0.15   0.01    -0.03  -0.08  -0.04
    19   1     0.08  -0.07   0.12     0.10   0.18  -0.02    -0.11  -0.13  -0.02
    20   1     0.09  -0.11   0.10     0.11   0.14  -0.06    -0.12  -0.05   0.01
    21   6     0.07   0.00   0.17     0.12   0.08  -0.09    -0.14  -0.02   0.03
    22   1     0.09  -0.04   0.18     0.15   0.08  -0.11    -0.18  -0.00   0.05
    23   1     0.08   0.02   0.21     0.13   0.12  -0.09    -0.17  -0.08   0.03
    24   1     0.05   0.05   0.17     0.11   0.03  -0.10    -0.15   0.02   0.04
    25   6     0.04  -0.00   0.10     0.01   0.17   0.02    -0.02  -0.11  -0.06
    26   1     0.02   0.04   0.08    -0.01   0.15   0.05     0.01  -0.10  -0.09
    27   1     0.03  -0.02   0.18     0.05   0.21  -0.04    -0.06  -0.14  -0.03
    28   1     0.08  -0.06   0.06    -0.01   0.23   0.05    -0.01  -0.14  -0.08
    29   6    -0.04   0.14   0.11     0.04   0.04  -0.02    -0.03  -0.01  -0.03
    30   1    -0.05   0.16   0.08     0.05  -0.02  -0.04    -0.03   0.05  -0.00
    31   1    -0.03   0.15   0.19     0.08   0.07  -0.05    -0.07  -0.05  -0.02
    32   1    -0.07   0.18   0.07    -0.00   0.03   0.01     0.03  -0.02  -0.05
    33   6     0.01  -0.08   0.02     0.04  -0.07   0.01    -0.00  -0.01   0.06
    34   6     0.02  -0.05   0.04     0.02  -0.03   0.04    -0.01   0.03   0.10
    35   6     0.01  -0.08   0.00     0.03  -0.07  -0.04     0.01  -0.00   0.03
    36   1     0.03  -0.04  -0.02     0.02  -0.03  -0.06     0.01   0.03   0.01
    37   1     0.01  -0.10   0.04     0.04  -0.08  -0.03     0.00  -0.01   0.05
    38   1    -0.00  -0.12  -0.03     0.04  -0.10  -0.07     0.01  -0.03   0.00
    39   6     0.00  -0.12   0.03     0.07  -0.11   0.04    -0.01  -0.07   0.09
    40   1    -0.01  -0.15   0.01     0.09  -0.13   0.01    -0.01  -0.10   0.05
    41   1    -0.00  -0.13   0.06     0.09  -0.12   0.04    -0.01  -0.07   0.12
    42   1     0.00  -0.13   0.04     0.08  -0.10   0.07    -0.01  -0.08   0.10
    43   6     0.03  -0.04   0.07     0.01  -0.05   0.01    -0.02   0.08   0.14
    44   1     0.04  -0.02   0.09    -0.00  -0.02   0.04    -0.01   0.12   0.18
    45   1     0.03  -0.07   0.09     0.05  -0.08   0.02    -0.04   0.05   0.18
    46   1     0.03  -0.03   0.05    -0.01  -0.05  -0.03     0.00   0.11   0.11
    47   6     0.03  -0.05   0.07     0.04  -0.02   0.10    -0.04   0.01   0.13
    48   1     0.02  -0.06   0.05     0.05  -0.01   0.13    -0.03  -0.02   0.12
    49   1     0.02  -0.07   0.09     0.08  -0.04   0.09    -0.05  -0.00   0.14
    50   1     0.04  -0.03   0.08     0.02  -0.01   0.11    -0.05   0.02   0.14
    51   5     0.02   0.01  -0.02    -0.01   0.02   0.00     0.01   0.04  -0.01
    52   5     0.02  -0.03  -0.02    -0.01  -0.01   0.02     0.02   0.04   0.02
    53   7    -0.00   0.01  -0.03    -0.03   0.02  -0.04     0.04   0.01  -0.04
    54   7     0.02   0.01  -0.01    -0.02   0.02  -0.01    -0.01   0.01   0.01
    55   8     0.04  -0.02   0.05     0.04   0.03  -0.05    -0.05   0.04  -0.00
    56   8     0.01   0.05  -0.04    -0.03   0.05   0.04     0.03  -0.01  -0.05
    57   8     0.01  -0.07  -0.02     0.02  -0.05   0.01     0.01  -0.01   0.02
    58   8     0.03  -0.02   0.01    -0.03   0.00   0.03     0.01   0.06   0.06
    59  77     0.01  -0.00  -0.04    -0.03   0.01   0.01     0.02   0.05   0.00
    60   1    -0.02   0.02   0.03    -0.03   0.02  -0.04     0.10  -0.00  -0.09
    61   1     0.04   0.02   0.00    -0.01   0.02  -0.04    -0.09  -0.02  -0.01
    62   5    -0.02   0.01  -0.04    -0.02  -0.03  -0.00     0.00  -0.00  -0.03
    63   8    -0.03   0.03  -0.06     0.00  -0.04   0.03     0.02   0.01  -0.00
    64   8    -0.06  -0.00  -0.02    -0.01  -0.06  -0.05    -0.03  -0.06  -0.07
    65   6    -0.07   0.04  -0.06     0.02  -0.09   0.01     0.00  -0.05  -0.03
    66   6    -0.08   0.03  -0.02     0.01  -0.08  -0.04    -0.03  -0.06  -0.07
    67   6    -0.07   0.04  -0.05     0.02  -0.11   0.03     0.02  -0.10   0.01
    68   6    -0.08   0.07  -0.09     0.02  -0.10   0.01    -0.01  -0.03  -0.05
    69   6    -0.10   0.03  -0.00     0.05  -0.10  -0.07    -0.02  -0.11  -0.10
    70   6    -0.09   0.03  -0.01     0.01  -0.08  -0.04    -0.06  -0.04  -0.08
    71   1    -0.07   0.03  -0.03     0.02  -0.10   0.03     0.03  -0.12   0.02
    72   1    -0.09   0.04  -0.05     0.03  -0.15   0.02     0.01  -0.14  -0.00
    73   1    -0.06   0.05  -0.05     0.02  -0.12   0.06     0.05  -0.09   0.04
    74   1    -0.07   0.08  -0.10     0.02  -0.11   0.03     0.02  -0.02  -0.01
    75   1    -0.12   0.08  -0.08     0.03  -0.12  -0.00    -0.03  -0.07  -0.07
    76   1    -0.08   0.08  -0.10     0.02  -0.09  -0.00    -0.02   0.02  -0.08
    77   1    -0.11   0.02   0.02     0.05  -0.08  -0.10    -0.04  -0.11  -0.13
    78   1    -0.12   0.06  -0.01     0.07  -0.13  -0.06    -0.01  -0.13  -0.10
    79   1    -0.09   0.03  -0.01     0.05  -0.10  -0.06     0.00  -0.13  -0.08
    80   1    -0.08   0.02  -0.02    -0.01  -0.07  -0.02    -0.07  -0.02  -0.06
    81   1    -0.10   0.05  -0.01     0.02  -0.08  -0.03    -0.05  -0.03  -0.07
    82   1    -0.10   0.01   0.01     0.01  -0.07  -0.05    -0.08  -0.05  -0.09
    83   1     0.01   0.04   0.05    -0.01   0.03   0.10     0.06  -0.05   0.08
    84   1     0.01   0.04  -0.02    -0.02   0.03   0.04     0.00  -0.07   0.03
                     10                     11                     12
                      A                      A                      A
 Frequencies --     71.5848                86.2647                95.7499
 Red. masses --      4.0685                 4.3407                 4.4374
 Frc consts  --      0.0123                 0.0190                 0.0240
 IR Inten    --      0.6937                 1.7478                 0.2754
  Atom AN      X      Y      Z        X      Y      Z        X      Y      Z
     1   6     0.03  -0.00   0.27     0.02   0.01   0.13    -0.00   0.02   0.00
     2   1     0.05   0.00   0.41     0.03   0.01   0.20     0.00   0.02   0.01
     3   6     0.01  -0.00   0.12     0.02  -0.00   0.12     0.00   0.01  -0.04
     4   6    -0.03  -0.01  -0.14    -0.00  -0.01  -0.01    -0.00  -0.01  -0.04
     5   1    -0.06  -0.01  -0.30    -0.00  -0.02  -0.04    -0.00  -0.02  -0.07
     6   6    -0.04  -0.01  -0.21    -0.02  -0.01  -0.10    -0.01  -0.01   0.00
     7   6     0.00   0.01   0.05    -0.02  -0.01  -0.11    -0.03  -0.01   0.09
     8   6     0.01   0.01   0.05    -0.02  -0.01  -0.01    -0.05  -0.01   0.02
[...]
 090,-0.00000213,0.00000157,0.00000183,0.00000104,-0.00001377,-0.000000
 41,-0.00000082,0.,0.00000216,-0.00000281,-0.00000151,-0.00000510,-0.00
 000618,0.00000449,-0.00000343,0.00000030,0.,-0.00001551,-0.00001735,-0
 .00000083,-0.00000118,0.00000474,-0.00000978,-0.00000618,-0.00000150,0
 .00000510,0.00000121,-0.00000073,-0.00000750,-0.00001264,-0.00000393,-
 0.00000044,0.00000822,-0.00000592,0.00000405,-0.00000936,-0.00000469,-
 0.00000335,-0.00000169,0.00000576,0.00007902,0.00002355,0.00002944,0.0
 0022787,0.00000009,0.00021279,-0.00342467,-0.00383360,0.00178508,-0.00
 000226,-0.00023448,-0.00004418,-0.00008812,-0.00002416,0.00001506,-0.0
 0005889,0.00000735,-0.00001626,-0.00011355,-0.00009741,-0.00014349,-0.
 00016186,-0.00021291,-0.00010124,0.00026823,0.00086931,0.00023151,-0.0
 0002756,-0.00019441,0.00004882,0.00005696,0.00003080,0.00001429,-0.000
 02246,-0.00000445,-0.00039583,-0.00004455,-0.00003219,0.00011613,0.000
 05351,-0.00012089,0.00014118,0.00000337,0.00003695,-0.00004802,0.00002
 936,0.00001701,-0.00002471,0.00000234,-0.00000667,0.00001087,0.0000010
 3,-0.00000320,0.00000439,-0.00000871,-0.00000132,0.00000544,-0.0000088
 9,0.00000343,0.00000793,-0.00000348,0.00000379,-0.00000569,-0.00000025
 ,-0.00000049,0.00000911,0.00000281,-0.00000147,-0.00000357,0.00000097,
 0.00000010,-0.00000198,-0.00000255,-0.00000238,0.00000520,0.00000028,0
 .00000132,-0.00000178,0.00000183,-0.00000936,0.00000010,0.00000391,-0.
 00000252,0.00000455,-0.00000192,0.00000532,0.00000185,0.00000564,0.000
 00494,-0.00000449,-0.00000227,-0.00000497,0.00000217,0.00000227,-0.000
 00556,-0.00000169,0.30649315,-0.00041948,-0.00152647,0.00008219,-0.000
 00687,0.00018331,-0.00005528,-0.00064369,-0.00555391,0.00047997,0.0299
 6941,-0.00753070,-0.00454211,-0.00030648,0.00124380,-0.00008620,0.0991
 7266,-0.09931235,-0.01498627,-0.00105465,-0.00261460,0.00031811,0.0001
 2757,-0.00013342,-0.00003851,-0.00001939,0.00000051,0.00000151,0.00004
 716,0.00002804,-0.00000407,0.00009326,-0.00002756,0.00003689,-0.000008
 12,0.00003929,0.00000425,0.00094714,0.00013013,-0.00015026,-0.01430103
 ,0.01277345,0.00197364,-0.00002221,0.00000764,0.00000841,-0.00001047,0
 .00001332,-0.00000766,0.00000330,0.00000047,-0.00000166,-0.00000033,0.
 00000095,0.00000064,0.00000361,-0.00000113,-0.00000212,-0.00000123,-0.
 00000031,0.00000212,0.00000179,-0.00000351,-0.00000162,-0.00000316,0.0
 0000213,0.00000538,0.00000592,0.00000004,-0.00000066,-0.00000414,0.000
 00054,-0.00000419,0.00000152,-0.00000126,0.00000158,0.00000131,0.00000
 185,0.00000100,0.00000180,-0.00000183,-0.00000073,-0.00000097,0.000000
 24,-0.00000037,-0.00000021,-0.00000179,0.00000161,-0.00000011,0.000000
 25,-0.00000295,0.00000128,-0.00000266,0.00000046,0.00000101,0.00000221
 ,0.00000037,-0.00001209,-0.00000224,-0.00000508,-0.00001908,0.00001431
 ,0.00000927,-0.00000064,-0.00000272,-0.00000030,-0.00000037,-0.0000020
 3,0.00000062,0.00000076,0.00000205,0.00000047,-0.00000017,-0.00000142,
 -0.00000056,-0.00000316,0.00000316,0.00000091,0.00000071,-0.00000212,0
 .00000028,0.00000117,0.00000058,-0.00000031,0.00000087,-0.00000098,-0.
 00000228,0.00000195,-0.00000650,-0.00000753,-0.00000122,-0.00000046,0.
 00000058,-0.00000228,-0.00000056,0.00000173,0.00000212,-0.00000054,-0.
 00000084,-0.00000380,-0.00000458,0.00000386,0.00000027,0.00000363,-0.0
 0000983,0.00000576,-0.00000032,0.00000133,-0.00000477,-0.00000391,0.00
 000313,-0.00006195,0.00001464,0.00001807,0.00002037,-0.00012916,0.0000
 4702,-0.00505470,-0.00166383,0.00095916,0.00005496,0.00024960,-0.00000
 541,0.00005851,-0.00002034,-0.00001326,0.00005610,-0.00001112,0.000002
 99,-0.00000093,0.00000003,-0.00000318,-0.00003059,-0.00005091,-0.00002
 945,0.00015692,0.00055602,0.00001438,0.00144183,-0.00029078,-0.0002290
 6,0.00002458,0.00002674,0.00000327,-0.00005910,-0.00004825,-0.00006681
 ,0.00001647,0.00000125,-0.00001659,0.00005535,-0.00002435,-0.00000423,
 0.00000342,0.00000821,0.00001040,-0.00000943,-0.00001356,0.00002537,0.
 00000095,-0.00000426,0.00000021,0.00000142,-0.00000338,-0.00000208,-0.
 00000229,0.00000507,-0.00000040,-0.00000340,0.00000616,-0.00000042,0.0
 0000080,0.00000220,0.00000113,0.00000017,0.00000211,-0.00000154,0.0000
 0069,-0.00000176,0.00000076,0.00000174,-0.00000166,0.00000018,-0.00000
 015,0.00000154,-0.00000112,-0.00000107,0.00000038,0.00000030,-0.000000
 76,-0.00000511,0.00000254,0.00000403,-0.00000036,-0.00000263,-0.000001
 30,0.00000074,0.00000260,-0.00000008,0.00000015,-0.00000054,0.00000342
 ,0.00000042,-0.00000264,-0.00000038,-0.00000560,0.00000178,-0.11064951
 ,0.10803600,-0.00012943,0.00027903,-0.00052662,-0.00025279,-0.00004502
 ,-0.00160711,0.00085208,0.00037753,0.00758100,-0.00049759,0.00028040,0
 .00304361,-0.00070708,-0.00014870,-0.00385092,0.04112774,-0.01466465,-
 0.04077771,0.00059569,0.00024209,-0.00020958,-0.00024229,-0.00016510,-
 0.00037237,0.00000473,0.00001336,-0.00002258,0.00010908,-0.00004363,0.
 00002479,-0.00007754,0.00013355,0.00025779,0.00000381,-0.00001364,0.00
 002200,-0.00043212,0.00016579,-0.00257952,0.00232773,-0.00332395,-0.00
 015843,-0.00000355,0.00000631,0.00000169,-0.00000080,0.00000618,0.0000
 0468,0.00000159,0.00000002,-0.00000160,0.00000036,0.00000078,0.0000011
 9,0.00000094,0.,-0.00000054,-0.00000156,-0.00000162,0.00000002,-0.0000
 0124,0.00000016,-0.00000041,-0.00000115,-0.00000059,-0.00000046,0.0000
 0058,0.00000026,0.00000050,0.00000058,0.00000062,-0.00000062,0.0000008
 1,0.00000010,-0.00000032,-0.00000072,-0.00000013,-0.00000035,0.0000009
 2,-0.00000086,0.00000005,0.00000028,0.00000095,-0.00000057,-0.00000130
 ,-0.00000164,-0.00000115,0.00000112,0.00000192,0.00000111,0.00000085,-
 0.00000079,0.00000014,-0.00000174,-0.00000044,-0.00000050,-0.00001019,
 -0.00000605,0.00000059,0.00000661,-0.00001427,-0.00001614,0.00000124,-
 0.00000014,-0.00000036,-0.00000020,0.00000021,-0.00000066,0.00000154,0
 .00000052,0.00000058,-0.00000109,0.00000084,-0.00000017,-0.00000022,-0
 .00000078,0.00000080,-0.00000249,0.00000129,-0.00000089,0.00000191,0.0
 0000112,-0.00000037,0.00000023,-0.00000277,0.00000121,0.00000083,0.000
 00361,0.00000599,0.,0.00000181,-0.00000166,0.00000253,0.00000148,-0.00
 000037,-0.00000040,-0.00000093,0.00000056,-0.00000017,-0.00000012,0.00
 000237,0.00000115,-0.00000128,0.00000237,-0.00000181,0.00000121,0.0000
 0080,0.00000169,0.00000161,-0.00000311,0.00000601,0.00003168,0.0000458
 0,-0.00009782,0.00005501,-0.00011028,0.00182256,0.00100704,0.00782120,
 -0.00023038,-0.00020471,-0.00007945,-0.00000654,-0.00000368,-0.0000045
 4,0.00001183,-0.00001057,-0.00000743,0.00000664,-0.00000026,-0.0000049
 5,0.00005345,0.00005969,0.00001865,0.00014198,-0.00035020,-0.00005781,
 -0.00002179,0.00004458,0.00024015,-0.00001732,-0.00000830,0.00007041,-
 0.00002276,0.00003857,0.00017929,0.00001837,0.00000911,-0.00006229,-0.
 00001314,0.00005938,-0.00009536,0.00000360,-0.00000759,0.00002798,-0.0
 0001666,-0.00001486,0.00001591,0.00000355,0.00000016,-0.00000776,-0.00
 000128,-0.00000127,-0.00000429,0.00000743,0.00000562,-0.00000330,0.000
 00116,-0.00000074,-0.00000546,-0.00000056,-0.00000045,0.00000453,0.000
 00026,0.00000016,-0.00000468,-0.00000097,0.00000004,0.00000121,0.00000
 075,0.00000018,0.00000098,0.00000159,0.00000145,-0.00000219,-0.0000020
 0,-0.00000167,0.00000010,0.00000020,0.00000455,0.00000080,-0.00000357,
 0.00000121,-0.00000304,0.00000030,-0.00000566,-0.00000337,-0.00000410,
 -0.00000184,0.00000261,0.00000132,0.00000179,-0.00000109,0.00000056,0.
 00000056,0.00000169,-0.04401615,0.01519190,0.02996370,0.00007028,-0.00
 014743,-0.00000681,-0.00008244,-0.00002077,0.00001113,0.00010043,-0.00
 006593,-0.00005863,0.00060316,0.00013919,-0.00001497,-0.00002332,0.000
 01423,0.00001203,-0.00047362,-0.00078194,0.00032711,-0.27128513,-0.121
 03794,0.00847363,0.00404367,0.00221039,-0.00008631,0.00064126,-0.00016
 946,-0.00001243,0.00182953,0.00072947,-0.00005226,0.00022027,0.0016459
 3,-0.00011534,0.00000015,-0.00020324,-0.00000304,-0.01592047,-0.017449
 83,0.00126152,-0.00033960,-0.00131111,-0.00000988,0.00005244,0.0000033
 7,-0.00001590,0.00003592,-0.00006768,0.00001875,-0.00001886,0.00000377
 ,-0.00000292,0.00000540,-0.00000135,-0.00000544,-0.00000650,0.00000249
 ,0.00000872,0.00000399,0.00000261,0.00000419,-0.00002026,-0.00000240,0
 .00000781,0.00000300,0.00000669,0.00000817,-0.00000231,0.00001241,-0.0
 0000157,-0.00000171,-0.00000142,-0.00000708,-0.00000509,0.00001589,-0.
 00000239,0.00000003,-0.00000317,-0.00000052,-0.00001081,0.00000461,0.0
 0000267,0.00000287,-0.00000125,-0.00000133,-0.00001022,0.00001204,0.00
 000094,0.00000326,-0.00000474,0.00000301,-0.00000690,0.00000893,-0.000
 00595,0.00000213,-0.00000241,0.00000072,0.00003008,0.00002230,0.000018
 96,0.00002526,0.00001372,0.00002498,-0.00000538,-0.00000361,0.00000001
 ,0.00000621,0.00000206,0.,-0.00000555,-0.00000251,-0.00000205,0.000000
 75,0.00000287,-0.00000053,-0.00000078,-0.00000198,-0.00000138,-0.00000
 180,0.00000388,-0.00000311,-0.00000167,-0.00000256,-0.00000211,0.00000
 051,-0.00000105,0.00000387,-0.00000266,0.00000162,-0.00000053,0.000001
 54,0.00000010,0.00000096,-0.00000259,-0.00000288,-0.00000259,-0.000000
 86,0.00000159,0.00000094,0.00000138,-0.00000182,-0.00001049,-0.0000018
 3,0.00000061,0.00001362,-0.00000746,-0.00000516,-0.00000437,0.00000566
 ,0.00000603,-0.00000236,0.00032559,-0.00006350,-0.00007566,0.00009666,
 0.00010193,0.00010502,0.00010905,0.00026278,0.00012602,-0.00476581,0.0
 0360411,-0.00009243,-0.00016250,0.00030412,0.00006856,-0.00021127,0.00
 012617,0.00000838,-0.00002754,-0.00002534,-0.00007183,-0.00005178,-0.0
 0002964,-0.00001412,0.00015321,-0.00102524,-0.00013402,0.00006552,-0.0
 0002651,-0.00001957,0.00011498,0.00024219,-0.00004506,0.00011869,0.000
 08836,-0.00008915,-0.00006242,-0.00002287,0.00011196,-0.00005701,-0.00
 002668,0.00010258,-0.00001369,-0.00000042,-0.00005630,0.00003252,0.000
 02783,-0.00006534,-0.00000520,0.00000353,0.00000818,0.00000148,0.00000
 351,0.00001094,-0.00000493,-0.00001103,0.00000224,-0.00000118,-0.00000
 753,0.00000965,0.00000081,-0.00000456,-0.00000580,0.00000129,-0.000000
 90,0.00000665,-0.00000244,0.00000268,-0.00000158,-0.00000367,0.0000028
 9,-0.00000081,-0.00000287,-0.00000338,0.00000454,0.00000395,0.00000110
 ,-0.00000101,0.00000108,0.00000145,-0.00000308,-0.00000081,-0.00000113
 ,0.00000684,0.00000157,0.00000385,0.00000064,0.00000477,0.00000289,-0.
 00000206,-0.00000638,-0.00000390,0.00000491,0.00000125,0.00000684,-0.0
 0000414,0.00136545,0.00043163,-0.00030573,0.28353027,-0.00010358,-0.00
 001010,0.00002928,0.00004485,0.00003527,-0.00000476,-0.00005485,0.0000
 0606,-0.00000313,-0.00003842,-0.00013072,-0.00001633,0.00001701,0.0000
 0352,0.00000366,0.00134952,-0.00243881,0.00012835,-0.12059227,-0.12545
 436,0.00564691,-0.02890262,-0.01068121,0.00116793,0.00022854,0.0012435
 2,-0.00027747,0.00158112,-0.00537087,0.00070890,0.00064469,-0.00129278
 ,0.00003802,-0.00005565,0.00014830,-0.00010822,0.01080768,0.01231645,-
 0.00085106,-0.00103155,-0.00009615,-0.00006788,0.00002386,-0.00002257,
 -0.00000592,0.00000640,-0.00000526,-0.00000135,0.00000016,0.00000014,0
 .00000290,0.00000088,-0.00000054,0.00000029,-0.00000307,0.00000095,0.0
 0000002,0.00000110,-0.00000135,-0.00000286,0.00000354,0.00000359,-0.00
 000106,0.00000185,-0.00000265,-0.00000365,-0.00000400,-0.00000197,0.00
 000084,0.00000288,-0.00000088,0.00000318,-0.00000140,-0.00000299,-0.00
 000089,-0.00000068,-0.00000131,-0.00000062,0.00000040,0.00000165,0.000
 00009,0.00000067,-0.00000012,0.00000028,0.00000194,0.00000007,-0.00000
 249,-0.00000079,0.00000007,0.00000184,-0.00000075,0.00000157,0.0000009
 2,-0.00000041,-0.00000178,-0.00000013,0.00001883,0.00000830,0.00000934
 ,0.00000928,0.00000009,0.00001028,-0.00000096,0.00000002,-0.00000280,0
 .00000171,-0.00000040,0.00000018,-0.00000342,-0.00000131,-0.00000041,0
 .00000022,0.00000218,-0.00000037,-0.00000237,-0.00000108,-0.00000206,-
 0.00000063,0.00000289,-0.00000162,-0.00000119,-0.00000237,-0.00000124,
 0.00000003,-0.00000056,0.00000315,-0.00000221,0.00000184,-0.00000058,0
 .00000146,0.00000002,0.00000048,-0.00000198,-0.00000194,-0.00000184,-0
 .00000173,0.00000114,0.00000094,-0.00000072,0.00000441,-0.00000278,-0.
 00000065,-0.00000549,0.00001043,-0.00000481,-0.00000261,-0.00000302,0.
 00000724,0.00000395,-0.00000453,0.00001596,-0.00007868,0.00001000,0.00
 004997,0.00002503,0.00002347,-0.00010355,0.00020031,-0.00000964,0.0048
 0580,-0.00060993,0.00043686,-0.00001041,-0.00005694,-0.00000504,-0.000
 01118,-0.00000908,-0.00000848,-0.00004195,-0.00002506,-0.00004019,-0.0
 0003728,-0.00002295,-0.00002042,-0.00014113,0.00045022,0.00010255,-0.0
 0002040,0.00001964,0.00000590,-0.00141008,-0.00043074,0.00009815,0.000
 01459,0.00000118,-0.00009014,-0.00002634,-0.00000168,0.00004179,-0.000
 00642,-0.00000384,0.00004250,0.00000352,0.00000828,-0.00001733,0.00001
 208,0.00000779,-0.00002279,0.00000088,0.00000044,0.00000202,-0.0000010
 6,0.00000099,0.00000082,0.00000197,-0.00000753,0.00000253,0.00000467,-
 0.00000807,0.00000058,-0.00000226,0.00000123,-0.00000257,-0.00000076,-
 0.00000158,0.00000393,0.00000121,0.00000109,-0.00000103,-0.00000076,0.
 00000175,-0.00000023,-0.00000032,-0.00000160,0.00000197,0.00000119,-0.
 00000027,-0.00000055,-0.00000066,0.00000115,-0.00000487,-0.00000241,0.
 00000075,0.00000354,-0.00000062,0.00000405,-0.00000011,0.00000218,0.00
 000188,-0.00000093,-0.00000392,0.00000007,0.00000405,-0.00000028,0.000
 00545,-0.00000208,0.00050096,-0.00434883,0.00101347,0.13246161,0.13662
 170,0.00013043,0.00021505,0.00025326,0.00000537,-0.00000735,0.00002156
 ,-0.00017680,-0.00004018,0.00006777,0.00012431,-0.00022187,-0.00042124
 ,-0.00000702,0.00000794,-0.00002775,-0.00051806,0.00044650,-0.00015392
 ,0.00802287,0.00526001,-0.03453153,0.00184456,0.00118947,0.00281657,-0
 .00011133,-0.00030442,-0.00395530,-0.00010435,0.00085261,0.00773737,0.
 00005770,-0.00014099,-0.00054955,-0.00010628,-0.00015796,-0.00159643,-
 0.00040658,-0.00095717,0.00004621,0.00005013,0.00033118,-0.00257610,-0
 .00000675,-0.00000287,0.00001597,0.00000015,-0.00000591,0.00000718,-0.
 00000037,0.00000223,-0.00000101,0.00000047,0.00000047,0.00000046,0.000
 00013,-0.00000031,-0.00000013,-0.00000093,-0.00000176,-0.00000055,0.00
 000409,-0.00000020,0.00000078,-0.00000075,-0.00000058,-0.00000029,0.00
 000036,-0.00000125,0.,0.00000004,0.00000081,-0.00000143,-0.00000061,0.
 00000210,0.00000073,-0.00000023,-0.00000035,-0.00000049,-0.00000056,-0
 .00000022,0.00000038,0.00000072,0.00000054,-0.00000076,-0.00000045,-0.
 00000060,-0.00000143,0.00000162,-0.00000004,0.00000072,-0.00000006,0.0
 0000018,0.00000004,-0.00000080,-0.00000063,-0.00000023,0.00000005,-0.0
 0000375,0.00000588,0.00000402,-0.00000190,0.00000572,0.00000115,0.0000
 0028,-0.00000099,0.00000108,-0.00000005,-0.00000049,0.00000053,-0.0000
 0024,0.00000036,-0.00000063,0.00000140,-0.00000009,-0.00000105,0.00000
 097,-0.00000066,-0.00000229,0.00000173,-0.00000171,0.00000127,0.000000
 38,-0.00000046,0.00000071,-0.00000290,0.00000203,-0.00000064,0.0000005
 0,0.00000002,0.00000027,0.00000167,-0.00000079,-0.00000033,-0.00000052
 ,-0.00000050,0.00000010,-0.00000048,0.00000077,-0.00000230,-0.00000112
 ,-0.00000607,0.00000298,0.00000005,0.00000605,-0.00000436,-0.00000175,
 0.00000002,0.00000192,0.00000174,-0.00000121,-0.00004476,0.00001145,-0
 .00011297,0.00000177,-0.00000458,0.00004057,0.00013986,-0.00026024,-0.
 00019810,0.00004104,0.00068513,0.00793278,0.00001843,-0.00001763,-0.00
 000007,-0.00001137,0.00000564,0.00000511,0.00000789,0.00000311,-0.0000
 1684,0.00000113,0.00000848,-0.00001439,0.00017090,0.00003541,0.0000589
 5,0.00001938,-0.00000732,0.00006733,0.00006448,0.00004730,0.00022302,0
 .00000384,-0.00005935,0.00002462,0.00001126,0.00001319,-0.00003820,-0.
 00002559,-0.00002601,-0.00000691,0.00000385,-0.00000188,0.00002215,0.0
 0000565,0.00000364,0.00001559,0.00000441,-0.00000203,-0.00000527,-0.00
 000153,0.00000112,-0.00000397,0.00000026,0.00000719,0.00000187,-0.0000
 0209,0.00000357,-0.00000508,-0.00000055,-0.00000091,0.00000427,0.00000
 099,0.00000040,-0.00000333,-0.00000160,0.00000024,0.00000088,-0.000000
 20,0.00000041,0.00000115,0.00000170,0.00000109,-0.00000149,-0.00000189
 ,-0.00000156,-0.00000048,0.00000153,0.00000311,0.00000185,-0.00000187,
 -0.00000090,-0.00000079,0.00000106,-0.00000656,-0.00000361,-0.00000293
 ,-0.00000136,0.00000059,0.00000147,0.00000002,-0.00000062,0.00000018,-
 0.00000217,0.00000227,0.00015065,0.00106836,0.00124353,-0.00936084,-0.
 00796683,0.02360680\\-0.00000037,-0.00000956,-0.00000095,-0.00000074,0
 .00000073,-0.00000131,-0.00000075,0.00000922,-0.00000480,-0.00000080,0
 .00000080,-0.00000153,-0.00000021,-0.00000029,-0.00000422,-0.00000136,
 -0.00000215,-0.00000509,-0.00000196,0.00000359,-0.00000427,0.00000534,
 -0.00000772,0.00000009,-0.00000311,0.00000309,-0.00000294,-0.00000488,
 0.00000249,-0.00000200,0.00000258,0.00000827,-0.00000117,0.00000126,-0
 .00000023,0.00000023,-0.00000094,0.00000086,-0.00000139,-0.00000453,0.
 00000442,-0.00000027,0.00000109,-0.00000331,-0.00000128,-0.00000004,0.
 00000181,0.00000239,-0.00000213,0.00000371,0.00000186,0.00000122,-0.00
 000139,0.00000057,0.00000348,-0.00000017,-0.00000017,-0.00000048,-0.00
 000010,-0.00000173,-0.00000173,0.00000161,0.00000235,-0.00000011,-0.00
 000024,-0.00000222,-0.00000013,-0.00000040,-0.00000057,0.00000014,0.00
 000056,-0.00000202,0.00000225,-0.00000284,0.00000090,-0.00000087,-0.00
 000166,0.00000076,-0.00000183,0.00000218,0.00000198,-0.00000026,0.0000
 0022,0.00000135,-0.00000783,0.00000178,0.00000184,0.00000156,-0.000000
 64,-0.00000229,0.00000108,-0.00000425,0.00000038,-0.00000056,-0.000000
 60,0.00000028,-0.00000504,-0.00000322,-0.00000053,0.00000307,0.0000021
 5,-0.00000132,-0.00000044,-0.00000129,0.00000276,-0.00000045,-0.000002
 00,-0.00000056,-0.00000098,-0.00000059,0.00000236,-0.00000205,0.000000
 04,0.00000008,-0.00000725,-0.00000010,0.00000652,-0.00000200,0.0000002
 8,-0.00000115,-0.00000151,-0.00000135,0.00000151,0.00000187,-0.0000027
 6,0.00000012,-0.00000097,-0.00000372,0.00000267,-0.00000027,-0.0000007
 3,0.00000219,0.00000004,0.00000028,0.00000383,-0.00000186,0.00000090,0
 .00000218,0.00000318,-0.00000157,0.00000514,-0.00000288,-0.00000093,0.
 00000157,-0.00000175,-0.00000142,0.00000075,-0.00000030,0.00000061,-0.
 00000018,-0.00000051,-0.00000063,-0.00000477,-0.00000835,-0.00001046,0
 .00000888,0.00000022,0.00000411,-0.00000209,0.00000265,-0.00001256,-0.
 00000120,-0.00000003,0.00000031,0.00000113,0.00000133,-0.00000019,0.00
 000213,0.00000285,0.00000345,-0.00000594,0.00000295,0.00000283,-0.0000
 0105,-0.00000400,0.00000431,-0.00000076,-0.00000010,-0.00000510,-0.000
 00310,0.00000084,0.00000087,-0.00000077,0.00000003,0.00000301,0.000004
 52,0.00000374,0.00000034,-0.00000471,0.00000237,0.00000200,-0.00000203
 ,0.00000086,-0.00000201,0.00000442,-0.00000080,-0.00000334,-0.00000289
 ,0.00000114,0.00000001,-0.00000484,0.00000460,0.00000311,0.00000637,-0
 .00000110,0.00000105,0.00000375,0.00000174,0.00000865,0.00000608,0.000
 00195,0.00000199,-0.00000018,0.00000262,-0.00000043,0.00000295,0.00000
 146,0.00000274,-0.00000064,0.00000096,0.00000100,0.00000098,0.00000266
 ,0.00000144,0.00000033,-0.00000056,-0.00000082,-0.00000096,0.00000215,
 0.00000040,-0.00000062,0.00000424,0.00000198,-0.00000181,0.00000251,0.
 00000212,-0.00000006,-0.00000023,-0.00000048,0.00000046,0.00000097,-0.
 00000014,0.00000084,0.00000370,-0.00000317,-0.00000150,0.00000187,-0.0
 0000058,-0.00000318,0.00000048,-0.00000018,-0.00000241\\\@
 The archive entry for this job was punched.


 KNIGHT- SIRE, I'VE JUST RETURNED FROM THE FRONT
 KING-   HOW GOES THE BATTLE                    
 KNIGHT- THE SITUATION IS QUITE FLUID           
 KING-   WHAT DOES *THAT* MEAN                  
 KNIGHT- WE'RE UP THE CREEK                     
                THE WIZARD OF ID                
 Job cpu time:       0 days 19 hours 16 minutes 44.3 seconds.
 Elapsed time:       0 days  1 hours 13 minutes 40.8 seconds.
 File lengths (MBytes):  RWF=   4032 Int=      0 D2E=      0 Chk=     31 Scr=      1
 Normal termination of Gaussian 16 at Sat Dec  7 22:59:33 2024.
