/mnt/lustre/scratch/nvme/SLURM/9663632/usccqdma.y6ukr6iH6i
OMP_STACKSIZE=0m
GAUSS_PDEF=16
GAUSS_MDEF=65536MB
GAUSS_RDEF=SCF=Direct
 Entering Gaussian System, Link 0=g16.exe
 Initial command:
 /opt/cesga/2020/software/Core/g16/c1/l1.exe "/mnt/lustre/scratch/nvme/SLURM/9663632/usccqdma.y6ukr6iH6i/Gau-4077322.inp" -scrdir="/mnt/lustre/scratch/nvme/SLURM/9663632/usccqdma.y6ukr6iH6i/"
 Default is to use a total of  16 processors:
                               16 via shared-memory
                                1 via Linda
 Entering Link 1 = /opt/cesga/2020/software/Core/g16/c1/l1.exe PID=   4077348.
  
 Copyright (c) 1988-2019, Gaussian, Inc.  All Rights Reserved.
  
 This is part of the Gaussian(R) 16 program.  It is based on
 the Gaussian(R) 09 system (copyright 2009, Gaussian, Inc.),
 the Gaussian(R) 03 system (copyright 2003, Gaussian, Inc.),
 the Gaussian(R) 98 system (copyright 1998, Gaussian, Inc.),
 the Gaussian(R) 94 system (copyright 1995, Gaussian, Inc.),
 the Gaussian 92(TM) system (copyright 1992, Gaussian, Inc.),
 the Gaussian 90(TM) system (copyright 1990, Gaussian, Inc.),
 the Gaussian 88(TM) system (copyright 1988, Gaussian, Inc.),
 the Gaussian 86(TM) system (copyright 1986, Carnegie Mellon
 University), and the Gaussian 82(TM) system (copyright 1983,
 Carnegie Mellon University). Gaussian is a federally registered
 trademark of Gaussian, Inc.
  
 This software contains proprietary and confidential information,
 including trade secrets, belonging to Gaussian, Inc.
  
 This software is provided under written license and may be
 used, copied, transmitted, or stored only in accord with that
 written license.
  
 The following legend is applicable only to US Government
 contracts under FAR:
  
                    RESTRICTED RIGHTS LEGEND
  
 Use, reproduction and disclosure by the US Government is
 subject to restrictions as set forth in subparagraphs (a)
 and (c) of the Commercial Computer Software - Restricted
 Rights clause in FAR 52.227-19.
  
 Gaussian, Inc.
 340 Quinnipiac St., Bldg. 40, Wallingford CT 06492
  
  
 ---------------------------------------------------------------
 Warning -- This program may not be used in any manner that
 competes with the business of Gaussian, Inc. or will provide
 assistance to any competitor of Gaussian, Inc.  The licensee
 of this program is prohibited from giving any competitor of
 Gaussian, Inc. access to this program.  By using this program,
 the user acknowledges that Gaussian, Inc. is engaged in the
 business of creating and licensing software in the field of
 computational chemistry and represents and warrants to the
 licensee that it is not a competitor of Gaussian, Inc. and that
 it will not use this program in any manner prohibited above.
 ---------------------------------------------------------------
  

 Cite this work as:
 Gaussian 16, Revision C.01,
 M. J. Frisch, G. W. Trucks, H. B. Schlegel, G. E. Scuseria, 
 M. A. Robb, J. R. Cheeseman, G. Scalmani, V. Barone, 
 G. A. Petersson, H. Nakatsuji, X. Li, M. Caricato, A. V. Marenich, 
 J. Bloino, B. G. Janesko, R. Gomperts, B. Mennucci, H. P. Hratchian, 
 J. V. Ortiz, A. F. Izmaylov, J. L. Sonnenberg, D. Williams-Young, 
 F. Ding, F. Lipparini, F. Egidi, J. Goings, B. Peng, A. Petrone, 
 T. Henderson, D. Ranasinghe, V. G. Zakrzewski, J. Gao, N. Rega, 
 G. Zheng, W. Liang, M. Hada, M. Ehara, K. Toyota, R. Fukuda, 
 J. Hasegawa, M. Ishida, T. Nakajima, Y. Honda, O. Kitao, H. Nakai, 
 T. Vreven, K. Throssell, J. A. Montgomery, Jr., J. E. Peralta, 
 F. Ogliaro, M. J. Bearpark, J. J. Heyd, E. N. Brothers, K. N. Kudin, 
 V. N. Staroverov, T. A. Keith, R. Kobayashi, J. Normand, 
 K. Raghavachari, A. P. Rendell, J. C. Burant, S. S. Iyengar, 
 J. Tomasi, M. Cossi, J. M. Millam, M. Klene, C. Adamo, R. Cammi, 
 J. W. Ochterski, R. L. Martin, K. Morokuma, O. Farkas, 
 J. B. Foresman, and D. J. Fox, Gaussian, Inc., Wallingford CT, 2019.
 
 ******************************************
 Gaussian 16:  ES64L-G16RevC.01  3-Jul-2019
                 7-Dec-2024 
 ******************************************
 Default route: SCF=Direct
 ----------------------------------------------------
 # m06/genecp scf=tight int=ultrafine 5d freq=noraman
 ----------------------------------------------------
 1/10=4,30=1,38=1/1,3;
 2/12=2,17=6,18=5,40=1/2;
 3/5=7,8=1,11=2,16=1,17=8,25=1,30=1,71=2,74=-54,75=-5,140=1/1,2,3;
 4//1;
 5/5=2,32=2,38=5,98=1/2;
 8/6=4,10=90,11=11/1;
 11/6=1,8=1,9=11,15=111,16=1/1,2,10;
 10/6=1/2;
 6/7=2,8=2,9=2,10=2,28=1/1;
 7/8=1,10=1,25=1/1,2,3,16;
 1/10=4,30=1/3;
 99//99;
 ------
 OPT-TS
 ------
 Symbolic Z-matrix:
 Charge =  0 Multiplicity = 1
 C                     2.10857  -2.06977   0.25328 
 C                     2.89691  -0.05565   1.06952 
 C                     4.17269  -0.57559   1.23758 
 C                     4.41226  -1.90072   0.89873 
 C                     3.36557  -2.65624   0.39915 
 C                     0.95713  -2.78348  -0.32171 
 C                    -1.17776  -2.62283  -1.2278 
 C                    -1.22796  -3.98537  -1.47722 
 C                    -0.14906  -4.77487  -1.09553 
 C                     0.95333  -4.16535  -0.51906 
 H                     2.66773   0.98688   1.29276 
 H                     5.40692  -2.32652   1.00499 
 H                     3.54122  -3.6831    0.0894 
 H                    -1.99765  -1.95789  -1.49013 
 H                    -0.16194  -5.85189  -1.25001 
 H                     1.8091   -4.76172  -0.21386 
 N                     1.88974  -0.78634   0.59542 
 N                    -0.12166  -2.03362  -0.64936 
 Ir                   -0.14881   0.03871   0.00691 
 O                    -1.35255  -0.55921   2.88396 
 O                    -2.90089   1.35834   0.1157 
 O                     1.37624   2.58951   0.71266 
 B                    -1.98124   0.62305  -0.62277 
 B                    -1.38764  -0.77102   1.51922 
 B                     0.26639   2.06972   0.06209 
 O                    -0.41615   3.06038  -0.61178 
 O                    -2.40504  -1.66641   1.19427 
 C                    -2.86851  -2.25882   2.41696 
 C                    -2.53273  -1.15343   3.45336 
 C                     1.56854   3.93556   0.23839 
 C                     0.12528   4.3253   -0.19097 
 C                    -3.99143   1.70363  -0.74628 
 C                    -3.93965   0.57411  -1.8146 
 O                    -2.53553   0.25963  -1.85265 
 C                    -3.5892   -0.05874   3.51292 
 H                    -4.51871  -0.4073    3.98338 
 H                    -3.19519   0.7766    4.1049 
 H                    -3.81084   0.32271   2.50649 
 C                    -2.2152   -1.65864   4.84513 
 H                    -1.98475  -0.81146   5.50322 
 H                    -3.07576  -2.19477   5.27113 
 H                    -1.3486   -2.32901   4.8459 
 C                    -4.34023  -2.59029   2.28273 
 H                    -4.92795  -1.7116    1.99196 
 H                    -4.47859  -3.35954   1.51107 
 H                    -4.74242  -2.98157   3.22832 
 C                    -2.05815  -3.53478   2.61287 
 H                    -0.98965  -3.30638   2.72941 
 H                    -2.39182  -4.11198   3.48574 
 H                    -2.17221  -4.16153   1.7176 
 C                    -5.26857   1.74601   0.06911 
 H                    -5.43782   0.8051    0.60671 
 H                    -5.20306   2.55077   0.81269 
 H                    -6.13997   1.94464  -0.57169 
 C                    -3.69536   3.08301  -1.32204 
 H                    -4.51329   3.44742  -1.95842 
 H                    -3.5673    3.78567  -0.48823 
 H                    -2.75861   3.08053  -1.89415 
 C                    -4.66694  -0.6921   -1.37937 
 H                    -4.44519  -1.4917   -2.1 
 H                    -4.32264  -1.02216  -0.38891 
 H                    -5.7564   -0.55466  -1.35665 
 C                    -4.39188   0.9846   -3.20088 
 H                    -3.77365   1.79409  -3.60359 
 H                    -4.31751   0.12989  -3.88589 
 H                    -5.44024   1.31604  -3.18747 
 C                    -0.73108   4.80931   0.97117 
 H                    -1.77616   4.86038   0.64077 
 H                    -0.68379   4.11218   1.8181 
 H                    -0.4282    5.80679   1.31679 
 C                     0.0397    5.30077  -1.34586 
 H                     0.51264   6.25859  -1.08579 
 H                     0.52097   4.90429  -2.24662 
 H                    -1.01446   5.49549  -1.58401 
 C                     2.54616   3.86848  -0.92669 
 H                     2.12713   3.30998  -1.7736 
 H                     2.83452   4.86978  -1.27374 
 H                     3.45163   3.34214  -0.59612 
 C                     2.15688   4.76592   1.35998 
 H                     1.5537    4.7023    2.27205 
 H                     3.16583   4.40235   1.59547 
 H                     2.23739   5.82137   1.06298 
 H                    -0.40062   1.04343   1.25495 
 C                     2.3927   -1.0237   -2.97069 
 O                     3.3031   -0.77001  -2.18118 
 C                     2.64414  -2.01633  -4.09466 
 H                     2.03042  -1.82316  -4.98378 
 H                     3.69261  -1.87009  -4.38158 
 C                     0.9036    0.60306  -1.91797 
 H                     1.88644   1.02451  -1.66916 
 H                     0.31895   1.36457  -2.45313 
 N                     1.15202  -0.47878  -2.8672 
 C                     0.0694   -0.78302  -3.78212 
 H                     0.1563   -0.22052  -4.72641 
 H                     0.02205  -1.85375  -4.01752 
 H                    -0.87586  -0.49782  -3.30603 
 C                     2.44767  -3.44555  -3.60478 
 H                     3.06961  -3.61998  -2.71546 
 H                     1.40163  -3.63769  -3.32278 
 C                     5.23741   0.3038    1.81343 
 F                     6.46     -0.19113   1.59864 
 F                     5.19388   1.53363   1.29186 
 F                     5.08759   0.43709   3.13769 
 H                    -2.10916  -4.41354  -1.94792 
 H                     2.73127  -4.17948  -4.36923 
 

 GradGradGradGradGradGradGradGradGradGradGradGradGradGradGradGradGradGrad
 Berny optimization.
 Initialization pass.
 Trust Radius=3.00D-01 FncErr=1.00D-07 GrdErr=1.00D-07 EigMax=2.50D+02 EigMin=1.00D-04
 Number of steps in this run=      2 maximum allowed number of steps=      2.
 GradGradGradGradGradGradGradGradGradGradGradGradGradGradGradGradGradGrad

 Stoichiometry    C34H54B3F3IrN3O7
 Framework group  C1[X(C34H54B3F3IrN3O7)]
 Deg. of freedom   309
 Full point group                 C1      NOp   1
 Largest Abelian subgroup         C1      NOp   1
 Largest concise Abelian subgroup C1      NOp   1
                         Standard orientation:                         
 ---------------------------------------------------------------------
 Center     Atomic      Atomic             Coordinates (Angstroms)
 Number     Number       Type             X           Y           Z
 ---------------------------------------------------------------------
      1          6           0        2.108571   -2.069769    0.253281
      2          6           0        2.896910   -0.055649    1.069521
      3          6           0        4.172690   -0.575589    1.237581
      4          6           0        4.412261   -1.900718    0.898731
      5          6           0        3.365571   -2.656239    0.399151
      6          6           0        0.957131   -2.783479   -0.321709
      7          6           0       -1.177759   -2.622830   -1.227799
      8          6           0       -1.227959   -3.985370   -1.477219
      9          6           0       -0.149059   -4.774870   -1.095529
     10          6           0        0.953331   -4.165349   -0.519059
     11          1           0        2.667730    0.986881    1.292761
     12          1           0        5.406921   -2.326518    1.004991
     13          1           0        3.541221   -3.683099    0.089401
     14          1           0       -1.997649   -1.957890   -1.490129
     15          1           0       -0.161938   -5.851890   -1.250009
     16          1           0        1.809101   -4.761719   -0.213859
     17          7           0        1.889740   -0.786339    0.595421
     18          7           0       -0.121659   -2.033620   -0.649359
     19         77           0       -0.148810    0.038710    0.006911
     20          8           0       -1.352550   -0.559210    2.883961
     21          8           0       -2.900890    1.358340    0.115701
     22          8           0        1.376239    2.589511    0.712661
     23          5           0       -1.981240    0.623050   -0.622769
     24          5           0       -1.387640   -0.771020    1.519221
     25          5           0        0.266390    2.069720    0.062091
     26          8           0       -0.416151    3.060380   -0.611779
     27          8           0       -2.405040   -1.666410    1.194271
     28          6           0       -2.868509   -2.258820    2.416961
     29          6           0       -2.532730   -1.153430    3.453361
     30          6           0        1.568539    3.935561    0.238391
     31          6           0        0.125279    4.325300   -0.190969
     32          6           0       -3.991430    1.703629   -0.746279
     33          6           0       -3.939650    0.574109   -1.814599
     34          8           0       -2.535530    0.259630   -1.852649
     35          6           0       -3.589200   -0.058741    3.512921
     36          1           0       -4.518710   -0.407301    3.983381
     37          1           0       -3.195190    0.776600    4.104901
     38          1           0       -3.810840    0.322709    2.506491
     39          6           0       -2.215200   -1.658640    4.845131
     40          1           0       -1.984750   -0.811460    5.503221
     41          1           0       -3.075759   -2.194770    5.271131
     42          1           0       -1.348599   -2.329010    4.845901
     43          6           0       -4.340229   -2.590291    2.282731
     44          1           0       -4.927950   -1.711601    1.991961
     45          1           0       -4.478589   -3.359541    1.511071
     46          1           0       -4.742419   -2.981571    3.228321
     47          6           0       -2.058149   -3.534780    2.612871
     48          1           0       -0.989649   -3.306380    2.729411
     49          1           0       -2.391819   -4.111980    3.485741
     50          1           0       -2.172209   -4.161530    1.717601
     51          6           0       -5.268570    1.746009    0.069111
     52          1           0       -5.437820    0.805099    0.606711
     53          1           0       -5.203061    2.550769    0.812691
     54          1           0       -6.139970    1.944639   -0.571689
     55          6           0       -3.695361    3.083009   -1.322039
     56          1           0       -4.513291    3.447419   -1.958419
     57          1           0       -3.567301    3.785669   -0.488229
     58          1           0       -2.758611    3.080530   -1.894149
     59          6           0       -4.666940   -0.692101   -1.379369
     60          1           0       -4.445190   -1.491701   -2.099999
     61          1           0       -4.322640   -1.022161   -0.388909
     62          1           0       -5.756400   -0.554661   -1.356649
     63          6           0       -4.391880    0.984599   -3.200879
     64          1           0       -3.773650    1.794089   -3.603589
     65          1           0       -4.317510    0.129889   -3.885889
     66          1           0       -5.440240    1.316039   -3.187469
     67          6           0       -0.731081    4.809310    0.971171
     68          1           0       -1.776161    4.860380    0.640771
     69          1           0       -0.683791    4.112180    1.818101
     70          1           0       -0.428201    5.806790    1.316791
     71          6           0        0.039699    5.300770   -1.345859
     72          1           0        0.512638    6.258591   -1.085789
     73          1           0        0.520969    4.904291   -2.246619
     74          1           0       -1.014461    5.495490   -1.584009
     75          6           0        2.546159    3.868481   -0.926689
     76          1           0        2.127129    3.309981   -1.773599
     77          1           0        2.834519    4.869781   -1.273739
     78          1           0        3.451629    3.342141   -0.596119
     79          6           0        2.156879    4.765921    1.359981
     80          1           0        1.553699    4.702301    2.272051
     81          1           0        3.165829    4.402351    1.595471
     82          1           0        2.237389    5.821371    1.062981
     83          1           0       -0.400620    1.043430    1.254951
     84          6           0        2.392700   -1.023699   -2.970689
     85          8           0        3.303100   -0.770009   -2.181179
     86          6           0        2.644141   -2.016329   -4.094659
     87          1           0        2.030421   -1.823159   -4.983779
     88          1           0        3.692611   -1.870089   -4.381579
     89          6           0        0.903600    0.603061   -1.917969
     90          1           0        1.886440    1.024511   -1.669159
     91          1           0        0.318950    1.364571   -2.453129
     92          7           0        1.152020   -0.478779   -2.867199
     93          6           0        0.069400   -0.783020   -3.782119
     94          1           0        0.156300   -0.220520   -4.726409
     95          1           0        0.022051   -1.853750   -4.017519
     96          1           0       -0.875860   -0.497820   -3.306029
     97          6           0        2.447671   -3.445549   -3.604779
     98          1           0        3.069611   -3.619979   -2.715459
     99          1           0        1.401631   -3.637689   -3.322779
    100          6           0        5.237410    0.303802    1.813431
    101          9           0        6.460000   -0.191128    1.598641
    102          9           0        5.193880    1.533632    1.291861
    103          9           0        5.087590    0.437092    3.137691
    104          1           0       -2.109159   -4.413540   -1.947919
    105          1           0        2.731271   -4.179479   -4.369229
 ---------------------------------------------------------------------
 Rotational constants (GHZ):           0.0683584           0.0524924           0.0459363
 General basis read from cards:  (5D, 7F)
 ======================================================================================================
                                       Pseudopotential Parameters
 ======================================================================================================
  Center     Atomic      Valence      Angular      Power
  Number     Number     Electrons     Momentum     of R      Exponent        Coefficient   SO-Coeffient
 ======================================================================================================
    1          6
                                   No pseudopotential on this center.
    2          6
                                   No pseudopotential on this center.
    3          6
                                   No pseudopotential on this center.
    4          6
                                   No pseudopotential on this center.
    5          6
                                   No pseudopotential on this center.
    6          6
                                   No pseudopotential on this center.
    7          6
                                   No pseudopotential on this center.
    8          6
                                   No pseudopotential on this center.
    9          6
                                   No pseudopotential on this center.
   10          6
                                   No pseudopotential on this center.
   11          1
                                   No pseudopotential on this center.
   12          1
                                   No pseudopotential on this center.
   13          1
                                   No pseudopotential on this center.
   14          1
                                   No pseudopotential on this center.
   15          1
                                   No pseudopotential on this center.
   16          1
                                   No pseudopotential on this center.
   17          7
                                   No pseudopotential on this center.
   18          7
                                   No pseudopotential on this center.
   19         77           17
                                      G and up 
                                                     1      823.5880147       -0.15780140    0.00000000
                                                     2      364.6613336    -1517.52704460    0.00000000
                                                     2       55.7082801     -316.53065290    0.00000000
                                                     2       12.0464544      -91.88809410    0.00000000
                                                     2        3.5120610       -9.22417730    0.00000000
                                      S - G
                                                     0      188.0490770        3.15780140    0.00000000
                                                     1      340.4194712       26.83225770    0.00000000
                                                     2      128.2373673      800.42500070    0.00000000
                                                     2       33.8644961      369.40506830    0.00000000
                                                     2        4.7560005      242.41718990    0.00000000
                                                     2        3.9649974     -118.21732820    0.00000000
                                      P - G
                                                     0      289.7291139        2.15780140    0.00000000
                                                     1       87.4633789       61.96786100    0.00000000
                                                     2       30.4363766      269.05819860    0.00000000
                                                     2        4.0553412      231.16547930    0.00000000
                                                     2        3.5525341     -133.69526670    0.00000000
                                      D - G
                                                     0      136.4017106        3.15780140    0.00000000
                                                     1       95.0776925       45.93498030    0.00000000
                                                     2       49.2258410      359.03446680    0.00000000
                                                     2       15.0874145      176.47401190    0.00000000
                                                     2        4.0405764       54.51552860    0.00000000
                                      F - G
                                                     0      127.3507908        3.95461970    0.00000000
                                                     1       66.2364374       52.97736550    0.00000000
                                                     2       34.4299229      274.86433830    0.00000000
                                                     2       10.1995721      137.20473380    0.00000000
                                                     2        2.5409702       14.86333050    0.00000000
   20          8
                                   No pseudopotential on this center.
   21          8
                                   No pseudopotential on this center.
   22          8
                                   No pseudopotential on this center.
   23          5
                                   No pseudopotential on this center.
   24          5
                                   No pseudopotential on this center.
   25          5
                                   No pseudopotential on this center.
   26          8
                                   No pseudopotential on this center.
   27          8
                                   No pseudopotential on this center.
   28          6
                                   No pseudopotential on this center.
   29          6
                                   No pseudopotential on this center.
   30          6
                                   No pseudopotential on this center.
   31          6
                                   No pseudopotential on this center.
   32          6
                                   No pseudopotential on this center.
   33          6
                                   No pseudopotential on this center.
   34          8
                                   No pseudopotential on this center.
   35          6
                                   No pseudopotential on this center.
   36          1
                                   No pseudopotential on this center.
   37          1
                                   No pseudopotential on this center.
   38          1
                                   No pseudopotential on this center.
   39          6
                                   No pseudopotential on this center.
   40          1
                                   No pseudopotential on this center.
   41          1
                                   No pseudopotential on this center.
   42          1
                                   No pseudopotential on this center.
   43          6
                                   No pseudopotential on this center.
   44          1
                                   No pseudopotential on this center.
   45          1
                                   No pseudopotential on this center.
   46          1
                                   No pseudopotential on this center.
   47          6
                                   No pseudopotential on this center.
   48          1
                                   No pseudopotential on this center.
   49          1
                                   No pseudopotential on this center.
   50          1
                                   No pseudopotential on this center.
   51          6
                                   No pseudopotential on this center.
   52          1
                                   No pseudopotential on this center.
   53          1
                                   No pseudopotential on this center.
   54          1
                                   No pseudopotential on this center.
   55          6
                                   No pseudopotential on this center.
   56          1
                                   No pseudopotential on this center.
   57          1
                                   No pseudopotential on this center.
   58          1
                                   No pseudopotential on this center.
   59          6
                                   No pseudopotential on this center.
   60          1
                                   No pseudopotential on this center.
   61          1
                                   No pseudopotential on this center.
   62          1
                                   No pseudopotential on this center.
   63          6
                                   No pseudopotential on this center.
   64          1
                                   No pseudopotential on this center.
   65          1
                                   No pseudopotential on this center.
   66          1
                                   No pseudopotential on this center.
   67          6
                                   No pseudopotential on this center.
   68          1
                                   No pseudopotential on this center.
   69          1
                                   No pseudopotential on this center.
   70          1
                                   No pseudopotential on this center.
   71          6
                                   No pseudopotential on this center.
   72          1
                                   No pseudopotential on this center.
   73          1
                                   No pseudopotential on this center.
   74          1
                                   No pseudopotential on this center.
   75          6
                                   No pseudopotential on this center.
   76          1
                                   No pseudopotential on this center.
   77          1
                                   No pseudopotential on this center.
   78          1
                                   No pseudopotential on this center.
   79          6
                                   No pseudopotential on this center.
   80          1
                                   No pseudopotential on this center.
   81          1
                                   No pseudopotential on this center.
   82          1
                                   No pseudopotential on this center.
   83          1
                                   No pseudopotential on this center.
   84          6
                                   No pseudopotential on this center.
   85          8
                                   No pseudopotential on this center.
   86          6
                                   No pseudopotential on this center.
   87          1
                                   No pseudopotential on this center.
   88          1
                                   No pseudopotential on this center.
   89          6
                                   No pseudopotential on this center.
   90          1
                                   No pseudopotential on this center.
   91          1
                                   No pseudopotential on this center.
   92          7
                                   No pseudopotential on this center.
   93          6
                                   No pseudopotential on this center.
   94          1
                                   No pseudopotential on this center.
   95          1
                                   No pseudopotential on this center.
   96          1
                                   No pseudopotential on this center.
   97          6
                                   No pseudopotential on this center.
   98          1
                                   No pseudopotential on this center.
   99          1
                                   No pseudopotential on this center.
  100          6
                                   No pseudopotential on this center.
  101          9
                                   No pseudopotential on this center.
  102          9
                                   No pseudopotential on this center.
  103          9
                                   No pseudopotential on this center.
  104          1
                                   No pseudopotential on this center.
  105          1
                                   No pseudopotential on this center.
 ======================================================================================================
 There are   882 symmetry adapted cartesian basis functions of A   symmetry.
 There are   830 symmetry adapted basis functions of A   symmetry.
   830 basis functions,  1659 primitive gaussians,   882 cartesian basis functions
   197 alpha electrons      197 beta electrons
       nuclear repulsion energy      8523.1073194923 Hartrees.
 NAtoms=  105 NActive=  105 NUniq=  105 SFac= 1.00D+00 NAtFMM=   60 NAOKFM=T Big=T
 Integral buffers will be    131072 words long.
 Raffenetti 2 integral format.
 Two-electron integral symmetry is turned on.
 One-electron integrals computed using PRISM.
   1 Symmetry operations used in ECPInt.
 ECPInt:  NShTT=   50086 NPrTT=  307226 LenC2=   38526 LenP2D=  119861.
 LDataN:  DoStor=T MaxTD1= 6 Len=  172
 NBasis=   830 RedAO= T EigKep=  4.76D-04  NBF=   830
 NBsUse=   830 1.00D-06 EigRej= -1.00D+00 NBFU=   830
 Defaulting to unpruned grid for atomic number  77.
 ExpMin= 2.90D-02 ExpMax= 7.00D+03 ExpMxC= 1.05D+03 IAcc=3 IRadAn=         5 AccDes= 0.00D+00
 Harris functional with IExCor= 1009 and IRadAn=       5 diagonalized for initial guess.
 HarFok:  IExCor= 1009 AccDes= 0.00D+00 IRadAn=         5 IDoV= 1 UseB2=F ITyADJ=14
 ICtDFT=  3500011 ScaDFX=  1.000000  1.000000  1.000000  1.000000
 Defaulting to unpruned grid for atomic number  77.
 FoFCou: FMM=F IPFlag=           0 FMFlag=      100000 FMFlg1=        2001
         NFxFlg=           0 DoJE=T BraDBF=F KetDBF=T FulRan=T
         wScrn=  0.000000 ICntrl=       500 IOpCl=  0 I1Cent=   200000004 NGrid=           0
         NMat0=    1 NMatS0=      1 NMatT0=    0 NMatD0=    1 NMtDS0=    0 NMtDT0=    0
 Petite list used in FoFCou.
 Requested convergence on RMS density matrix=1.00D-08 within 128 cycles.
 Requested convergence on MAX density matrix=1.00D-06.
 Requested convergence on             energy=1.00D-06.
 No special actions if energy rises.
 Defaulting to unpruned grid for atomic number  77.
 Defaulting to unpruned grid for atomic number  77.
 Defaulting to unpruned grid for atomic number  77.
 Defaulting to unpruned grid for atomic number  77.
 Defaulting to unpruned grid for atomic number  77.
 Defaulting to unpruned grid for atomic number  77.
 Defaulting to unpruned grid for atomic number  77.
 Defaulting to unpruned grid for atomic number  77.
 Defaulting to unpruned grid for atomic number  77.
 Defaulting to unpruned grid for atomic number  77.
 Defaulting to unpruned grid for atomic number  77.
 Defaulting to unpruned grid for atomic number  77.
 Defaulting to unpruned grid for atomic number  77.
 Defaulting to unpruned grid for atomic number  77.
 Defaulting to unpruned grid for atomic number  77.
 Defaulting to unpruned grid for atomic number  77.
 SCF Done:  E(RM06) =  -2496.60982055     A.U. after   15 cycles
            NFock= 15  Conv=0.81D-08     -V/T= 2.0359
 DoSCS=F DFT=T ScalE2(SS,OS)=  1.000000  1.000000
 Range of M.O.s used for correlation:     1   830
 NBasis=   830 NAE=   197 NBE=   197 NFC=     0 NFV=     0
 NROrb=    830 NOA=   197 NOB=   197 NVA=   633 NVB=   633

 **** Warning!!: The largest alpha MO coefficient is  0.12266873D+02

   1 Symmetry operations used in ECPInt.
 ECPInt:  NShTT=   50086 NPrTT=  307226 LenC2=   38526 LenP2D=  119861.
 LDataN:  DoStor=T MaxTD1= 7 Len=  274
 Number of processors reduced to   8 by ecpmxn.
 Symmetrizing basis deriv contribution to polar:
 IMax=3 JMax=2 DiffMx= 0.00D+00
 G2DrvN: will do   106 centers at a time, making    1 passes.
 Calling FoFCou, ICntrl=  3107 FMM=T I1Cent=   0 AccDes= 0.00D+00.
 Defaulting to unpruned grid for atomic number  77.
 Defaulting to unpruned grid for atomic number  77.
 Defaulting to unpruned grid for atomic number  77.
 Defaulting to unpruned grid for atomic number  77.
 Defaulting to unpruned grid for atomic number  77.
 Defaulting to unpruned grid for atomic number  77.
 Defaulting to unpruned grid for atomic number  77.
 Defaulting to unpruned grid for atomic number  77.
 Defaulting to unpruned grid for atomic number  77.
 Defaulting to unpruned grid for atomic number  77.
 Defaulting to unpruned grid for atomic number  77.
 Defaulting to unpruned grid for atomic number  77.
 Defaulting to unpruned grid for atomic number  77.
 Defaulting to unpruned grid for atomic number  77.
 Defaulting to unpruned grid for atomic number  77.
 Defaulting to unpruned grid for atomic number  77.
 End of G2Drv F.D. properties file   721 does not exist.
 End of G2Drv F.D. properties file   722 does not exist.
 End of G2Drv F.D. properties file   788 does not exist.
          IDoAtm=11111111111111111111111111111111111111111111111111
          IDoAtm=11111111111111111111111111111111111111111111111111
          IDoAtm=11111
          Differentiating once with respect to electric field.
                with respect to dipole field.
          Differentiating once with respect to nuclear coordinates.
 Defaulting to unpruned grid for atomic number  77.
 CalDSu exits because no D1Ps are significant.
 Defaulting to unpruned grid for atomic number  77.
 Defaulting to unpruned grid for atomic number  77.
 Defaulting to unpruned grid for atomic number  77.
 Defaulting to unpruned grid for atomic number  77.
 Defaulting to unpruned grid for atomic number  77.
 Defaulting to unpruned grid for atomic number  77.
 Defaulting to unpruned grid for atomic number  77.
 Defaulting to unpruned grid for atomic number  77.
 Defaulting to unpruned grid for atomic number  77.
 Defaulting to unpruned grid for atomic number  77.
 Defaulting to unpruned grid for atomic number  77.
 Defaulting to unpruned grid for atomic number  77.
 Defaulting to unpruned grid for atomic number  77.
 Defaulting to unpruned grid for atomic number  77.
 Defaulting to unpruned grid for atomic number  77.
 Defaulting to unpruned grid for atomic number  77.
          There are   318 degrees of freedom in the 1st order CPHF.  IDoFFX=6 NUNeed=     3.
    315 vectors produced by pass  0 Test12= 1.25D-13 1.00D-09 XBig12= 4.81D+02 8.39D+00.
 AX will form    72 AO Fock derivatives at one time.
    315 vectors produced by pass  1 Test12= 1.25D-13 1.00D-09 XBig12= 7.89D+01 9.49D-01.
    315 vectors produced by pass  2 Test12= 1.25D-13 1.00D-09 XBig12= 8.37D-01 6.25D-02.
    315 vectors produced by pass  3 Test12= 1.25D-13 1.00D-09 XBig12= 6.20D-03 4.94D-03.
    315 vectors produced by pass  4 Test12= 1.25D-13 1.00D-09 XBig12= 2.15D-05 2.72D-04.
    280 vectors produced by pass  5 Test12= 1.25D-13 1.00D-09 XBig12= 4.38D-08 1.06D-05.
     77 vectors produced by pass  6 Test12= 1.25D-13 1.00D-09 XBig12= 6.26D-11 6.22D-07.
      3 vectors produced by pass  7 Test12= 1.25D-13 1.00D-09 XBig12= 8.28D-14 2.31D-08.
 InvSVY:  IOpt=1 It=  1 EMax= 4.62D-14
 Solved reduced A of dimension  1935 with   318 vectors.
 Isotropic polarizability for W=    0.000000      474.20 Bohr**3.
 End of Minotr F.D. properties file   721 does not exist.
 End of Minotr F.D. properties file   722 does not exist.
 End of Minotr F.D. properties file   788 does not exist.
 Hyperfine terms turned off by default for NAtoms > 100.

 **********************************************************************

            Population analysis using the SCF Density.

 **********************************************************************

 Orbital symmetries:
       Occupied  (A) (A) (A) (A) (A) (A) (A) (A) (A) (A) (A) (A)
                 (A) (A) (A) (A) (A) (A) (A) (A) (A) (A) (A) (A)
                 (A) (A) (A) (A) (A) (A) (A) (A) (A) (A) (A) (A)
                 (A) (A) (A) (A) (A) (A) (A) (A) (A) (A) (A) (A)
                 (A) (A) (A) (A) (A) (A) (A) (A) (A) (A) (A) (A)
                 (A) (A) (A) (A) (A) (A) (A) (A) (A) (A) (A) (A)
                 (A) (A) (A) (A) (A) (A) (A) (A) (A) (A) (A) (A)
                 (A) (A) (A) (A) (A) (A) (A) (A) (A) (A) (A) (A)
                 (A) (A) (A) (A) (A) (A) (A) (A) (A) (A) (A) (A)
                 (A) (A) (A) (A) (A) (A) (A) (A) (A) (A) (A) (A)
                 (A) (A) (A) (A) (A) (A) (A) (A) (A) (A) (A) (A)
                 (A) (A) (A) (A) (A) (A) (A) (A) (A) (A) (A) (A)
                 (A) (A) (A) (A) (A) (A) (A) (A) (A) (A) (A) (A)
                 (A) (A) (A) (A) (A) (A) (A) (A) (A) (A) (A) (A)
                 (A) (A) (A) (A) (A) (A) (A) (A) (A) (A) (A) (A)
                 (A) (A) (A) (A) (A) (A) (A) (A) (A) (A) (A) (A)
                 (A) (A) (A) (A) (A)
       Virtual   (A) (A) (A) (A) (A) (A) (A) (A) (A) (A) (A) (A)
                 (A) (A) (A) (A) (A) (A) (A) (A) (A) (A) (A) (A)
                 (A) (A) (A) (A) (A) (A) (A) (A) (A) (A) (A) (A)
                 (A) (A) (A) (A) (A) (A) (A) (A) (A) (A) (A) (A)
                 (A) (A) (A) (A) (A) (A) (A) (A) (A) (A) (A) (A)
                 (A) (A) (A) (A) (A) (A) (A) (A) (A) (A) (A) (A)
                 (A) (A) (A) (A) (A) (A) (A) (A) (A) (A) (A) (A)
                 (A) (A) (A) (A) (A) (A) (A) (A) (A) (A) (A) (A)
                 (A) (A) (A) (A) (A) (A) (A) (A) (A) (A) (A) (A)
                 (A) (A) (A) (A) (A) (A) (A) (A) (A) (A) (A) (A)
                 (A) (A) (A) (A) (A) (A) (A) (A) (A) (A) (A) (A)
                 (A) (A) (A) (A) (A) (A) (A) (A) (A) (A) (A) (A)
                 (A) (A) (A) (A) (A) (A) (A) (A) (A) (A) (A) (A)
                 (A) (A) (A) (A) (A) (A) (A) (A) (A) (A) (A) (A)
                 (A) (A) (A) (A) (A) (A) (A) (A) (A) (A) (A) (A)
                 (A) (A) (A) (A) (A) (A) (A) (A) (A) (A) (A) (A)
                 (A) (A) (A) (A) (A) (A) (A) (A) (A) (A) (A) (A)
                 (A) (A) (A) (A) (A) (A) (A) (A) (A) (A) (A) (A)
                 (A) (A) (A) (A) (A) (A) (A) (A) (A) (A) (A) (A)
                 (A) (A) (A) (A) (A) (A) (A) (A) (A) (A) (A) (A)
                 (A) (A) (A) (A) (A) (A) (A) (A) (A) (A) (A) (A)
                 (A) (A) (A) (A) (A) (A) (A) (A) (A) (A) (A) (A)
                 (A) (A) (A) (A) (A) (A) (A) (A) (A) (A) (A) (A)
                 (A) (A) (A) (A) (A) (A) (A) (A) (A) (A) (A) (A)
                 (A) (A) (A) (A) (A) (A) (A) (A) (A) (A) (A) (A)
                 (A) (A) (A) (A) (A) (A) (A) (A) (A) (A) (A) (A)
                 (A) (A) (A) (A) (A) (A) (A) (A) (A) (A) (A) (A)
                 (A) (A) (A) (A) (A) (A) (A) (A) (A) (A) (A) (A)
                 (A) (A) (A) (A) (A) (A) (A) (A) (A) (A) (A) (A)
                 (A) (A) (A) (A) (A) (A) (A) (A) (A) (A) (A) (A)
                 (A) (A) (A) (A) (A) (A) (A) (A) (A) (A) (A) (A)
                 (A) (A) (A) (A) (A) (A) (A) (A) (A) (A) (A) (A)
                 (A) (A) (A) (A) (A) (A) (A) (A) (A) (A) (A) (A)
                 (A) (A) (A) (A) (A) (A) (A) (A) (A) (A) (A) (A)
                 (A) (A) (A) (A) (A) (A) (A) (A) (A) (A) (A) (A)
                 (A) (A) (A) (A) (A) (A) (A) (A) (A) (A) (A) (A)
                 (A) (A) (A) (A) (A) (A) (A) (A) (A) (A) (A) (A)
                 (A) (A) (A) (A) (A) (A) (A) (A) (A) (A) (A) (A)
                 (A) (A) (A) (A) (A) (A) (A) (A) (A) (A) (A) (A)
                 (A) (A) (A) (A) (A) (A) (A) (A) (A) (A) (A) (A)
                 (A) (A) (A) (A) (A) (A) (A) (A) (A) (A) (A) (A)
                 (A) (A) (A) (A) (A) (A) (A) (A) (A) (A) (A) (A)
                 (A) (A) (A) (A) (A) (A) (A) (A) (A) (A) (A) (A)
                 (A) (A) (A) (A) (A) (A) (A) (A) (A) (A) (A) (A)
                 (A) (A) (A) (A) (A) (A) (A) (A) (A) (A) (A) (A)
                 (A) (A) (A) (A) (A) (A) (A) (A) (A) (A) (A) (A)
                 (A) (A) (A) (A) (A) (A) (A) (A) (A) (A) (A) (A)
                 (A) (A) (A) (A) (A) (A) (A) (A) (A) (A) (A) (A)
                 (A) (A) (A) (A) (A) (A) (A) (A) (A) (A) (A) (A)
                 (A) (A) (A) (A) (A) (A) (A) (A) (A) (A) (A) (A)
                 (A) (A) (A) (A) (A) (A) (A) (A) (A) (A) (A) (A)
                 (A) (A) (A) (A) (A) (A) (A) (A) (A) (A) (A) (A)
                 (A) (A) (A) (A) (A) (A) (A) (A) (A)
 The electronic state is 1-A.
 Alpha  occ. eigenvalues --  -24.82205 -24.81816 -24.81472 -19.21181 -19.20905
 Alpha  occ. eigenvalues --  -19.20846 -19.20815 -19.20543 -19.19964 -19.16016
 Alpha  occ. eigenvalues --  -14.45950 -14.44200 -14.40408 -10.50353 -10.32370
 Alpha  occ. eigenvalues --  -10.31782 -10.31750 -10.30610 -10.29913 -10.29868
 Alpha  occ. eigenvalues --  -10.29775 -10.29739 -10.29580 -10.29484 -10.29263
 Alpha  occ. eigenvalues --  -10.29194 -10.28714 -10.28486 -10.28245 -10.27965
 Alpha  occ. eigenvalues --  -10.27960 -10.25632 -10.23897 -10.23667 -10.23482
 Alpha  occ. eigenvalues --  -10.23214 -10.23023 -10.22960 -10.22940 -10.22877
 Alpha  occ. eigenvalues --  -10.22849 -10.22697 -10.22667 -10.22512 -10.22294
 Alpha  occ. eigenvalues --  -10.22122 -10.21959  -6.81983  -6.80535  -6.79643
 Alpha  occ. eigenvalues --   -3.64836  -2.07900  -2.06479  -2.05518  -1.34735
 Alpha  occ. eigenvalues --   -1.26247  -1.25689  -1.07077  -1.06752  -1.06241
 Alpha  occ. eigenvalues --   -1.01852  -1.00212  -1.00100  -0.99692  -0.99355
 Alpha  occ. eigenvalues --   -0.97599  -0.91657  -0.85247  -0.84280  -0.83051
 Alpha  occ. eigenvalues --   -0.80826  -0.80787  -0.80500  -0.78741  -0.77714
 Alpha  occ. eigenvalues --   -0.75253  -0.75198  -0.74928  -0.73071  -0.70832
 Alpha  occ. eigenvalues --   -0.70541  -0.70470  -0.69578  -0.68286  -0.68244
 Alpha  occ. eigenvalues --   -0.68036  -0.67807  -0.67673  -0.67135  -0.65129
 Alpha  occ. eigenvalues --   -0.64122  -0.62481  -0.61985  -0.61681  -0.61513
 Alpha  occ. eigenvalues --   -0.60723  -0.60644  -0.59444  -0.57228  -0.55257
 Alpha  occ. eigenvalues --   -0.55045  -0.54856  -0.54465  -0.53797  -0.53502
 Alpha  occ. eigenvalues --   -0.53336  -0.52220  -0.51691  -0.50238  -0.48787
 Alpha  occ. eigenvalues --   -0.48642  -0.48497  -0.48254  -0.47919  -0.47690
 Alpha  occ. eigenvalues --   -0.47528  -0.47045  -0.46837  -0.46663  -0.46584
 Alpha  occ. eigenvalues --   -0.46352  -0.46047  -0.45861  -0.44972  -0.44825
 Alpha  occ. eigenvalues --   -0.44745  -0.44711  -0.44476  -0.44218  -0.44126
 Alpha  occ. eigenvalues --   -0.43973  -0.43826  -0.43687  -0.43379  -0.43006
 Alpha  occ. eigenvalues --   -0.42427  -0.41994  -0.41690  -0.40812  -0.40608
 Alpha  occ. eigenvalues --   -0.40415  -0.40284  -0.40197  -0.40152  -0.40069
 Alpha  occ. eigenvalues --   -0.39888  -0.39834  -0.39588  -0.39514  -0.39270
 Alpha  occ. eigenvalues --   -0.39105  -0.39020  -0.38788  -0.38312  -0.38137
 Alpha  occ. eigenvalues --   -0.37807  -0.37740  -0.37521  -0.36952  -0.36903
 Alpha  occ. eigenvalues --   -0.36560  -0.36492  -0.36365  -0.36178  -0.35929
 Alpha  occ. eigenvalues --   -0.35896  -0.35603  -0.35307  -0.35285  -0.35097
 Alpha  occ. eigenvalues --   -0.34942  -0.34892  -0.34227  -0.33266  -0.33171
 Alpha  occ. eigenvalues --   -0.32780  -0.32550  -0.32411  -0.31959  -0.31849
 Alpha  occ. eigenvalues --   -0.31716  -0.31246  -0.30745  -0.30675  -0.30400
 Alpha  occ. eigenvalues --   -0.30132  -0.28230  -0.27103  -0.26965  -0.26603
 Alpha  occ. eigenvalues --   -0.26341  -0.26040  -0.25223  -0.23919  -0.23317
 Alpha  occ. eigenvalues --   -0.22377  -0.17845
 Alpha virt. eigenvalues --   -0.07253  -0.03856  -0.02883   0.01044   0.02309
 Alpha virt. eigenvalues --    0.04014   0.05096   0.06147   0.06543   0.07438
 Alpha virt. eigenvalues --    0.07511   0.07980   0.09023   0.09399   0.10035
 Alpha virt. eigenvalues --    0.10113   0.10728   0.11050   0.11257   0.11607
 Alpha virt. eigenvalues --    0.12311   0.12651   0.12822   0.13434   0.13488
 Alpha virt. eigenvalues --    0.14072   0.14178   0.14545   0.14877   0.15003
 Alpha virt. eigenvalues --    0.15066   0.15230   0.15333   0.15527   0.15634
 Alpha virt. eigenvalues --    0.15796   0.16180   0.16441   0.16555   0.16642
 Alpha virt. eigenvalues --    0.16726   0.17088   0.17179   0.17313   0.17554
 Alpha virt. eigenvalues --    0.17674   0.17802   0.18095   0.18306   0.18751
 Alpha virt. eigenvalues --    0.18880   0.18928   0.19138   0.19262   0.19492
 Alpha virt. eigenvalues --    0.19736   0.19792   0.20017   0.20138   0.20248
 Alpha virt. eigenvalues --    0.20336   0.20596   0.21049   0.21443   0.21677
 Alpha virt. eigenvalues --    0.21920   0.22119   0.22506   0.22698   0.22879
 Alpha virt. eigenvalues --    0.23110   0.23294   0.23435   0.23658   0.24254
 Alpha virt. eigenvalues --    0.24430   0.24584   0.24746   0.24968   0.24992
 Alpha virt. eigenvalues --    0.25240   0.25437   0.25640   0.25916   0.26113
 Alpha virt. eigenvalues --    0.26394   0.26569   0.26797   0.26895   0.27464
 Alpha virt. eigenvalues --    0.27819   0.28376   0.28531   0.28747   0.29141
 Alpha virt. eigenvalues --    0.30212   0.30368   0.30715   0.31067   0.31799
 Alpha virt. eigenvalues --    0.32113   0.32805   0.33630   0.34306   0.34799
 Alpha virt. eigenvalues --    0.35438   0.36051   0.36580   0.37072   0.37685
 Alpha virt. eigenvalues --    0.37978   0.38948   0.39175   0.39858   0.40060
 Alpha virt. eigenvalues --    0.42318   0.42699   0.42906   0.45617   0.46517
 Alpha virt. eigenvalues --    0.47459   0.48094   0.48289   0.48622   0.49280
 Alpha virt. eigenvalues --    0.49930   0.50251   0.50351   0.50669   0.51212
 Alpha virt. eigenvalues --    0.51240   0.51643   0.51982   0.52110   0.52606
 Alpha virt. eigenvalues --    0.53364   0.54054   0.54666   0.54929   0.55391
 Alpha virt. eigenvalues --    0.55724   0.56073   0.56201   0.56437   0.56648
 Alpha virt. eigenvalues --    0.57201   0.57390   0.57451   0.57608   0.57896
 Alpha virt. eigenvalues --    0.58165   0.58597   0.58606   0.58688   0.58871
 Alpha virt. eigenvalues --    0.59195   0.59543   0.59684   0.60226   0.60453
 Alpha virt. eigenvalues --    0.60825   0.61335   0.61729   0.61982   0.62248
 Alpha virt. eigenvalues --    0.62421   0.62972   0.63041   0.63621   0.63908
 Alpha virt. eigenvalues --    0.64261   0.64628   0.64800   0.65562   0.65832
 Alpha virt. eigenvalues --    0.66252   0.66693   0.66959   0.67157   0.67531
 Alpha virt. eigenvalues --    0.67945   0.68232   0.68658   0.69007   0.69249
 Alpha virt. eigenvalues --    0.69694   0.70411   0.70636   0.70856   0.71067
 Alpha virt. eigenvalues --    0.71455   0.72034   0.72296   0.72527   0.72883
 Alpha virt. eigenvalues --    0.73071   0.73683   0.73865   0.74118   0.74913
 Alpha virt. eigenvalues --    0.75022   0.75621   0.75911   0.76149   0.76466
 Alpha virt. eigenvalues --    0.76980   0.77348   0.77920   0.78259   0.78419
 Alpha virt. eigenvalues --    0.78863   0.79034   0.79489   0.79648   0.80057
 Alpha virt. eigenvalues --    0.80895   0.81431   0.81880   0.82249   0.82822
 Alpha virt. eigenvalues --    0.82944   0.83588   0.83668   0.83913   0.84234
 Alpha virt. eigenvalues --    0.84373   0.84522   0.85093   0.85344   0.85597
 Alpha virt. eigenvalues --    0.85793   0.85882   0.86046   0.86383   0.86719
 Alpha virt. eigenvalues --    0.86970   0.87323   0.87730   0.87948   0.88200
 Alpha virt. eigenvalues --    0.88303   0.88665   0.88940   0.89498   0.89617
 Alpha virt. eigenvalues --    0.89693   0.89847   0.89957   0.90419   0.90648
 Alpha virt. eigenvalues --    0.90735   0.91215   0.91290   0.91441   0.91704
 Alpha virt. eigenvalues --    0.91968   0.92733   0.92868   0.93147   0.93505
 Alpha virt. eigenvalues --    0.93697   0.93863   0.94466   0.95045   0.95221
 Alpha virt. eigenvalues --    0.95368   0.95498   0.95854   0.96016   0.96235
 Alpha virt. eigenvalues --    0.96481   0.96702   0.97140   0.97381   0.97853
 Alpha virt. eigenvalues --    0.98228   0.98631   0.99726   1.00082   1.00795
 Alpha virt. eigenvalues --    1.01027   1.01686   1.01889   1.02308   1.03112
 Alpha virt. eigenvalues --    1.03671   1.04013   1.04602   1.04812   1.05539
 Alpha virt. eigenvalues --    1.06539   1.06839   1.07335   1.08045   1.08503
 Alpha virt. eigenvalues --    1.08804   1.09364   1.09803   1.10466   1.11366
 Alpha virt. eigenvalues --    1.11849   1.12127   1.12756   1.13842   1.14107
 Alpha virt. eigenvalues --    1.14700   1.15184   1.16374   1.16482   1.17265
 Alpha virt. eigenvalues --    1.17677   1.18010   1.18861   1.19112   1.19380
 Alpha virt. eigenvalues --    1.19768   1.19961   1.20051   1.21270   1.21718
 Alpha virt. eigenvalues --    1.22285   1.22568   1.23398   1.23707   1.24321
 Alpha virt. eigenvalues --    1.24778   1.26055   1.26647   1.27114   1.28052
 Alpha virt. eigenvalues --    1.28273   1.29032   1.29426   1.30119   1.30517
 Alpha virt. eigenvalues --    1.31606   1.32252   1.32785   1.33028   1.33817
 Alpha virt. eigenvalues --    1.35076   1.35309   1.35640   1.35991   1.36837
 Alpha virt. eigenvalues --    1.37585   1.37990   1.38357   1.38705   1.39205
 Alpha virt. eigenvalues --    1.39913   1.40214   1.41242   1.42104   1.42326
 Alpha virt. eigenvalues --    1.42762   1.42919   1.44022   1.44187   1.44706
 Alpha virt. eigenvalues --    1.44914   1.45387   1.46129   1.46593   1.46738
 Alpha virt. eigenvalues --    1.46929   1.47516   1.48150   1.48643   1.49193
 Alpha virt. eigenvalues --    1.49666   1.50501   1.50946   1.52017   1.53408
 Alpha virt. eigenvalues --    1.53652   1.54305   1.55097   1.56528   1.56684
 Alpha virt. eigenvalues --    1.57346   1.58350   1.59125   1.59220   1.60837
 Alpha virt. eigenvalues --    1.61460   1.62231   1.62806   1.63837   1.63979
 Alpha virt. eigenvalues --    1.64810   1.65313   1.66168   1.66518   1.66801
 Alpha virt. eigenvalues --    1.67569   1.67924   1.68385   1.69050   1.69539
 Alpha virt. eigenvalues --    1.70912   1.71218   1.71448   1.72593   1.73347
 Alpha virt. eigenvalues --    1.74119   1.74405   1.75558   1.75802   1.76168
 Alpha virt. eigenvalues --    1.76272   1.76834   1.77769   1.78119   1.78842
 Alpha virt. eigenvalues --    1.79223   1.79691   1.80436   1.80763   1.81214
 Alpha virt. eigenvalues --    1.81418   1.81868   1.82760   1.83129   1.83797
 Alpha virt. eigenvalues --    1.84624   1.84918   1.85840   1.86068   1.86562
 Alpha virt. eigenvalues --    1.87525   1.87683   1.88234   1.88821   1.88892
 Alpha virt. eigenvalues --    1.89575   1.90157   1.90494   1.90956   1.91094
 Alpha virt. eigenvalues --    1.91229   1.91509   1.91657   1.91758   1.92028
 Alpha virt. eigenvalues --    1.92654   1.92795   1.93000   1.93079   1.93454
 Alpha virt. eigenvalues --    1.93603   1.93957   1.94521   1.94918   1.95258
 Alpha virt. eigenvalues --    1.96596   1.96932   1.97180   1.97939   1.98446
 Alpha virt. eigenvalues --    1.98650   1.99610   1.99988   2.00991   2.01154
 Alpha virt. eigenvalues --    2.01771   2.01991   2.02331   2.02998   2.03117
 Alpha virt. eigenvalues --    2.03409   2.04250   2.04676   2.05221   2.05393
 Alpha virt. eigenvalues --    2.05700   2.05946   2.06632   2.06836   2.07026
 Alpha virt. eigenvalues --    2.07309   2.08173   2.09140   2.09406   2.10042
 Alpha virt. eigenvalues --    2.10265   2.10698   2.10730   2.11251   2.11531
 Alpha virt. eigenvalues --    2.11815   2.12614   2.13083   2.13355   2.13704
 Alpha virt. eigenvalues --    2.13786   2.14418   2.14595   2.15055   2.15881
 Alpha virt. eigenvalues --    2.16094   2.16337   2.16807   2.17065   2.17486
 Alpha virt. eigenvalues --    2.17823   2.18336   2.18446   2.18875   2.19212
 Alpha virt. eigenvalues --    2.19635   2.19785   2.20111   2.20714   2.21049
 Alpha virt. eigenvalues --    2.21387   2.21922   2.22484   2.22653   2.23097
 Alpha virt. eigenvalues --    2.23313   2.23434   2.24657   2.24877   2.25480
 Alpha virt. eigenvalues --    2.25656   2.25921   2.26254   2.26400   2.26762
 Alpha virt. eigenvalues --    2.27291   2.27612   2.28621   2.29048   2.29419
 Alpha virt. eigenvalues --    2.30031   2.30928   2.31508   2.32103   2.32646
 Alpha virt. eigenvalues --    2.32989   2.33047   2.33169   2.33395   2.34165
 Alpha virt. eigenvalues --    2.34816   2.35670   2.37771   2.38159   2.38439
 Alpha virt. eigenvalues --    2.39214   2.39271   2.41053   2.41272   2.43344
 Alpha virt. eigenvalues --    2.43799   2.45150   2.45575   2.45995   2.47176
 Alpha virt. eigenvalues --    2.48003   2.48455   2.48622   2.48974   2.49601
 Alpha virt. eigenvalues --    2.50269   2.51432   2.52805   2.54197   2.56186
 Alpha virt. eigenvalues --    2.58206   2.58691   2.59245   2.59735   2.60211
 Alpha virt. eigenvalues --    2.61470   2.62346   2.63477   2.63738   2.64091
 Alpha virt. eigenvalues --    2.64988   2.65294   2.66315   2.67857   2.68295
 Alpha virt. eigenvalues --    2.68932   2.70093   2.72165   2.74341   2.77752
 Alpha virt. eigenvalues --    2.77824   2.77940   2.78132   2.78787   2.79326
 Alpha virt. eigenvalues --    2.79815   2.79869   2.80309   2.80958   2.81165
 Alpha virt. eigenvalues --    2.81746   2.82542   2.83502   2.83853   2.84584
 Alpha virt. eigenvalues --    2.86051   2.88598   2.90421   2.91204   2.91553
 Alpha virt. eigenvalues --    2.94413   2.94986   2.96259   2.96378   2.96954
 Alpha virt. eigenvalues --    2.97937   2.99437   3.02443   3.05251   3.06213
 Alpha virt. eigenvalues --    3.06601   3.07216   3.09417   3.10041   3.11219
 Alpha virt. eigenvalues --    3.12199   3.13343   3.14419   3.21232   3.26437
 Alpha virt. eigenvalues --    3.31856   3.45359  13.48670
          Condensed to atoms (all electrons):
 Mulliken charges:
               1
     1  C    0.326439
     2  C    0.039053
     3  C   -0.059508
     4  C   -0.146685
     5  C   -0.173923
     6  C    0.294706
     7  C    0.086764
     8  C   -0.177790
     9  C   -0.142711
    10  C   -0.178046
    11  H    0.239905
    12  H    0.195122
    13  H    0.169542
    14  H    0.207499
    15  H    0.183801
    16  H    0.172931
    17  N   -0.486657
    18  N   -0.518898
    19  Ir  -0.210725
    20  O   -0.499853
    21  O   -0.519495
    22  O   -0.519829
    23  B    0.488603
    24  B    0.520948
    25  B    0.487237
    26  O   -0.511108
    27  O   -0.524076
    28  C    0.299776
    29  C    0.292002
    30  C    0.288901
    31  C    0.289284
    32  C    0.288599
    33  C    0.301745
    34  O   -0.528343
    35  C   -0.510098
    36  H    0.144411
    37  H    0.176659
    38  H    0.183046
    39  C   -0.514828
    40  H    0.175613
    41  H    0.148721
    42  H    0.170824
    43  C   -0.508521
    44  H    0.167143
    45  H    0.163490
    46  H    0.154915
    47  C   -0.510012
    48  H    0.175867
    49  H    0.154426
    50  H    0.159532
    51  C   -0.506519
    52  H    0.159070
    53  H    0.173000
    54  H    0.149739
    55  C   -0.499488
    56  H    0.143602
    57  H    0.161106
    58  H    0.185166
    59  C   -0.515572
    60  H    0.151618
    61  H    0.182074
    62  H    0.152459
    63  C   -0.513208
    64  H    0.176910
    65  H    0.163060
    66  H    0.151493
    67  C   -0.507476
    68  H    0.168486
    69  H    0.184652
    70  H    0.152065
    71  C   -0.511558
    72  H    0.152848
    73  H    0.175062
    74  H    0.168954
    75  C   -0.506401
    76  H    0.176805
    77  H    0.152524
    78  H    0.176882
    79  C   -0.514066
    80  H    0.175575
    81  H    0.174555
    82  H    0.152302
    83  H    0.229000
    84  C    0.549480
    85  O   -0.537036
    86  C   -0.377108
    87  H    0.153670
    88  H    0.185465
    89  C   -0.309632
    90  H    0.173017
    91  H    0.162854
    92  N   -0.366885
    93  C   -0.395204
    94  H    0.168948
    95  H    0.152580
    96  H    0.223964
    97  C   -0.486844
    98  H    0.158995
    99  H    0.145427
   100  C    0.961015
   101  F   -0.317754
   102  F   -0.308589
   103  F   -0.308248
   104  H    0.181498
   105  H    0.169262
 Sum of Mulliken charges =  -0.00000
 Mulliken charges with hydrogens summed into heavy atoms:
               1
     1  C    0.326439
     2  C    0.278959
     3  C   -0.059508
     4  C    0.048436
     5  C   -0.004380
     6  C    0.294706
     7  C    0.294264
     8  C    0.003709
     9  C    0.041091
    10  C   -0.005115
    17  N   -0.486657
    18  N   -0.518898
    19  Ir   0.018276
    20  O   -0.499853
    21  O   -0.519495
    22  O   -0.519829
    23  B    0.488603
    24  B    0.520948
    25  B    0.487237
    26  O   -0.511108
    27  O   -0.524076
    28  C    0.299776
    29  C    0.292002
    30  C    0.288901
    31  C    0.289284
    32  C    0.288599
    33  C    0.301745
    34  O   -0.528343
    35  C   -0.005981
    39  C   -0.019670
    43  C   -0.022972
    47  C   -0.020187
    51  C   -0.024710
    55  C   -0.009613
    59  C   -0.029421
    63  C   -0.021746
    67  C   -0.002273
    71  C   -0.014693
    75  C   -0.000190
    79  C   -0.011634
    84  C    0.549480
    85  O   -0.537036
    86  C   -0.037973
    89  C    0.026239
    92  N   -0.366885
    93  C    0.150287
    97  C   -0.013160
   100  C    0.961015
   101  F   -0.317754
   102  F   -0.308589
   103  F   -0.308248
 APT charges:
               1
     1  C    0.170235
     2  C    0.052568
     3  C   -0.182732
     4  C    0.099074
     5  C   -0.172820
     6  C    0.192057
     7  C    0.065193
     8  C   -0.061218
     9  C    0.092949
    10  C   -0.181875
    11  H    0.140036
    12  H    0.060810
    13  H    0.040779
    14  H    0.106324
    15  H    0.034136
    16  H    0.045300
    17  N   -0.171428
    18  N   -0.078294
    19  Ir  -0.982448
    20  O   -0.950567
    21  O   -0.991640
    22  O   -1.014820
    23  B    1.284766
    24  B    1.260693
    25  B    1.419619
    26  O   -0.989587
    27  O   -0.957132
    28  C    0.463705
    29  C    0.469009
    30  C    0.514061
    31  C    0.503201
    32  C    0.488822
    33  C    0.496806
    34  O   -0.993236
    35  C   -0.033879
    36  H   -0.025518
    37  H    0.004578
    38  H    0.015698
    39  C   -0.005876
    40  H    0.001536
    41  H   -0.016995
    42  H    0.000193
    43  C    0.005528
    44  H   -0.003916
    45  H    0.000282
    46  H   -0.019057
    47  C   -0.033465
    48  H   -0.006435
    49  H   -0.018840
    50  H    0.003847
    51  C    0.011002
    52  H   -0.012806
    53  H    0.000831
    54  H   -0.021865
    55  C   -0.035456
    56  H   -0.030049
    57  H   -0.000885
    58  H    0.022789
    59  C   -0.035697
    60  H   -0.009281
    61  H    0.020703
    62  H   -0.021252
    63  C   -0.012177
    64  H    0.006432
    65  H   -0.004092
    66  H   -0.016438
    67  C   -0.034542
    68  H    0.005410
    69  H    0.009834
    70  H   -0.023320
    71  C   -0.010463
    72  H   -0.014340
    73  H    0.010004
    74  H   -0.000454
    75  C   -0.046457
    76  H    0.020161
    77  H   -0.020283
    78  H    0.004395
    79  C   -0.012554
    80  H    0.005961
    81  H    0.005599
    82  H   -0.015186
    83  H    0.095956
    84  C    0.831323
    85  O   -0.677172
    86  C    0.007005
    87  H   -0.023650
    88  H   -0.008315
    89  C    0.271812
    90  H   -0.026569
    91  H   -0.041464
    92  N   -0.686863
    93  C    0.246211
    94  H   -0.053350
    95  H   -0.016161
    96  H    0.069326
    97  C    0.047341
    98  H    0.001067
    99  H   -0.018494
   100  C    1.824105
   101  F   -0.591753
   102  F   -0.548148
   103  F   -0.599561
   104  H    0.043920
   105  H   -0.032114
 Sum of APT charges =  -0.00000
 APT charges with hydrogens summed into heavy atoms:
               1
     1  C    0.170235
     2  C    0.192604
     3  C   -0.182732
     4  C    0.159884
     5  C   -0.132041
     6  C    0.192057
     7  C    0.171517
     8  C   -0.017299
     9  C    0.127086
    10  C   -0.136575
    17  N   -0.171428
    18  N   -0.078294
    19  Ir  -0.886493
    20  O   -0.950567
    21  O   -0.991640
    22  O   -1.014820
    23  B    1.284766
    24  B    1.260693
    25  B    1.419619
    26  O   -0.989587
    27  O   -0.957132
    28  C    0.463705
    29  C    0.469009
    30  C    0.514061
    31  C    0.503201
    32  C    0.488822
    33  C    0.496806
    34  O   -0.993236
    35  C   -0.039121
    39  C   -0.021142
    43  C   -0.017163
    47  C   -0.054893
    51  C   -0.022839
    55  C   -0.043601
    59  C   -0.045527
    63  C   -0.026273
    67  C   -0.042619
    71  C   -0.015254
    75  C   -0.042184
    79  C   -0.016180
    84  C    0.831323
    85  O   -0.677172
    86  C   -0.024961
    89  C    0.203779
    92  N   -0.686863
    93  C    0.246026
    97  C   -0.002200
   100  C    1.824105
   101  F   -0.591753
   102  F   -0.548148
   103  F   -0.599561
 Electronic spatial extent (au):  <R**2>=          28187.0170
 Charge=              0.0000 electrons
 Dipole moment (field-independent basis, Debye):
    X=             -2.9946    Y=             -5.0822    Z=             -1.2472  Tot=              6.0293
 Quadrupole moment (field-independent basis, Debye-Ang):
   XX=           -316.8147   YY=           -275.1716   ZZ=           -314.8492
   XY=             -4.8766   XZ=              2.1397   YZ=              2.3017
 Traceless Quadrupole moment (field-independent basis, Debye-Ang):
   XX=            -14.5362   YY=             27.1069   ZZ=            -12.5707
   XY=             -4.8766   XZ=              2.1397   YZ=              2.3017
 Octapole moment (field-independent basis, Debye-Ang**2):
  XXX=            -37.6031  YYY=            -31.0465  ZZZ=              8.4657  XYY=             62.3902
  XXY=            -36.8843  XXZ=             13.7105  XZZ=            -17.7841  YZZ=            -16.1583
  YYZ=            -10.0488  XYZ=             -1.0662
 Hexadecapole moment (field-independent basis, Debye-Ang**3):
 XXXX=         -16217.0341 YYYY=         -11220.2169 ZZZZ=          -8076.5836 XXXY=           -180.2023
 XXXZ=            217.7122 YYYX=             76.6071 YYYZ=            171.1443 ZZZX=             24.2631
 ZZZY=             41.4693 XXYY=          -4494.5831 XXZZ=          -4070.8561 YYZZ=          -3350.0575
 XXYZ=            -85.4437 YYXZ=             78.6761 ZZXY=             55.3065
 N-N= 8.523107319492D+03 E-N=-2.285209179423D+04  KE= 2.410174749175D+03
  Exact polarizability:     519.074      -7.662     502.463      14.764      18.853     401.076
 Approx polarizability:     753.856      -1.853     730.337      56.896      37.717     586.365
   1 Symmetry operations used in ECPInt.
 ECPInt:  NShTT=   50086 NPrTT=  307226 LenC2=   38526 LenP2D=  119861.
 LDataN:  DoStor=T MaxTD1= 8 Len=  415
 Calling FoFJK, ICntrl=    100127 FMM=F ISym2X=0 I1Cent= 0 IOpClX= 0 NMat=1 NMatS=1 NMatT=0.
 Defaulting to unpruned grid for atomic number  77.
 Defaulting to unpruned grid for atomic number  77.
 Defaulting to unpruned grid for atomic number  77.
 Defaulting to unpruned grid for atomic number  77.
 Defaulting to unpruned grid for atomic number  77.
 Defaulting to unpruned grid for atomic number  77.
 Defaulting to unpruned grid for atomic number  77.
 Defaulting to unpruned grid for atomic number  77.
 Defaulting to unpruned grid for atomic number  77.
 Defaulting to unpruned grid for atomic number  77.
 Defaulting to unpruned grid for atomic number  77.
 Defaulting to unpruned grid for atomic number  77.
 Defaulting to unpruned grid for atomic number  77.
 Defaulting to unpruned grid for atomic number  77.
 Defaulting to unpruned grid for atomic number  77.
 Defaulting to unpruned grid for atomic number  77.
 Full mass-weighted force constant matrix:
 Low frequencies ---   -5.4631   -3.7139   -0.0003    0.0003    0.0007    4.5284
 Low frequencies ---   23.7187   32.8545   35.3558
 Diagonal vibrational polarizability:
       80.7536878      68.4272195      92.3800017
 Harmonic frequencies (cm**-1), IR intensities (KM/Mole), Raman scattering
 activities (A**4/AMU), depolarization ratios for plane and unpolarized
 incident light, reduced masses (AMU), force constants (mDyne/A),
 and normal coordinates:
                      1                      2                      3
                      A                      A                      A
 Frequencies --     23.6754                32.7766                35.2939
 Red. masses --      6.4645                 5.9780                 5.6304
 Frc consts  --      0.0021                 0.0038                 0.0041
 IR Inten    --      0.0878                 0.2175                 0.0753
  Atom AN      X      Y      Z        X      Y      Z        X      Y      Z
     1   6    -0.00   0.01  -0.03    -0.00   0.01   0.02     0.01  -0.01  -0.04
     2   6    -0.03   0.00   0.03    -0.01   0.00   0.03    -0.01  -0.01   0.00
     3   6    -0.04  -0.00   0.06    -0.01   0.01   0.03    -0.01  -0.01  -0.00
     4   6    -0.02   0.01   0.03    -0.00   0.01   0.03     0.01   0.00  -0.03
     5   6    -0.00   0.02  -0.02    -0.00   0.01   0.03     0.01   0.00  -0.05
     6   6     0.01   0.01  -0.05     0.00   0.01   0.01     0.01  -0.01  -0.04
     7   6    -0.00   0.01  -0.03     0.01   0.02  -0.01    -0.01  -0.02  -0.00
     8   6     0.01   0.01  -0.05     0.01   0.02  -0.02     0.00  -0.02  -0.02
     9   6     0.02   0.02  -0.07     0.01   0.02  -0.01     0.02  -0.01  -0.05
    10   6     0.02   0.02  -0.07     0.00   0.01   0.01     0.02  -0.01  -0.06
    11   1    -0.04  -0.01   0.05    -0.00   0.00   0.03    -0.02  -0.02   0.02
    12   1    -0.02   0.01   0.05    -0.00   0.01   0.04     0.01   0.01  -0.03
    13   1     0.01   0.02  -0.04    -0.00   0.01   0.03     0.02   0.01  -0.06
    14   1    -0.01   0.01  -0.01     0.02   0.03  -0.02    -0.02  -0.03   0.02
    15   1     0.03   0.02  -0.09     0.00   0.02  -0.01     0.03  -0.01  -0.07
    16   1     0.02   0.02  -0.08    -0.00   0.01   0.01     0.04  -0.00  -0.09
    17   7    -0.01   0.01  -0.01    -0.00   0.01   0.03    -0.00  -0.01  -0.02
    18   7    -0.00   0.01  -0.03     0.01   0.02   0.00    -0.00  -0.02  -0.01
    19  77    -0.00   0.01  -0.03    -0.00   0.01   0.02    -0.00  -0.02  -0.01
    20   8     0.07  -0.01  -0.01    -0.04  -0.01   0.00     0.07  -0.02   0.01
    21   8     0.01   0.01   0.02    -0.02  -0.03   0.04     0.01   0.02  -0.04
    22   8    -0.02   0.01  -0.01     0.05  -0.00  -0.05     0.01  -0.03   0.00
    23   5    -0.01   0.00  -0.00    -0.00   0.01   0.02    -0.00  -0.02  -0.02
    24   5     0.03  -0.00  -0.00    -0.01  -0.01  -0.00     0.01  -0.00   0.00
    25   5     0.00   0.01  -0.04     0.01   0.01   0.01     0.00  -0.02   0.00
    26   8     0.03  -0.00  -0.09    -0.01   0.02   0.04    -0.00  -0.00   0.02
    27   8     0.03  -0.00   0.02     0.02  -0.04  -0.02    -0.03   0.04   0.03
    28   6     0.07  -0.01   0.03     0.02  -0.06  -0.03    -0.03   0.06   0.04
    29   6     0.09  -0.01   0.03    -0.03  -0.06  -0.02     0.06   0.04   0.04
    30   6     0.01  -0.00  -0.03     0.06  -0.02  -0.08    -0.00  -0.02   0.03
    31   6     0.03   0.00  -0.11     0.05   0.01  -0.02    -0.01  -0.01   0.07
    32   6    -0.02   0.00   0.05    -0.02  -0.02   0.05     0.02   0.01  -0.05
    33   6    -0.04  -0.00   0.05     0.01   0.02   0.00    -0.01  -0.03   0.00
    34   8    -0.04   0.00   0.01     0.01   0.04   0.00    -0.02  -0.06   0.00
    35   6     0.09  -0.01   0.06    -0.07  -0.09  -0.03     0.12   0.09   0.07
    36   1     0.11  -0.02   0.08    -0.07  -0.13  -0.05     0.11   0.14   0.10
    37   1     0.11  -0.02   0.05    -0.11  -0.08  -0.02     0.18   0.07   0.06
    38   1     0.06  -0.01   0.07    -0.07  -0.09  -0.03     0.10   0.11   0.08
    39   6     0.13  -0.02   0.02    -0.04  -0.05  -0.02     0.07   0.02   0.03
    40   1     0.15  -0.02   0.01    -0.08  -0.05  -0.01     0.14   0.00   0.02
    41   1     0.15  -0.02   0.04    -0.03  -0.09  -0.04     0.06   0.06   0.05
    42   1     0.13  -0.01  -0.01    -0.02  -0.02  -0.01     0.04  -0.03  -0.00
    43   6     0.06  -0.01   0.08     0.03  -0.11  -0.06    -0.05   0.14   0.09
    44   1     0.05  -0.01   0.09     0.01  -0.13  -0.07    -0.01   0.17   0.11
    45   1     0.04  -0.01   0.08     0.07  -0.11  -0.07    -0.11   0.14   0.09
    46   1     0.09  -0.01   0.09     0.03  -0.13  -0.07    -0.04   0.16   0.10
    47   6     0.08  -0.01   0.00     0.06  -0.04  -0.03    -0.08   0.02   0.01
    48   1     0.08  -0.00  -0.02     0.05  -0.00  -0.01    -0.07  -0.03  -0.02
    49   1     0.10  -0.01   0.01     0.06  -0.05  -0.04    -0.08   0.03   0.02
    50   1     0.06  -0.00   0.00     0.09  -0.03  -0.03    -0.14   0.03   0.01
    51   6     0.01  -0.00   0.09    -0.03  -0.07   0.04     0.02   0.08  -0.04
    52   1     0.02  -0.00   0.09    -0.02  -0.09   0.00     0.01   0.11   0.01
    53   1     0.02  -0.00   0.08    -0.04  -0.10   0.07     0.05   0.11  -0.08
    54   1    -0.01  -0.01   0.11    -0.02  -0.06   0.04     0.02   0.06  -0.04
    55   6    -0.04   0.00   0.04    -0.04   0.01   0.10     0.05  -0.02  -0.11
    56   1    -0.05  -0.00   0.06    -0.04   0.02   0.11     0.05  -0.03  -0.12
    57   1    -0.02   0.00   0.04    -0.05  -0.02   0.13     0.07   0.01  -0.14
    58   1    -0.05   0.00   0.02    -0.04   0.05   0.10     0.04  -0.07  -0.12
    59   6    -0.03  -0.00   0.07     0.02  -0.01  -0.05    -0.03  -0.00   0.06
    60   1    -0.04  -0.00   0.07     0.04   0.02  -0.07    -0.06  -0.04   0.09
    61   1     0.00   0.00   0.07     0.02  -0.03  -0.05    -0.03   0.03   0.07
    62   1    -0.03  -0.01   0.10     0.02  -0.02  -0.05    -0.03   0.02   0.07
    63   6    -0.08  -0.00   0.06     0.01   0.07   0.02    -0.02  -0.09  -0.01
    64   1    -0.10  -0.00   0.05    -0.00   0.09   0.05    -0.01  -0.12  -0.05
    65   1    -0.10  -0.01   0.06     0.03   0.09  -0.01    -0.04  -0.12   0.02
    66   1    -0.08  -0.01   0.09     0.00   0.05   0.02    -0.01  -0.07  -0.02
    67   6    -0.01   0.05  -0.16     0.12   0.07   0.01    -0.00  -0.07   0.10
    68   1     0.00   0.07  -0.21     0.11   0.09   0.06    -0.01  -0.08   0.12
    69   1    -0.07   0.07  -0.14     0.15   0.10   0.03     0.02  -0.10   0.07
    70   1    -0.01   0.06  -0.17     0.17   0.07  -0.04    -0.01  -0.08   0.13
    71   6     0.10  -0.03  -0.14     0.03  -0.02  -0.04    -0.04   0.03   0.11
    72   1     0.10  -0.03  -0.15     0.07  -0.03  -0.09    -0.05   0.03   0.14
    73   1     0.13  -0.07  -0.11    -0.04  -0.06  -0.06    -0.04   0.07   0.09
    74   1     0.11  -0.03  -0.20     0.02   0.02   0.01    -0.04   0.03   0.13
    75   6     0.06  -0.04   0.01     0.01  -0.06  -0.12    -0.02   0.02   0.02
    76   1     0.10  -0.05   0.01    -0.04  -0.05  -0.10    -0.04   0.04   0.01
    77   1     0.09  -0.05   0.00     0.03  -0.07  -0.14    -0.03   0.03   0.04
    78   1     0.04  -0.04   0.07     0.01  -0.08  -0.15    -0.02   0.01  -0.01
    79   6    -0.03   0.02  -0.03     0.13  -0.01  -0.12     0.01  -0.05   0.05
    80   1    -0.08   0.05  -0.05     0.18   0.02  -0.09     0.02  -0.08   0.06
    81   1    -0.05   0.02   0.03     0.14  -0.03  -0.16     0.02  -0.05   0.02
    82   1    -0.01   0.01  -0.05     0.14  -0.02  -0.14     0.00  -0.04   0.08
    83   1    -0.01   0.02  -0.04     0.00   0.02   0.01    -0.01  -0.01  -0.02
    84   6    -0.02  -0.01  -0.04    -0.03  -0.02   0.00     0.02   0.03  -0.02
    85   8    -0.02  -0.02  -0.04    -0.03  -0.05   0.01     0.02   0.05  -0.02
    86   6    -0.03   0.00  -0.05    -0.05  -0.01  -0.01     0.04   0.04  -0.02
    87   1    -0.03   0.02  -0.05    -0.05   0.01  -0.01     0.03   0.03  -0.02
    88   1    -0.03   0.00  -0.05    -0.05  -0.03  -0.00     0.03   0.06  -0.03
    89   6    -0.00   0.00  -0.03     0.00   0.01   0.01    -0.01  -0.00  -0.01
    90   1     0.00  -0.01  -0.03     0.01  -0.02   0.02    -0.02   0.01  -0.01
    91   1     0.01   0.01  -0.03     0.02   0.02   0.02    -0.02  -0.01  -0.01
    92   7    -0.01   0.00  -0.03    -0.02   0.01   0.00     0.01  -0.00  -0.01
    93   6    -0.02   0.02  -0.03    -0.02   0.05  -0.01     0.01  -0.03  -0.01
    94   1    -0.03   0.03  -0.02    -0.01   0.06   0.00    -0.01  -0.02  -0.01
    95   1    -0.03   0.02  -0.04    -0.04   0.05  -0.03     0.03  -0.03  -0.01
    96   1    -0.02   0.01  -0.02    -0.02   0.06  -0.01     0.01  -0.05  -0.00
    97   6    -0.03  -0.00  -0.07    -0.08  -0.01  -0.02     0.06   0.03  -0.03
    98   1    -0.03  -0.01  -0.07    -0.09  -0.03  -0.02     0.07   0.04  -0.04
    99   1    -0.03  -0.00  -0.07    -0.08   0.00  -0.03     0.07   0.01  -0.03
   100   6    -0.06  -0.02   0.15    -0.02   0.03   0.01    -0.04   0.01   0.01
   101   9    -0.05  -0.01   0.17    -0.02  -0.05   0.19    -0.03  -0.05   0.19
   102   9    -0.05   0.00   0.21     0.08  -0.04  -0.16     0.06  -0.04  -0.12
   103   9    -0.12  -0.09   0.15    -0.13   0.22  -0.02    -0.17   0.16  -0.02
   104   1     0.01   0.01  -0.05     0.02   0.03  -0.03     0.00  -0.02  -0.01
   105   1    -0.03   0.01  -0.07    -0.08  -0.01  -0.02     0.07   0.04  -0.04
                      4                      5                      6
                      A                      A                      A
 Frequencies --     35.7028                37.0215                39.0362
 Red. masses --      4.0126                 4.7988                 4.9688
 Frc consts  --      0.0030                 0.0039                 0.0045
 IR Inten    --      0.0428                 1.0963                 0.6174
  Atom AN      X      Y      Z        X      Y      Z        X      Y      Z
     1   6    -0.02  -0.01  -0.02    -0.01  -0.00  -0.04     0.05   0.03  -0.05
     2   6    -0.00  -0.02  -0.01    -0.01  -0.02  -0.00     0.01   0.01   0.04
     3   6    -0.01  -0.03  -0.00    -0.01  -0.01  -0.03     0.03   0.04  -0.02
     4   6    -0.02  -0.03  -0.01    -0.00  -0.00  -0.05     0.06   0.06  -0.11
     5   6    -0.02  -0.02  -0.02    -0.00   0.00  -0.06     0.07   0.06  -0.12
     6   6    -0.02   0.00  -0.02    -0.01   0.00  -0.04     0.05   0.02  -0.03
     7   6    -0.02   0.02  -0.02    -0.04   0.01   0.02     0.02  -0.02   0.04
     8   6    -0.03   0.02  -0.03    -0.02   0.02  -0.04     0.05  -0.01   0.01
     9   6    -0.03   0.01  -0.03     0.00   0.02  -0.09     0.09   0.01  -0.05
    10   6    -0.03   0.00  -0.03     0.00   0.01  -0.09     0.09   0.02  -0.07
    11   1     0.00  -0.02  -0.00    -0.01  -0.02   0.02    -0.01  -0.01   0.10
    12   1    -0.02  -0.04  -0.01    -0.00  -0.00  -0.07     0.08   0.09  -0.16
    13   1    -0.03  -0.02  -0.02    -0.00   0.00  -0.07     0.10   0.09  -0.19
    14   1    -0.02   0.02  -0.02    -0.05   0.00   0.05    -0.01  -0.04   0.08
    15   1    -0.04   0.01  -0.04     0.02   0.02  -0.14     0.11   0.01  -0.08
    16   1    -0.03  -0.00  -0.03     0.02   0.01  -0.14     0.11   0.04  -0.11
    17   7    -0.01  -0.01  -0.01    -0.01  -0.01  -0.01     0.02   0.01   0.02
    18   7    -0.02   0.01  -0.02    -0.03   0.00   0.01     0.02  -0.00   0.03
    19  77    -0.01   0.01  -0.01    -0.02  -0.01   0.03     0.00  -0.02   0.04
    20   8    -0.05   0.12  -0.01    -0.03  -0.01   0.02    -0.06   0.02   0.02
    21   8    -0.02  -0.03  -0.02    -0.02  -0.00   0.03     0.00   0.01  -0.01
    22   8     0.01  -0.02   0.00     0.01  -0.01  -0.03     0.02  -0.01   0.02
    23   5    -0.01  -0.01  -0.01    -0.02  -0.00   0.03     0.00  -0.02   0.02
    24   5    -0.00   0.03  -0.00    -0.03  -0.00   0.02    -0.03   0.00   0.03
    25   5     0.00   0.00   0.01    -0.00  -0.01   0.00     0.01  -0.01   0.04
    26   8    -0.00   0.02   0.03    -0.01  -0.02  -0.01     0.01  -0.02   0.03
    27   8     0.05  -0.05   0.04    -0.04   0.01   0.02    -0.03   0.00   0.01
    28   6     0.07   0.00   0.06    -0.04   0.00   0.01    -0.05   0.02   0.01
    29   6    -0.02   0.09   0.00    -0.03  -0.00   0.02    -0.08   0.03   0.00
    30   6     0.02  -0.01   0.02     0.02  -0.02  -0.07     0.03  -0.02  -0.00
    31   6     0.02   0.01   0.05     0.03  -0.01  -0.07     0.03  -0.02  -0.00
    32   6    -0.03  -0.05  -0.02    -0.01   0.00   0.03     0.02  -0.00  -0.04
    33   6    -0.01  -0.05  -0.01    -0.01   0.01   0.02     0.02  -0.04  -0.00
    34   8    -0.00  -0.02  -0.02    -0.01   0.00   0.03     0.01  -0.06   0.03
    35   6    -0.09   0.02  -0.08    -0.03  -0.00   0.03    -0.08   0.03  -0.04
    36   1    -0.07  -0.01  -0.08    -0.03   0.00   0.03    -0.09   0.04  -0.05
    37   1    -0.15   0.08  -0.13    -0.03  -0.01   0.03    -0.09   0.04  -0.04
    38   1    -0.09  -0.05  -0.11    -0.03   0.01   0.03    -0.06   0.02  -0.05
    39   6    -0.01   0.19   0.04    -0.04  -0.01   0.02    -0.11   0.05   0.02
    40   1    -0.08   0.25  -0.01    -0.03  -0.02   0.02    -0.13   0.05   0.01
    41   1     0.02   0.16   0.06    -0.04  -0.01   0.01    -0.12   0.05  -0.00
    42   1     0.04   0.26   0.10    -0.04  -0.02   0.01    -0.11   0.05   0.05
    43   6     0.09  -0.10   0.06    -0.04   0.01   0.02    -0.05   0.02  -0.02
    44   1     0.04  -0.15  -0.01    -0.04   0.01   0.02    -0.05   0.01  -0.03
    45   1     0.15  -0.16   0.11    -0.05   0.01   0.01    -0.04   0.01  -0.02
    46   1     0.10  -0.07   0.08    -0.04   0.01   0.01    -0.07   0.02  -0.03
    47   6     0.15   0.07   0.15    -0.04  -0.00   0.01    -0.06   0.02   0.04
[...]
 .00000163,-0.00000007,-0.00000011,0.00000087,-0.00000079,-0.00000201,-
 0.00000472,-0.00000160,0.00000116,-0.00021964,0.00000124,0.00000888,0.
 00001000,-0.00002263,0.00001069,0.00000069,0.00002997,-0.00000548,0.00
 000642,-0.00001764,-0.00000097,-0.00000093,0.00001073,0.00000340,0.000
 00064,0.00000409,0.00001238,0.00002927,-0.00001081,0.00000366,0.000003
 58,0.00000902,0.00000248,-0.00000708,0.00000070,0.00001264,-0.00004234
 ,0.00008438,-0.00006792,-0.00006043,-0.00006743,0.00000598,0.00001229,
 0.00001225,-0.00004761,0.00003908,0.00001297,-0.00001634,-0.00003470,-
 0.00002901,0.00001300,0.00000672,0.00001274,0.00000275,-0.00000386,0.0
 0000255,-0.00001530,0.00000486,-0.00001364,0.00000960,0.00000632,-0.00
 000326,-0.00000836,-0.00000047,0.00000015,-0.00000169,0.00000250,0.000
 00084,-0.00000266,-0.00000168,-0.00000374,0.09626695,0.10219263,0.0004
 6417,0.00021483,-0.00103002,0.00006730,0.00001151,0.00000798,-0.000041
 61,0.00003310,-0.00001743,0.00000713,-0.00005285,-0.00005027,0.0000065
 5,0.00007858,0.00005656,0.00040551,0.00042727,-0.00020044,-0.00370395,
 -0.00051823,-0.00092860,-0.10857990,-0.05121130,-0.09256817,-0.0048334
 1,-0.00419376,-0.00054380,-0.00318952,0.00051446,0.00568900,-0.0000037
 2,0.00000219,-0.00000357,0.00000192,0.00000334,-0.00000710,0.00001540,
 -0.00004836,0.00005971,0.00130128,0.00053768,-0.00262039,0.00164211,0.
 00044355,-0.00282867,-0.00032411,-0.00028911,0.00007164,-0.00005721,-0
 .00015106,0.00000025,-0.00226175,-0.00211026,0.00706494,0.00002511,0.0
 0025346,-0.00013662,0.00010818,0.00009952,-0.00004436,0.00006515,-0.00
 000684,-0.00002411,-0.00001150,-0.00003853,0.00000420,-0.00010749,0.00
 004995,0.00003680,-0.00019292,-0.00022692,0.00010818,0.00001590,0.0000
 6151,-0.00006932,0.00001060,-0.00003359,0.00001117,0.00027834,0.000292
 33,-0.00016740,-0.00004380,-0.00015088,0.00007214,-0.00005756,-0.00003
 286,-0.00004350,-0.00000358,0.00001889,0.00000167,-0.00000171,0.000015
 09,0.00000858,-0.00001485,0.00000393,-0.00000950,-0.00008740,-0.000031
 33,0.00002850,0.00008055,-0.00000441,0.00000477,0.00001562,0.00001889,
 0.00001670,0.00000708,-0.00000274,-0.00000996,0.00000051,0.00001126,0.
 00000818,-0.00000696,-0.00000819,0.00000220,0.00000770,0.00000989,0.00
 000189,-0.00000152,0.00001006,0.00000660,0.00000471,-0.00000047,-0.000
 01103,-0.00000887,-0.00000463,-0.00000658,-0.00002179,-0.00009071,-0.0
 0007735,-0.00000440,0.00002085,0.00001250,0.00005232,0.00004627,0.0000
 1898,0.00001142,0.00002222,0.00002483,-0.00001844,-0.00009204,-0.00013
 056,0.00003722,0.00003896,0.00004270,0.00000711,0.00002207,0.00001419,
 -0.00006006,0.00003753,-0.00002900,-0.00000091,-0.00001326,0.00000767,
 0.00000382,0.00000668,-0.00000712,0.00000136,0.00000179,-0.00000085,0.
 00000207,0.00000028,-0.00000161,0.00000577,0.00000174,0.00000578,-0.00
 000048,0.00000020,0.00000082,-0.00000149,0.00000270,-0.00000029,0.0000
 0221,0.00000216,-0.00000379,0.00001946,0.00004603,-0.00001073,0.000016
 96,-0.00005385,0.00005435,0.00000250,-0.00004782,-0.00003801,0.0000010
 5,0.00000723,-0.00000264,0.00002180,0.00002690,0.00000595,-0.00000056,
 0.00000850,-0.00001028,-0.00000727,-0.00000637,-0.00000183,0.00000468,
 -0.00000546,-0.00000006,0.00000023,-0.00000154,-0.00000176,0.00000176,
 -0.00000130,0.00000149,-0.00000175,0.00000182,0.00000037,0.00000036,-0
 .00000140,-0.00000076,-0.00000092,-0.00000150,-0.00000042,-0.00000028,
 -0.00000117,0.00000011,0.00000063,0.00000072,-0.00000186,0.00000145,-0
 .00000078,0.00000117,-0.00000013,-0.00000438,0.00000234,-0.00000153,0.
 00000172,-0.00000183,-0.00000106,-0.00000226,0.00000061,0.00000235,0.0
 0000087,0.00000102,-0.00000048,-0.00000148,0.00000045,0.00000072,0.000
 00005,-0.00000151,0.00000050,0.00000075,0.00000056,-0.00000052,-0.0000
 0149,0.00000003,-0.00001365,-0.00009666,-0.00004344,0.00006074,-0.0000
 0457,0.00004310,-0.00003016,-0.00001796,-0.00003802,-0.00000180,-0.000
 00393,0.00000219,0.00000315,0.00000356,-0.00000582,-0.00000535,-0.0000
 0464,0.00000023,0.00004225,0.00015889,-0.00000556,-0.00000074,0.000000
 81,-0.00001869,0.00000407,-0.00000504,-0.00000118,-0.00006615,-0.00002
 536,0.00005586,-0.00003479,0.00008060,0.00002105,0.00002344,-0.0000134
 6,-0.00000761,0.00002022,-0.00003461,-0.00000129,0.00001660,-0.0000090
 5,0.00000361,0.00001979,-0.00000276,-0.00002804,-0.00000834,-0.0000014
 5,-0.00000289,-0.00000189,0.00001993,0.00004021,0.00001795,0.00001724,
 0.00007518,-0.00001273,-0.00000375,-0.00001122,-0.00001120,-0.00002161
 ,-0.00001046,0.00000168,-0.00000292,-0.00001589,0.11889064,0.05600393,
 0.08813627,-0.00011639,-0.00005344,-0.00001159,0.00002378,-0.00001304,
 -0.00000657,0.00000750,0.00002684,0.00000863,0.00002020,-0.00003182,0.
 00000216,0.00001829,0.00006296,0.00001809,-0.00021744,-0.00015948,0.00
 001492,0.00020407,-0.00000379,0.00004907,0.00012279,0.00002078,0.00005
 983,-0.00002430,0.00014959,0.00009551,-0.00013548,0.00011586,0.0001182
 7,-0.00000065,0.00000332,-0.00000120,0.00000371,0.00000059,-0.00000170
 ,-0.00000012,-0.00004181,0.00000913,0.00000324,-0.00000757,0.00001016,
 -0.00001263,-0.00003888,0.00002709,0.00001328,-0.00002175,0.00001449,-
 0.00000527,0.00001087,0.00001584,-0.00000873,-0.00019203,-0.00009938,-
 0.00001374,0.00000259,0.00001550,-0.00001791,-0.00000635,0.00003782,-0
 .00003970,0.00001976,-0.00000187,0.00001890,0.00003563,0.00000150,0.00
 005160,-0.00003280,-0.00000221,0.00002566,0.00000356,-0.00005256,-0.00
 001082,-0.00005569,0.00000714,0.00000058,0.00003604,-0.00000446,-0.000
 02674,-0.00000097,0.00003513,0.00001444,0.00000747,-0.00001892,0.00001
 340,0.00000203,-0.00000796,-0.00000161,-0.00001440,0.00000516,-0.00000
 349,-0.00001474,-0.00000507,0.00001186,-0.00000535,0.00001110,0.000037
 57,-0.00000701,0.00000740,-0.00005411,0.00002303,-0.00000960,-0.000001
 46,0.00000018,0.00000126,-0.00000273,-0.00000041,0.00000130,0.00000042
 ,0.00000070,0.00000023,0.00000154,-0.00000100,-0.00000044,-0.00000103,
 0.00000092,0.00000142,0.00000063,0.00000110,0.00000094,-0.00000127,-0.
 00000129,0.00000131,-0.00000016,0.00000014,-0.00000133,-0.00000083,-0.
 00000002,0.00000175,-0.00000082,0.00000138,-0.00000055,0.00000178,-0.0
 0000020,-0.00000180,-0.00000173,-0.00000063,0.00000219,-0.00000069,-0.
 00000434,-0.00000034,-0.00000702,-0.00000164,-0.00000152,-0.00000304,0
 .00000041,0.00000583,0.00000641,0.00000674,-0.00000001,-0.00000078,0.0
 0000103,0.00000037,0.00000102,-0.00000006,0.00000026,-0.00000001,0.000
 00011,0.00000096,-0.00000237,0.00000072,-0.00000106,-0.00000068,0.0000
 0059,-0.00000169,-0.00000257,0.00000186,-0.00000154,0.00000063,-0.0000
 0013,0.00000007,0.00000103,-0.00000127,0.00000164,-0.00000639,0.000000
 94,0.00000132,0.00000469,-0.00000081,0.00000218,0.00000337,-0.00000091
 ,-0.00000321,-0.00000484,0.00000166,0.00000079,-0.00000311,0.00000418,
 0.00000067,0.00000138,-0.00000011,0.00000046,0.00000162,-0.00000289,-0
 .00000034,-0.00000295,0.00000125,-0.00000096,0.00000075,0.00000167,0.0
 0000105,-0.00000069,-0.00000069,-0.00000042,0.00000040,-0.00000084,-0.
 00000132,0.00000027,0.00000187,0.00000098,0.00000050,0.00000186,0.0000
 0041,0.00000065,0.00000166,-0.00000012,0.00000026,-0.00000123,0.000000
 27,-0.00000131,-0.00000025,-0.00000017,0.00000021,0.00000301,-0.000001
 44,-0.00000111,-0.00000140,0.00000118,0.00000136,0.00000197,-0.0000005
 4,-0.00000017,-0.00000031,0.00000036,0.00000071,0.00000135,-0.00000067
 ,-0.00000039,-0.00000078,0.00000019,0.00000020,-0.00000057,0.00000022,
 0.00000051,0.00000177,0.00000016,0.00000224,0.00001051,0.00000566,-0.0
 0015598,-0.00115209,0.00008172,0.00038289,-0.00007851,0.00027511,0.000
 74116,-0.00344689,-0.00407014,-0.00002805,0.00036510,0.00018185,0.0002
 6338,0.00017093,-0.00055053,0.00004702,-0.00002300,0.00001234,0.000006
 44,0.00002888,0.00002058,0.00002902,0.00000494,-0.00001004,0.00021746,
 -0.00012700,-0.00040857,-0.00004189,-0.00009920,-0.00000396,0.00003061
 ,0.00005558,0.00000191,0.00012830,0.00003918,0.00018925,0.00001523,0.0
 0007701,0.00000475,-0.06614404,0.04659095,0.04967611,0.00532424,-0.013
 37299,-0.01284204,-0.00634922,0.02081188,0.02146141,-0.00000925,-0.000
 01737,-0.00001238,0.00000246,0.00000110,0.00000251,0.00000109,0.000006
 09,0.00000186,0.00000338,0.00000569,0.00000878,-0.00003114,-0.00000365
 ,0.00001307,0.06568071,-0.00000701,-0.00004241,0.00007783,-0.00002434,
 0.00002174,0.00003609,0.00002792,-0.00002733,0.00001285,0.00001414,0.0
 0005858,0.00002024,-0.00002408,-0.00005034,-0.00002174,-0.00018661,-0.
 00009829,0.00008048,0.00001893,-0.00000832,-0.00002024,0.00005218,-0.0
 0000925,0.00001621,-0.00004428,0.00003733,0.00008441,-0.00003308,0.000
 03611,-0.00000285,0.00000505,-0.00000087,0.00001009,-0.00000262,-0.000
 00153,-0.00000192,-0.00000631,0.00003029,-0.00000799,-0.00000704,-0.00
 001304,0.00000833,-0.00000215,0.00000772,-0.00000364,0.00000127,0.0000
 1643,-0.00001829,0.00013398,-0.00001140,-0.00000030,0.00008301,-0.0001
 7343,-0.00004686,0.00000322,-0.00010450,-0.00022585,0.00007340,0.00003
 441,-0.00010601,0.00011333,-0.00004773,-0.00000386,-0.00004681,-0.0001
 0899,-0.00005156,-0.00020446,0.00003391,0.00002034,-0.00008551,0.00002
 202,0.00011126,-0.00005990,0.00023391,0.00022751,0.00002196,-0.0001562
 9,-0.00002184,0.00011398,0.00008936,-0.00007668,-0.00000448,-0.0000284
 3,0.00003979,-0.00003360,-0.00001607,0.00002128,0.00000522,0.00005603,
 -0.00000741,0.00002303,0.00006820,0.00001247,-0.00003775,0.00001081,-0
 .00002552,-0.00007917,0.00001291,-0.00000843,0.00014658,-0.00000375,0.
 00002152,0.00000825,0.00000479,-0.00000226,0.00000821,0.00000025,-0.00
 000377,-0.00000236,-0.00000050,0.00000148,-0.00000537,0.00000035,0.000
 00082,0.00000534,0.00000068,-0.00000171,-0.00000198,-0.00000187,-0.000
 00055,0.00000405,0.00000357,-0.00000485,-0.00000214,-0.00000031,0.0000
 0146,0.00000060,0.00000383,-0.00000867,-0.00000210,-0.00000102,0.00000
 116,0.00000035,0.00000153,0.00000461,0.00000563,0.00000301,-0.00000463
 ,-0.00000054,0.00000270,-0.00000872,0.00000076,-0.00000435,0.00000377,
 0.00000131,0.00000636,-0.00000546,0.00000046,0.00000034,0.00000521,0.0
 0000206,-0.00000304,0.00000041,-0.00000092,0.00000212,-0.00000167,-0.0
 0000073,-0.00000090,-0.00000261,0.00000585,-0.00000110,0.00000249,0.00
 000082,-0.00000152,0.00000669,0.00000700,-0.00000345,0.00000425,-0.000
 00241,0.00000076,-0.00000123,-0.00000313,0.00000450,-0.00000574,0.0000
 1286,-0.00000386,-0.00000337,-0.00000439,0.00000168,0.00000281,-0.0000
 0468,-0.00000177,0.00000052,0.00000991,0.00000231,-0.00000177,0.000007
 32,-0.00000434,0.00000122,-0.00000439,0.00000433,-0.00000248,-0.000005
 28,0.00000270,0.00000147,0.00000829,-0.00000283,0.00000045,-0.00000323
 ,-0.00001215,-0.00000303,0.00000296,0.00000166,0.00000186,-0.00000221,
 0.00000240,0.00000356,0.00000017,-0.00000864,-0.00000608,-0.00000205,-
 0.00000469,0.00000106,-0.00000260,-0.00000702,-0.00000114,0.00000052,0
 .00000660,-0.00000338,0.00000510,0.00000075,0.00000103,0.00000531,-0.0
 0000692,0.00001225,-0.00000480,0.00001677,-0.00001224,-0.00000158,-0.0
 0001504,-0.00000266,0.00000693,0.00000811,0.00000409,0.00000132,-0.000
 00342,-0.00000170,0.00000199,0.00000031,-0.00000342,-0.00000169,0.0000
 0320,0.00000023,-0.00000119,-0.00000696,0.00000013,0.00000413,-0.00000
 816,-0.00001747,-0.00188747,-0.00321362,0.00644038,-0.00005496,0.00007
 245,-0.00156817,0.00748716,-0.02167421,-0.02217295,0.00048324,0.001302
 08,0.00013074,-0.00029918,0.00146389,-0.00033854,0.00032718,0.00025329
 ,-0.00017120,-0.00003498,0.00002323,0.00000234,0.00002411,-0.00005201,
 -0.00001903,0.00100032,-0.00066624,-0.00124929,-0.00046254,-0.00032911
 ,-0.00032583,0.00005982,0.00003037,0.00014928,0.00001517,0.00009158,0.
 00002203,0.00006301,0.00001470,0.00004986,0.04648737,-0.16177331,-0.12
 519717,-0.00223231,0.00358597,0.00455140,-0.00131388,0.00383207,0.0048
 6096,0.00010208,0.00001090,0.00007204,-0.00005132,0.00000608,-0.000008
 30,-0.00002092,0.00000206,-0.00001928,-0.00002003,-0.00001026,-0.00003
 712,0.00000678,0.00000297,-0.00000342,-0.04968440,0.17717765,0.0000612
 0,0.00006840,0.00012664,0.00001047,-0.00000093,-0.00000557,-0.00002626
 ,-0.00004083,-0.00001297,0.00007081,0.00000889,0.00001856,-0.00005817,
 0.00004424,-0.00001350,0.00007153,0.00003383,-0.00009173,-0.00004598,0
 .00002157,0.00005044,-0.00001741,-0.00002904,0.00000700,-0.00012039,-0
 .00016134,-0.00016018,0.00023630,0.00002621,-0.00007203,-0.00000795,0.
 00001116,-0.00000268,-0.00000488,-0.00000368,-0.00000243,0.00004031,-0
 .00008040,0.00004203,-0.00000286,0.00001712,-0.00000590,0.00003838,0.0
 0004699,-0.00002300,-0.00002521,-0.00006460,0.00001744,-0.00005274,-0.
 00002930,-0.00000788,-0.00009166,0.00014493,0.00002023,0.00004921,-0.0
 0003743,0.00004770,0.00004882,0.00001840,-0.00007969,0.00007395,-0.000
 03739,0.00000024,-0.00001625,-0.00007965,0.00000274,-0.00009564,0.0000
 5390,-0.00000452,-0.00009722,-0.00002214,0.00009622,0.00000187,0.00010
 441,-0.00001309,0.00000328,-0.00007255,0.00000677,0.00005867,0.0000282
 6,-0.00006142,-0.00001909,-0.00002002,0.00003497,-0.00003074,-0.000009
 04,0.00001985,0.00000768,0.00004003,-0.00001017,0.00000580,0.00003162,
 0.00001087,-0.00002403,0.00001241,-0.00001607,-0.00004834,0.00000872,-
 0.00000324,0.00007806,-0.00003115,0.00001826,0.00000428,0.00000094,-0.
 00000275,0.00000594,0.00000075,-0.00000240,-0.00000175,-0.00000147,0.0
 0000041,-0.00000307,0.00000125,0.00000034,0.00000262,-0.00000065,-0.00
 000296,-0.00000164,-0.00000224,-0.00000133,0.00000340,0.00000270,-0.00
 000276,-0.00000085,-0.00000063,0.00000262,0.00000190,0.00000189,-0.000
 00248,0.00000017,-0.00000125,0.00000144,-0.00000196,-0.00000080,0.0000
 0329,0.00000320,0.00000142,-0.00000491,-0.00000153,0.00000611,-0.00000
 142,0.00000661,0.00000005,0.00000472,0.00000498,0.00000148,-0.00000926
 ,-0.00000705,-0.00000792,0.00000296,0.00000182,-0.00000227,0.00000002,
 -0.00000157,0.00000085,0.00000005,-0.00000063,-0.00000125,-0.00000238,
 0.00000392,-0.00000057,0.00000198,0.00000183,-0.00000182,0.00000253,0.
 00000380,-0.00000247,0.00000328,-0.00000164,-0.00000039,-0.00000162,-0
 .00000105,0.00000256,-0.00000253,0.00000702,0.00000139,-0.00000023,-0.
 00000526,-0.00000062,-0.00000348,-0.00000489,0.00000078,0.00000343,0.0
 0000736,-0.00000246,-0.00000054,0.00000449,-0.00000134,0.00000094,-0.0
 0000213,0.00000103,-0.00000029,-0.00000322,0.00000116,0.00000002,0.000
 00537,-0.00000226,0.00000063,-0.00000009,-0.00000299,-0.00000210,0.000
 00162,0.00000171,0.00000088,-0.00000062,0.00000222,0.00000275,-0.00000
 099,-0.00000449,-0.00000204,0.00000072,-0.00000306,0.00000009,-0.00000
 178,-0.00000377,-0.00000054,0.00000015,0.00000265,-0.00000097,0.000002
 51,0.00000062,0.00000109,-0.00000250,-0.00000379,0.00000353,0.00000017
 ,0.00000499,-0.00000395,-0.00000093,-0.00000689,0.00000121,0.00000381,
 0.00000365,-0.00000029,-0.00000206,-0.00000314,0.00000027,0.00000075,0
 .00000156,-0.00000073,0.00000025,0.00000291,-0.00000030,-0.00000020,-0
 .00000493,0.00000049,-0.00000677,-0.00000629,-0.00001471,-0.00001758,0
 .00171248,-0.00209612,0.00068662,-0.00019145,0.00120902,-0.00365364,0.
 01038167,0.00979766,-0.00021441,-0.00083316,0.00050783,-0.00014736,-0.
 00087825,0.00034450,-0.00004726,-0.00005924,-0.00001706,0.00002061,-0.
 00000462,0.00001619,-0.00001402,-0.00002224,0.00001100,-0.00043812,0.0
 0013499,0.00058597,0.00004568,0.00013031,0.00001261,-0.00000111,-0.000
 02049,-0.00001199,-0.00001508,-0.00004094,-0.00002751,-0.00001497,-0.0
 0001123,-0.00001649,0.04914415,-0.12489971,-0.18065084,0.00860049,-0.0
 1628197,-0.01608450,0.00031377,-0.00382470,-0.00496458,0.00014639,0.00
 008016,0.00007055,-0.00006217,-0.00000576,-0.00001019,-0.00003074,-0.0
 0004052,-0.00000924,-0.00003158,-0.00002618,-0.00004940,0.00002469,-0.
 00000485,-0.00000206,-0.05439038,0.13472915,0.19147877\\-0.00001165,-0
 .00000211,-0.00000654,-0.00000528,0.00000087,-0.00000021,-0.00000449,0
 .00000505,0.00000254,0.00000853,-0.00000795,-0.00000023,-0.00000252,0.
 00000152,0.00000407,0.00000609,0.00000336,-0.00000008,-0.00000663,-0.0
 0000136,0.00000196,-0.00000666,0.00000373,-0.00000402,0.00000783,-0.00
 000594,0.00000608,-0.00000640,-0.00000023,-0.00000122,0.00000088,-0.00
 000392,-0.00000076,-0.00000466,-0.00000039,0.00000027,0.00000142,-0.00
 000416,0.00000144,-0.00000147,-0.00000328,0.00000078,-0.00000088,0.000
 00095,0.00000003,-0.00000263,-0.00000337,-0.00000244,0.00001377,0.0000
 0061,0.00000578,0.00000527,0.00001163,0.00000096,-0.00003324,-0.000012
 69,0.00001545,0.00000241,-0.00000053,-0.00000383,-0.00000439,0.0000061
 7,0.00000985,0.00000620,0.00000386,-0.00000840,0.00000318,-0.00001102,
 -0.00000777,-0.00000710,-0.00000346,0.00000096,0.00000690,0.00000683,0
 .00000377,0.00000083,0.00000304,-0.00000942,-0.00000240,-0.00000453,0.
 00000529,0.00000786,0.00000696,-0.00000166,-0.00000303,-0.00000004,-0.
 00000328,0.00000407,-0.00000561,-0.00000563,-0.00000255,-0.00000529,0.
 00000552,0.00000113,-0.00000432,-0.00000127,-0.00000300,0.00000329,-0.
 00000594,0.00000052,0.00000150,0.00000238,0.00000821,-0.00000053,0.000
 00676,-0.00000053,0.00000223,0.00000090,-0.00000095,0.00000099,-0.0000
 0229,-0.00000070,0.00000429,-0.00000634,-0.00000007,0.00000388,0.00000
 422,0.00000018,0.00000089,0.00000047,0.00000081,0.00000218,0.00000037,
 -0.00000146,0.00000203,0.00000049,-0.00000014,0.00000011,-0.00000019,-
 0.00000055,0.00000593,-0.00000163,-0.00000167,0.00000042,0.00000176,0.
 00000044,0.00000273,-0.00000069,-0.00000561,-0.00000229,0.00000324,-0.
 00000047,0.00000063,0.00000106,0.00000073,0.00000057,-0.00000072,0.000
 00030,0.00000055,-0.00000031,-0.00000133,0.00000337,0.00000400,0.00000
 029,-0.00000026,0.00000262,0.00000105,-0.00000046,-0.00000155,0.000002
 76,0.00000120,0.00000041,0.00000674,0.00000475,0.00000101,0.00000169,-
 0.00000016,0.00000034,0.00000186,0.00000241,0.00000005,0.00000284,0.00
 000211,0.00000075,0.00000441,-0.00000274,0.00000056,-0.00000129,0.0000
 0086,0.00000217,-0.00000100,0.00000201,-0.00000018,-0.00000185,0.00000
 170,0.00000094,0.00000765,0.00000011,0.00000272,-0.00000205,-0.0000028
 2,0.00000033,-0.00000116,-0.00000019,-0.00000035,-0.00000337,0.0000012
 7,-0.00000051,-0.00000178,0.00000333,-0.00000355,0.00000303,-0.0000001
 7,-0.00000035,0.00000134,-0.00000066,-0.00000177,0.00000110,-0.0000011
 7,-0.00000083,-0.00000309,-0.00000389,-0.00000055,0.00000344,0.0000007
 9,-0.00000064,0.00000252,-0.00000108,-0.00000162,0.00000219,0.00000118
 ,-0.00000157,0.00000659,0.00000267,-0.00000131,0.,-0.00000263,-0.00000
 071,-0.00000087,-0.00000653,-0.00000052,-0.00000231,-0.00000003,-0.000
 00047,-0.00000270,-0.00000465,0.00000408,0.00000361,0.00000026,-0.0000
 0279,0.00000184,-0.00000081,-0.00000134,0.00000165,0.00000256,-0.00000
 323,0.00000085,0.00001488,-0.00001136,0.00000043,-0.00001741,-0.000004
 41,-0.00000439,0.00000083,-0.00000670,-0.00000279,0.00001834,0.0000042
 5,-0.00000729,-0.00000184,0.00000183,0.00000064,-0.00000877,0.00000440
 ,-0.00000157,0.00001270,-0.00000632,0.00000599,-0.00000184,0.00000285,
 -0.00000054,-0.00000143,-0.00000246,0.00001106,-0.00000491,0.00000949,
 0.00000215,0.00000005,0.00000539,-0.00000395,0.00000058,0.00000052,0.0
 0000168,-0.00000173,-0.00000330,-0.00000239,0.00000072,-0.00000176,-0.
 00000279,-0.00001050,-0.00000889,0.00000501,-0.00000071,0.00000949,-0.
 00000565,0.00000185,0.00000178,0.00000139,-0.00000094,0.00000079,0.000
 00129,-0.00000117,-0.00000108,0.00000063,-0.00000653,0.00000258,0.0000
 0108,-0.00000037,-0.00000518,-0.00000133,-0.00000003,0.00000270,0.0000
 0025,0.00000211,-0.00000225\\\@
 The archive entry for this job was punched.


 THE RARE EARTHS PERPLEX US IN OUR RESEARCHES,
 BAFFLE US IN OUR SPECULATIONS, AND HAUNT US IN OUR
 VERY DREAMS.  THEY STRETCH LIKE AN UNKNOWN BEFORE US,
 MOCKING, MYSTIFYING, AND MURMURING STRANGE REVELATIONS
 AND POSSIBILITIES.  -- SIR WILLIAM CROOKE, 1832-1919
 Job cpu time:       1 days 19 hours 34 minutes  9.8 seconds.
 Elapsed time:       0 days  2 hours 46 minutes 26.5 seconds.
 File lengths (MBytes):  RWF=   8253 Int=      0 D2E=      0 Chk=     49 Scr=      1
 Normal termination of Gaussian 16 at Sat Dec  7 21:39:45 2024.
