/mnt/lustre/scratch/nvme/SLURM/9663787/usccqdma.CEspYjvAQJ
OMP_STACKSIZE=0m
GAUSS_PDEF=16
GAUSS_MDEF=65536MB
GAUSS_RDEF=SCF=Direct
 Entering Gaussian System, Link 0=g16.exe
 Initial command:
 /opt/cesga/2020/software/Core/g16/c1/l1.exe "/mnt/lustre/scratch/nvme/SLURM/9663787/usccqdma.CEspYjvAQJ/Gau-283985.inp" -scrdir="/mnt/lustre/scratch/nvme/SLURM/9663787/usccqdma.CEspYjvAQJ/"
 Default is to use a total of  16 processors:
                               16 via shared-memory
                                1 via Linda
 Entering Link 1 = /opt/cesga/2020/software/Core/g16/c1/l1.exe PID=    284011.
  
 Copyright (c) 1988-2019, Gaussian, Inc.  All Rights Reserved.
  
 This is part of the Gaussian(R) 16 program.  It is based on
 the Gaussian(R) 09 system (copyright 2009, Gaussian, Inc.),
 the Gaussian(R) 03 system (copyright 2003, Gaussian, Inc.),
 the Gaussian(R) 98 system (copyright 1998, Gaussian, Inc.),
 the Gaussian(R) 94 system (copyright 1995, Gaussian, Inc.),
 the Gaussian 92(TM) system (copyright 1992, Gaussian, Inc.),
 the Gaussian 90(TM) system (copyright 1990, Gaussian, Inc.),
 the Gaussian 88(TM) system (copyright 1988, Gaussian, Inc.),
 the Gaussian 86(TM) system (copyright 1986, Carnegie Mellon
 University), and the Gaussian 82(TM) system (copyright 1983,
 Carnegie Mellon University). Gaussian is a federally registered
 trademark of Gaussian, Inc.
  
 This software contains proprietary and confidential information,
 including trade secrets, belonging to Gaussian, Inc.
  
 This software is provided under written license and may be
 used, copied, transmitted, or stored only in accord with that
 written license.
  
 The following legend is applicable only to US Government
 contracts under FAR:
  
                    RESTRICTED RIGHTS LEGEND
  
 Use, reproduction and disclosure by the US Government is
 subject to restrictions as set forth in subparagraphs (a)
 and (c) of the Commercial Computer Software - Restricted
 Rights clause in FAR 52.227-19.
  
 Gaussian, Inc.
 340 Quinnipiac St., Bldg. 40, Wallingford CT 06492
  
  
 ---------------------------------------------------------------
 Warning -- This program may not be used in any manner that
 competes with the business of Gaussian, Inc. or will provide
 assistance to any competitor of Gaussian, Inc.  The licensee
 of this program is prohibited from giving any competitor of
 Gaussian, Inc. access to this program.  By using this program,
 the user acknowledges that Gaussian, Inc. is engaged in the
 business of creating and licensing software in the field of
 computational chemistry and represents and warrants to the
 licensee that it is not a competitor of Gaussian, Inc. and that
 it will not use this program in any manner prohibited above.
 ---------------------------------------------------------------
  

 Cite this work as:
 Gaussian 16, Revision C.01,
 M. J. Frisch, G. W. Trucks, H. B. Schlegel, G. E. Scuseria, 
 M. A. Robb, J. R. Cheeseman, G. Scalmani, V. Barone, 
 G. A. Petersson, H. Nakatsuji, X. Li, M. Caricato, A. V. Marenich, 
 J. Bloino, B. G. Janesko, R. Gomperts, B. Mennucci, H. P. Hratchian, 
 J. V. Ortiz, A. F. Izmaylov, J. L. Sonnenberg, D. Williams-Young, 
 F. Ding, F. Lipparini, F. Egidi, J. Goings, B. Peng, A. Petrone, 
 T. Henderson, D. Ranasinghe, V. G. Zakrzewski, J. Gao, N. Rega, 
 G. Zheng, W. Liang, M. Hada, M. Ehara, K. Toyota, R. Fukuda, 
 J. Hasegawa, M. Ishida, T. Nakajima, Y. Honda, O. Kitao, H. Nakai, 
 T. Vreven, K. Throssell, J. A. Montgomery, Jr., J. E. Peralta, 
 F. Ogliaro, M. J. Bearpark, J. J. Heyd, E. N. Brothers, K. N. Kudin, 
 V. N. Staroverov, T. A. Keith, R. Kobayashi, J. Normand, 
 K. Raghavachari, A. P. Rendell, J. C. Burant, S. S. Iyengar, 
 J. Tomasi, M. Cossi, J. M. Millam, M. Klene, C. Adamo, R. Cammi, 
 J. W. Ochterski, R. L. Martin, K. Morokuma, O. Farkas, 
 J. B. Foresman, and D. J. Fox, Gaussian, Inc., Wallingford CT, 2019.
 
 ******************************************
 Gaussian 16:  ES64L-G16RevC.01  3-Jul-2019
                 7-Dec-2024 
 ******************************************
 Default route: SCF=Direct
 -
 #
 -
 1/38=1,172=1/1;
 2/12=2,17=6,18=5,40=1/2;
 3/11=9,25=1,30=1/1,2,3;
 4//1;
 5/5=2,38=5/2;
 6/7=2,8=2,9=2,10=2,28=1/1;
 99/5=1,9=1/99;
 ----------------------------------------------------------------------
 /Users/danielmarcosatanes/Desktop/Tesis/sp3/Estructuras_supporting_gjf
 /44f/N-CH3/bis-5-CF3-Bipy/OA/OA-TS-Ir(R-H)(Bpin)3/L28-OA-TS-Ir(R-H)(Bp
 in)3.log
 ----------------------------------------------------------------------
 Symbolic Z-matrix:
 Charge =  0 Multiplicity = 1
 C                     1.35994  -2.11406   1.181 
 C                     3.00304  -0.65641   0.46238 
 C                     4.00829  -1.47642   0.95904 
 C                     3.66203  -2.65726   1.5976 
 C                     2.31746  -2.96924   1.72626 
 C                    -0.08544  -2.4051    1.21606 
 C                    -2.18756  -1.84473   0.40058 
 C                    -2.78789  -2.86178   1.12928 
 C                    -2.00135  -3.6691    1.94066 
 C                    -0.63535  -3.43245   1.98321 
 H                     3.22645   0.29141  -0.03305 
 H                     4.42928  -3.32453   1.98129 
 H                     2.02519  -3.89378   2.21742 
 H                    -2.75813  -1.18564  -0.258 
 H                    -2.4481   -4.46655   2.52924 
 H                    -0.00182  -4.04456   2.61949 
 N                     1.71477  -0.97708   0.54808 
 N                    -0.87093  -1.62318   0.43737 
 Ir                    0.06135   0.17803  -0.52803 
 O                    -1.87255   2.33923  -1.6475 
 O                     2.32768   2.14147  -0.80475 
 O                    -1.9589    1.35726   1.47557 
 B                     0.97053   2.01295  -0.47828 
 B                    -1.57493   1.01919  -1.37528 
 B                    -0.62614   1.0529    1.24854 
 O                     0.11323   1.20117   2.41278 
 O                    -2.6361    0.19595  -1.78579 
 C                    -3.77727   1.04     -2.01966 
 C                    -3.09924   2.39248  -2.38491 
 C                    -2.151     1.49374   2.89199 
 C                    -0.72242   1.86507   3.3809 
 C                     2.7683    3.42034  -0.31245 
 C                     1.44958   4.23661  -0.34736 
 O                     0.47142   3.22918  -0.04958 
 C                    -2.72815   2.49391  -3.85882 
 H                    -2.17953   1.60197  -4.19027 
 H                    -3.61025   2.62292  -4.50061 
 H                    -2.07104   3.36247  -3.99423 
 C                    -3.87097   3.62488  -1.95721 
 H                    -3.32233   4.52646  -2.25899 
 H                    -4.86278   3.65487  -2.43149 
 H                    -3.99607   3.6569   -0.8691 
 C                    -4.62778   0.42847  -3.11431 
 H                    -5.46971   1.08825  -3.3693 
 H                    -4.04717   0.23472  -4.02279 
 H                    -5.04159  -0.52793  -2.76795 
 C                    -4.56927   1.0949   -0.71776 
 H                    -4.87816   0.07564  -0.44297 
 H                    -3.95465   1.49381   0.10047 
 H                    -5.47904   1.702    -0.81856 
 C                     3.29094   3.19176   1.10061 
 H                     3.68294   4.11399   1.55013 
 H                     2.50206   2.78383   1.74974 
 H                     4.10998   2.46075   1.06508 
 C                     3.87145   3.94554  -1.20656 
 H                     4.16723   4.9603   -0.9039 
 H                     4.75527   3.2993   -1.12817 
 H                     3.56267   3.97     -2.25735 
 C                     1.36188   5.34696   0.67874 
 H                     2.15064   6.09421   0.51 
 H                     0.39144   5.85327   0.59401 
 H                     1.45512   4.96509   1.70141 
 C                     1.112     4.77736  -1.73123 
 H                     1.19556   3.99243  -2.49465 
 H                     0.06924   5.11886  -1.72343 
 H                     1.75728   5.61984  -2.01503 
 C                    -0.4328    3.35532   3.27797 
 H                    -0.99795   3.93489   4.02029 
 H                     0.63828   3.51716   3.46212 
 H                    -0.66135   3.72961   2.27203 
 C                    -0.37096   1.36122   4.7657 
 H                     0.65323   1.66278   5.01972 
 H                    -1.04674   1.78929   5.52022 
 H                    -0.42469   0.26861   4.82827 
 C                    -2.62863   0.13961   3.40148 
 H                    -1.85682  -0.63114   3.26078 
 H                    -2.89912   0.16957   4.46565 
 H                    -3.51532  -0.16025   2.82639 
 C                    -3.21292   2.54415   3.14665 
 H                    -3.31052   2.75407   4.22164 
 H                    -2.98415   3.47914   2.62351 
 H                    -4.18501   2.1833    2.7847 
 H                     0.82328   0.52121  -1.93549 
 C                     1.88362  -3.01776  -1.96694 
 O                     2.99064  -3.47817  -1.70389 
 C                     0.63831  -3.8971   -1.85251 
 H                    -0.19115  -3.33464  -1.39794 
 C                     0.21966  -4.32773  -3.26035 
 C                     0.48463  -1.00808  -2.50404 
 N                     1.72148  -1.74977  -2.46773 
 C                     2.90281  -0.98354  -2.81502 
 C                     0.92714  -5.11854  -0.99513 
 C                     5.42805  -1.05317   0.74733 
 F                     5.65526   0.14963   1.29275 
 F                     6.29196  -1.91396   1.2884 
 F                     5.70915  -0.94793  -0.55421 
 C                    -4.2736   -3.01534   1.0219 
 F                    -4.90634  -1.94392   1.51895 
 F                    -4.65567  -3.13062  -0.2531 
 F                    -4.71156  -4.08845   1.68406 
 H                     1.7118   -5.73247  -1.45276 
 H                     0.01985  -5.72804  -0.8846 
 H                     1.28368  -4.83912   0.00478 
 H                     1.04797  -4.86143  -3.74736 
 H                    -0.05196  -3.47512  -3.89468 
 H                    -0.64024  -5.00898  -3.21589 
 H                    -0.3932   -1.65279  -2.41698 
 H                     0.39379  -0.50005  -3.47393 
 H                     2.92064  -0.7869   -3.89742 
 H                     3.7938   -1.54879  -2.53135 
 H                     2.89547  -0.01234  -2.29723 
 
 Stoichiometry    C36H55B3F6IrN3O7
 Framework group  C1[X(C36H55B3F6IrN3O7)]
 Deg. of freedom   327
 Full point group                 C1      NOp   1
 Largest Abelian subgroup         C1      NOp   1
 Largest concise Abelian subgroup C1      NOp   1
                         Standard orientation:                         
 ---------------------------------------------------------------------
 Center     Atomic      Atomic             Coordinates (Angstroms)
 Number     Number       Type             X           Y           Z
 ---------------------------------------------------------------------
      1          6           0        1.359942   -2.114058    1.180999
      2          6           0        3.003041   -0.656407    0.462379
      3          6           0        4.008292   -1.476416    0.959039
      4          6           0        3.662033   -2.657256    1.597599
      5          6           0        2.317463   -2.969237    1.726259
      6          6           0       -0.085438   -2.405099    1.216059
      7          6           0       -2.187558   -1.844731    0.400579
      8          6           0       -2.787887   -2.861782    1.129279
      9          6           0       -2.001346   -3.669101    1.940659
     10          6           0       -0.635347   -3.432450    1.983209
     11          1           0        3.226450    0.291413   -0.033051
     12          1           0        4.429283   -3.324526    1.981289
     13          1           0        2.025194   -3.893778    2.217419
     14          1           0       -2.758129   -1.185642   -0.258001
     15          1           0       -2.448096   -4.466551    2.529239
     16          1           0       -0.001816   -4.044559    2.619489
     17          7           0        1.714771   -0.977078    0.548079
     18          7           0       -0.870928   -1.623180    0.437369
     19         77           0        0.061350    0.178031   -0.528031
     20          8           0       -1.872552    2.339229   -1.647501
     21          8           0        2.327679    2.141473   -0.804751
     22          8           0       -1.958901    1.357259    1.475569
     23          5           0        0.970529    2.012951   -0.478281
     24          5           0       -1.574930    1.019189   -1.375281
     25          5           0       -0.626140    1.052900    1.248539
     26          8           0        0.113229    1.201171    2.412779
     27          8           0       -2.636100    0.195948   -1.785791
     28          6           0       -3.777270    1.039997   -2.019661
     29          6           0       -3.099242    2.392478   -2.384911
     30          6           0       -2.151001    1.493739    2.891989
     31          6           0       -0.722421    1.865070    3.380899
     32          6           0        2.768298    3.420343   -0.312451
     33          6           0        1.449577    4.236612   -0.347361
     34          8           0        0.471418    3.229181   -0.049581
     35          6           0       -2.728152    2.493908   -3.858821
     36          1           0       -2.179531    1.601969   -4.190271
     37          1           0       -3.610252    2.622918   -4.500611
     38          1           0       -2.071042    3.362469   -3.994231
     39          6           0       -3.870973    3.624877   -1.957211
     40          1           0       -3.322333    4.526458   -2.258991
     41          1           0       -4.862783    3.654867   -2.431491
     42          1           0       -3.996073    3.656897   -0.869101
     43          6           0       -4.627780    0.428467   -3.114311
     44          1           0       -5.469710    1.088246   -3.369301
     45          1           0       -4.047170    0.234717   -4.022791
     46          1           0       -5.041589   -0.527934   -2.767951
     47          6           0       -4.569270    1.094897   -0.717761
     48          1           0       -4.878160    0.075637   -0.442971
     49          1           0       -3.954651    1.493807    0.100469
     50          1           0       -5.479041    1.701996   -0.818561
     51          6           0        3.290938    3.191763    1.100609
     52          1           0        3.682937    4.113994    1.550129
     53          1           0        2.502058    2.783833    1.749739
     54          1           0        4.109978    2.460754    1.065079
     55          6           0        3.871447    3.945544   -1.206561
     56          1           0        4.167226    4.960304   -0.903901
     57          1           0        4.755268    3.299305   -1.128171
     58          1           0        3.562667    3.970004   -2.257351
     59          6           0        1.361876    5.346962    0.678739
     60          1           0        2.150635    6.094212    0.509999
     61          1           0        0.391436    5.853271    0.594009
     62          1           0        1.455116    4.965092    1.701409
     63          6           0        1.111996    4.777362   -1.731231
     64          1           0        1.195557    3.992432   -2.494651
     65          1           0        0.069236    5.118861   -1.723431
     66          1           0        1.757276    5.619842   -2.015031
     67          6           0       -0.432802    3.355320    3.277969
     68          1           0       -0.997953    3.934890    4.020289
     69          1           0        0.638277    3.517161    3.462119
     70          1           0       -0.661353    3.729610    2.272029
     71          6           0       -0.370961    1.361220    4.765699
     72          1           0        0.653229    1.662781    5.019719
     73          1           0       -1.046741    1.789290    5.520219
     74          1           0       -0.424690    0.268610    4.828269
     75          6           0       -2.628630    0.139608    3.401479
     76          1           0       -1.856819   -0.631141    3.260779
     77          1           0       -2.899120    0.169568    4.465649
     78          1           0       -3.515319   -0.160252    2.826389
     79          6           0       -3.212922    2.544148    3.146649
     80          1           0       -3.310522    2.754068    4.221639
     81          1           0       -2.984152    3.479138    2.623509
     82          1           0       -4.185011    2.183297    2.784699
     83          1           0        0.823280    0.521211   -1.935491
     84          6           0        1.883623   -3.017758   -1.966941
     85          8           0        2.990643   -3.478167   -1.703891
     86          6           0        0.638314   -3.897099   -1.852511
     87          1           0       -0.191147   -3.334640   -1.397941
     88          6           0        0.219664   -4.327729   -3.260351
     89          6           0        0.484631   -1.008079   -2.504041
     90          7           0        1.721482   -1.749768   -2.467731
     91          6           0        2.902811   -0.983537   -2.815021
     92          6           0        0.927145   -5.118539   -0.995131
     93          6           0        5.428051   -1.053165    0.747329
     94          9           0        5.655260    0.149635    1.292749
     95          9           0        6.291962   -1.913954    1.288399
     96          9           0        5.709151   -0.947925   -0.554211
     97          6           0       -4.273597   -3.015343    1.021899
     98          9           0       -4.906338   -1.943924    1.518949
     99          9           0       -4.655667   -3.130623   -0.253101
    100          9           0       -4.711556   -4.088453    1.684059
    101          1           0        1.711805   -5.732468   -1.452761
    102          1           0        0.019855   -5.728039   -0.884601
    103          1           0        1.283685   -4.839118    0.004779
    104          1           0        1.047975   -4.861429   -3.747361
    105          1           0       -0.051957   -3.475119   -3.894681
    106          1           0       -0.640235   -5.008980   -3.215891
    107          1           0       -0.393198   -1.652790   -2.416981
    108          1           0        0.393791   -0.500049   -3.473931
    109          1           0        2.920641   -0.786897   -3.897421
    110          1           0        3.793802   -1.548786   -2.531351
    111          1           0        2.895470   -0.012337   -2.297231
 ---------------------------------------------------------------------
 Rotational constants (GHZ):           0.0570327           0.0469253           0.0378763
 Standard basis: STO-3G (5D, 7F)
 IA out of range in STO.
 Error termination via Lnk1e in /opt/cesga/2020/software/Core/g16/c1/l301.exe at Sat Dec  7 22:06:28 2024.
 Job cpu time:       0 days  0 hours  0 minutes  0.4 seconds.
 Elapsed time:       0 days  0 hours  0 minutes  0.1 seconds.
 File lengths (MBytes):  RWF=      6 Int=      0 D2E=      0 Chk=      1 Scr=      1
