/mnt/lustre/scratch/nvme/SLURM/9663546/usccqdma.C5khX2sM4f
OMP_STACKSIZE=0m
GAUSS_PDEF=16
GAUSS_MDEF=65536MB
GAUSS_RDEF=SCF=Direct
 Entering Gaussian System, Link 0=g16.exe
 Initial command:
 /opt/cesga/2020/software/Core/g16/c1/l1.exe "/mnt/lustre/scratch/nvme/SLURM/9663546/usccqdma.C5khX2sM4f/Gau-439658.inp" -scrdir="/mnt/lustre/scratch/nvme/SLURM/9663546/usccqdma.C5khX2sM4f/"
 Default is to use a total of  16 processors:
                               16 via shared-memory
                                1 via Linda
 Entering Link 1 = /opt/cesga/2020/software/Core/g16/c1/l1.exe PID=    439686.
  
 Copyright (c) 1988-2019, Gaussian, Inc.  All Rights Reserved.
  
 This is part of the Gaussian(R) 16 program.  It is based on
 the Gaussian(R) 09 system (copyright 2009, Gaussian, Inc.),
 the Gaussian(R) 03 system (copyright 2003, Gaussian, Inc.),
 the Gaussian(R) 98 system (copyright 1998, Gaussian, Inc.),
 the Gaussian(R) 94 system (copyright 1995, Gaussian, Inc.),
 the Gaussian 92(TM) system (copyright 1992, Gaussian, Inc.),
 the Gaussian 90(TM) system (copyright 1990, Gaussian, Inc.),
 the Gaussian 88(TM) system (copyright 1988, Gaussian, Inc.),
 the Gaussian 86(TM) system (copyright 1986, Carnegie Mellon
 University), and the Gaussian 82(TM) system (copyright 1983,
 Carnegie Mellon University). Gaussian is a federally registered
 trademark of Gaussian, Inc.
  
 This software contains proprietary and confidential information,
 including trade secrets, belonging to Gaussian, Inc.
  
 This software is provided under written license and may be
 used, copied, transmitted, or stored only in accord with that
 written license.
  
 The following legend is applicable only to US Government
 contracts under FAR:
  
                    RESTRICTED RIGHTS LEGEND
  
 Use, reproduction and disclosure by the US Government is
 subject to restrictions as set forth in subparagraphs (a)
 and (c) of the Commercial Computer Software - Restricted
 Rights clause in FAR 52.227-19.
  
 Gaussian, Inc.
 340 Quinnipiac St., Bldg. 40, Wallingford CT 06492
  
  
 ---------------------------------------------------------------
 Warning -- This program may not be used in any manner that
 competes with the business of Gaussian, Inc. or will provide
 assistance to any competitor of Gaussian, Inc.  The licensee
 of this program is prohibited from giving any competitor of
 Gaussian, Inc. access to this program.  By using this program,
 the user acknowledges that Gaussian, Inc. is engaged in the
 business of creating and licensing software in the field of
 computational chemistry and represents and warrants to the
 licensee that it is not a competitor of Gaussian, Inc. and that
 it will not use this program in any manner prohibited above.
 ---------------------------------------------------------------
  

 Cite this work as:
 Gaussian 16, Revision C.01,
 M. J. Frisch, G. W. Trucks, H. B. Schlegel, G. E. Scuseria, 
 M. A. Robb, J. R. Cheeseman, G. Scalmani, V. Barone, 
 G. A. Petersson, H. Nakatsuji, X. Li, M. Caricato, A. V. Marenich, 
 J. Bloino, B. G. Janesko, R. Gomperts, B. Mennucci, H. P. Hratchian, 
 J. V. Ortiz, A. F. Izmaylov, J. L. Sonnenberg, D. Williams-Young, 
 F. Ding, F. Lipparini, F. Egidi, J. Goings, B. Peng, A. Petrone, 
 T. Henderson, D. Ranasinghe, V. G. Zakrzewski, J. Gao, N. Rega, 
 G. Zheng, W. Liang, M. Hada, M. Ehara, K. Toyota, R. Fukuda, 
 J. Hasegawa, M. Ishida, T. Nakajima, Y. Honda, O. Kitao, H. Nakai, 
 T. Vreven, K. Throssell, J. A. Montgomery, Jr., J. E. Peralta, 
 F. Ogliaro, M. J. Bearpark, J. J. Heyd, E. N. Brothers, K. N. Kudin, 
 V. N. Staroverov, T. A. Keith, R. Kobayashi, J. Normand, 
 K. Raghavachari, A. P. Rendell, J. C. Burant, S. S. Iyengar, 
 J. Tomasi, M. Cossi, J. M. Millam, M. Klene, C. Adamo, R. Cammi, 
 J. W. Ochterski, R. L. Martin, K. Morokuma, O. Farkas, 
 J. B. Foresman, and D. J. Fox, Gaussian, Inc., Wallingford CT, 2019.
 
 ******************************************
 Gaussian 16:  ES64L-G16RevC.01  3-Jul-2019
                 7-Dec-2024 
 ******************************************
 Default route: SCF=Direct
 ----------------------------------------------------
 # m06/genecp scf=tight int=ultrafine 5d freq=noraman
 ----------------------------------------------------
 1/10=4,30=1,38=1/1,3;
 2/12=2,17=6,18=5,40=1/2;
 3/5=7,8=1,11=2,16=1,17=8,25=1,30=1,71=2,74=-54,75=-5,140=1/1,2,3;
 4//1;
 5/5=2,32=2,38=5,98=1/2;
 8/6=4,10=90,11=11/1;
 11/6=1,8=1,9=11,15=111,16=1/1,2,10;
 10/6=1/2;
 6/7=2,8=2,9=2,10=2,28=1/1;
 7/8=1,10=1,25=1/1,2,3,16;
 1/10=4,30=1/3;
 99//99;
 ------
 OPT-TS
 ------
 Symbolic Z-matrix:
 Charge =  0 Multiplicity = 1
 C                     1.25276  -3.08971  -0.52062 
 C                     2.72546  -1.33735  -0.89045 
 C                     3.80988  -2.20116  -0.93041 
 C                     3.59116  -3.56709  -0.77154 
 C                     2.29911  -4.01593  -0.56543 
 C                    -0.14148  -3.473    -0.22403 
 C                    -2.23416  -2.75528   0.46721 
 C                    -2.72489  -4.05283   0.49246 
 C                    -1.88259  -5.09319   0.11985 
 C                    -0.57351  -4.79863  -0.2306 
 H                     2.84203  -0.26019  -1.02326 
 H                     4.42814  -4.26337  -0.79457 
 H                     2.112    -5.07476  -0.40763 
 H                    -2.83762  -1.90071   0.77463 
 H                    -2.2355   -6.12236   0.11 
 H                     0.10481  -5.59661  -0.5225 
 N                     1.47947  -1.77469  -0.68913 
 N                    -0.98277  -2.46254   0.08991 
 Ir                   -0.27214  -0.42071  -0.17797 
 O                     0.68598  -1.32556   2.4891 
 O                    -2.57416   0.28337   1.66549 
 O                     1.21127   3.49819  -1.79019 
 B                    -1.795     0.66618   0.55529 
 B                     0.34052  -0.22351   1.69902 
 B                     1.54658   2.22362  -2.14566 
 O                     2.68429   1.77275  -1.53367 
 O                     0.58522   0.95846   2.40538 
 C                     0.89931   0.61069   3.75885 
 C                     1.43396  -0.84243   3.60882 
 C                     2.0145    3.86406  -0.64594 
 C                     3.19661   2.82691  -0.69329 
 C                    -3.67213   1.19192   1.79821 
 C                    -3.14548   2.45659   1.06118 
 O                    -2.26338   1.89932   0.08179 
 C                     2.90595  -0.90336   3.2147 
 H                     3.11132  -0.25928   2.34772 
 H                     3.57305  -0.61054   4.03701 
 H                     3.14492  -1.93596   2.92653 
 C                     1.18426  -1.73988   4.80449 
 H                     0.11314  -1.85161   5.00473 
 H                     1.59687  -2.73873   4.61148 
 H                     1.67214  -1.34021   5.70553 
 C                     1.89869   1.61357   4.30036 
 H                     1.43416   2.60821   4.33655 
 H                     2.21419   1.34773   5.31983 
 H                     2.78959   1.6833    3.66507 
 C                    -0.39584   0.68234   4.55846 
 H                    -1.1474   -0.00724   4.1509 
 H                    -0.23765   0.45947   5.62244 
 H                    -0.80002   1.70139   4.48144 
 C                    -4.87      0.55273   1.10627 
 H                    -4.6647    0.39943   0.0383 
 H                    -5.05863  -0.43017   1.56048 
 H                    -5.78371   1.15519   1.20497 
 C                    -3.98379   1.39244   3.26848 
 H                    -4.78073   2.13855   3.40287 
 H                    -4.32805   0.44606   3.70637 
 H                    -3.10049   1.71871   3.82821 
 C                    -4.2074    3.27829   0.35636 
 H                    -4.9402    3.67924   1.07182 
 H                    -3.73412   4.12741  -0.1546 
 H                    -4.74439   2.69029  -0.39838 
 C                    -2.30258   3.3553    1.95885 
 H                    -1.83428   4.12893   1.33668 
 H                    -2.90358   3.85316   2.7322 
 H                    -1.49443   2.78211   2.43662 
 C                     4.44968   3.34179  -1.38482 
 H                     4.21998   3.7394   -2.38202 
 H                     4.94892   4.12585  -0.80094 
 H                     5.15056   2.50684  -1.51098 
 C                     3.54775   2.22145   0.65187 
 H                     4.33353   1.46488   0.51639 
 H                     3.93003   2.99065   1.33897 
 H                     2.67287   1.74298   1.11181 
 C                     1.11684   3.74013   0.57557 
 H                     0.26082   4.41384   0.43745 
 H                     0.72398   2.72516   0.70709 
 H                     1.64018   4.03273   1.4969 
 C                     2.4453    5.30912  -0.81157 
 H                     3.09429   5.61628   0.02067 
 H                     2.97887   5.4793   -1.75307 
 H                     1.55886   5.9554   -0.80408 
 H                     0.32927   1.05113  -0.44999 
 C                    -1.34356   0.38479  -2.86457 
 O                    -0.79902  -0.69287  -2.55929 
 C                    -2.85024   0.52546  -2.84956 
 H                    -3.11253   1.37291  -2.19536 
 H                    -3.19601   0.79622  -3.86179 
 C                     0.82801   1.39661  -3.28539 
 H                     1.10793   0.34058  -3.21031 
 H                     1.17006   1.75104  -4.2731 
 N                    -0.63374   1.46201  -3.26898 
 C                    -1.2454    2.77441  -3.39735 
 H                    -1.52571   3.1778   -2.41295 
 H                    -0.51767   3.45556  -3.84798 
 H                    -2.12933   2.74081  -4.04504 
 C                    -3.55538  -0.72741  -2.36738 
 H                    -3.21464  -1.60245  -2.94116 
 H                    -3.24321  -0.91965  -1.32793 
 C                    -5.06868  -0.60882  -2.43413 
 H                    -5.39268   0.32191  -1.93294 
 H                    -5.39551  -0.50327  -3.48346 
 C                    -5.78013  -1.79211  -1.79485 
 H                    -5.52755  -2.7109   -2.34893 
 H                    -5.38326  -1.93828  -0.7757 
 C                    -7.28626  -1.60592  -1.73322 
 H                    -7.70809  -1.44628  -2.73554 
 H                    -7.79349  -2.47329  -1.29254 
 H                    -7.54234  -0.72554  -1.12566 
 C                     5.1995   -1.69762  -1.15437 
 F                     6.03845  -2.17547  -0.22588 
 F                     5.67238  -2.09702  -2.34158 
 F                     5.2674   -0.3647   -1.11844 
 H                    -3.75227  -4.23531   0.79803 
 

 GradGradGradGradGradGradGradGradGradGradGradGradGradGradGradGradGradGrad
 Berny optimization.
 Initialization pass.
 Trust Radius=3.00D-01 FncErr=1.00D-07 GrdErr=1.00D-07 EigMax=2.50D+02 EigMin=1.00D-04
 Number of steps in this run=      2 maximum allowed number of steps=      2.
 GradGradGradGradGradGradGradGradGradGradGradGradGradGradGradGradGradGrad

 Stoichiometry    C37H60B3F3IrN3O7
 Framework group  C1[X(C37H60B3F3IrN3O7)]
 Deg. of freedom   336
 Full point group                 C1      NOp   1
 Largest Abelian subgroup         C1      NOp   1
 Largest concise Abelian subgroup C1      NOp   1
                         Standard orientation:                         
 ---------------------------------------------------------------------
 Center     Atomic      Atomic             Coordinates (Angstroms)
 Number     Number       Type             X           Y           Z
 ---------------------------------------------------------------------
      1          6           0        1.252759   -3.089710   -0.520620
      2          6           0        2.725459   -1.337350   -0.890450
      3          6           0        3.809879   -2.201161   -0.930410
      4          6           0        3.591158   -3.567091   -0.771540
      5          6           0        2.299108   -4.015930   -0.565430
      6          6           0       -0.141481   -3.473000   -0.224030
      7          6           0       -2.234161   -2.755279    0.467210
      8          6           0       -2.724892   -4.052829    0.492460
      9          6           0       -1.882592   -5.093189    0.119850
     10          6           0       -0.573512   -4.798629   -0.230600
     11          1           0        2.842029   -0.260190   -1.023260
     12          1           0        4.428138   -4.263371   -0.794570
     13          1           0        2.111998   -5.074760   -0.407630
     14          1           0       -2.837621   -1.900709    0.774630
     15          1           0       -2.235502   -6.122359    0.110000
     16          1           0        0.104808   -5.596610   -0.522500
     17          7           0        1.479469   -1.774690   -0.689130
     18          7           0       -0.982771   -2.462539    0.089910
     19         77           0       -0.272141   -0.420710   -0.177970
     20          8           0        0.685979   -1.325560    2.489100
     21          8           0       -2.574160    0.283371    1.665490
     22          8           0        1.211271    3.498190   -1.790190
     23          5           0       -1.795000    0.666181    0.555290
     24          5           0        0.340519   -0.223510    1.699020
     25          5           0        1.546580    2.223620   -2.145660
     26          8           0        2.684290    1.772750   -1.533670
     27          8           0        0.585220    0.958460    2.405380
     28          6           0        0.899310    0.610690    3.758850
     29          6           0        1.433959   -0.842430    3.608820
     30          6           0        2.014501    3.864060   -0.645940
     31          6           0        3.196610    2.826909   -0.693290
     32          6           0       -3.672130    1.191921    1.798210
     33          6           0       -3.145480    2.456591    1.061180
     34          8           0       -2.263380    1.899321    0.081790
     35          6           0        2.905949   -0.903361    3.214700
     36          1           0        3.111319   -0.259281    2.347720
     37          1           0        3.573049   -0.610541    4.037010
     38          1           0        3.144919   -1.935961    2.926530
     39          6           0        1.184259   -1.739880    4.804490
     40          1           0        0.113139   -1.851610    5.004730
     41          1           0        1.596869   -2.738730    4.611480
     42          1           0        1.672139   -1.340210    5.705530
     43          6           0        1.898690    1.613570    4.300360
     44          1           0        1.434160    2.608210    4.336550
     45          1           0        2.214190    1.347730    5.319830
     46          1           0        2.789590    1.683300    3.665070
     47          6           0       -0.395840    0.682340    4.558460
     48          1           0       -1.147400   -0.007239    4.150900
     49          1           0       -0.237650    0.459470    5.622440
     50          1           0       -0.800020    1.701391    4.481440
     51          6           0       -4.870000    0.552732    1.106270
     52          1           0       -4.664700    0.399432    0.038300
     53          1           0       -5.058631   -0.430168    1.560480
     54          1           0       -5.783710    1.155192    1.204970
     55          6           0       -3.983790    1.392442    3.268480
     56          1           0       -4.780730    2.138552    3.402870
     57          1           0       -4.328050    0.446062    3.706370
     58          1           0       -3.100490    1.718711    3.828210
     59          6           0       -4.207399    3.278292    0.356360
     60          1           0       -4.940199    3.679242    1.071820
     61          1           0       -3.734119    4.127411   -0.154600
     62          1           0       -4.744390    2.690292   -0.398380
     63          6           0       -2.302579    3.355301    1.958850
     64          1           0       -1.834279    4.128931    1.336680
     65          1           0       -2.903579    3.853161    2.732200
     66          1           0       -1.494430    2.782111    2.436620
     67          6           0        4.449681    3.341789   -1.384820
     68          1           0        4.219981    3.739399   -2.382020
     69          1           0        4.948921    4.125849   -0.800940
     70          1           0        5.150560    2.506839   -1.510980
     71          6           0        3.547750    2.221449    0.651870
     72          1           0        4.333530    1.464879    0.516390
     73          1           0        3.930030    2.990649    1.338970
     74          1           0        2.672870    1.742980    1.111810
     75          6           0        1.116841    3.740130    0.575570
     76          1           0        0.260821    4.413840    0.437450
     77          1           0        0.723980    2.725160    0.707090
     78          1           0        1.640181    4.032730    1.496900
     79          6           0        2.445301    5.309120   -0.811570
     80          1           0        3.094291    5.616279    0.020670
     81          1           0        2.978871    5.479299   -1.753070
     82          1           0        1.558861    5.955400   -0.804080
     83          1           0        0.329270    1.051130   -0.449990
     84          6           0       -1.343560    0.384791   -2.864570
     85          8           0       -0.799021   -0.692869   -2.559290
     86          6           0       -2.850240    0.525461   -2.849560
     87          1           0       -3.112530    1.372911   -2.195360
     88          1           0       -3.196010    0.796221   -3.861790
     89          6           0        0.828010    1.396610   -3.285390
     90          1           0        1.107930    0.340580   -3.210310
     91          1           0        1.170060    1.751040   -4.273100
     92          7           0       -0.633740    1.462011   -3.268980
     93          6           0       -1.245400    2.774411   -3.397350
     94          1           0       -1.525709    3.177801   -2.412950
     95          1           0       -0.517669    3.455561   -3.847980
     96          1           0       -2.129330    2.740811   -4.045040
     97          6           0       -3.555381   -0.727409   -2.367380
     98          1           0       -3.214641   -1.602449   -2.941160
     99          1           0       -3.243211   -0.919649   -1.327930
    100          6           0       -5.068681   -0.608818   -2.434130
    101          1           0       -5.392680    0.321912   -1.932940
    102          1           0       -5.395511   -0.503268   -3.483460
    103          6           0       -5.780131   -1.792108   -1.794850
    104          1           0       -5.527551   -2.710898   -2.348930
    105          1           0       -5.383261   -1.938278   -0.775700
    106          6           0       -7.286261   -1.605917   -1.733220
    107          1           0       -7.708091   -1.446277   -2.735540
    108          1           0       -7.793491   -2.473287   -1.292540
    109          1           0       -7.542341   -0.725537   -1.125660
    110          6           0        5.199499   -1.697621   -1.154370
    111          9           0        6.038449   -2.175471   -0.225880
    112          9           0        5.672379   -2.097021   -2.341580
    113          9           0        5.267399   -0.364701   -1.118440
    114          1           0       -3.752272   -4.235309    0.798030
 ---------------------------------------------------------------------
 Rotational constants (GHZ):           0.0630627           0.0453715           0.0414581
 General basis read from cards:  (5D, 7F)
 ======================================================================================================
                                       Pseudopotential Parameters
 ======================================================================================================
  Center     Atomic      Valence      Angular      Power
  Number     Number     Electrons     Momentum     of R      Exponent        Coefficient   SO-Coeffient
 ======================================================================================================
    1          6
                                   No pseudopotential on this center.
    2          6
                                   No pseudopotential on this center.
    3          6
                                   No pseudopotential on this center.
    4          6
                                   No pseudopotential on this center.
    5          6
                                   No pseudopotential on this center.
    6          6
                                   No pseudopotential on this center.
    7          6
                                   No pseudopotential on this center.
    8          6
                                   No pseudopotential on this center.
    9          6
                                   No pseudopotential on this center.
   10          6
                                   No pseudopotential on this center.
   11          1
                                   No pseudopotential on this center.
   12          1
                                   No pseudopotential on this center.
   13          1
                                   No pseudopotential on this center.
   14          1
                                   No pseudopotential on this center.
   15          1
                                   No pseudopotential on this center.
   16          1
                                   No pseudopotential on this center.
   17          7
                                   No pseudopotential on this center.
   18          7
                                   No pseudopotential on this center.
   19         77           17
                                      G and up 
                                                     1      823.5880147       -0.15780140    0.00000000
                                                     2      364.6613336    -1517.52704460    0.00000000
                                                     2       55.7082801     -316.53065290    0.00000000
                                                     2       12.0464544      -91.88809410    0.00000000
                                                     2        3.5120610       -9.22417730    0.00000000
                                      S - G
                                                     0      188.0490770        3.15780140    0.00000000
                                                     1      340.4194712       26.83225770    0.00000000
                                                     2      128.2373673      800.42500070    0.00000000
                                                     2       33.8644961      369.40506830    0.00000000
                                                     2        4.7560005      242.41718990    0.00000000
                                                     2        3.9649974     -118.21732820    0.00000000
                                      P - G
                                                     0      289.7291139        2.15780140    0.00000000
                                                     1       87.4633789       61.96786100    0.00000000
                                                     2       30.4363766      269.05819860    0.00000000
                                                     2        4.0553412      231.16547930    0.00000000
                                                     2        3.5525341     -133.69526670    0.00000000
                                      D - G
                                                     0      136.4017106        3.15780140    0.00000000
                                                     1       95.0776925       45.93498030    0.00000000
                                                     2       49.2258410      359.03446680    0.00000000
                                                     2       15.0874145      176.47401190    0.00000000
                                                     2        4.0405764       54.51552860    0.00000000
                                      F - G
                                                     0      127.3507908        3.95461970    0.00000000
                                                     1       66.2364374       52.97736550    0.00000000
                                                     2       34.4299229      274.86433830    0.00000000
                                                     2       10.1995721      137.20473380    0.00000000
                                                     2        2.5409702       14.86333050    0.00000000
   20          8
                                   No pseudopotential on this center.
   21          8
                                   No pseudopotential on this center.
   22          8
                                   No pseudopotential on this center.
   23          5
                                   No pseudopotential on this center.
   24          5
                                   No pseudopotential on this center.
   25          5
                                   No pseudopotential on this center.
   26          8
                                   No pseudopotential on this center.
   27          8
                                   No pseudopotential on this center.
   28          6
                                   No pseudopotential on this center.
   29          6
                                   No pseudopotential on this center.
   30          6
                                   No pseudopotential on this center.
   31          6
                                   No pseudopotential on this center.
   32          6
                                   No pseudopotential on this center.
   33          6
                                   No pseudopotential on this center.
   34          8
                                   No pseudopotential on this center.
   35          6
                                   No pseudopotential on this center.
   36          1
                                   No pseudopotential on this center.
   37          1
                                   No pseudopotential on this center.
   38          1
                                   No pseudopotential on this center.
   39          6
                                   No pseudopotential on this center.
   40          1
                                   No pseudopotential on this center.
   41          1
                                   No pseudopotential on this center.
   42          1
                                   No pseudopotential on this center.
   43          6
                                   No pseudopotential on this center.
   44          1
                                   No pseudopotential on this center.
   45          1
                                   No pseudopotential on this center.
   46          1
                                   No pseudopotential on this center.
   47          6
                                   No pseudopotential on this center.
   48          1
                                   No pseudopotential on this center.
   49          1
                                   No pseudopotential on this center.
   50          1
                                   No pseudopotential on this center.
   51          6
                                   No pseudopotential on this center.
   52          1
                                   No pseudopotential on this center.
   53          1
                                   No pseudopotential on this center.
   54          1
                                   No pseudopotential on this center.
   55          6
                                   No pseudopotential on this center.
   56          1
                                   No pseudopotential on this center.
   57          1
                                   No pseudopotential on this center.
   58          1
                                   No pseudopotential on this center.
   59          6
                                   No pseudopotential on this center.
   60          1
                                   No pseudopotential on this center.
   61          1
                                   No pseudopotential on this center.
   62          1
                                   No pseudopotential on this center.
   63          6
                                   No pseudopotential on this center.
   64          1
                                   No pseudopotential on this center.
   65          1
                                   No pseudopotential on this center.
   66          1
                                   No pseudopotential on this center.
   67          6
                                   No pseudopotential on this center.
   68          1
                                   No pseudopotential on this center.
   69          1
                                   No pseudopotential on this center.
   70          1
                                   No pseudopotential on this center.
   71          6
                                   No pseudopotential on this center.
   72          1
                                   No pseudopotential on this center.
   73          1
                                   No pseudopotential on this center.
   74          1
                                   No pseudopotential on this center.
   75          6
                                   No pseudopotential on this center.
   76          1
                                   No pseudopotential on this center.
   77          1
                                   No pseudopotential on this center.
   78          1
                                   No pseudopotential on this center.
   79          6
                                   No pseudopotential on this center.
   80          1
                                   No pseudopotential on this center.
   81          1
                                   No pseudopotential on this center.
   82          1
                                   No pseudopotential on this center.
   83          1
                                   No pseudopotential on this center.
   84          6
                                   No pseudopotential on this center.
   85          8
                                   No pseudopotential on this center.
   86          6
                                   No pseudopotential on this center.
   87          1
                                   No pseudopotential on this center.
   88          1
                                   No pseudopotential on this center.
   89          6
                                   No pseudopotential on this center.
   90          1
                                   No pseudopotential on this center.
   91          1
                                   No pseudopotential on this center.
   92          7
                                   No pseudopotential on this center.
   93          6
                                   No pseudopotential on this center.
   94          1
                                   No pseudopotential on this center.
   95          1
                                   No pseudopotential on this center.
   96          1
                                   No pseudopotential on this center.
   97          6
                                   No pseudopotential on this center.
   98          1
                                   No pseudopotential on this center.
   99          1
                                   No pseudopotential on this center.
  100          6
                                   No pseudopotential on this center.
  101          1
                                   No pseudopotential on this center.
  102          1
                                   No pseudopotential on this center.
  103          6
                                   No pseudopotential on this center.
  104          1
                                   No pseudopotential on this center.
  105          1
                                   No pseudopotential on this center.
  106          6
                                   No pseudopotential on this center.
  107          1
                                   No pseudopotential on this center.
  108          1
                                   No pseudopotential on this center.
  109          1
                                   No pseudopotential on this center.
  110          6
                                   No pseudopotential on this center.
  111          9
                                   No pseudopotential on this center.
  112          9
                                   No pseudopotential on this center.
  113          9
                                   No pseudopotential on this center.
  114          1
                                   No pseudopotential on this center.
 ======================================================================================================
 There are   939 symmetry adapted cartesian basis functions of A   symmetry.
 There are   884 symmetry adapted basis functions of A   symmetry.
   884 basis functions,  1767 primitive gaussians,   939 cartesian basis functions
   209 alpha electrons      209 beta electrons
       nuclear repulsion energy      9330.4613674392 Hartrees.
 NAtoms=  114 NActive=  114 NUniq=  114 SFac= 1.00D+00 NAtFMM=   60 NAOKFM=T Big=T
 Integral buffers will be    131072 words long.
 Raffenetti 2 integral format.
 Two-electron integral symmetry is turned on.
 One-electron integrals computed using PRISM.
   1 Symmetry operations used in ECPInt.
 ECPInt:  NShTT=   57970 NPrTT=  353525 LenC2=   43941 LenP2D=  134202.
 LDataN:  DoStor=T MaxTD1= 6 Len=  172
 NBasis=   884 RedAO= T EigKep=  4.93D-04  NBF=   884
 NBsUse=   884 1.00D-06 EigRej= -1.00D+00 NBFU=   884
 Defaulting to unpruned grid for atomic number  77.
 ExpMin= 2.90D-02 ExpMax= 7.00D+03 ExpMxC= 1.05D+03 IAcc=3 IRadAn=         5 AccDes= 0.00D+00
 Harris functional with IExCor= 1009 and IRadAn=       5 diagonalized for initial guess.
 HarFok:  IExCor= 1009 AccDes= 0.00D+00 IRadAn=         5 IDoV= 1 UseB2=F ITyADJ=14
 ICtDFT=  3500011 ScaDFX=  1.000000  1.000000  1.000000  1.000000
 Defaulting to unpruned grid for atomic number  77.
 FoFCou: FMM=F IPFlag=           0 FMFlag=      100000 FMFlg1=        2001
         NFxFlg=           0 DoJE=T BraDBF=F KetDBF=T FulRan=T
         wScrn=  0.000000 ICntrl=       500 IOpCl=  0 I1Cent=   200000004 NGrid=           0
         NMat0=    1 NMatS0=      1 NMatT0=    0 NMatD0=    1 NMtDS0=    0 NMtDT0=    0
 Petite list used in FoFCou.
 Requested convergence on RMS density matrix=1.00D-08 within 128 cycles.
 Requested convergence on MAX density matrix=1.00D-06.
 Requested convergence on             energy=1.00D-06.
 No special actions if energy rises.
 Defaulting to unpruned grid for atomic number  77.
 Defaulting to unpruned grid for atomic number  77.
 Defaulting to unpruned grid for atomic number  77.
 Defaulting to unpruned grid for atomic number  77.
 Defaulting to unpruned grid for atomic number  77.
 Defaulting to unpruned grid for atomic number  77.
 Defaulting to unpruned grid for atomic number  77.
 Defaulting to unpruned grid for atomic number  77.
 Defaulting to unpruned grid for atomic number  77.
 Defaulting to unpruned grid for atomic number  77.
 Defaulting to unpruned grid for atomic number  77.
 Defaulting to unpruned grid for atomic number  77.
 Defaulting to unpruned grid for atomic number  77.
 Defaulting to unpruned grid for atomic number  77.
 Defaulting to unpruned grid for atomic number  77.
 Defaulting to unpruned grid for atomic number  77.
 SCF Done:  E(RM06) =  -2614.48928995     A.U. after   16 cycles
            NFock= 16  Conv=0.56D-08     -V/T= 2.0344
 DoSCS=F DFT=T ScalE2(SS,OS)=  1.000000  1.000000
 Range of M.O.s used for correlation:     1   884
 NBasis=   884 NAE=   209 NBE=   209 NFC=     0 NFV=     0
 NROrb=    884 NOA=   209 NOB=   209 NVA=   675 NVB=   675
   1 Symmetry operations used in ECPInt.
 ECPInt:  NShTT=   57970 NPrTT=  353525 LenC2=   43941 LenP2D=  134202.
 LDataN:  DoStor=T MaxTD1= 7 Len=  274
 Number of processors reduced to   7 by ecpmxn.
 Symmetrizing basis deriv contribution to polar:
 IMax=3 JMax=2 DiffMx= 0.00D+00
 G2DrvN: will do   115 centers at a time, making    1 passes.
 Calling FoFCou, ICntrl=  3107 FMM=T I1Cent=   0 AccDes= 0.00D+00.
 Defaulting to unpruned grid for atomic number  77.
 Defaulting to unpruned grid for atomic number  77.
 Defaulting to unpruned grid for atomic number  77.
 Defaulting to unpruned grid for atomic number  77.
 Defaulting to unpruned grid for atomic number  77.
 Defaulting to unpruned grid for atomic number  77.
 Defaulting to unpruned grid for atomic number  77.
 Defaulting to unpruned grid for atomic number  77.
 Defaulting to unpruned grid for atomic number  77.
 Defaulting to unpruned grid for atomic number  77.
 Defaulting to unpruned grid for atomic number  77.
 Defaulting to unpruned grid for atomic number  77.
 Defaulting to unpruned grid for atomic number  77.
 Defaulting to unpruned grid for atomic number  77.
 Defaulting to unpruned grid for atomic number  77.
 Defaulting to unpruned grid for atomic number  77.
 End of G2Drv F.D. properties file   721 does not exist.
 End of G2Drv F.D. properties file   722 does not exist.
 End of G2Drv F.D. properties file   788 does not exist.
          IDoAtm=11111111111111111111111111111111111111111111111111
          IDoAtm=11111111111111111111111111111111111111111111111111
          IDoAtm=11111111111111
          Differentiating once with respect to electric field.
                with respect to dipole field.
          Differentiating once with respect to nuclear coordinates.
 Defaulting to unpruned grid for atomic number  77.
 CalDSu exits because no D1Ps are significant.
 Defaulting to unpruned grid for atomic number  77.
 Defaulting to unpruned grid for atomic number  77.
 Defaulting to unpruned grid for atomic number  77.
 Defaulting to unpruned grid for atomic number  77.
 Defaulting to unpruned grid for atomic number  77.
 Defaulting to unpruned grid for atomic number  77.
 Defaulting to unpruned grid for atomic number  77.
 Defaulting to unpruned grid for atomic number  77.
 Defaulting to unpruned grid for atomic number  77.
 Defaulting to unpruned grid for atomic number  77.
 Defaulting to unpruned grid for atomic number  77.
 Defaulting to unpruned grid for atomic number  77.
 Defaulting to unpruned grid for atomic number  77.
 Defaulting to unpruned grid for atomic number  77.
 Defaulting to unpruned grid for atomic number  77.
 Defaulting to unpruned grid for atomic number  77.
          There are   345 degrees of freedom in the 1st order CPHF.  IDoFFX=6 NUNeed=     3.
    342 vectors produced by pass  0 Test12= 1.41D-13 1.00D-09 XBig12= 5.35D+02 1.05D+01.
 AX will form    72 AO Fock derivatives at one time.
    342 vectors produced by pass  1 Test12= 1.41D-13 1.00D-09 XBig12= 7.60D+01 9.56D-01.
    342 vectors produced by pass  2 Test12= 1.41D-13 1.00D-09 XBig12= 9.54D-01 1.15D-01.
    342 vectors produced by pass  3 Test12= 1.41D-13 1.00D-09 XBig12= 6.21D-03 8.32D-03.
    342 vectors produced by pass  4 Test12= 1.41D-13 1.00D-09 XBig12= 2.32D-05 3.90D-04.
    299 vectors produced by pass  5 Test12= 1.41D-13 1.00D-09 XBig12= 5.06D-08 1.49D-05.
     78 vectors produced by pass  6 Test12= 1.41D-13 1.00D-09 XBig12= 7.52D-11 4.89D-07.
      3 vectors produced by pass  7 Test12= 1.41D-13 1.00D-09 XBig12= 1.05D-13 2.12D-08.
 InvSVY:  IOpt=1 It=  1 EMax= 8.94D-15
 Solved reduced A of dimension  2090 with   345 vectors.
 Isotropic polarizability for W=    0.000000      510.33 Bohr**3.
 End of Minotr F.D. properties file   721 does not exist.
 End of Minotr F.D. properties file   722 does not exist.
 End of Minotr F.D. properties file   788 does not exist.
 Hyperfine terms turned off by default for NAtoms > 100.

 **********************************************************************

            Population analysis using the SCF Density.

 **********************************************************************

 Orbital symmetries:
       Occupied  (A) (A) (A) (A) (A) (A) (A) (A) (A) (A) (A) (A)
                 (A) (A) (A) (A) (A) (A) (A) (A) (A) (A) (A) (A)
                 (A) (A) (A) (A) (A) (A) (A) (A) (A) (A) (A) (A)
                 (A) (A) (A) (A) (A) (A) (A) (A) (A) (A) (A) (A)
                 (A) (A) (A) (A) (A) (A) (A) (A) (A) (A) (A) (A)
                 (A) (A) (A) (A) (A) (A) (A) (A) (A) (A) (A) (A)
                 (A) (A) (A) (A) (A) (A) (A) (A) (A) (A) (A) (A)
                 (A) (A) (A) (A) (A) (A) (A) (A) (A) (A) (A) (A)
                 (A) (A) (A) (A) (A) (A) (A) (A) (A) (A) (A) (A)
                 (A) (A) (A) (A) (A) (A) (A) (A) (A) (A) (A) (A)
                 (A) (A) (A) (A) (A) (A) (A) (A) (A) (A) (A) (A)
                 (A) (A) (A) (A) (A) (A) (A) (A) (A) (A) (A) (A)
                 (A) (A) (A) (A) (A) (A) (A) (A) (A) (A) (A) (A)
                 (A) (A) (A) (A) (A) (A) (A) (A) (A) (A) (A) (A)
                 (A) (A) (A) (A) (A) (A) (A) (A) (A) (A) (A) (A)
                 (A) (A) (A) (A) (A) (A) (A) (A) (A) (A) (A) (A)
                 (A) (A) (A) (A) (A) (A) (A) (A) (A) (A) (A) (A)
                 (A) (A) (A) (A) (A)
       Virtual   (A) (A) (A) (A) (A) (A) (A) (A) (A) (A) (A) (A)
                 (A) (A) (A) (A) (A) (A) (A) (A) (A) (A) (A) (A)
                 (A) (A) (A) (A) (A) (A) (A) (A) (A) (A) (A) (A)
                 (A) (A) (A) (A) (A) (A) (A) (A) (A) (A) (A) (A)
                 (A) (A) (A) (A) (A) (A) (A) (A) (A) (A) (A) (A)
                 (A) (A) (A) (A) (A) (A) (A) (A) (A) (A) (A) (A)
                 (A) (A) (A) (A) (A) (A) (A) (A) (A) (A) (A) (A)
                 (A) (A) (A) (A) (A) (A) (A) (A) (A) (A) (A) (A)
                 (A) (A) (A) (A) (A) (A) (A) (A) (A) (A) (A) (A)
                 (A) (A) (A) (A) (A) (A) (A) (A) (A) (A) (A) (A)
                 (A) (A) (A) (A) (A) (A) (A) (A) (A) (A) (A) (A)
                 (A) (A) (A) (A) (A) (A) (A) (A) (A) (A) (A) (A)
                 (A) (A) (A) (A) (A) (A) (A) (A) (A) (A) (A) (A)
                 (A) (A) (A) (A) (A) (A) (A) (A) (A) (A) (A) (A)
                 (A) (A) (A) (A) (A) (A) (A) (A) (A) (A) (A) (A)
                 (A) (A) (A) (A) (A) (A) (A) (A) (A) (A) (A) (A)
                 (A) (A) (A) (A) (A) (A) (A) (A) (A) (A) (A) (A)
                 (A) (A) (A) (A) (A) (A) (A) (A) (A) (A) (A) (A)
                 (A) (A) (A) (A) (A) (A) (A) (A) (A) (A) (A) (A)
                 (A) (A) (A) (A) (A) (A) (A) (A) (A) (A) (A) (A)
                 (A) (A) (A) (A) (A) (A) (A) (A) (A) (A) (A) (A)
                 (A) (A) (A) (A) (A) (A) (A) (A) (A) (A) (A) (A)
                 (A) (A) (A) (A) (A) (A) (A) (A) (A) (A) (A) (A)
                 (A) (A) (A) (A) (A) (A) (A) (A) (A) (A) (A) (A)
                 (A) (A) (A) (A) (A) (A) (A) (A) (A) (A) (A) (A)
                 (A) (A) (A) (A) (A) (A) (A) (A) (A) (A) (A) (A)
                 (A) (A) (A) (A) (A) (A) (A) (A) (A) (A) (A) (A)
                 (A) (A) (A) (A) (A) (A) (A) (A) (A) (A) (A) (A)
                 (A) (A) (A) (A) (A) (A) (A) (A) (A) (A) (A) (A)
                 (A) (A) (A) (A) (A) (A) (A) (A) (A) (A) (A) (A)
                 (A) (A) (A) (A) (A) (A) (A) (A) (A) (A) (A) (A)
                 (A) (A) (A) (A) (A) (A) (A) (A) (A) (A) (A) (A)
                 (A) (A) (A) (A) (A) (A) (A) (A) (A) (A) (A) (A)
                 (A) (A) (A) (A) (A) (A) (A) (A) (A) (A) (A) (A)
                 (A) (A) (A) (A) (A) (A) (A) (A) (A) (A) (A) (A)
                 (A) (A) (A) (A) (A) (A) (A) (A) (A) (A) (A) (A)
                 (A) (A) (A) (A) (A) (A) (A) (A) (A) (A) (A) (A)
                 (A) (A) (A) (A) (A) (A) (A) (A) (A) (A) (A) (A)
                 (A) (A) (A) (A) (A) (A) (A) (A) (A) (A) (A) (A)
                 (A) (A) (A) (A) (A) (A) (A) (A) (A) (A) (A) (A)
                 (A) (A) (A) (A) (A) (A) (A) (A) (A) (A) (A) (A)
                 (A) (A) (A) (A) (A) (A) (A) (A) (A) (A) (A) (A)
                 (A) (A) (A) (A) (A) (A) (A) (A) (A) (A) (A) (A)
                 (A) (A) (A) (A) (A) (A) (A) (A) (A) (A) (A) (A)
                 (A) (A) (A) (A) (A) (A) (A) (A) (A) (A) (A) (A)
                 (A) (A) (A) (A) (A) (A) (A) (A) (A) (A) (A) (A)
                 (A) (A) (A) (A) (A) (A) (A) (A) (A) (A) (A) (A)
                 (A) (A) (A) (A) (A) (A) (A) (A) (A) (A) (A) (A)
                 (A) (A) (A) (A) (A) (A) (A) (A) (A) (A) (A) (A)
                 (A) (A) (A) (A) (A) (A) (A) (A) (A) (A) (A) (A)
                 (A) (A) (A) (A) (A) (A) (A) (A) (A) (A) (A) (A)
                 (A) (A) (A) (A) (A) (A) (A) (A) (A) (A) (A) (A)
                 (A) (A) (A) (A) (A) (A) (A) (A) (A) (A) (A) (A)
                 (A) (A) (A) (A) (A) (A) (A) (A) (A) (A) (A) (A)
                 (A) (A) (A) (A) (A) (A) (A) (A) (A) (A) (A) (A)
                 (A) (A) (A) (A) (A) (A) (A) (A) (A) (A) (A) (A)
                 (A) (A) (A)
 The electronic state is 1-A.
 Alpha  occ. eigenvalues --  -24.82827 -24.82297 -24.82131 -19.21835 -19.21611
 Alpha  occ. eigenvalues --  -19.19394 -19.19314 -19.19234 -19.19083 -19.18718
 Alpha  occ. eigenvalues --  -14.44534 -14.44072 -14.42095 -10.50909 -10.34104
 Alpha  occ. eigenvalues --  -10.32049 -10.31395 -10.30173 -10.30167 -10.29905
 Alpha  occ. eigenvalues --  -10.29592 -10.29356 -10.28699 -10.28697 -10.28686
 Alpha  occ. eigenvalues --  -10.28639 -10.28532 -10.28380 -10.28302 -10.27860
 Alpha  occ. eigenvalues --  -10.27276 -10.26325 -10.24449 -10.23795 -10.23639
 Alpha  occ. eigenvalues --  -10.23377 -10.22940 -10.22899 -10.22891 -10.22843
 Alpha  occ. eigenvalues --  -10.22515 -10.22456 -10.22378 -10.22369 -10.22329
 Alpha  occ. eigenvalues --  -10.22298 -10.22141 -10.21691 -10.21422 -10.20909
 Alpha  occ. eigenvalues --   -6.81336  -6.78362  -6.77631  -3.59744  -2.02350
 Alpha  occ. eigenvalues --   -2.01556  -2.01140  -1.35292  -1.26802  -1.26272
 Alpha  occ. eigenvalues --   -1.07524  -1.05260  -1.04992  -1.04159  -1.00983
 Alpha  occ. eigenvalues --   -0.99620  -0.98338  -0.98104  -0.97112  -0.93627
 Alpha  occ. eigenvalues --   -0.85636  -0.83477  -0.82786  -0.81201  -0.80847
 Alpha  occ. eigenvalues --   -0.79775  -0.79680  -0.78514  -0.76932  -0.75094
 Alpha  occ. eigenvalues --   -0.74296  -0.74270  -0.73243  -0.71996  -0.70522
 Alpha  occ. eigenvalues --   -0.70400  -0.70023  -0.69822  -0.68208  -0.68051
 Alpha  occ. eigenvalues --   -0.67369  -0.67206  -0.67137  -0.67111  -0.64857
 Alpha  occ. eigenvalues --   -0.63760  -0.61890  -0.61286  -0.61160  -0.61072
 Alpha  occ. eigenvalues --   -0.60724  -0.60488  -0.59786  -0.57869  -0.56594
 Alpha  occ. eigenvalues --   -0.55727  -0.54573  -0.53847  -0.53716  -0.53233
 Alpha  occ. eigenvalues --   -0.52804  -0.52640  -0.52385  -0.51853  -0.49811
 Alpha  occ. eigenvalues --   -0.49759  -0.49094  -0.48795  -0.48697  -0.48212
 Alpha  occ. eigenvalues --   -0.48014  -0.47601  -0.47170  -0.46840  -0.46493
 Alpha  occ. eigenvalues --   -0.46269  -0.46127  -0.45783  -0.45652  -0.45561
 Alpha  occ. eigenvalues --   -0.45030  -0.44688  -0.44638  -0.44432  -0.44136
 Alpha  occ. eigenvalues --   -0.43986  -0.43822  -0.43641  -0.43460  -0.43053
 Alpha  occ. eigenvalues --   -0.42932  -0.42816  -0.42707  -0.42607  -0.41922
 Alpha  occ. eigenvalues --   -0.40897  -0.40646  -0.40404  -0.40307  -0.40135
 Alpha  occ. eigenvalues --   -0.39956  -0.39784  -0.39660  -0.39642  -0.39628
 Alpha  occ. eigenvalues --   -0.39495  -0.39358  -0.39302  -0.39102  -0.39002
 Alpha  occ. eigenvalues --   -0.38828  -0.38601  -0.38277  -0.37990  -0.37436
 Alpha  occ. eigenvalues --   -0.37231  -0.37005  -0.36884  -0.36541  -0.36316
 Alpha  occ. eigenvalues --   -0.36159  -0.35997  -0.35738  -0.35631  -0.35497
 Alpha  occ. eigenvalues --   -0.35231  -0.34915  -0.34728  -0.34482  -0.34177
 Alpha  occ. eigenvalues --   -0.34079  -0.33601  -0.33384  -0.33367  -0.33169
 Alpha  occ. eigenvalues --   -0.32910  -0.32466  -0.32272  -0.32166  -0.31568
 Alpha  occ. eigenvalues --   -0.31307  -0.30982  -0.30679  -0.30528  -0.30479
 Alpha  occ. eigenvalues --   -0.29622  -0.29380  -0.27744  -0.27451  -0.26698
 Alpha  occ. eigenvalues --   -0.26463  -0.26000  -0.25387  -0.24919  -0.24164
 Alpha  occ. eigenvalues --   -0.23335  -0.19881  -0.19086  -0.18964
 Alpha virt. eigenvalues --   -0.07119  -0.03629  -0.02734   0.01232   0.03456
 Alpha virt. eigenvalues --    0.04699   0.04931   0.05496   0.06752   0.07249
 Alpha virt. eigenvalues --    0.07909   0.08492   0.09335   0.09467   0.10168
 Alpha virt. eigenvalues --    0.10500   0.10688   0.10737   0.11480   0.11696
 Alpha virt. eigenvalues --    0.11947   0.12226   0.12523   0.12811   0.13026
 Alpha virt. eigenvalues --    0.13129   0.13296   0.13692   0.13924   0.14288
 Alpha virt. eigenvalues --    0.14366   0.14752   0.15053   0.15342   0.15429
 Alpha virt. eigenvalues --    0.15638   0.15790   0.16101   0.16177   0.16344
 Alpha virt. eigenvalues --    0.16578   0.16855   0.16966   0.17143   0.17357
 Alpha virt. eigenvalues --    0.17498   0.17712   0.17743   0.17970   0.18320
 Alpha virt. eigenvalues --    0.18564   0.18720   0.18900   0.19057   0.19134
 Alpha virt. eigenvalues --    0.19365   0.19499   0.19738   0.19885   0.20104
 Alpha virt. eigenvalues --    0.20134   0.20319   0.20596   0.20672   0.20891
 Alpha virt. eigenvalues --    0.21034   0.21319   0.21462   0.21675   0.21895
 Alpha virt. eigenvalues --    0.22216   0.22526   0.22649   0.22682   0.23236
 Alpha virt. eigenvalues --    0.23362   0.23454   0.23634   0.24183   0.24465
 Alpha virt. eigenvalues --    0.24590   0.24913   0.25122   0.25366   0.25517
 Alpha virt. eigenvalues --    0.25630   0.25754   0.26298   0.26427   0.26767
 Alpha virt. eigenvalues --    0.27214   0.27306   0.27595   0.27785   0.28170
 Alpha virt. eigenvalues --    0.28256   0.28334   0.28521   0.28700   0.29462
 Alpha virt. eigenvalues --    0.29606   0.29723   0.30051   0.30644   0.31008
 Alpha virt. eigenvalues --    0.31268   0.31451   0.32149   0.32460   0.33046
 Alpha virt. eigenvalues --    0.33977   0.34306   0.34982   0.35159   0.35700
 Alpha virt. eigenvalues --    0.36857   0.37277   0.37634   0.38487   0.38810
 Alpha virt. eigenvalues --    0.39159   0.40177   0.40614   0.41473   0.42222
 Alpha virt. eigenvalues --    0.43135   0.43540   0.45439   0.46628   0.47220
 Alpha virt. eigenvalues --    0.47799   0.48436   0.49219   0.49534   0.49854
 Alpha virt. eigenvalues --    0.50149   0.50533   0.50849   0.51600   0.51762
 Alpha virt. eigenvalues --    0.51883   0.51982   0.52440   0.52781   0.53361
 Alpha virt. eigenvalues --    0.53787   0.53927   0.54492   0.54980   0.55036
 Alpha virt. eigenvalues --    0.55447   0.55842   0.56320   0.56826   0.56997
 Alpha virt. eigenvalues --    0.57080   0.57188   0.57602   0.57904   0.58175
 Alpha virt. eigenvalues --    0.58267   0.58464   0.58724   0.59103   0.59309
 Alpha virt. eigenvalues --    0.59551   0.59691   0.59921   0.60027   0.60202
 Alpha virt. eigenvalues --    0.60655   0.61003   0.61330   0.61677   0.61730
 Alpha virt. eigenvalues --    0.62124   0.62332   0.62555   0.63151   0.63458
 Alpha virt. eigenvalues --    0.63623   0.63755   0.64451   0.64579   0.65258
 Alpha virt. eigenvalues --    0.65411   0.65734   0.66071   0.66270   0.66753
 Alpha virt. eigenvalues --    0.66985   0.67263   0.67463   0.67894   0.68419
 Alpha virt. eigenvalues --    0.68791   0.69163   0.69242   0.69824   0.70262
 Alpha virt. eigenvalues --    0.70449   0.70666   0.70987   0.71528   0.71709
 Alpha virt. eigenvalues --    0.72198   0.72361   0.72400   0.72683   0.72981
 Alpha virt. eigenvalues --    0.73406   0.73774   0.73974   0.74358   0.74743
 Alpha virt. eigenvalues --    0.74822   0.74992   0.75417   0.75691   0.75937
 Alpha virt. eigenvalues --    0.77286   0.77417   0.77935   0.78361   0.78580
 Alpha virt. eigenvalues --    0.78701   0.79196   0.79315   0.79481   0.79770
 Alpha virt. eigenvalues --    0.80678   0.81083   0.81334   0.81905   0.82332
 Alpha virt. eigenvalues --    0.82538   0.82928   0.83077   0.83811   0.83917
 Alpha virt. eigenvalues --    0.84292   0.84473   0.84584   0.84896   0.85053
 Alpha virt. eigenvalues --    0.85168   0.85396   0.85702   0.85913   0.86011
 Alpha virt. eigenvalues --    0.86434   0.86563   0.86927   0.87077   0.87624
 Alpha virt. eigenvalues --    0.87688   0.87869   0.88154   0.88359   0.88548
 Alpha virt. eigenvalues --    0.88692   0.89103   0.89560   0.89755   0.89942
 Alpha virt. eigenvalues --    0.90128   0.90259   0.90552   0.90823   0.91157
 Alpha virt. eigenvalues --    0.91628   0.91880   0.91974   0.92412   0.92720
 Alpha virt. eigenvalues --    0.92944   0.93352   0.93465   0.93652   0.94245
 Alpha virt. eigenvalues --    0.94368   0.94836   0.95239   0.95486   0.95725
 Alpha virt. eigenvalues --    0.95945   0.96162   0.96302   0.96468   0.96702
 Alpha virt. eigenvalues --    0.96846   0.97248   0.97624   0.98233   0.98559
 Alpha virt. eigenvalues --    0.98752   0.99084   0.99540   0.99857   1.00139
 Alpha virt. eigenvalues --    1.00459   1.01204   1.01532   1.01901   1.02215
 Alpha virt. eigenvalues --    1.02988   1.03516   1.03712   1.04054   1.04361
 Alpha virt. eigenvalues --    1.05076   1.05532   1.06087   1.06246   1.06820
 Alpha virt. eigenvalues --    1.07098   1.07398   1.08106   1.08760   1.08994
 Alpha virt. eigenvalues --    1.09542   1.10204   1.10735   1.12781   1.12848
 Alpha virt. eigenvalues --    1.12920   1.13932   1.14802   1.15363   1.15608
 Alpha virt. eigenvalues --    1.16429   1.16747   1.17455   1.17762   1.18014
 Alpha virt. eigenvalues --    1.18277   1.19200   1.19436   1.19537   1.20373
 Alpha virt. eigenvalues --    1.20959   1.21405   1.21726   1.22287   1.23063
 Alpha virt. eigenvalues --    1.23431   1.24031   1.24866   1.25411   1.27049
 Alpha virt. eigenvalues --    1.27481   1.27722   1.28369   1.28611   1.29035
 Alpha virt. eigenvalues --    1.29142   1.29720   1.30248   1.30564   1.31655
 Alpha virt. eigenvalues --    1.32236   1.32984   1.34138   1.34444   1.34767
 Alpha virt. eigenvalues --    1.34968   1.35711   1.35994   1.36096   1.37196
 Alpha virt. eigenvalues --    1.37497   1.37957   1.38492   1.39109   1.39361
 Alpha virt. eigenvalues --    1.39643   1.40488   1.40796   1.41061   1.41875
 Alpha virt. eigenvalues --    1.42264   1.43040   1.43288   1.44044   1.44342
 Alpha virt. eigenvalues --    1.44807   1.45471   1.45906   1.46324   1.46581
 Alpha virt. eigenvalues --    1.47142   1.47483   1.47681   1.47845   1.48953
 Alpha virt. eigenvalues --    1.49154   1.50462   1.50662   1.51325   1.51859
 Alpha virt. eigenvalues --    1.52181   1.52967   1.53766   1.54364   1.54863
 Alpha virt. eigenvalues --    1.55291   1.55798   1.56579   1.57144   1.58697
 Alpha virt. eigenvalues --    1.59810   1.60266   1.61665   1.63027   1.63940
 Alpha virt. eigenvalues --    1.64205   1.65015   1.65144   1.65582   1.66004
 Alpha virt. eigenvalues --    1.66442   1.67058   1.67314   1.68160   1.68744
 Alpha virt. eigenvalues --    1.69022   1.69535   1.69734   1.70472   1.71486
 Alpha virt. eigenvalues --    1.71752   1.72082   1.72977   1.74324   1.74655
 Alpha virt. eigenvalues --    1.75861   1.76090   1.76346   1.76977   1.77605
 Alpha virt. eigenvalues --    1.77840   1.78536   1.78700   1.79648   1.79984
 Alpha virt. eigenvalues --    1.80807   1.81196   1.81347   1.82098   1.82565
 Alpha virt. eigenvalues --    1.83290   1.83493   1.83919   1.84297   1.84850
 Alpha virt. eigenvalues --    1.85295   1.85553   1.85769   1.85839   1.86142
 Alpha virt. eigenvalues --    1.86793   1.87301   1.87580   1.88133   1.88268
 Alpha virt. eigenvalues --    1.88756   1.89262   1.89790   1.89929   1.90493
 Alpha virt. eigenvalues --    1.90992   1.91456   1.91662   1.92116   1.92262
 Alpha virt. eigenvalues --    1.92703   1.92916   1.92955   1.93321   1.93567
 Alpha virt. eigenvalues --    1.93626   1.93847   1.94132   1.94465   1.95071
 Alpha virt. eigenvalues --    1.95439   1.95712   1.96557   1.96989   1.97194
 Alpha virt. eigenvalues --    1.97643   1.97921   1.98400   1.99691   2.00002
 Alpha virt. eigenvalues --    2.00352   2.01050   2.01315   2.02381   2.02618
 Alpha virt. eigenvalues --    2.02696   2.02977   2.03340   2.03668   2.03800
 Alpha virt. eigenvalues --    2.04397   2.04982   2.05218   2.05731   2.06602
 Alpha virt. eigenvalues --    2.07003   2.07099   2.07428   2.07683   2.07843
 Alpha virt. eigenvalues --    2.08058   2.08249   2.08507   2.09211   2.09717
 Alpha virt. eigenvalues --    2.09988   2.10410   2.11075   2.11624   2.12074
 Alpha virt. eigenvalues --    2.12682   2.12907   2.13175   2.13583   2.13837
 Alpha virt. eigenvalues --    2.14376   2.14579   2.14886   2.15347   2.15580
 Alpha virt. eigenvalues --    2.16180   2.16525   2.16780   2.17357   2.17862
 Alpha virt. eigenvalues --    2.18391   2.18720   2.19056   2.19235   2.19629
 Alpha virt. eigenvalues --    2.19958   2.20186   2.20540   2.20700   2.20907
 Alpha virt. eigenvalues --    2.21473   2.21850   2.22071   2.22616   2.22915
 Alpha virt. eigenvalues --    2.23025   2.23543   2.24221   2.24556   2.25163
 Alpha virt. eigenvalues --    2.25413   2.25820   2.26143   2.26291   2.26522
 Alpha virt. eigenvalues --    2.27031   2.27563   2.27921   2.28382   2.28834
 Alpha virt. eigenvalues --    2.29084   2.30735   2.30881   2.31541   2.31749
 Alpha virt. eigenvalues --    2.32350   2.32697   2.33064   2.33433   2.34151
 Alpha virt. eigenvalues --    2.34926   2.35163   2.35920   2.36770   2.37765
 Alpha virt. eigenvalues --    2.38611   2.39141   2.39546   2.40173   2.40366
 Alpha virt. eigenvalues --    2.40783   2.41486   2.44238   2.44477   2.45025
 Alpha virt. eigenvalues --    2.45730   2.46574   2.47395   2.47929   2.48706
 Alpha virt. eigenvalues --    2.49175   2.49439   2.50073   2.50380   2.51184
 Alpha virt. eigenvalues --    2.51768   2.52104   2.53857   2.54856   2.56704
 Alpha virt. eigenvalues --    2.58530   2.59538   2.60484   2.60887   2.61368
 Alpha virt. eigenvalues --    2.61495   2.62740   2.63196   2.65177   2.65266
 Alpha virt. eigenvalues --    2.65756   2.66078   2.66354   2.66926   2.67936
 Alpha virt. eigenvalues --    2.68686   2.70481   2.70868   2.72681   2.74940
 Alpha virt. eigenvalues --    2.77073   2.77310   2.78226   2.78797   2.78882
 Alpha virt. eigenvalues --    2.79313   2.79798   2.80328   2.80448   2.81076
 Alpha virt. eigenvalues --    2.81619   2.82266   2.82794   2.83462   2.83815
 Alpha virt. eigenvalues --    2.84174   2.84935   2.88245   2.90371   2.91076
 Alpha virt. eigenvalues --    2.91304   2.92686   2.93344   2.94703   2.95661
 Alpha virt. eigenvalues --    2.96644   2.97580   2.99546   2.99783   3.02432
 Alpha virt. eigenvalues --    3.04520   3.05745   3.05969   3.06723   3.09307
 Alpha virt. eigenvalues --    3.12062   3.12361   3.13069   3.13557   3.14179
 Alpha virt. eigenvalues --    3.21058   3.25493   3.31665   3.45305  12.05942
          Condensed to atoms (all electrons):
 Mulliken charges:
               1
     1  C    0.308616
     2  C    0.019648
     3  C   -0.076355
     4  C   -0.162810
     5  C   -0.189680
     6  C    0.321912
     7  C    0.072225
     8  C   -0.166892
     9  C   -0.142614
    10  C   -0.180757
    11  H    0.237977
    12  H    0.196342
    13  H    0.174852
    14  H    0.200616
    15  H    0.179348
    16  H    0.168147
    17  N   -0.481947
    18  N   -0.533387
    19  Ir  -0.079376
    20  O   -0.513228
    21  O   -0.538392
    22  O   -0.508728
    23  B    0.418486
    24  B    0.460959
    25  B    0.704451
    26  O   -0.504257
    27  O   -0.537603
    28  C    0.293763
    29  C    0.302435
    30  C    0.274533
    31  C    0.284782
    32  C    0.303897
    33  C    0.293821
    34  O   -0.522876
    35  C   -0.500554
    36  H    0.162272
    37  H    0.149541
    38  H    0.166379
    39  C   -0.512698
    40  H    0.174720
    41  H    0.164727
    42  H    0.147027
    43  C   -0.506779
    44  H    0.165466
    45  H    0.149056
    46  H    0.163476
    47  C   -0.504285
    48  H    0.187768
    49  H    0.146097
    50  H    0.154142
    51  C   -0.496338
    52  H    0.147147
    53  H    0.156165
    54  H    0.151141
    55  C   -0.505100
    56  H    0.146813
    57  H    0.163030
    58  H    0.166901
    59  C   -0.508261
    60  H    0.150128
    61  H    0.165997
    62  H    0.156895
    63  C   -0.497795
    64  H    0.158876
    65  H    0.142484
    66  H    0.177157
    67  C   -0.500498
    68  H    0.162143
    69  H    0.155348
    70  H    0.172142
    71  C   -0.515128
    72  H    0.158890
    73  H    0.149207
    74  H    0.196765
    75  C   -0.498502
    76  H    0.153091
    77  H    0.238613
    78  H    0.138811
    79  C   -0.504917
    80  H    0.153020
    81  H    0.162858
    82  H    0.172086
    83  H    0.010290
    84  C    0.651368
    85  O   -0.516402
    86  C   -0.405516
    87  H    0.191428
    88  H    0.164449
    89  C   -0.383817
    90  H    0.211224
    91  H    0.162935
    92  N   -0.383067
    93  C   -0.364003
    94  H    0.210000
    95  H    0.181841
    96  H    0.166923
    97  C   -0.268754
    98  H    0.172780
    99  H    0.147126
   100  C   -0.276209
   101  H    0.132541
   102  H    0.140020
   103  C   -0.274737
   104  H    0.148705
   105  H    0.135521
   106  C   -0.494332
   107  H    0.159562
   108  H    0.161493
   109  H    0.157348
   110  C    0.963521
   111  F   -0.316474
   112  F   -0.311463
   113  F   -0.306236
   114  H    0.178502
 Sum of Mulliken charges =  -0.00000
 Mulliken charges with hydrogens summed into heavy atoms:
               1
     1  C    0.308616
     2  C    0.257625
     3  C   -0.076355
     4  C    0.033532
     5  C   -0.014828
     6  C    0.321912
     7  C    0.272841
     8  C    0.011610
     9  C    0.036734
    10  C   -0.012609
    17  N   -0.481947
    18  N   -0.533387
    19  Ir  -0.069087
    20  O   -0.513228
    21  O   -0.538392
    22  O   -0.508728
    23  B    0.418486
    24  B    0.460959
    25  B    0.704451
    26  O   -0.504257
    27  O   -0.537603
    28  C    0.293763
    29  C    0.302435
    30  C    0.274533
    31  C    0.284782
    32  C    0.303897
    33  C    0.293821
    34  O   -0.522876
    35  C   -0.022363
    39  C   -0.026224
    43  C   -0.028780
    47  C   -0.016279
    51  C   -0.041884
    55  C   -0.028356
    59  C   -0.035241
    63  C   -0.019278
    67  C   -0.010865
    71  C   -0.010266
    75  C    0.032013
    79  C   -0.016953
    84  C    0.651368
    85  O   -0.516402
    86  C   -0.049639
    89  C   -0.009659
    92  N   -0.383067
    93  C    0.194761
    97  C    0.051153
   100  C   -0.003647
   103  C    0.009488
   106  C   -0.015929
   110  C    0.963521
   111  F   -0.316474
   112  F   -0.311463
   113  F   -0.306236
 APT charges:
               1
     1  C    0.248769
     2  C    0.053264
     3  C   -0.202348
     4  C    0.090623
     5  C   -0.187231
     6  C    0.096266
     7  C    0.013689
     8  C   -0.009401
     9  C    0.049206
    10  C   -0.133370
    11  H    0.163010
    12  H    0.053327
    13  H    0.042119
    14  H    0.093833
    15  H    0.025727
    16  H    0.037620
    17  N   -0.171590
    18  N   -0.012521
    19  Ir  -0.460348
    20  O   -0.916297
    21  O   -0.963747
    22  O   -0.873866
    23  B    1.209472
    24  B    1.266954
    25  B    1.142481
    26  O   -0.926474
    27  O   -0.983805
    28  C    0.474147
    29  C    0.466521
    30  C    0.470047
    31  C    0.480887
    32  C    0.499775
    33  C    0.463670
    34  O   -0.978489
    35  C   -0.024104
    36  H   -0.002329
    37  H   -0.019559
    38  H   -0.009452
    39  C   -0.007678
    40  H    0.003670
    41  H   -0.007463
    42  H   -0.015776
    43  C   -0.002807
    44  H    0.001544
    45  H   -0.020378
    46  H   -0.000951
    47  C   -0.033214
    48  H    0.019951
    49  H   -0.029896
    50  H   -0.005019
    51  C   -0.034377
    52  H    0.000229
    53  H   -0.000473
    54  H   -0.023810
    55  C   -0.013259
    56  H   -0.022158
    57  H   -0.001069
    58  H    0.006702
    59  C    0.007322
    60  H   -0.020575
    61  H   -0.002320
    62  H   -0.009819
    63  C   -0.032228
    64  H   -0.001558
    65  H   -0.028146
    66  H    0.018634
    67  C   -0.025900
    68  H   -0.008042
    69  H   -0.013141
    70  H    0.011295
    71  C   -0.039698
    72  H    0.009927
    73  H   -0.009097
    74  H    0.030674
    75  C   -0.055242
    76  H   -0.003561
    77  H    0.069024
    78  H   -0.018656
    79  C   -0.006645
    80  H   -0.006074
    81  H   -0.009487
    82  H    0.001482
    83  H   -0.158195
    84  C    1.106956
    85  O   -0.906694
    86  C   -0.026174
    87  H    0.029637
    88  H   -0.029911
    89  C    0.003625
    90  H    0.058350
    91  H   -0.038253
    92  N   -0.717998
    93  C    0.291930
    94  H    0.002396
    95  H    0.017872
    96  H   -0.022261
    97  C    0.082424
    98  H   -0.019094
    99  H   -0.022631
   100  C    0.100105
   101  H   -0.042162
   102  H   -0.065069
   103  C    0.114631
   104  H   -0.046353
   105  H   -0.056030
   106  C    0.071456
   107  H   -0.026842
   108  H   -0.033265
   109  H   -0.019989
   110  C    1.836608
   111  F   -0.596669
   112  F   -0.625704
   113  F   -0.540645
   114  H    0.039533
 Sum of APT charges =  -0.00000
 APT charges with hydrogens summed into heavy atoms:
               1
     1  C    0.248769
     2  C    0.216274
     3  C   -0.202348
     4  C    0.143950
     5  C   -0.145112
     6  C    0.096266
     7  C    0.107522
     8  C    0.030132
     9  C    0.074933
    10  C   -0.095749
    17  N   -0.171590
    18  N   -0.012521
    19  Ir  -0.618542
    20  O   -0.916297
    21  O   -0.963747
    22  O   -0.873866
    23  B    1.209472
    24  B    1.266954
    25  B    1.142481
    26  O   -0.926474
    27  O   -0.983805
    28  C    0.474147
    29  C    0.466521
    30  C    0.470047
    31  C    0.480887
    32  C    0.499775
    33  C    0.463670
    34  O   -0.978489
    35  C   -0.055444
    39  C   -0.027247
    43  C   -0.022592
    47  C   -0.048177
    51  C   -0.058431
    55  C   -0.029784
    59  C   -0.025392
    63  C   -0.043298
    67  C   -0.035787
    71  C   -0.008194
    75  C   -0.008436
    79  C   -0.020724
    84  C    1.106956
    85  O   -0.906694
    86  C   -0.026447
    89  C    0.023722
    92  N   -0.717998
    93  C    0.289936
    97  C    0.040698
   100  C   -0.007127
   103  C    0.012247
   106  C   -0.008638
   110  C    1.836608
   111  F   -0.596669
   112  F   -0.625704
   113  F   -0.540645
 Electronic spatial extent (au):  <R**2>=          31504.1871
 Charge=             -0.0000 electrons
 Dipole moment (field-independent basis, Debye):
    X=             -1.1522    Y=             -3.1441    Z=              0.0958  Tot=              3.3499
 Quadrupole moment (field-independent basis, Debye-Ang):
   XX=           -328.2555   YY=           -297.6956   ZZ=           -332.5081
   XY=              2.7857   XZ=              3.8540   YZ=             -1.8228
 Traceless Quadrupole moment (field-independent basis, Debye-Ang):
   XX=             -8.7691   YY=             21.7908   ZZ=            -13.0217
   XY=              2.7857   XZ=              3.8540   YZ=             -1.8228
 Octapole moment (field-independent basis, Debye-Ang**2):
  XXX=             -6.9184  YYY=           -224.5907  ZZZ=            -43.7669  XYY=             37.3355
  XXY=            -20.0846  XXZ=              7.4040  XZZ=             17.6372  YZZ=             24.7315
  YYZ=            -27.5139  XYZ=              7.4788
 Hexadecapole moment (field-independent basis, Debye-Ang**3):
 XXXX=         -19805.7451 YYYY=         -11130.5780 ZZZZ=          -9395.1909 XXXY=            -14.9862
 XXXZ=           -119.6080 YYYX=            -95.0963 YYYZ=             68.5115 ZZZX=            -14.6056
 ZZZY=            -99.3080 XXYY=          -4916.1836 XXZZ=          -4804.4680 YYZZ=          -3695.0726
 XXYZ=            -13.7554 YYXZ=           -113.6838 ZZXY=            -60.2620
 N-N= 9.330461367439D+03 E-N=-2.474123230496D+04  KE= 2.527450579448D+03
  Exact polarizability:     571.118       3.960     543.216     -12.760      -1.407     416.649
 Approx polarizability:     792.313      -5.597     806.424     -34.863      -7.896     600.136
   1 Symmetry operations used in ECPInt.
 ECPInt:  NShTT=   57970 NPrTT=  353525 LenC2=   43941 LenP2D=  134202.
 LDataN:  DoStor=T MaxTD1= 8 Len=  415
 Calling FoFJK, ICntrl=    100127 FMM=F ISym2X=0 I1Cent= 0 IOpClX= 0 NMat=1 NMatS=1 NMatT=0.
 Defaulting to unpruned grid for atomic number  77.
 Defaulting to unpruned grid for atomic number  77.
 Defaulting to unpruned grid for atomic number  77.
 Defaulting to unpruned grid for atomic number  77.
 Defaulting to unpruned grid for atomic number  77.
 Defaulting to unpruned grid for atomic number  77.
 Defaulting to unpruned grid for atomic number  77.
 Defaulting to unpruned grid for atomic number  77.
 Defaulting to unpruned grid for atomic number  77.
 Defaulting to unpruned grid for atomic number  77.
 Defaulting to unpruned grid for atomic number  77.
 Defaulting to unpruned grid for atomic number  77.
 Defaulting to unpruned grid for atomic number  77.
 Defaulting to unpruned grid for atomic number  77.
 Defaulting to unpruned grid for atomic number  77.
 Defaulting to unpruned grid for atomic number  77.
 Full mass-weighted force constant matrix:
 Low frequencies ---   -7.9308   -2.3213   -0.0006   -0.0006   -0.0004    4.3248
 Low frequencies ---   13.1295   22.2815   25.7233
 Diagonal vibrational polarizability:
       85.5904913      51.4744935     184.7364187
 Harmonic frequencies (cm**-1), IR intensities (KM/Mole), Raman scattering
 activities (A**4/AMU), depolarization ratios for plane and unpolarized
 incident light, reduced masses (AMU), force constants (mDyne/A),
 and normal coordinates:
                      1                      2                      3
                      A                      A                      A
 Frequencies --     12.8696                22.2124                25.6764
 Red. masses --      9.1304                 4.6671                 6.4708
 Frc consts  --      0.0009                 0.0014                 0.0025
 IR Inten    --      0.1734                 0.3555                 0.3886
  Atom AN      X      Y      Z        X      Y      Z        X      Y      Z
     1   6    -0.00  -0.00  -0.04     0.04  -0.01   0.06    -0.02  -0.01  -0.03
     2   6     0.01   0.00   0.02     0.01  -0.00   0.00     0.00  -0.01   0.04
     3   6     0.01   0.00   0.06     0.03   0.02   0.03    -0.00  -0.02   0.04
     4   6     0.01   0.00   0.05     0.05   0.02   0.08    -0.02  -0.03   0.01
     5   6     0.00  -0.00  -0.00     0.06   0.00   0.09    -0.03  -0.02  -0.02
     6   6    -0.01  -0.01  -0.07     0.04  -0.03   0.05    -0.03   0.00  -0.07
     7   6    -0.01  -0.02  -0.07     0.01  -0.05  -0.02    -0.03   0.00  -0.05
     8   6    -0.02  -0.02  -0.12     0.04  -0.06   0.02    -0.05   0.01  -0.15
     9   6    -0.02  -0.01  -0.15     0.07  -0.05   0.09    -0.07   0.02  -0.21
    10   6    -0.01  -0.00  -0.12     0.07  -0.04   0.10    -0.06   0.01  -0.17
    11   1     0.01   0.00   0.02    -0.01  -0.00  -0.02     0.02  -0.01   0.07
    12   1     0.01   0.01   0.09     0.06   0.03   0.10    -0.03  -0.04   0.02
    13   1    -0.00  -0.00  -0.01     0.08   0.01   0.13    -0.05  -0.02  -0.05
    14   1    -0.01  -0.03  -0.05    -0.01  -0.05  -0.07    -0.01  -0.00  -0.00
    15   1    -0.02  -0.01  -0.19     0.10  -0.06   0.12    -0.10   0.03  -0.28
    16   1    -0.01   0.00  -0.15     0.10  -0.04   0.15    -0.07   0.02  -0.21
    17   7    -0.00  -0.00  -0.03     0.02  -0.01   0.01    -0.00  -0.00   0.01
    18   7    -0.01  -0.01  -0.05     0.02  -0.03  -0.00    -0.01  -0.00  -0.01
    19  77    -0.00  -0.01  -0.02    -0.00  -0.03  -0.01     0.00   0.00   0.02
    20   8     0.09  -0.01  -0.05     0.03  -0.01  -0.01     0.12   0.04  -0.01
    21   8     0.01  -0.03   0.01    -0.01  -0.03  -0.02    -0.01  -0.01   0.01
    22   8    -0.03  -0.01  -0.03    -0.01  -0.02  -0.01     0.01  -0.02  -0.03
    23   5     0.00  -0.02   0.01    -0.01  -0.03  -0.01     0.00  -0.00   0.02
    24   5     0.04  -0.01  -0.03     0.00  -0.02  -0.01     0.03   0.02   0.00
    25   5    -0.03  -0.01  -0.03     0.01  -0.02  -0.00     0.00  -0.03  -0.00
    26   8    -0.02  -0.00  -0.03     0.01  -0.01   0.01    -0.01  -0.02   0.02
    27   8     0.02  -0.01  -0.03    -0.02  -0.02  -0.01    -0.04   0.03   0.01
    28   6     0.04  -0.01  -0.03    -0.02  -0.01  -0.01    -0.01   0.05   0.01
    29   6     0.08   0.00  -0.05     0.01   0.00  -0.01     0.09   0.08  -0.01
    30   6    -0.02   0.00  -0.04    -0.02  -0.01  -0.01    -0.00  -0.00  -0.03
    31   6    -0.02   0.01  -0.04    -0.01   0.00   0.01    -0.01  -0.01   0.00
    32   6     0.02  -0.02   0.04    -0.00  -0.02  -0.01    -0.00  -0.01   0.01
    33   6     0.01  -0.02   0.04     0.00  -0.02  -0.01     0.00  -0.00   0.02
    34   8     0.00  -0.01   0.02    -0.00  -0.03  -0.01     0.01   0.00   0.02
    35   6     0.08   0.05  -0.05     0.01   0.03   0.01     0.09   0.18   0.01
    36   1     0.06   0.05  -0.05     0.01   0.04   0.01     0.06   0.21   0.02
    37   1     0.07   0.06  -0.05    -0.00   0.05   0.01     0.06   0.22   0.02
    38   1     0.11   0.05  -0.05     0.04   0.04   0.02     0.16   0.20  -0.01
    39   6     0.10  -0.01  -0.06     0.02  -0.00  -0.01     0.14   0.06  -0.01
    40   1     0.11  -0.04  -0.05     0.02  -0.02  -0.02     0.14  -0.02  -0.02
    41   1     0.12  -0.00  -0.07     0.04   0.01  -0.01     0.20   0.08  -0.02
    42   1     0.10  -0.01  -0.05     0.00   0.01  -0.00     0.11   0.08  -0.01
    43   6     0.02   0.01  -0.04    -0.05   0.01  -0.01    -0.08   0.11   0.01
    44   1    -0.00   0.00  -0.04    -0.07   0.00  -0.01    -0.14   0.08   0.01
    45   1     0.04   0.02  -0.05    -0.04   0.02  -0.01    -0.06   0.13   0.01
    46   1     0.01   0.04  -0.05    -0.04   0.03  -0.00    -0.08   0.17   0.01
    47   6     0.05  -0.05  -0.02    -0.02  -0.03  -0.01    -0.01  -0.04   0.01
    48   1     0.06  -0.06  -0.02    -0.01  -0.05  -0.02     0.02  -0.08   0.00
    49   1     0.07  -0.05  -0.02    -0.02  -0.03  -0.01     0.00  -0.05   0.00
    50   1     0.03  -0.05  -0.00    -0.04  -0.04  -0.01    -0.07  -0.06   0.02
    51   6     0.01  -0.01   0.05    -0.01  -0.01   0.00    -0.00   0.00   0.00
    52   1    -0.02  -0.00   0.05    -0.03  -0.01   0.00    -0.00   0.00   0.00
    53   1     0.01  -0.01   0.05    -0.02  -0.01   0.00    -0.01   0.00  -0.00
    54   1     0.01  -0.00   0.08    -0.01  -0.00   0.02    -0.00   0.00   0.00
    55   6     0.05  -0.03   0.04     0.01  -0.03  -0.00    -0.01  -0.01   0.01
    56   1     0.05  -0.03   0.07     0.02  -0.02   0.00    -0.01  -0.01   0.01
    57   1     0.06  -0.03   0.04     0.01  -0.02  -0.00    -0.01  -0.01   0.00
    58   1     0.06  -0.04   0.03     0.02  -0.03  -0.01    -0.01  -0.02   0.01
    59   6     0.01  -0.01   0.06     0.00  -0.02  -0.00     0.00  -0.00   0.01
    60   1     0.02  -0.01   0.07     0.01  -0.01  -0.00     0.00  -0.00   0.01
    61   1     0.00  -0.01   0.05     0.01  -0.02  -0.01     0.01   0.00   0.02
    62   1    -0.01  -0.00   0.06    -0.00  -0.02   0.00     0.01   0.00   0.01
    63   6     0.03  -0.02   0.03     0.01  -0.03  -0.01    -0.01  -0.00   0.02
    64   1     0.02  -0.02   0.03     0.00  -0.02  -0.01    -0.00   0.00   0.03
    65   1     0.04  -0.03   0.05     0.01  -0.03  -0.00    -0.01  -0.01   0.02
    66   1     0.04  -0.02   0.01     0.01  -0.03  -0.02    -0.01  -0.00   0.03
    67   6    -0.03   0.01  -0.06    -0.01   0.01   0.01     0.00  -0.03   0.00
    68   1    -0.04  -0.00  -0.06    -0.00   0.00   0.01     0.01  -0.05  -0.01
    69   1    -0.03   0.01  -0.07    -0.02   0.02   0.02     0.00  -0.02  -0.01
    70   1    -0.03   0.01  -0.06     0.00   0.02   0.03    -0.00  -0.04   0.02
    71   6    -0.00   0.02  -0.04    -0.02   0.01   0.01    -0.02   0.02   0.02
    72   1     0.00   0.03  -0.04    -0.01   0.02   0.02    -0.02   0.01   0.05
    73   1    -0.00   0.03  -0.05    -0.03   0.02   0.01    -0.02   0.03   0.01
    74   1     0.01   0.02  -0.03    -0.02   0.01   0.01    -0.03   0.03   0.02
    75   6    -0.02   0.00  -0.03    -0.03  -0.01  -0.02    -0.02   0.02  -0.04
    76   1    -0.02  -0.01  -0.03    -0.03  -0.02  -0.03    -0.02   0.02  -0.06
    77   1    -0.01  -0.00  -0.02    -0.02  -0.01  -0.02    -0.02   0.02  -0.02
    78   1    -0.01   0.01  -0.04    -0.04   0.00  -0.01    -0.03   0.04  -0.03
    79   6    -0.03   0.00  -0.05    -0.03  -0.00  -0.01     0.01  -0.01  -0.04
    80   1    -0.03   0.01  -0.05    -0.04   0.01  -0.01     0.00   0.00  -0.04
    81   1    -0.04   0.00  -0.05    -0.02  -0.00  -0.01     0.02  -0.03  -0.04
    82   1    -0.03  -0.00  -0.04    -0.04  -0.01  -0.02     0.01  -0.00  -0.06
    83   1    -0.01  -0.00  -0.02    -0.01  -0.02  -0.01    -0.01   0.00   0.00
    84   6    -0.05   0.01  -0.00    -0.01   0.00  -0.01     0.00  -0.03   0.01
    85   8    -0.06   0.00  -0.01    -0.03  -0.01  -0.00    -0.00  -0.03   0.02
    86   6    -0.05   0.03   0.01    -0.00   0.04  -0.02     0.00  -0.02   0.01
    87   1    -0.03   0.03   0.02     0.02   0.05  -0.02     0.00  -0.02   0.00
    88   1    -0.05   0.03   0.02     0.01   0.04  -0.02     0.00  -0.03   0.01
    89   6    -0.04  -0.01  -0.02     0.02  -0.03   0.00     0.01  -0.04   0.01
    90   1    -0.05  -0.02  -0.01     0.00  -0.03   0.02     0.00  -0.04   0.02
    91   1    -0.04  -0.02  -0.02     0.03  -0.06  -0.00     0.01  -0.05   0.00
    92   7    -0.04   0.00  -0.01     0.02  -0.01  -0.01     0.01  -0.03   0.00
    93   6    -0.03   0.01  -0.01     0.03  -0.01  -0.04     0.01  -0.03  -0.00
    94   1    -0.03   0.01  -0.01     0.01   0.00  -0.05     0.01  -0.03  -0.01
    95   1    -0.02  -0.00  -0.01     0.06  -0.02  -0.02     0.01  -0.04  -0.00
    96   1    -0.03   0.01  -0.01     0.05  -0.00  -0.07     0.01  -0.03  -0.01
    97   6    -0.06   0.04   0.02    -0.04   0.06  -0.01    -0.00  -0.02   0.02
    98   1    -0.08   0.03   0.02    -0.08   0.05  -0.01     0.00  -0.02   0.03
    99   1    -0.04   0.04   0.02    -0.05   0.05  -0.01    -0.01  -0.00   0.02
   100   6    -0.06   0.06   0.05    -0.04   0.14  -0.01    -0.00  -0.02   0.01
   101   1    -0.03   0.08   0.04     0.01   0.17  -0.04    -0.01  -0.02   0.00
   102   1    -0.07   0.06   0.05    -0.03   0.12  -0.01     0.00  -0.03   0.01
   103   6    -0.07   0.09   0.08    -0.11   0.20   0.04     0.00  -0.02   0.02
   104   1    -0.08   0.07   0.10    -0.13   0.16   0.10     0.01  -0.02   0.02
   105   1    -0.07   0.11   0.08    -0.14   0.25   0.06     0.01  -0.01   0.02
   106   6    -0.07   0.10   0.08    -0.10   0.27  -0.02     0.00  -0.03   0.02
   107   1    -0.07   0.08   0.07    -0.07   0.22  -0.04     0.00  -0.03   0.02
   108   1    -0.07   0.12   0.10    -0.15   0.33   0.03     0.01  -0.03   0.03
   109   1    -0.05   0.12   0.05    -0.08   0.33  -0.08     0.00  -0.02   0.02
   110   6     0.03   0.00   0.17     0.01   0.04  -0.01    -0.00  -0.03   0.04
   111   9    -0.08   0.14   0.34     0.06   0.01  -0.07     0.04  -0.19  -0.08
   112   9     0.19  -0.14   0.28    -0.04   0.10  -0.05    -0.08   0.14  -0.05
   113   9    -0.00   0.01   0.01    -0.00   0.04   0.05     0.03  -0.03   0.24
   114   1    -0.02  -0.02  -0.14     0.04  -0.07   0.00    -0.06   0.01  -0.17
                      4                      5                      6
[...]
 0015699,-0.00005292,0.00012964,0.00005757,-0.00003215,-0.00000173,0.00
 006848,0.00008796,0.00016842,-0.00008233,0.00008304,-0.00000366,-0.000
 15808,0.00007298,-0.00019303,0.00005717,-0.00013121,-0.00020369,-0.000
 20508,0.00019639,0.00019484,0.00009560,-0.00001829,0.00006730,-0.00002
 135,0.00004503,-0.00002372,-0.00018805,-0.00001303,-0.00005442,-0.0000
 8769,0.00004234,-0.00002470,-0.00002720,-0.00007606,-0.00040104,-0.000
 03478,0.00001922,-0.00000436,-0.00001565,0.00000139,-0.00000141,0.0000
 4915,-0.00005531,0.00002083,0.00010489,-0.00003553,0.00002950,-0.00009
 948,0.00009320,0.00004569,0.00000440,0.00000529,0.00000594,-0.00002922
 ,-0.00005925,0.00002787,0.00005784,-0.00000033,0.00000429,0.00002094,0
 .00000997,-0.00001923,-0.00000990,-0.00001149,0.00000629,-0.00000592,-
 0.00000275,0.00000503,-0.00001757,-0.00000699,0.00002113,0.00001443,-0
 .00001227,-0.00000577,0.00000095,0.00000607,0.00000291,0.00001048,0.00
 001997,-0.00000735,0.00001182,-0.00001737,0.00001260,0.00000086,0.0000
 0817,-0.00000284,-0.00000199,0.00000251,-0.00000042,0.00000876,-0.0000
 1434,-0.00000527,0.00000601,0.00000092,-0.00000096,-0.00000247,0.00000
 028,0.00000087,-0.00000217,0.00000018,0.00000015,0.00000542,-0.0000026
 0,0.00000022,0.00000119,-0.00000438,-0.00000206,0.00000482,-0.00000362
 ,-0.00000002,-0.00000313,0.00000074,0.00000006,-0.00000194,0.00000580,
 0.00000273,0.00000027,0.00000017,-0.00000012,0.00000186,-0.00000110,-0
 .00000041,-0.00000217,-0.00000359,0.00000024,0.00000446,0.00000286,0.0
 0000240,0.00000063,0.00000473,-0.00000339,-0.00000263,-0.00000050,0.00
 000177,0.00000183,-0.00000078,-0.00000252,-0.00000116,0.00000044,0.000
 00250,0.00004307,0.00001272,0.00003903,0.00000408,-0.00004697,0.000048
 79,-0.00001288,0.00004245,0.00001139,0.00021291,0.00052173,-0.00022840
 ,-0.00034006,0.00013957,0.00020478,0.00103995,-0.00135284,-0.00102346,
 0.00007119,-0.00009465,0.00001364,-0.00001927,0.00000253,0.00003712,0.
 00000400,-0.00000956,0.00000233,0.00000882,-0.00001351,0.00001244,-0.0
 0001755,0.00000017,-0.00001083,0.00000070,0.00002018,0.00002331,0.0000
 1170,0.00000328,-0.00000115,0.00000395,0.00001056,0.00000120,-0.000006
 96,-0.00000744,0.00001425,-0.00000056,-0.00000842,0.00000039,-0.000013
 03,-0.00003184,0.00001554,0.00001784,0.00017211,-0.00010415,0.00001438
 ,-0.00005779,0.00017342,-0.00000483,-0.00000798,-0.00000852,-0.0000045
 6,0.00000204,-0.00000604,0.00000168,-0.00000324,0.00000749,0.00003762,
 -0.00002686,0.00002087,0.00005539,0.00002812,-0.00003305,0.00001662,-0
 .00003118,0.00004166,-0.00008310,-0.00003406,0.00007137,-0.00000959,-0
 .00001817,-0.00001835,-0.00000663,0.00000432,0.00000174,-0.00000155,-0
 .00000726,-0.00000375,-0.00000056,0.00000745,0.00000106,-0.00000260,0.
 00000261,-0.00001525,0.00000051,0.00000348,0.00000004,-0.00000609,-0.0
 0000461,0.00000940,0.00000043,-0.00000517,0.00000210,-0.00000230,0.000
 00277,-0.00000055,0.00000486,-0.00000075,0.00000664,-0.00000396,-0.000
 00004,-0.00000998,-0.00000056,0.00000173,-0.00000062,0.00000198,-0.000
 00117,0.00000817,-0.00000098,-0.00000195,0.00000089,0.00000249,-0.0000
 0094,0.00000329,-0.00000078,0.00000014,-0.00000104,-0.00000077,0.00000
 131,-0.00000019,0.00066812,-0.00110610,-0.07531470,-0.00868887,0.04132
 695,-0.00064244,0.00512646,-0.05570960,-0.01341616,-0.00053347,0.01022
 215,0.08116235,-0.00008406,0.00001326,-0.00041488,-0.00001724,0.000000
 34,0.00001429,-0.00002035,-0.00003788,0.00000130,0.00002678,0.00002185
 ,-0.00001799,-0.00008093,-0.00000208,0.00001945,0.00082278,0.00003582,
 -0.00037441,-0.00634588,0.00218104,0.00231420,-0.30921799,-0.04692061,
 0.08178712,-0.01207312,-0.00593547,0.00400976,0.00044440,0.00303656,0.
 00251332,0.00000139,0.00000976,-0.00000133,-0.00000686,0.00000017,-0.0
 0000403,0.00004114,-0.00002215,0.00003205,-0.00014326,0.00009958,-0.00
 097777,0.00038031,0.00008755,-0.00128878,-0.00057131,-0.00037595,0.000
 16165,-0.00000610,-0.00002940,0.00001914,0.00143739,-0.00203671,0.0020
 5368,-0.00017836,0.00022852,-0.00029986,-0.00003822,0.00003319,-0.0001
 5260,0.00018846,-0.00004868,-0.00014107,-0.00001510,-0.00004689,-0.000
 00194,-0.00025143,0.00013421,0.00016170,0.00007945,0.00003793,0.000271
 63,0.00004181,0.00006720,-0.00005409,-0.00004350,-0.00004124,0.0000046
 9,-0.00002844,-0.00003807,-0.00013966,-0.00000077,-0.00001556,0.000060
 60,0.00002158,0.00000720,0.00006662,0.00001570,0.00001433,0.00001166,0
 .00002154,0.00002739,0.00001823,-0.00008217,0.00000398,0.00000602,-0.0
 0002954,0.00000776,0.00004741,0.00012441,-0.00008123,-0.00005723,-0.00
 000479,-0.00000096,-0.00001172,0.00000685,0.00000664,-0.00000388,-0.00
 000567,-0.00000236,-0.00000431,0.00000185,-0.00000289,0.00000451,-0.00
 001701,0.00000229,-0.00000197,0.00000872,-0.00000914,-0.00000666,-0.00
 000622,0.00000279,0.00000285,0.00000343,0.00000367,-0.00000672,0.00000
 384,-0.00000009,-0.00000960,-0.00000079,-0.00000215,0.00000191,-0.0000
 0420,-0.00000105,-0.00000582,0.00000513,0.00000161,0.00000117,-0.00000
 343,-0.00000429,-0.00001440,-0.00000187,-0.00000430,0.00000901,0.00000
 060,-0.00000077,-0.00001020,0.00000240,0.00000164,0.00000169,-0.000000
 37,-0.00001425,-0.00000294,-0.00000360,-0.00000924,0.00000004,0.000021
 76,-0.00004505,-0.00000910,0.00000642,0.00001007,0.00000265,0.00000448
 ,-0.00001981,0.00001000,0.00000425,0.00000248,-0.00000830,0.00000943,0
 .00000634,-0.00001092,-0.00000084,0.00000175,0.00000353,0.00000383,-0.
 00000388,-0.00000899,0.00000611,-0.00000578,-0.00000119,0.00000047,0.0
 0000326,0.00000078,-0.00000038,0.00000007,0.00000416,0.00000711,0.0000
 0116,-0.00000949,-0.00000054,0.00000527,-0.00000047,0.00000299,-0.0000
 0685,-0.00000560,-0.00000267,0.00000131,0.00000606,-0.00000327,-0.0000
 0231,-0.00000237,0.00000119,0.00000007,0.00000082,-0.00000270,-0.00000
 324,-0.00000138,0.00000134,0.00000155,0.00000017,-0.00000239,0.0000002
 7,-0.00000528,0.00000175,0.00000140,0.00000183,-0.00000242,-0.00000495
 ,-0.00000144,0.00000243,0.00000132,0.00000538,-0.00000002,0.00000444,-
 0.00001257,0.00000114,-0.00000452,0.00000234,-0.00000026,0.00000626,0.
 00001252,-0.00000484,-0.00000650,-0.00000245,-0.00000077,-0.00000062,0
 .00000115,-0.00000166,-0.00000082,-0.00000164,-0.00000125,-0.00000045,
 0.00000183,0.00000190,-0.00000086,0.00000025,0.00003296,-0.00017695,0.
 00009980,-0.00008875,0.00008333,-0.00006498,0.00007528,-0.00004183,0.0
 0008424,0.00000045,-0.00000643,-0.00000600,0.00000125,0.00000451,-0.00
 000345,0.00000895,0.00000629,-0.00000029,-0.00000359,-0.00000482,0.000
 00585,0.00000214,-0.00000220,-0.00000872,0.00000361,-0.00000094,0.0000
 0942,0.00000903,-0.00003323,0.00003570,-0.00001177,0.00001919,-0.00001
 060,-0.00000032,-0.00000227,-0.00000421,-0.00000063,-0.00000148,0.0000
 0017,0.00000516,-0.00000200,0.00000433,0.00000729,-0.00000833,-0.00000
 813,-0.00001086,-0.00000092,0.00000925,-0.00003977,-0.00003639,0.00001
 603,0.00002062,-0.00001104,0.00006363,0.00000142,0.00000519,-0.0000016
 8,-0.00000214,-0.00001003,-0.00000263,-0.00004944,-0.00003753,-0.00020
 379,0.00003069,-0.00000127,0.00005892,0.00029611,0.00000041,0.00016936
 ,0.00000878,0.00002090,0.00002656,0.00000003,-0.00000451,-0.00000151,-
 0.00000399,-0.00000215,-0.00000427,-0.00000606,0.00000108,0.00000167,0
 .00009782,0.00002313,0.00000120,-0.00003274,0.00000022,-0.00001192,-0.
 00003162,-0.00000079,0.00001963,-0.00002252,-0.00001843,0.00000005,0.3
 2525262,-0.00005015,0.00016634,0.00018201,0.00004546,0.00003010,-0.000
 01368,-0.00001417,0.00002679,-0.00000524,-0.00005219,0.00002874,0.0000
 0308,0.00002513,-0.00007713,0.00001445,0.00086626,-0.00203073,-0.00040
 853,-0.02800174,0.00230372,0.00902288,-0.04628178,-0.06613392,0.011054
 97,0.02319001,0.00910609,-0.00660196,0.00259825,-0.00328772,-0.0019717
 8,0.00000331,-0.00000328,0.00000244,-0.00000396,-0.00000090,0.00000243
 ,-0.00003050,0.00003979,-0.00001665,0.00062995,0.00059472,0.00017370,-
 0.00053561,0.00089978,0.00067185,0.00121209,0.00032671,-0.00026962,-0.
 00001907,-0.00007042,-0.00000603,-0.00327414,-0.00589447,-0.00019140,0
 .00004960,0.00083755,-0.00000539,-0.00002540,-0.00001889,-0.00006293,0
 .00023902,0.00001066,-0.00014201,-0.00000655,-0.00003119,0.00001391,-0
 .00027597,0.00014378,0.00018436,0.00001698,0.00006081,0.00006762,0.000
 03633,0.00004610,-0.00007882,-0.00003763,-0.00001747,0.00002005,0.0000
 0739,-0.00002561,-0.00005477,-0.00001017,-0.00000119,0.00002574,0.0000
 1237,0.00000940,0.00002376,0.00000942,0.00000846,0.00000440,0.00001213
 ,0.00001575,0.00000983,-0.00011312,0.00001042,-0.00005884,-0.00002915,
 -0.00000804,0.00006036,0.00012779,-0.00004095,-0.00005063,-0.00000241,
 -0.00000396,-0.00000548,0.00000114,-0.00000037,-0.00000113,-0.00000284
 ,0.00000032,-0.00000090,0.00000228,-0.00000083,-0.00000007,-0.00000823
 ,-0.00000190,0.00000024,0.00000046,0.00000281,-0.00000195,0.00000361,-
 0.00000117,-0.00000082,0.00000031,0.00000119,-0.00000271,0.00000454,-0
 .00000074,-0.00000589,-0.00000146,-0.00000287,0.00000031,-0.00000130,-
 0.00000027,-0.00000097,0.00000365,0.00000125,0.00000029,-0.00000215,-0
 .00000386,-0.00000899,-0.00000495,0.00000485,0.00000090,0.00000363,0.0
 0000035,-0.00000087,-0.00000077,-0.00000574,-0.00000111,-0.00001211,-0
 .00008784,0.00007901,-0.00000733,-0.00000862,0.00001170,0.00003740,0.0
 0004682,-0.00007093,0.00001313,0.00003746,-0.00000581,0.00001882,-0.00
 001612,0.00001545,0.00000156,0.00000357,-0.00000808,0.00000341,0.00000
 415,-0.00002113,0.00000448,0.00000960,0.00001109,0.00000644,-0.0000017
 3,-0.00001498,0.00000372,-0.00000738,0.00000018,0.00000468,0.00000960,
 -0.00000114,0.00000226,-0.00000226,0.00001264,0.00001304,0.00000982,-0
 .00001858,0.00000339,0.00001125,-0.00000012,0.00000051,-0.00000480,-0.
 00000220,-0.00000377,-0.00000176,0.00000605,-0.00000077,-0.00000260,-0
 .00000243,0.00000024,-0.00000002,0.00000044,-0.00000190,-0.00000120,-0
 .00000017,0.00000034,0.00000017,-0.00000003,0.00000059,-0.00000113,-0.
 00000286,-0.00000043,-0.00000009,0.00000032,-0.00000206,-0.00000155,-0
 .00000040,0.00000161,-0.00000009,0.00000305,0.00000131,0.00000568,-0.0
 0001613,-0.00000033,-0.00000884,0.00000302,-0.00000305,0.00000621,0.00
 001374,-0.00000317,-0.00000730,-0.00000044,-0.00000130,0.00000079,0.00
 000126,-0.00000043,-0.00000049,-0.00000033,-0.00000073,-0.00000065,0.0
 0000073,0.00000093,-0.00000110,0.,-0.00006674,-0.00033599,0.00004827,-
 0.00011795,0.00004298,-0.00003007,0.00006438,-0.00004234,0.00005967,0.
 00002119,-0.00002426,-0.00000138,-0.00000061,0.00000163,-0.00000220,0.
 00000472,0.00000619,-0.00000274,-0.00001139,0.00000054,0.00001168,0.00
 000038,-0.00000395,-0.00000482,0.00000747,0.00000177,0.00000619,0.0000
 3850,-0.00001129,0.00001839,-0.00000739,0.00001048,-0.00000566,-0.0000
 0501,-0.00000243,-0.00000463,0.00000284,-0.00000022,-0.00000227,0.0000
 0296,-0.00000304,0.00000636,0.00000174,0.00001482,0.00001756,-0.000007
 40,0.00000116,-0.00000514,-0.00003139,-0.00000791,-0.00000001,-0.00008
 443,-0.00004235,-0.00006901,0.00000917,0.00001359,0.00000700,0.0000248
 3,0.00004676,-0.00003941,0.00009239,0.00005271,0.00033082,0.00000227,0
 .00000580,-0.00000024,-0.00022601,0.00003820,-0.00025445,0.00003123,0.
 00002998,-0.00010594,-0.00005119,0.00001424,-0.00002225,0.00000811,-0.
 00000029,0.00001895,-0.00000879,0.00000050,0.00001323,-0.00000200,0.00
 000131,-0.00000743,-0.00000344,0.00000023,-0.00000072,-0.00000078,0.00
 000050,0.00000347,0.00000120,0.00000424,0.00000100,0.04991497,0.063184
 01,-0.00038759,0.00006268,-0.00128790,-0.00009305,0.00000761,0.0000362
 9,0.00005457,-0.00004866,-0.00001508,0.00001776,0.00008410,-0.00003502
 ,-0.00004982,-0.00007281,0.00006667,-0.00019087,-0.00062771,-0.0004256
 2,-0.00018112,0.00016553,0.00091625,0.08190575,0.01044831,-0.06011683,
 0.00678324,0.00284651,0.00079934,0.00247859,-0.00203184,0.00626789,0.0
 0000438,-0.00001023,-0.00000198,-0.00000204,-0.00000255,-0.00001313,-0
 .00001705,0.00004286,0.00005963,-0.00108572,0.00051535,-0.00286914,-0.
 00132810,0.00053502,-0.00324110,0.00043736,0.00015417,0.00010723,0.000
 15682,0.00011247,0.00003571,0.00139795,-0.00050056,0.00794331,-0.00028
 249,0.00003207,-0.00040532,0.00001462,0.00004094,-0.00000469,-0.000005
 08,0.00001202,-0.00001258,-0.00001638,-0.00000003,-0.00001969,0.000027
 62,-0.00009935,0.00002123,-0.00001288,-0.00006618,-0.00000268,0.000033
 21,-0.00000345,0.00004209,-0.00001575,0.00001313,-0.00002739,-0.000002
 32,0.00001980,-0.00001262,-0.00000302,-0.00000628,0.00001062,-0.000006
 73,-0.00001266,0.00001223,0.00000540,0.00000039,0.00001286,0.00000090,
 -0.00000209,0.00000509,0.00004535,-0.00001497,0.00002158,0.00001238,-0
 .00000913,0.00001167,-0.00002690,0.00003438,-0.00004504,-0.00000032,0.
 00000122,-0.00000531,0.00000151,0.00000089,-0.00000141,0.00000004,0.00
 000009,0.00000196,-0.00000172,0.00000052,-0.00000022,-0.00000831,0.000
 00252,0.00000254,0.00000457,-0.00000794,-0.00000519,-0.00000613,0.0000
 0226,-0.00000033,0.00000406,0.00000334,0.00000079,0.00000082,0.0000008
 6,-0.00000264,-0.00000126,0.00000252,0.00000116,-0.00000076,-0.0000009
 1,-0.00000102,0.00000265,-0.00000046,-0.00000030,-0.00000075,-0.000004
 71,-0.00000523,0.00000149,-0.00000499,0.00000607,-0.00000227,-0.000001
 69,-0.00000320,0.00000102,0.00000642,0.00000104,-0.00003457,-0.0000407
 2,0.00001155,0.00002170,0.00002294,-0.00001599,0.00001013,0.00001945,0
 .00002263,-0.00000277,0.00000666,-0.00000239,-0.00002353,-0.00001862,0
 .00000475,-0.00000127,0.00000762,-0.00000090,0.00001071,0.00000379,-0.
 00000572,-0.00000077,-0.00000285,-0.00000814,0.00000768,0.00000752,0.0
 0000537,-0.00000049,-0.00000096,-0.00000103,-0.00000078,0.00000098,-0.
 00000158,-0.00000492,-0.00000125,-0.00000476,-0.00000455,0.00000198,0.
 00000204,0.00000103,0.00000041,-0.00000180,0.00000093,-0.00000167,0.00
 000052,-0.00000296,-0.00000086,-0.00000177,0.00000010,-0.00000072,-0.0
 0000168,0.00000031,0.00000126,-0.00000189,-0.00000012,-0.00000014,0.00
 000039,-0.00000091,-0.00000009,0.00000088,-0.00000121,-0.00000037,-0.0
 0000098,-0.00000242,0.00000084,-0.00000009,-0.00000032,0.00000105,-0.0
 0000035,0.00000092,-0.00000107,0.00000080,-0.00000033,-0.00000212,-0.0
 0000017,-0.00000068,0.00000336,-0.00000006,0.00000215,-0.00000285,0.00
 000210,-0.00000075,-0.00000081,-0.00000171,-0.00000064,-0.00000015,-0.
 00000249,-0.00000073,-0.00000103,-0.00000057,0.00000145,0.00000045,-0.
 00000070,-0.00000075,0.00000096,0.00000094,0.00013402,-0.00000921,0.00
 016980,0.00010227,-0.00005181,0.00002191,-0.00006726,0.00001704,-0.000
 06190,-0.00002641,0.00002411,-0.00001970,-0.00000055,-0.00001218,0.000
 01323,-0.00000003,-0.00000024,-0.00000250,0.00000995,-0.00001070,-0.00
 000672,0.00000251,0.00000073,0.00000409,-0.00000482,0.00000036,-0.0000
 0063,-0.00004499,-0.00000003,-0.00000177,0.00000086,0.00000194,0.00000
 729,0.00000368,0.00000088,0.00000176,-0.00000292,-0.00000086,0.0000022
 6,-0.00000244,0.00000312,-0.00000617,0.00000639,0.00000065,0.00006691,
 0.00002117,-0.00000510,-0.00003891,0.00000936,0.00001672,-0.00003348,0
 .00011033,0.00004438,0.00000087,-0.00000735,-0.00006067,0.00000543,-0.
 00003192,-0.00004749,0.00003348,-0.00005206,-0.00000521,-0.00013350,-0
 .00001682,-0.00005583,-0.00017415,0.00005153,0.00016677,0.00023429,-0.
 00004552,-0.00004891,0.00007037,0.00005091,-0.00001435,0.00001755,-0.0
 0003065,0.00001166,0.00000200,0.00003447,-0.00003958,-0.00001298,-0.00
 005338,-0.00002584,0.00006228,0.00002724,0.00000215,-0.00000294,0.0000
 1142,0.00000236,-0.00001459,0.00001348,0.00002095,-0.00001114,-0.08983
 779,-0.01154759,0.05198776\\-0.00000223,-0.00000628,0.00000189,0.00000
 819,0.00000733,0.00000716,-0.00000541,0.00000415,0.00000194,0.00000967
 ,0.00000046,-0.00000081,-0.00000606,-0.00000728,0.00000416,0.00000115,
 -0.00000400,0.00000051,-0.00000533,-0.00000020,0.00000146,-0.00000604,
 -0.00000277,0.00000242,-0.00000397,0.00000193,0.00000211,0.00000600,-0
 .00000202,-0.00000373,-0.00000358,-0.00001120,-0.00001574,-0.00000248,
 0.00000038,0.00000086,-0.00000098,0.00000213,0.00000191,0.00000067,0.0
 0000109,0.00000208,-0.00000063,-0.00000142,0.00000093,0.00000003,0.000
 00186,0.00000098,-0.00000463,0.00000133,-0.00000424,0.00000565,0.00000
 517,0.00000138,0.00000100,0.00000475,0.00000361,0.00000091,0.00000031,
 -0.00000032,-0.00000156,-0.00000028,0.00000374,-0.00000121,0.00000429,
 0.00000383,0.00000105,0.00000065,-0.00000340,-0.00000255,-0.00000479,-
 0.00000662,0.00000551,-0.00001233,-0.00000310,-0.00000002,0.00000831,0
 .00000525,0.00000146,0.00000156,0.00000376,0.00000460,-0.00000182,-0.0
 0000432,-0.00000304,0.00000402,-0.00000277,-0.00000513,-0.00000593,-0.
 00000173,0.00000400,0.00000295,-0.00001031,-0.00000220,-0.00000356,-0.
 00000054,0.00000061,0.00000261,-0.00000362,0.00000105,0.00000239,0.000
 00101,-0.00000032,0.00000266,-0.00000032,-0.00000037,0.00000125,0.0000
 0121,0.00000263,0.00000243,0.00000153,-0.00000086,-0.00000017,-0.00000
 035,-0.00000629,-0.00000247,0.00000149,0.00000264,0.00000244,-0.000000
 36,0.00000138,0.00000044,0.00000025,0.00000160,0.00000214,0.00000266,-
 0.00000390,-0.00000008,-0.00000267,0.00000221,-0.00000094,0.00000100,0
 .00000108,0.00000074,0.00000187,0.00000149,0.00000068,-0.00000242,-0.0
 0000115,-0.00000544,0.00000662,0.00000186,0.00000254,0.00000142,-0.000
 00063,0.00000236,-0.00000391,0.00000034,0.00000182,-0.00000090,0.00000
 188,-0.00000030,0.00000710,0.00000070,-0.00000253,-0.00000385,0.000000
 86,0.00000152,-0.00000068,-0.00000128,0.00000207,-0.00000028,0.0000003
 4,0.00000550,-0.00000211,0.00000116,0.00000030,-0.00000006,-0.00000132
 ,-0.00000365,0.00000133,0.00000112,0.00000141,0.00000034,0.00000163,-0
 .00000194,0.00000126,0.00000143,-0.00000050,-0.00000187,-0.00000091,0.
 00000033,-0.00000036,-0.00000026,0.00000035,0.00000072,0.00000127,0.00
 000028,-0.00000064,0.00000043,-0.00000048,-0.00000064,-0.00000076,0.00
 000163,0.00000059,0.00000155,-0.00000017,-0.00000010,-0.00000525,-0.00
 000316,-0.00000228,0.00000103,-0.00000154,0.00000014,0.00000229,0.0000
 0123,-0.00000020,-0.00000148,0.00000088,0.00000010,0.00000005,-0.00000
 213,0.00000559,-0.00000037,0.00000183,-0.00000042,0.00000060,0.0000010
 3,-0.00000008,-0.00000163,0.00000107,-0.00000039,0.00000237,0.00000142
 ,-0.00000677,-0.00000022,-0.00000020,-0.00000039,-0.00000039,-0.000000
 52,-0.00000026,0.00000181,0.00000110,0.00000306,0.00000620,0.00000011,
 -0.00000349,-0.00000009,0.00000027,-0.00000010,-0.00000132,-0.00000049
 ,-0.00000014,-0.00000351,0.00000310,-0.00000050,-0.00000228,-0.0000008
 2,-0.00000019,0.00000524,0.00000175,-0.00000636,-0.00000032,-0.0000007
 6,0.00000240,-0.00000059,-0.00000409,-0.00000648,-0.00000136,0.0000051
 5,0.00000273,0.00000038,-0.00000066,0.00000211,-0.00000659,0.00000051,
 0.00000523,-0.00000024,-0.00000348,-0.00000143,0.00000147,0.00000264,-
 0.00000197,0.00000054,-0.00000258,0.00000293,-0.00000051,-0.00000280,-
 0.00000039,-0.00000017,-0.00000064,0.00000061,0.00000065,0.00000023,-0
 .00000149,-0.00000098,-0.00000050,-0.00000055,-0.00000391,-0.00000160,
 0.00000446,-0.00000024,0.00000164,0.00000091,-0.00000192,-0.00000239,0
 .00000002,0.00000236,0.00000334,0.00000295,0.00000088,-0.00000158,0.00
 000051,-0.00000138,-0.00000119,-0.00000255,-0.00000243,-0.00000481,-0.
 00000894,-0.00000159,0.00000403,0.00000338,0.00000170,-0.00000087,0.00
 000723,0.00000290,0.00000448,-0.00000082,0.00000039,-0.00000086,0.0000
 0203,-0.00000233,-0.00000244,0.00000269,0.00000077,-0.00000124,0.00000
 059,0.00000870,-0.00000183,0.00000543,-0.00000255,-0.00000080,0.000001
 24,-0.00000240,-0.00000082,-0.00000461,-0.00000244,0.00000008,-0.00000
 297,0.00000415,0.00000091,-0.00000024\\\@
 The archive entry for this job was punched.


 A great many people think they are thinking when they
 are merely rearranging their prejudices.
                               -- William James
 Job cpu time:       2 days  3 hours 44 minutes 13.9 seconds.
 Elapsed time:       0 days  3 hours 17 minutes 37.2 seconds.
 File lengths (MBytes):  RWF=  10098 Int=      0 D2E=      0 Chk=     55 Scr=      1
 Normal termination of Gaussian 16 at Sat Dec  7 22:06:41 2024.
