/mnt/lustre/scratch/nvme/SLURM/9663744/usccqdma.s8wMRl6ILt
OMP_STACKSIZE=0m
GAUSS_PDEF=16
GAUSS_MDEF=65536MB
GAUSS_RDEF=SCF=Direct
 Entering Gaussian System, Link 0=g16.exe
 Initial command:
 /opt/cesga/2020/software/Core/g16/c1/l1.exe "/mnt/lustre/scratch/nvme/SLURM/9663744/usccqdma.s8wMRl6ILt/Gau-3958204.inp" -scrdir="/mnt/lustre/scratch/nvme/SLURM/9663744/usccqdma.s8wMRl6ILt/"
 Default is to use a total of  16 processors:
                               16 via shared-memory
                                1 via Linda
 Entering Link 1 = /opt/cesga/2020/software/Core/g16/c1/l1.exe PID=   3958230.
  
 Copyright (c) 1988-2019, Gaussian, Inc.  All Rights Reserved.
  
 This is part of the Gaussian(R) 16 program.  It is based on
 the Gaussian(R) 09 system (copyright 2009, Gaussian, Inc.),
 the Gaussian(R) 03 system (copyright 2003, Gaussian, Inc.),
 the Gaussian(R) 98 system (copyright 1998, Gaussian, Inc.),
 the Gaussian(R) 94 system (copyright 1995, Gaussian, Inc.),
 the Gaussian 92(TM) system (copyright 1992, Gaussian, Inc.),
 the Gaussian 90(TM) system (copyright 1990, Gaussian, Inc.),
 the Gaussian 88(TM) system (copyright 1988, Gaussian, Inc.),
 the Gaussian 86(TM) system (copyright 1986, Carnegie Mellon
 University), and the Gaussian 82(TM) system (copyright 1983,
 Carnegie Mellon University). Gaussian is a federally registered
 trademark of Gaussian, Inc.
  
 This software contains proprietary and confidential information,
 including trade secrets, belonging to Gaussian, Inc.
  
 This software is provided under written license and may be
 used, copied, transmitted, or stored only in accord with that
 written license.
  
 The following legend is applicable only to US Government
 contracts under FAR:
  
                    RESTRICTED RIGHTS LEGEND
  
 Use, reproduction and disclosure by the US Government is
 subject to restrictions as set forth in subparagraphs (a)
 and (c) of the Commercial Computer Software - Restricted
 Rights clause in FAR 52.227-19.
  
 Gaussian, Inc.
 340 Quinnipiac St., Bldg. 40, Wallingford CT 06492
  
  
 ---------------------------------------------------------------
 Warning -- This program may not be used in any manner that
 competes with the business of Gaussian, Inc. or will provide
 assistance to any competitor of Gaussian, Inc.  The licensee
 of this program is prohibited from giving any competitor of
 Gaussian, Inc. access to this program.  By using this program,
 the user acknowledges that Gaussian, Inc. is engaged in the
 business of creating and licensing software in the field of
 computational chemistry and represents and warrants to the
 licensee that it is not a competitor of Gaussian, Inc. and that
 it will not use this program in any manner prohibited above.
 ---------------------------------------------------------------
  

 Cite this work as:
 Gaussian 16, Revision C.01,
 M. J. Frisch, G. W. Trucks, H. B. Schlegel, G. E. Scuseria, 
 M. A. Robb, J. R. Cheeseman, G. Scalmani, V. Barone, 
 G. A. Petersson, H. Nakatsuji, X. Li, M. Caricato, A. V. Marenich, 
 J. Bloino, B. G. Janesko, R. Gomperts, B. Mennucci, H. P. Hratchian, 
 J. V. Ortiz, A. F. Izmaylov, J. L. Sonnenberg, D. Williams-Young, 
 F. Ding, F. Lipparini, F. Egidi, J. Goings, B. Peng, A. Petrone, 
 T. Henderson, D. Ranasinghe, V. G. Zakrzewski, J. Gao, N. Rega, 
 G. Zheng, W. Liang, M. Hada, M. Ehara, K. Toyota, R. Fukuda, 
 J. Hasegawa, M. Ishida, T. Nakajima, Y. Honda, O. Kitao, H. Nakai, 
 T. Vreven, K. Throssell, J. A. Montgomery, Jr., J. E. Peralta, 
 F. Ogliaro, M. J. Bearpark, J. J. Heyd, E. N. Brothers, K. N. Kudin, 
 V. N. Staroverov, T. A. Keith, R. Kobayashi, J. Normand, 
 K. Raghavachari, A. P. Rendell, J. C. Burant, S. S. Iyengar, 
 J. Tomasi, M. Cossi, J. M. Millam, M. Klene, C. Adamo, R. Cammi, 
 J. W. Ochterski, R. L. Martin, K. Morokuma, O. Farkas, 
 J. B. Foresman, and D. J. Fox, Gaussian, Inc., Wallingford CT, 2019.
 
 ******************************************
 Gaussian 16:  ES64L-G16RevC.01  3-Jul-2019
                 7-Dec-2024 
 ******************************************
 Default route: SCF=Direct
 ----------------------------------------------------
 # m06/genecp scf=tight int=ultrafine 5d freq=noraman
 ----------------------------------------------------
 1/10=4,30=1,38=1/1,3;
 2/12=2,17=6,18=5,40=1/2;
 3/5=7,8=1,11=2,16=1,17=8,25=1,30=1,71=2,74=-54,75=-5,140=1/1,2,3;
 4//1;
 5/5=2,32=2,38=5,98=1/2;
 8/6=4,10=90,11=11/1;
 11/6=1,8=1,9=11,15=111,16=1/1,2,10;
 10/6=1/2;
 6/7=2,8=2,9=2,10=2,28=1/1;
 7/8=1,10=1,25=1/1,2,3,16;
 1/10=4,30=1/3;
 99//99;
 ------
 OPT-TS
 ------
 Symbolic Z-matrix:
 Charge =  0 Multiplicity = 1
 C                    -1.22285  -2.80139  -0.42213 
 C                    -1.33632  -2.21192  -2.6528 
 C                    -2.18751  -3.26819  -2.9481 
 C                    -2.57675  -4.11066  -1.9131 
 C                    -2.08266  -3.88045  -0.63774 
 C                    -0.61317  -2.51282   0.8884 
 C                     0.54974  -0.99748   2.1976 
 C                     0.65987  -1.90794   3.23916 
 C                     0.11403  -3.17855   3.08301 
 C                    -0.53242  -3.47838   1.8932 
 H                    -0.99649  -1.52085  -3.4222 
 H                    -3.25511  -4.9416   -2.09646 
 H                    -2.37555  -4.52856   0.1856 
 H                     0.99436  -0.00211   2.24905 
 H                     0.20271  -3.92857   3.86673 
 H                    -0.93829  -4.47366   1.72665 
 N                    -0.8795   -1.96898  -1.42241 
 N                    -0.07021  -1.28319   1.04096 
 Ir                    0.25427  -0.08451  -0.78657 
 O                     2.4365   -2.05265  -0.28296 
 O                     1.63082   1.73652   1.22068 
 O                    -2.00862   0.83274  -0.76546 
 B                     1.20229   1.5575   -0.11832 
 B                     2.12249  -0.77881  -0.78984 
 B                    -2.7129    1.15769   0.4527 
 O                    -3.89141   1.86035   0.09946 
 O                     3.2999   -0.13779  -1.18656 
 C                     4.36395  -1.0933   -1.14746 
 C                     3.85214  -2.10785  -0.08952 
 C                    -2.58129   1.65768  -1.79745 
 C                    -4.05276   1.74892  -1.30897 
 C                     2.44535   2.91309   1.28587 
 C                     1.93367   3.73415   0.06769 
 O                     1.50505   2.71536  -0.83419 
 C                     4.33381  -3.53201  -0.28141 
 H                     4.01282  -3.93862  -1.24675 
 H                     5.43078  -3.58761  -0.22396 
 H                     3.9205   -4.17335   0.50833 
 C                     4.12255  -1.6552    1.34181 
 H                     3.55241  -2.30034   2.02451 
 H                     5.1863   -1.72435   1.60854 
 H                     3.78398  -0.61946   1.49331 
 C                     4.47999  -1.70021  -2.54084 
 H                     5.33013  -2.39167  -2.62138 
 H                     3.56174  -2.23583  -2.81421 
 H                     4.62331  -0.88845  -3.2647 
 C                     5.6597   -0.39302  -0.78734 
 H                     5.92373   0.32257  -1.57709 
 H                     5.57754   0.16148   0.1544 
 H                     6.48291  -1.11682  -0.69588 
 C                     2.24577   3.5754    2.63525 
 H                     2.78739   4.53078   2.69201 
 H                     1.18433   3.76466   2.83832 
 H                     2.63268   2.92271   3.42984 
 C                     3.89307   2.4657    1.12922 
 H                     4.03638   1.96009   0.16448 
 H                     4.59796   3.30449   1.20984 
 H                     4.12769   1.74547   1.92621 
 C                     0.72055   4.59872   0.39371 
 H                    -0.06764   4.01468   0.88859 
 H                     0.9807    5.45269   1.03446 
 H                     0.30383   4.98554  -0.5452 
 C                     2.98952   4.5855   -0.61231 
 H                     3.40707   5.32918   0.0826 
 H                     3.80586   3.97157  -1.00711 
 H                     2.53873   5.12435  -1.45547 
 C                    -4.81044   2.96402  -1.80885 
 H                    -4.86334   2.97641  -2.90692 
 H                    -5.83743   2.94367  -1.4207 
 H                    -4.34098   3.89356  -1.46853 
 C                    -4.84583   0.48091  -1.61821 
 H                    -5.12452   0.41877  -2.67948 
 H                    -4.27797  -0.42095  -1.35084 
 H                    -5.7666    0.49297  -1.02071 
 C                    -2.40872   1.00533  -3.15246 
 H                    -2.8093   -0.01548  -3.16563 
 H                    -2.92882   1.59188  -3.92366 
 H                    -1.34186   0.9659   -3.40993 
 C                    -1.8667    3.00293  -1.77773 
 H                    -2.05726   3.53443  -0.83426 
 H                    -0.78418   2.83611  -1.86246 
 H                    -2.19112   3.64665  -2.60717 
 H                     0.61678   0.58994  -2.20235 
 C                    -2.7728   -0.25248   2.37024 
 O                    -3.12543  -0.26607   1.15301 
 C                    -3.13163  -1.39108   3.27528 
 H                    -2.19559  -1.83891   3.64557 
 H                    -3.64057  -0.98221   4.1611 
 C                    -1.89356   1.78562   1.71431 
 H                    -2.30851   2.75284   2.03624 
 H                    -0.81166   1.8984    1.54402 
 N                    -2.09276   0.80645   2.78716 
 C                    -1.55715   1.0309    4.10721 
 H                    -0.49091   1.28305   4.02109 
 H                    -2.07131   1.87322   4.59008 
 H                    -1.65629   0.14236   4.73851 
 C                    -3.99201  -2.44095   2.59673 
 H                    -4.93576  -2.01296   2.24168 
 H                    -3.47831  -2.8615    1.72403 
 H                     1.18859  -1.62436   4.14704 
 H                    -2.53675  -3.41942  -3.96644 
 H                    -4.2189   -3.25493   3.29454 
 

 GradGradGradGradGradGradGradGradGradGradGradGradGradGradGradGradGradGrad
 Berny optimization.
 Initialization pass.
 Trust Radius=3.00D-01 FncErr=1.00D-07 GrdErr=1.00D-07 EigMax=2.50D+02 EigMin=1.00D-04
 Number of steps in this run=      2 maximum allowed number of steps=      2.
 GradGradGradGradGradGradGradGradGradGradGradGradGradGradGradGradGradGrad

 Stoichiometry    C33H55B3IrN3O7
 Framework group  C1[X(C33H55B3IrN3O7)]
 Deg. of freedom   300
 Full point group                 C1      NOp   1
 Largest Abelian subgroup         C1      NOp   1
 Largest concise Abelian subgroup C1      NOp   1
                         Standard orientation:                         
 ---------------------------------------------------------------------
 Center     Atomic      Atomic             Coordinates (Angstroms)
 Number     Number       Type             X           Y           Z
 ---------------------------------------------------------------------
      1          6           0       -1.222851   -2.801390   -0.422130
      2          6           0       -1.336321   -2.211920   -2.652800
      3          6           0       -2.187511   -3.268190   -2.948100
      4          6           0       -2.576751   -4.110660   -1.913100
      5          6           0       -2.082661   -3.880450   -0.637740
      6          6           0       -0.613171   -2.512820    0.888400
      7          6           0        0.549739   -0.997480    2.197600
      8          6           0        0.659869   -1.907940    3.239160
      9          6           0        0.114029   -3.178550    3.083010
     10          6           0       -0.532421   -3.478380    1.893200
     11          1           0       -0.996491   -1.520850   -3.422200
     12          1           0       -3.255111   -4.941600   -2.096460
     13          1           0       -2.375551   -4.528560    0.185600
     14          1           0        0.994359   -0.002110    2.249050
     15          1           0        0.202709   -3.928570    3.866730
     16          1           0       -0.938291   -4.473660    1.726650
     17          7           0       -0.879501   -1.968980   -1.422410
     18          7           0       -0.070211   -1.283190    1.040960
     19         77           0        0.254269   -0.084510   -0.786570
     20          8           0        2.436499   -2.052650   -0.282960
     21          8           0        1.630819    1.736520    1.220680
     22          8           0       -2.008621    0.832740   -0.765460
     23          5           0        1.202289    1.557500   -0.118320
     24          5           0        2.122489   -0.778810   -0.789840
     25          5           0       -2.712901    1.157690    0.452700
     26          8           0       -3.891411    1.860350    0.099460
     27          8           0        3.299899   -0.137790   -1.186560
     28          6           0        4.363949   -1.093300   -1.147460
     29          6           0        3.852139   -2.107850   -0.089520
     30          6           0       -2.581291    1.657680   -1.797450
     31          6           0       -4.052761    1.748920   -1.308970
     32          6           0        2.445349    2.913090    1.285870
     33          6           0        1.933669    3.734150    0.067690
     34          8           0        1.505049    2.715360   -0.834190
     35          6           0        4.333809   -3.532010   -0.281410
     36          1           0        4.012819   -3.938620   -1.246750
     37          1           0        5.430779   -3.587610   -0.223960
     38          1           0        3.920499   -4.173350    0.508330
     39          6           0        4.122549   -1.655200    1.341810
     40          1           0        3.552409   -2.300340    2.024510
     41          1           0        5.186299   -1.724350    1.608540
     42          1           0        3.783979   -0.619460    1.493310
     43          6           0        4.479989   -1.700210   -2.540840
     44          1           0        5.330129   -2.391670   -2.621380
     45          1           0        3.561739   -2.235830   -2.814210
     46          1           0        4.623309   -0.888450   -3.264700
     47          6           0        5.659699   -0.393020   -0.787340
     48          1           0        5.923729    0.322570   -1.577090
     49          1           0        5.577539    0.161480    0.154400
     50          1           0        6.482909   -1.116820   -0.695880
     51          6           0        2.245769    3.575400    2.635250
     52          1           0        2.787389    4.530780    2.692010
     53          1           0        1.184329    3.764660    2.838320
     54          1           0        2.632679    2.922710    3.429840
     55          6           0        3.893069    2.465700    1.129220
     56          1           0        4.036379    1.960090    0.164480
     57          1           0        4.597959    3.304490    1.209840
     58          1           0        4.127689    1.745470    1.926210
     59          6           0        0.720549    4.598720    0.393710
     60          1           0       -0.067641    4.014680    0.888590
     61          1           0        0.980699    5.452690    1.034460
     62          1           0        0.303829    4.985540   -0.545200
     63          6           0        2.989519    4.585500   -0.612310
     64          1           0        3.407069    5.329180    0.082600
     65          1           0        3.805859    3.971570   -1.007110
     66          1           0        2.538729    5.124350   -1.455470
     67          6           0       -4.810441    2.964020   -1.808850
     68          1           0       -4.863341    2.976410   -2.906920
     69          1           0       -5.837431    2.943670   -1.420700
     70          1           0       -4.340981    3.893560   -1.468530
     71          6           0       -4.845831    0.480910   -1.618210
     72          1           0       -5.124521    0.418770   -2.679480
     73          1           0       -4.277971   -0.420950   -1.350840
     74          1           0       -5.766601    0.492970   -1.020710
     75          6           0       -2.408721    1.005330   -3.152460
     76          1           0       -2.809301   -0.015480   -3.165630
     77          1           0       -2.928821    1.591880   -3.923660
     78          1           0       -1.341861    0.965900   -3.409930
     79          6           0       -1.866701    3.002930   -1.777730
     80          1           0       -2.057261    3.534430   -0.834260
     81          1           0       -0.784181    2.836110   -1.862460
     82          1           0       -2.191121    3.646650   -2.607170
     83          1           0        0.616779    0.589940   -2.202350
     84          6           0       -2.772801   -0.252480    2.370240
     85          8           0       -3.125431   -0.266070    1.153010
     86          6           0       -3.131631   -1.391080    3.275280
     87          1           0       -2.195591   -1.838910    3.645570
     88          1           0       -3.640571   -0.982210    4.161100
     89          6           0       -1.893561    1.785620    1.714310
     90          1           0       -2.308511    2.752840    2.036240
     91          1           0       -0.811661    1.898400    1.544020
     92          7           0       -2.092761    0.806450    2.787160
     93          6           0       -1.557151    1.030900    4.107210
     94          1           0       -0.490911    1.283050    4.021090
     95          1           0       -2.071311    1.873220    4.590080
     96          1           0       -1.656291    0.142360    4.738510
     97          6           0       -3.992011   -2.440950    2.596730
     98          1           0       -4.935761   -2.012960    2.241680
     99          1           0       -3.478311   -2.861500    1.724030
    100          1           0        1.188589   -1.624360    4.147040
    101          1           0       -2.536751   -3.419420   -3.966440
    102          1           0       -4.218901   -3.254930    3.294540
 ---------------------------------------------------------------------
 Rotational constants (GHZ):           0.0832851           0.0657692           0.0558403
 General basis read from cards:  (5D, 7F)
 ======================================================================================================
                                       Pseudopotential Parameters
 ======================================================================================================
  Center     Atomic      Valence      Angular      Power
  Number     Number     Electrons     Momentum     of R      Exponent        Coefficient   SO-Coeffient
 ======================================================================================================
    1          6
                                   No pseudopotential on this center.
    2          6
                                   No pseudopotential on this center.
    3          6
                                   No pseudopotential on this center.
    4          6
                                   No pseudopotential on this center.
    5          6
                                   No pseudopotential on this center.
    6          6
                                   No pseudopotential on this center.
    7          6
                                   No pseudopotential on this center.
    8          6
                                   No pseudopotential on this center.
    9          6
                                   No pseudopotential on this center.
   10          6
                                   No pseudopotential on this center.
   11          1
                                   No pseudopotential on this center.
   12          1
                                   No pseudopotential on this center.
   13          1
                                   No pseudopotential on this center.
   14          1
                                   No pseudopotential on this center.
   15          1
                                   No pseudopotential on this center.
   16          1
                                   No pseudopotential on this center.
   17          7
                                   No pseudopotential on this center.
   18          7
                                   No pseudopotential on this center.
   19         77           17
                                      G and up 
                                                     1      823.5880147       -0.15780140    0.00000000
                                                     2      364.6613336    -1517.52704460    0.00000000
                                                     2       55.7082801     -316.53065290    0.00000000
                                                     2       12.0464544      -91.88809410    0.00000000
                                                     2        3.5120610       -9.22417730    0.00000000
                                      S - G
                                                     0      188.0490770        3.15780140    0.00000000
                                                     1      340.4194712       26.83225770    0.00000000
                                                     2      128.2373673      800.42500070    0.00000000
                                                     2       33.8644961      369.40506830    0.00000000
                                                     2        4.7560005      242.41718990    0.00000000
                                                     2        3.9649974     -118.21732820    0.00000000
                                      P - G
                                                     0      289.7291139        2.15780140    0.00000000
                                                     1       87.4633789       61.96786100    0.00000000
                                                     2       30.4363766      269.05819860    0.00000000
                                                     2        4.0553412      231.16547930    0.00000000
                                                     2        3.5525341     -133.69526670    0.00000000
                                      D - G
                                                     0      136.4017106        3.15780140    0.00000000
                                                     1       95.0776925       45.93498030    0.00000000
                                                     2       49.2258410      359.03446680    0.00000000
                                                     2       15.0874145      176.47401190    0.00000000
                                                     2        4.0405764       54.51552860    0.00000000
                                      F - G
                                                     0      127.3507908        3.95461970    0.00000000
                                                     1       66.2364374       52.97736550    0.00000000
                                                     2       34.4299229      274.86433830    0.00000000
                                                     2       10.1995721      137.20473380    0.00000000
                                                     2        2.5409702       14.86333050    0.00000000
   20          8
                                   No pseudopotential on this center.
   21          8
                                   No pseudopotential on this center.
   22          8
                                   No pseudopotential on this center.
   23          5
                                   No pseudopotential on this center.
   24          5
                                   No pseudopotential on this center.
   25          5
                                   No pseudopotential on this center.
   26          8
                                   No pseudopotential on this center.
   27          8
                                   No pseudopotential on this center.
   28          6
                                   No pseudopotential on this center.
   29          6
                                   No pseudopotential on this center.
   30          6
                                   No pseudopotential on this center.
   31          6
                                   No pseudopotential on this center.
   32          6
                                   No pseudopotential on this center.
   33          6
                                   No pseudopotential on this center.
   34          8
                                   No pseudopotential on this center.
   35          6
                                   No pseudopotential on this center.
   36          1
                                   No pseudopotential on this center.
   37          1
                                   No pseudopotential on this center.
   38          1
                                   No pseudopotential on this center.
   39          6
                                   No pseudopotential on this center.
   40          1
                                   No pseudopotential on this center.
   41          1
                                   No pseudopotential on this center.
   42          1
                                   No pseudopotential on this center.
   43          6
                                   No pseudopotential on this center.
   44          1
                                   No pseudopotential on this center.
   45          1
                                   No pseudopotential on this center.
   46          1
                                   No pseudopotential on this center.
   47          6
                                   No pseudopotential on this center.
   48          1
                                   No pseudopotential on this center.
   49          1
                                   No pseudopotential on this center.
   50          1
                                   No pseudopotential on this center.
   51          6
                                   No pseudopotential on this center.
   52          1
                                   No pseudopotential on this center.
   53          1
                                   No pseudopotential on this center.
   54          1
                                   No pseudopotential on this center.
   55          6
                                   No pseudopotential on this center.
   56          1
                                   No pseudopotential on this center.
   57          1
                                   No pseudopotential on this center.
   58          1
                                   No pseudopotential on this center.
   59          6
                                   No pseudopotential on this center.
   60          1
                                   No pseudopotential on this center.
   61          1
                                   No pseudopotential on this center.
   62          1
                                   No pseudopotential on this center.
   63          6
                                   No pseudopotential on this center.
   64          1
                                   No pseudopotential on this center.
   65          1
                                   No pseudopotential on this center.
   66          1
                                   No pseudopotential on this center.
   67          6
                                   No pseudopotential on this center.
   68          1
                                   No pseudopotential on this center.
   69          1
                                   No pseudopotential on this center.
   70          1
                                   No pseudopotential on this center.
   71          6
                                   No pseudopotential on this center.
   72          1
                                   No pseudopotential on this center.
   73          1
                                   No pseudopotential on this center.
   74          1
                                   No pseudopotential on this center.
   75          6
                                   No pseudopotential on this center.
   76          1
                                   No pseudopotential on this center.
   77          1
                                   No pseudopotential on this center.
   78          1
                                   No pseudopotential on this center.
   79          6
                                   No pseudopotential on this center.
   80          1
                                   No pseudopotential on this center.
   81          1
                                   No pseudopotential on this center.
   82          1
                                   No pseudopotential on this center.
   83          1
                                   No pseudopotential on this center.
   84          6
                                   No pseudopotential on this center.
   85          8
                                   No pseudopotential on this center.
   86          6
                                   No pseudopotential on this center.
   87          1
                                   No pseudopotential on this center.
   88          1
                                   No pseudopotential on this center.
   89          6
                                   No pseudopotential on this center.
   90          1
                                   No pseudopotential on this center.
   91          1
                                   No pseudopotential on this center.
   92          7
                                   No pseudopotential on this center.
   93          6
                                   No pseudopotential on this center.
   94          1
                                   No pseudopotential on this center.
   95          1
                                   No pseudopotential on this center.
   96          1
                                   No pseudopotential on this center.
   97          6
                                   No pseudopotential on this center.
   98          1
                                   No pseudopotential on this center.
   99          1
                                   No pseudopotential on this center.
  100          1
                                   No pseudopotential on this center.
  101          1
                                   No pseudopotential on this center.
  102          1
                                   No pseudopotential on this center.
 ======================================================================================================
 There are   824 symmetry adapted cartesian basis functions of A   symmetry.
 There are   776 symmetry adapted basis functions of A   symmetry.
   776 basis functions,  1551 primitive gaussians,   824 cartesian basis functions
   181 alpha electrons      181 beta electrons
       nuclear repulsion energy      7506.5941277574 Hartrees.
 NAtoms=  102 NActive=  102 NUniq=  102 SFac= 1.00D+00 NAtFMM=   60 NAOKFM=T Big=T
 Integral buffers will be    131072 words long.
 Raffenetti 2 integral format.
 Two-electron integral symmetry is turned on.
 One-electron integrals computed using PRISM.
   1 Symmetry operations used in ECPInt.
 ECPInt:  NShTT=   45753 NPrTT=  276657 LenC2=   36544 LenP2D=  114236.
 LDataN:  DoStor=T MaxTD1= 6 Len=  172
 NBasis=   776 RedAO= T EigKep=  6.08D-04  NBF=   776
 NBsUse=   776 1.00D-06 EigRej= -1.00D+00 NBFU=   776
 Defaulting to unpruned grid for atomic number  77.
 ExpMin= 2.90D-02 ExpMax= 5.48D+03 ExpMxC= 8.25D+02 IAcc=3 IRadAn=         5 AccDes= 0.00D+00
 Harris functional with IExCor= 1009 and IRadAn=       5 diagonalized for initial guess.
 HarFok:  IExCor= 1009 AccDes= 0.00D+00 IRadAn=         5 IDoV= 1 UseB2=F ITyADJ=14
 ICtDFT=  3500011 ScaDFX=  1.000000  1.000000  1.000000  1.000000
 Defaulting to unpruned grid for atomic number  77.
 FoFCou: FMM=F IPFlag=           0 FMFlag=      100000 FMFlg1=        2001
         NFxFlg=           0 DoJE=T BraDBF=F KetDBF=T FulRan=T
         wScrn=  0.000000 ICntrl=       500 IOpCl=  0 I1Cent=   200000004 NGrid=           0
         NMat0=    1 NMatS0=      1 NMatT0=    0 NMatD0=    1 NMtDS0=    0 NMtDT0=    0
 Petite list used in FoFCou.
 Requested convergence on RMS density matrix=1.00D-08 within 128 cycles.
 Requested convergence on MAX density matrix=1.00D-06.
 Requested convergence on             energy=1.00D-06.
 No special actions if energy rises.
 Defaulting to unpruned grid for atomic number  77.
 Defaulting to unpruned grid for atomic number  77.
 Defaulting to unpruned grid for atomic number  77.
 Defaulting to unpruned grid for atomic number  77.
 Defaulting to unpruned grid for atomic number  77.
 Defaulting to unpruned grid for atomic number  77.
 Defaulting to unpruned grid for atomic number  77.
 Defaulting to unpruned grid for atomic number  77.
 Defaulting to unpruned grid for atomic number  77.
 Defaulting to unpruned grid for atomic number  77.
 Defaulting to unpruned grid for atomic number  77.
 Defaulting to unpruned grid for atomic number  77.
 Defaulting to unpruned grid for atomic number  77.
 Defaulting to unpruned grid for atomic number  77.
 Defaulting to unpruned grid for atomic number  77.
 Defaulting to unpruned grid for atomic number  77.
 SCF Done:  E(RM06) =  -2159.70918322     A.U. after   16 cycles
            NFock= 16  Conv=0.84D-08     -V/T= 2.0408
 DoSCS=F DFT=T ScalE2(SS,OS)=  1.000000  1.000000
 Range of M.O.s used for correlation:     1   776
 NBasis=   776 NAE=   181 NBE=   181 NFC=     0 NFV=     0
 NROrb=    776 NOA=   181 NOB=   181 NVA=   595 NVB=   595
   1 Symmetry operations used in ECPInt.
 ECPInt:  NShTT=   45753 NPrTT=  276657 LenC2=   36544 LenP2D=  114236.
 LDataN:  DoStor=T MaxTD1= 7 Len=  274
 Number of processors reduced to   8 by ecpmxn.
 Symmetrizing basis deriv contribution to polar:
 IMax=3 JMax=2 DiffMx= 0.00D+00
 G2DrvN: will do   103 centers at a time, making    1 passes.
 Calling FoFCou, ICntrl=  3107 FMM=T I1Cent=   0 AccDes= 0.00D+00.
 Defaulting to unpruned grid for atomic number  77.
 Defaulting to unpruned grid for atomic number  77.
 Defaulting to unpruned grid for atomic number  77.
 Defaulting to unpruned grid for atomic number  77.
 Defaulting to unpruned grid for atomic number  77.
 Defaulting to unpruned grid for atomic number  77.
 Defaulting to unpruned grid for atomic number  77.
 Defaulting to unpruned grid for atomic number  77.
 Defaulting to unpruned grid for atomic number  77.
 Defaulting to unpruned grid for atomic number  77.
 Defaulting to unpruned grid for atomic number  77.
 Defaulting to unpruned grid for atomic number  77.
 Defaulting to unpruned grid for atomic number  77.
 Defaulting to unpruned grid for atomic number  77.
 Defaulting to unpruned grid for atomic number  77.
 Defaulting to unpruned grid for atomic number  77.
 End of G2Drv F.D. properties file   721 does not exist.
 End of G2Drv F.D. properties file   722 does not exist.
 End of G2Drv F.D. properties file   788 does not exist.
          IDoAtm=11111111111111111111111111111111111111111111111111
          IDoAtm=11111111111111111111111111111111111111111111111111
          IDoAtm=11
          Differentiating once with respect to electric field.
                with respect to dipole field.
          Differentiating once with respect to nuclear coordinates.
 Defaulting to unpruned grid for atomic number  77.
 CalDSu exits because no D1Ps are significant.
 Defaulting to unpruned grid for atomic number  77.
 Defaulting to unpruned grid for atomic number  77.
 Defaulting to unpruned grid for atomic number  77.
 Defaulting to unpruned grid for atomic number  77.
 Defaulting to unpruned grid for atomic number  77.
 Defaulting to unpruned grid for atomic number  77.
 Defaulting to unpruned grid for atomic number  77.
 Defaulting to unpruned grid for atomic number  77.
 Defaulting to unpruned grid for atomic number  77.
 Defaulting to unpruned grid for atomic number  77.
 Defaulting to unpruned grid for atomic number  77.
 Defaulting to unpruned grid for atomic number  77.
 Defaulting to unpruned grid for atomic number  77.
 Defaulting to unpruned grid for atomic number  77.
 Defaulting to unpruned grid for atomic number  77.
 Defaulting to unpruned grid for atomic number  77.
          There are   309 degrees of freedom in the 1st order CPHF.  IDoFFX=6 NUNeed=     3.
    306 vectors produced by pass  0 Test12= 1.08D-13 1.00D-09 XBig12= 4.65D+02 9.09D+00.
 AX will form    72 AO Fock derivatives at one time.
    306 vectors produced by pass  1 Test12= 1.08D-13 1.00D-09 XBig12= 7.83D+01 1.05D+00.
    306 vectors produced by pass  2 Test12= 1.08D-13 1.00D-09 XBig12= 1.11D+00 1.03D-01.
    306 vectors produced by pass  3 Test12= 1.08D-13 1.00D-09 XBig12= 6.53D-03 1.14D-02.
    306 vectors produced by pass  4 Test12= 1.08D-13 1.00D-09 XBig12= 1.81D-05 3.82D-04.
    274 vectors produced by pass  5 Test12= 1.08D-13 1.00D-09 XBig12= 3.49D-08 1.48D-05.
     77 vectors produced by pass  6 Test12= 1.08D-13 1.00D-09 XBig12= 5.48D-11 5.63D-07.
      3 vectors produced by pass  7 Test12= 1.08D-13 1.00D-09 XBig12= 7.89D-14 1.83D-08.
 InvSVY:  IOpt=1 It=  1 EMax= 2.49D-14
 Solved reduced A of dimension  1884 with   309 vectors.
 Isotropic polarizability for W=    0.000000      457.66 Bohr**3.
 End of Minotr F.D. properties file   721 does not exist.
 End of Minotr F.D. properties file   722 does not exist.
 End of Minotr F.D. properties file   788 does not exist.
 Hyperfine terms turned off by default for NAtoms > 100.

 **********************************************************************

            Population analysis using the SCF Density.

 **********************************************************************

 Orbital symmetries:
       Occupied  (A) (A) (A) (A) (A) (A) (A) (A) (A) (A) (A) (A)
                 (A) (A) (A) (A) (A) (A) (A) (A) (A) (A) (A) (A)
                 (A) (A) (A) (A) (A) (A) (A) (A) (A) (A) (A) (A)
                 (A) (A) (A) (A) (A) (A) (A) (A) (A) (A) (A) (A)
                 (A) (A) (A) (A) (A) (A) (A) (A) (A) (A) (A) (A)
                 (A) (A) (A) (A) (A) (A) (A) (A) (A) (A) (A) (A)
                 (A) (A) (A) (A) (A) (A) (A) (A) (A) (A) (A) (A)
                 (A) (A) (A) (A) (A) (A) (A) (A) (A) (A) (A) (A)
                 (A) (A) (A) (A) (A) (A) (A) (A) (A) (A) (A) (A)
                 (A) (A) (A) (A) (A) (A) (A) (A) (A) (A) (A) (A)
                 (A) (A) (A) (A) (A) (A) (A) (A) (A) (A) (A) (A)
                 (A) (A) (A) (A) (A) (A) (A) (A) (A) (A) (A) (A)
                 (A) (A) (A) (A) (A) (A) (A) (A) (A) (A) (A) (A)
                 (A) (A) (A) (A) (A) (A) (A) (A) (A) (A) (A) (A)
                 (A) (A) (A) (A) (A) (A) (A) (A) (A) (A) (A) (A)
                 (A)
       Virtual   (A) (A) (A) (A) (A) (A) (A) (A) (A) (A) (A) (A)
                 (A) (A) (A) (A) (A) (A) (A) (A) (A) (A) (A) (A)
                 (A) (A) (A) (A) (A) (A) (A) (A) (A) (A) (A) (A)
                 (A) (A) (A) (A) (A) (A) (A) (A) (A) (A) (A) (A)
                 (A) (A) (A) (A) (A) (A) (A) (A) (A) (A) (A) (A)
                 (A) (A) (A) (A) (A) (A) (A) (A) (A) (A) (A) (A)
                 (A) (A) (A) (A) (A) (A) (A) (A) (A) (A) (A) (A)
                 (A) (A) (A) (A) (A) (A) (A) (A) (A) (A) (A) (A)
                 (A) (A) (A) (A) (A) (A) (A) (A) (A) (A) (A) (A)
                 (A) (A) (A) (A) (A) (A) (A) (A) (A) (A) (A) (A)
                 (A) (A) (A) (A) (A) (A) (A) (A) (A) (A) (A) (A)
                 (A) (A) (A) (A) (A) (A) (A) (A) (A) (A) (A) (A)
                 (A) (A) (A) (A) (A) (A) (A) (A) (A) (A) (A) (A)
                 (A) (A) (A) (A) (A) (A) (A) (A) (A) (A) (A) (A)
                 (A) (A) (A) (A) (A) (A) (A) (A) (A) (A) (A) (A)
                 (A) (A) (A) (A) (A) (A) (A) (A) (A) (A) (A) (A)
                 (A) (A) (A) (A) (A) (A) (A) (A) (A) (A) (A) (A)
                 (A) (A) (A) (A) (A) (A) (A) (A) (A) (A) (A) (A)
                 (A) (A) (A) (A) (A) (A) (A) (A) (A) (A) (A) (A)
                 (A) (A) (A) (A) (A) (A) (A) (A) (A) (A) (A) (A)
                 (A) (A) (A) (A) (A) (A) (A) (A) (A) (A) (A) (A)
                 (A) (A) (A) (A) (A) (A) (A) (A) (A) (A) (A) (A)
                 (A) (A) (A) (A) (A) (A) (A) (A) (A) (A) (A) (A)
                 (A) (A) (A) (A) (A) (A) (A) (A) (A) (A) (A) (A)
                 (A) (A) (A) (A) (A) (A) (A) (A) (A) (A) (A) (A)
                 (A) (A) (A) (A) (A) (A) (A) (A) (A) (A) (A) (A)
                 (A) (A) (A) (A) (A) (A) (A) (A) (A) (A) (A) (A)
                 (A) (A) (A) (A) (A) (A) (A) (A) (A) (A) (A) (A)
                 (A) (A) (A) (A) (A) (A) (A) (A) (A) (A) (A) (A)
                 (A) (A) (A) (A) (A) (A) (A) (A) (A) (A) (A) (A)
                 (A) (A) (A) (A) (A) (A) (A) (A) (A) (A) (A) (A)
                 (A) (A) (A) (A) (A) (A) (A) (A) (A) (A) (A) (A)
                 (A) (A) (A) (A) (A) (A) (A) (A) (A) (A) (A) (A)
                 (A) (A) (A) (A) (A) (A) (A) (A) (A) (A) (A) (A)
                 (A) (A) (A) (A) (A) (A) (A) (A) (A) (A) (A) (A)
                 (A) (A) (A) (A) (A) (A) (A) (A) (A) (A) (A) (A)
                 (A) (A) (A) (A) (A) (A) (A) (A) (A) (A) (A) (A)
                 (A) (A) (A) (A) (A) (A) (A) (A) (A) (A) (A) (A)
                 (A) (A) (A) (A) (A) (A) (A) (A) (A) (A) (A) (A)
                 (A) (A) (A) (A) (A) (A) (A) (A) (A) (A) (A) (A)
                 (A) (A) (A) (A) (A) (A) (A) (A) (A) (A) (A) (A)
                 (A) (A) (A) (A) (A) (A) (A) (A) (A) (A) (A) (A)
                 (A) (A) (A) (A) (A) (A) (A) (A) (A) (A) (A) (A)
                 (A) (A) (A) (A) (A) (A) (A) (A) (A) (A) (A) (A)
                 (A) (A) (A) (A) (A) (A) (A) (A) (A) (A) (A) (A)
                 (A) (A) (A) (A) (A) (A) (A) (A) (A) (A) (A) (A)
                 (A) (A) (A) (A) (A) (A) (A) (A) (A) (A) (A) (A)
                 (A) (A) (A) (A) (A) (A) (A) (A) (A) (A) (A) (A)
                 (A) (A) (A) (A) (A) (A) (A) (A) (A) (A) (A) (A)
                 (A) (A) (A) (A) (A) (A) (A)
 The electronic state is 1-A.
 Alpha  occ. eigenvalues --  -19.24865 -19.19186 -19.19028 -19.18464 -19.18320
 Alpha  occ. eigenvalues --  -19.17995 -19.17272 -14.45785 -14.44161 -14.43375
 Alpha  occ. eigenvalues --  -10.38236 -10.31185 -10.31116 -10.29993 -10.29760
 Alpha  occ. eigenvalues --  -10.29195 -10.28368 -10.28354 -10.28176 -10.28169
 Alpha  occ. eigenvalues --  -10.28011 -10.27846 -10.27815 -10.27795 -10.27788
 Alpha  occ. eigenvalues --  -10.27718 -10.27621 -10.27329 -10.27198 -10.25419
 Alpha  occ. eigenvalues --  -10.23675 -10.22412 -10.21953 -10.21654 -10.21612
 Alpha  occ. eigenvalues --  -10.21352 -10.21346 -10.21310 -10.21188 -10.21126
 Alpha  occ. eigenvalues --  -10.21079 -10.21007 -10.19965  -6.80795  -6.77417
 Alpha  occ. eigenvalues --   -6.76990  -3.58811  -2.01365  -2.00680  -2.00150
 Alpha  occ. eigenvalues --   -1.10994  -1.04459  -1.04343  -1.04095  -0.99032
 Alpha  occ. eigenvalues --   -0.97477  -0.97412  -0.97402  -0.97365  -0.96522
 Alpha  occ. eigenvalues --   -0.83757  -0.82958  -0.82070  -0.81936  -0.79162
 Alpha  occ. eigenvalues --   -0.79059  -0.78695  -0.76705  -0.74894  -0.73669
 Alpha  occ. eigenvalues --   -0.73636  -0.73209  -0.71847  -0.69457  -0.69249
 Alpha  occ. eigenvalues --   -0.68686  -0.68235  -0.67242  -0.66649  -0.66547
 Alpha  occ. eigenvalues --   -0.66090  -0.65182  -0.63981  -0.62781  -0.60536
 Alpha  occ. eigenvalues --   -0.60339  -0.60106  -0.57706  -0.56819  -0.55941
 Alpha  occ. eigenvalues --   -0.53604  -0.53159  -0.53112  -0.52788  -0.52501
 Alpha  occ. eigenvalues --   -0.52104  -0.52082  -0.51661  -0.51452  -0.50301
 Alpha  occ. eigenvalues --   -0.49209  -0.48984  -0.47657  -0.46795  -0.46347
 Alpha  occ. eigenvalues --   -0.46211  -0.45853  -0.45456  -0.45256  -0.45114
 Alpha  occ. eigenvalues --   -0.45029  -0.44767  -0.44571  -0.44480  -0.43515
 Alpha  occ. eigenvalues --   -0.43360  -0.43166  -0.42940  -0.42712  -0.42520
 Alpha  occ. eigenvalues --   -0.42254  -0.42181  -0.41948  -0.41614  -0.40607
 Alpha  occ. eigenvalues --   -0.39954  -0.39878  -0.39288  -0.39240  -0.39193
 Alpha  occ. eigenvalues --   -0.39020  -0.38733  -0.38618  -0.38490  -0.38426
 Alpha  occ. eigenvalues --   -0.38349  -0.38266  -0.37949  -0.37853  -0.37725
 Alpha  occ. eigenvalues --   -0.37401  -0.37210  -0.36529  -0.36334  -0.35911
 Alpha  occ. eigenvalues --   -0.35775  -0.35661  -0.35564  -0.35452  -0.34892
 Alpha  occ. eigenvalues --   -0.34872  -0.34667  -0.34208  -0.33943  -0.33751
 Alpha  occ. eigenvalues --   -0.33599  -0.33273  -0.32648  -0.32568  -0.32238
 Alpha  occ. eigenvalues --   -0.31902  -0.31011  -0.30799  -0.29983  -0.29943
 Alpha  occ. eigenvalues --   -0.29896  -0.28944  -0.28796  -0.28482  -0.27765
 Alpha  occ. eigenvalues --   -0.26300  -0.26217  -0.25334  -0.25238  -0.24921
 Alpha  occ. eigenvalues --   -0.24359  -0.24177  -0.23098  -0.18780  -0.18701
 Alpha  occ. eigenvalues --   -0.17857
 Alpha virt. eigenvalues --   -0.06297  -0.03330  -0.02666  -0.00147   0.02048
 Alpha virt. eigenvalues --    0.03505   0.05545   0.06591   0.07508   0.07977
 Alpha virt. eigenvalues --    0.08448   0.09213   0.09948   0.10189   0.10476
 Alpha virt. eigenvalues --    0.11155   0.11406   0.11648   0.12291   0.12546
 Alpha virt. eigenvalues --    0.13058   0.13304   0.13626   0.13761   0.14026
 Alpha virt. eigenvalues --    0.14515   0.14759   0.15020   0.15124   0.15406
 Alpha virt. eigenvalues --    0.15559   0.15695   0.15905   0.15997   0.16199
 Alpha virt. eigenvalues --    0.16298   0.16485   0.16652   0.16785   0.16930
 Alpha virt. eigenvalues --    0.17004   0.17364   0.17651   0.17899   0.18192
 Alpha virt. eigenvalues --    0.18355   0.18497   0.18581   0.18830   0.19008
 Alpha virt. eigenvalues --    0.19233   0.19353   0.19614   0.19993   0.20054
 Alpha virt. eigenvalues --    0.20260   0.20460   0.20599   0.20809   0.21085
 Alpha virt. eigenvalues --    0.21217   0.21389   0.21707   0.22028   0.22060
 Alpha virt. eigenvalues --    0.22287   0.22836   0.23039   0.23280   0.23634
 Alpha virt. eigenvalues --    0.24007   0.24105   0.24502   0.24810   0.24995
 Alpha virt. eigenvalues --    0.25288   0.25803   0.25873   0.26300   0.26429
 Alpha virt. eigenvalues --    0.26777   0.27134   0.27410   0.27493   0.27820
 Alpha virt. eigenvalues --    0.28272   0.28505   0.28786   0.29046   0.29320
 Alpha virt. eigenvalues --    0.29604   0.29829   0.30182   0.30401   0.30819
 Alpha virt. eigenvalues --    0.31466   0.31794   0.32439   0.32788   0.33479
 Alpha virt. eigenvalues --    0.33986   0.34847   0.35674   0.35842   0.36336
 Alpha virt. eigenvalues --    0.37296   0.38354   0.38626   0.39235   0.39566
 Alpha virt. eigenvalues --    0.40159   0.40951   0.41176   0.41630   0.43170
 Alpha virt. eigenvalues --    0.44161   0.45706   0.46419   0.47500   0.47920
 Alpha virt. eigenvalues --    0.48283   0.49037   0.50221   0.50673   0.50979
 Alpha virt. eigenvalues --    0.51480   0.51641   0.52158   0.52382   0.52668
 Alpha virt. eigenvalues --    0.53383   0.53604   0.53910   0.54216   0.54293
 Alpha virt. eigenvalues --    0.55817   0.56033   0.56658   0.56691   0.56854
 Alpha virt. eigenvalues --    0.57226   0.57324   0.57712   0.57866   0.57926
 Alpha virt. eigenvalues --    0.58301   0.58690   0.59129   0.59279   0.59713
 Alpha virt. eigenvalues --    0.59872   0.59964   0.60177   0.60348   0.60643
 Alpha virt. eigenvalues --    0.60970   0.61504   0.61907   0.62248   0.62416
 Alpha virt. eigenvalues --    0.62690   0.63032   0.63373   0.63699   0.63946
 Alpha virt. eigenvalues --    0.64276   0.64950   0.65361   0.65764   0.66040
 Alpha virt. eigenvalues --    0.66422   0.66775   0.67133   0.67589   0.67653
 Alpha virt. eigenvalues --    0.68076   0.68512   0.68752   0.69449   0.69991
 Alpha virt. eigenvalues --    0.70495   0.70876   0.70961   0.71141   0.71677
 Alpha virt. eigenvalues --    0.72139   0.72516   0.72970   0.73559   0.73752
 Alpha virt. eigenvalues --    0.73813   0.74123   0.74496   0.75066   0.75306
 Alpha virt. eigenvalues --    0.75855   0.76067   0.76683   0.76763   0.77297
 Alpha virt. eigenvalues --    0.77438   0.78005   0.78625   0.78803   0.79006
 Alpha virt. eigenvalues --    0.79591   0.79987   0.80094   0.80932   0.81141
 Alpha virt. eigenvalues --    0.81568   0.81704   0.82133   0.82489   0.83121
 Alpha virt. eigenvalues --    0.83309   0.83596   0.84312   0.84326   0.84777
 Alpha virt. eigenvalues --    0.84863   0.85239   0.85442   0.85586   0.85893
 Alpha virt. eigenvalues --    0.86417   0.86664   0.86822   0.86890   0.87170
 Alpha virt. eigenvalues --    0.87288   0.87846   0.87859   0.88193   0.88455
 Alpha virt. eigenvalues --    0.88739   0.89075   0.89373   0.89631   0.89810
 Alpha virt. eigenvalues --    0.90144   0.90326   0.90411   0.90522   0.90856
 Alpha virt. eigenvalues --    0.90985   0.91025   0.91433   0.91807   0.91995
 Alpha virt. eigenvalues --    0.92049   0.92491   0.92706   0.93021   0.93487
 Alpha virt. eigenvalues --    0.93723   0.93943   0.94463   0.94903   0.95079
 Alpha virt. eigenvalues --    0.95464   0.95895   0.96163   0.96509   0.96740
 Alpha virt. eigenvalues --    0.97019   0.97250   0.97815   0.98141   0.98354
 Alpha virt. eigenvalues --    0.98620   0.98851   0.99496   0.99720   0.99982
 Alpha virt. eigenvalues --    1.00618   1.00785   1.01425   1.02044   1.02463
 Alpha virt. eigenvalues --    1.03316   1.03927   1.04742   1.05047   1.05563
 Alpha virt. eigenvalues --    1.06318   1.07199   1.07563   1.07823   1.07889
 Alpha virt. eigenvalues --    1.08700   1.10208   1.10379   1.10996   1.11219
 Alpha virt. eigenvalues --    1.12017   1.13428   1.14136   1.14566   1.16050
 Alpha virt. eigenvalues --    1.16699   1.17404   1.18158   1.18196   1.18864
 Alpha virt. eigenvalues --    1.19422   1.20136   1.21166   1.21684   1.22345
 Alpha virt. eigenvalues --    1.22693   1.23440   1.23870   1.24675   1.24809
 Alpha virt. eigenvalues --    1.25319   1.25675   1.27377   1.28013   1.28519
 Alpha virt. eigenvalues --    1.28923   1.29475   1.30235   1.30305   1.31454
 Alpha virt. eigenvalues --    1.31985   1.32886   1.33593   1.34192   1.35522
 Alpha virt. eigenvalues --    1.35712   1.36262   1.38147   1.38416   1.39239
 Alpha virt. eigenvalues --    1.39398   1.40438   1.40883   1.41629   1.42399
 Alpha virt. eigenvalues --    1.42921   1.43190   1.43917   1.44424   1.45146
 Alpha virt. eigenvalues --    1.45890   1.46191   1.46849   1.47311   1.47643
 Alpha virt. eigenvalues --    1.47869   1.48302   1.48986   1.49044   1.49673
 Alpha virt. eigenvalues --    1.49928   1.50618   1.51988   1.52279   1.53172
 Alpha virt. eigenvalues --    1.54819   1.55262   1.55587   1.57959   1.58164
 Alpha virt. eigenvalues --    1.59312   1.59626   1.61110   1.61202   1.62597
 Alpha virt. eigenvalues --    1.63134   1.63500   1.64807   1.66007   1.66885
 Alpha virt. eigenvalues --    1.67030   1.67680   1.67843   1.68044   1.68887
 Alpha virt. eigenvalues --    1.69536   1.69799   1.70250   1.71198   1.71751
 Alpha virt. eigenvalues --    1.72529   1.73650   1.74617   1.76251   1.76864
 Alpha virt. eigenvalues --    1.77139   1.78305   1.78514   1.79057   1.79098
 Alpha virt. eigenvalues --    1.80316   1.80738   1.81420   1.81641   1.82528
 Alpha virt. eigenvalues --    1.82832   1.83227   1.83317   1.83727   1.84233
 Alpha virt. eigenvalues --    1.85092   1.85232   1.86243   1.86829   1.86975
 Alpha virt. eigenvalues --    1.87212   1.87530   1.87798   1.88409   1.88658
 Alpha virt. eigenvalues --    1.89623   1.89929   1.90875   1.91071   1.91739
 Alpha virt. eigenvalues --    1.92441   1.92717   1.92785   1.93083   1.93174
 Alpha virt. eigenvalues --    1.93340   1.93973   1.94416   1.94536   1.94749
 Alpha virt. eigenvalues --    1.95070   1.95631   1.95727   1.96580   1.97136
 Alpha virt. eigenvalues --    1.97623   1.98028   1.98660   1.99382   1.99753
 Alpha virt. eigenvalues --    2.00572   2.00614   2.01779   2.02671   2.03592
 Alpha virt. eigenvalues --    2.04195   2.04475   2.04702   2.05288   2.05707
 Alpha virt. eigenvalues --    2.06420   2.07320   2.07657   2.07984   2.08357
 Alpha virt. eigenvalues --    2.08651   2.09150   2.09254   2.11051   2.11427
 Alpha virt. eigenvalues --    2.11494   2.11960   2.12435   2.13036   2.13317
 Alpha virt. eigenvalues --    2.14313   2.14721   2.15171   2.15655   2.15985
 Alpha virt. eigenvalues --    2.16168   2.16474   2.17508   2.17671   2.18237
 Alpha virt. eigenvalues --    2.18511   2.18752   2.19022   2.19783   2.19957
 Alpha virt. eigenvalues --    2.19979   2.20294   2.21182   2.21588   2.22124
 Alpha virt. eigenvalues --    2.22316   2.22593   2.22847   2.23461   2.23671
 Alpha virt. eigenvalues --    2.24096   2.24199   2.24647   2.25096   2.25442
 Alpha virt. eigenvalues --    2.26368   2.26768   2.27268   2.27738   2.28028
 Alpha virt. eigenvalues --    2.28357   2.28539   2.28841   2.29584   2.29781
 Alpha virt. eigenvalues --    2.30759   2.31488   2.32119   2.32608   2.32866
 Alpha virt. eigenvalues --    2.33301   2.33886   2.34876   2.35551   2.35795
 Alpha virt. eigenvalues --    2.36568   2.37495   2.39181   2.39771   2.40323
 Alpha virt. eigenvalues --    2.40644   2.41761   2.42856   2.45101   2.45894
 Alpha virt. eigenvalues --    2.46737   2.47054   2.47755   2.48854   2.49589
 Alpha virt. eigenvalues --    2.50019   2.50521   2.51221   2.51916   2.52157
 Alpha virt. eigenvalues --    2.53962   2.54169   2.54789   2.56707   2.57218
 Alpha virt. eigenvalues --    2.60276   2.60688   2.61660   2.61830   2.62215
 Alpha virt. eigenvalues --    2.62886   2.64429   2.65218   2.66086   2.66263
 Alpha virt. eigenvalues --    2.66271   2.66739   2.69006   2.69887   2.70995
 Alpha virt. eigenvalues --    2.71676   2.73655   2.76816   2.78818   2.79184
 Alpha virt. eigenvalues --    2.79658   2.79855   2.80457   2.81464   2.81640
 Alpha virt. eigenvalues --    2.81697   2.81878   2.83216   2.83542   2.83821
 Alpha virt. eigenvalues --    2.84354   2.85256   2.87069   2.87463   2.90722
 Alpha virt. eigenvalues --    2.92530   2.93394   2.95454   2.95823   2.96463
 Alpha virt. eigenvalues --    2.97215   2.99296   2.99924   3.03540   3.05682
 Alpha virt. eigenvalues --    3.06505   3.09155   3.12563   3.13629   3.13762
 Alpha virt. eigenvalues --    3.20783   3.24348   3.30777   3.44114  11.45158
          Condensed to atoms (all electrons):
 Mulliken charges:
               1
     1  C    0.305750
     2  C    0.044439
     3  C   -0.169292
     4  C   -0.142092
     5  C   -0.183827
     6  C    0.300397
     7  C    0.037501
     8  C   -0.177931
     9  C   -0.154654
    10  C   -0.177401
    11  H    0.202104
    12  H    0.178756
    13  H    0.160746
    14  H    0.219630
    15  H    0.176118
    16  H    0.167212
    17  N   -0.460019
    18  N   -0.509236
    19  Ir  -0.100805
    20  O   -0.524874
    21  O   -0.562772
    22  O   -0.581038
    23  B    0.435512
    24  B    0.414736
    25  B    0.845571
    26  O   -0.565633
    27  O   -0.519860
    28  C    0.302270
    29  C    0.308408
    30  C    0.336839
    31  C    0.317978
    32  C    0.299812
    33  C    0.300424
    34  O   -0.502181
    35  C   -0.510329
    36  H    0.170756
    37  H    0.146052
    38  H    0.160427
    39  C   -0.502482
    40  H    0.151439
    41  H    0.145553
    42  H    0.169536
    43  C   -0.514355
    44  H    0.141705
    45  H    0.177052
    46  H    0.177088
    47  C   -0.510593
    48  H    0.170343
    49  H    0.162894
    50  H    0.145026
    51  C   -0.506822
    52  H    0.152124
    53  H    0.154357
    54  H    0.155134
    55  C   -0.508365
    56  H    0.195338
    57  H    0.145396
    58  H    0.146736
    59  C   -0.498099
    60  H    0.152166
    61  H    0.143451
    62  H    0.171434
    63  C   -0.510862
    64  H    0.139539
    65  H    0.178763
    66  H    0.168855
    67  C   -0.515825
    68  H    0.144768
    69  H    0.161257
    70  H    0.168628
    71  C   -0.506484
    72  H    0.141076
    73  H    0.173178
    74  H    0.159559
    75  C   -0.524215
    76  H    0.147119
    77  H    0.150110
    78  H    0.202417
    79  C   -0.525295
    80  H    0.150200
    81  H    0.228329
    82  H    0.143399
    83  H    0.075706
    84  C    0.622896
    85  O   -0.509670
    86  C   -0.416898
    87  H    0.183499
    88  H    0.194855
    89  C   -0.392999
    90  H    0.163967
    91  H    0.179007
    92  N   -0.372825
    93  C   -0.380469
    94  H    0.197598
    95  H    0.197422
    96  H    0.178124
    97  C   -0.483185
    98  H    0.194345
    99  H    0.166777
   100  H    0.173698
   101  H    0.180640
   102  H    0.167446
 Sum of Mulliken charges =  -0.00000
 Mulliken charges with hydrogens summed into heavy atoms:
               1
     1  C    0.305750
     2  C    0.246543
     3  C    0.011348
     4  C    0.036664
     5  C   -0.023081
     6  C    0.300397
     7  C    0.257131
     8  C   -0.004233
     9  C    0.021464
    10  C   -0.010188
    17  N   -0.460019
    18  N   -0.509236
    19  Ir  -0.025099
    20  O   -0.524874
    21  O   -0.562772
    22  O   -0.581038
    23  B    0.435512
    24  B    0.414736
    25  B    0.845571
    26  O   -0.565633
    27  O   -0.519860
    28  C    0.302270
    29  C    0.308408
    30  C    0.336839
    31  C    0.317978
    32  C    0.299812
    33  C    0.300424
    34  O   -0.502181
    35  C   -0.033093
    39  C   -0.035954
    43  C   -0.018510
    47  C   -0.032330
    51  C   -0.045207
    55  C   -0.020895
    59  C   -0.031047
    63  C   -0.023704
    67  C   -0.041172
    71  C   -0.032671
    75  C   -0.024570
    79  C   -0.003368
    84  C    0.622896
    85  O   -0.509670
    86  C   -0.038544
    89  C   -0.050025
    92  N   -0.372825
    93  C    0.192674
    97  C    0.045383
 APT charges:
               1
     1  C    0.178266
     2  C    0.058096
     3  C   -0.037182
     4  C    0.089344
     5  C   -0.165273
     6  C    0.103129
     7  C   -0.002065
     8  C   -0.014980
     9  C    0.003493
    10  C   -0.115184
    11  H    0.061551
    12  H    0.028738
    13  H    0.040686
    14  H    0.126003
    15  H    0.030240
    16  H    0.042479
    17  N   -0.143253
    18  N    0.017919
    19  Ir  -0.494739
    20  O   -0.922384
    21  O   -1.010425
    22  O   -0.957262
    23  B    1.259853
    24  B    1.269235
    25  B    1.274613
    26  O   -0.929339
    27  O   -0.996466
    28  C    0.494982
    29  C    0.470887
    30  C    0.482216
    31  C    0.476047
    32  C    0.515821
    33  C    0.485291
    34  O   -0.998135
    35  C   -0.004685
    36  H    0.001405
    37  H   -0.020019
    38  H   -0.006579
    39  C   -0.033974
    40  H   -0.007249
    41  H   -0.022612
    42  H    0.004676
    43  C   -0.033586
    44  H   -0.029759
    45  H    0.005013
    46  H    0.004640
    47  C   -0.010731
    48  H    0.001013
    49  H    0.003982
    50  H   -0.023937
    51  C   -0.004210
    52  H   -0.020693
    53  H   -0.007477
    54  H   -0.004490
    55  C   -0.058153
    56  H    0.039871
    57  H   -0.033884
    58  H   -0.006803
    59  C   -0.018641
    60  H   -0.012781
    61  H   -0.032606
    62  H    0.003247
    63  C   -0.003290
    64  H   -0.027148
    65  H    0.005186
    66  H   -0.004789
    67  C   -0.004042
    68  H   -0.012203
    69  H   -0.021024
    70  H    0.004195
    71  C   -0.022216
    72  H   -0.020333
    73  H   -0.007459
    74  H   -0.013316
    75  C   -0.043969
    76  H   -0.004731
    77  H   -0.019249
    78  H    0.036595
    79  C   -0.064962
    80  H    0.005424
    81  H    0.064841
    82  H   -0.024448
    83  H   -0.093405
    84  C    0.867749
    85  O   -0.845885
    86  C   -0.003096
    87  H    0.016955
    88  H   -0.008316
    89  C   -0.029143
    90  H   -0.007831
    91  H    0.045887
    92  N   -0.589852
    93  C    0.292767
    94  H    0.001056
    95  H   -0.013542
    96  H    0.007687
    97  C    0.076640
    98  H    0.011834
    99  H   -0.004017
   100  H    0.038917
   101  H    0.034932
   102  H   -0.015578
 Sum of APT charges =  -0.00000
 APT charges with hydrogens summed into heavy atoms:
               1
     1  C    0.178266
     2  C    0.119646
     3  C   -0.002251
     4  C    0.118082
     5  C   -0.124587
     6  C    0.103129
     7  C    0.123938
     8  C    0.023937
     9  C    0.033733
    10  C   -0.072705
    17  N   -0.143253
    18  N    0.017919
    19  Ir  -0.588144
    20  O   -0.922384
    21  O   -1.010425
    22  O   -0.957262
    23  B    1.259853
    24  B    1.269235
    25  B    1.274613
    26  O   -0.929339
    27  O   -0.996466
    28  C    0.494982
    29  C    0.470887
    30  C    0.482216
    31  C    0.476047
    32  C    0.515821
    33  C    0.485291
    34  O   -0.998135
    35  C   -0.029878
    39  C   -0.059160
    43  C   -0.053691
    47  C   -0.029673
    51  C   -0.036870
    55  C   -0.058969
    59  C   -0.060781
    63  C   -0.030040
    67  C   -0.033074
    71  C   -0.063325
    75  C   -0.031354
    79  C   -0.019145
    84  C    0.867749
    85  O   -0.845885
    86  C    0.005543
    89  C    0.008914
    92  N   -0.589852
    93  C    0.287967
    97  C    0.068878
 Electronic spatial extent (au):  <R**2>=          23424.2885
 Charge=             -0.0000 electrons
 Dipole moment (field-independent basis, Debye):
    X=             -3.1298    Y=             -5.8321    Z=              6.3516  Tot=              9.1734
 Quadrupole moment (field-independent basis, Debye-Ang):
   XX=           -296.1017   YY=           -276.4303   ZZ=           -265.3931
   XY=             15.1911   XZ=              2.2743   YZ=              1.7308
 Traceless Quadrupole moment (field-independent basis, Debye-Ang):
   XX=            -16.7934   YY=              2.8781   ZZ=             13.9152
   XY=             15.1911   XZ=              2.2743   YZ=              1.7308
 Octapole moment (field-independent basis, Debye-Ang**2):
  XXX=             72.8897  YYY=            -69.0755  ZZZ=             -7.4970  XYY=            -32.8771
  XXY=            -54.4704  XXZ=            -23.1902  XZZ=            -64.4387  YZZ=            -46.3316
  YYZ=            -12.7722  XYZ=             -0.3884
 Hexadecapole moment (field-independent basis, Debye-Ang**3):
 XXXX=         -14649.0318 YYYY=         -10021.8192 ZZZZ=          -6041.8025 XXXY=             95.4927
 XXXZ=           -117.1753 YYYX=            334.2938 YYYZ=             -0.7262 ZZZX=           -105.2545
 ZZZY=             22.9308 XXYY=          -4062.0091 XXZZ=          -3372.0194 YYZZ=          -2646.1812
 XXYZ=             29.8384 YYXZ=             70.4476 ZZXY=             36.4829
 N-N= 7.506594127757D+03 E-N=-2.001934028228D+04  KE= 2.075003419031D+03
  Exact polarizability:     446.104      45.781     476.824      34.920     -14.347     450.055
 Approx polarizability:     595.995      82.733     703.516      63.894     -35.550     732.174
   1 Symmetry operations used in ECPInt.
 ECPInt:  NShTT=   45753 NPrTT=  276657 LenC2=   36544 LenP2D=  114236.
 LDataN:  DoStor=T MaxTD1= 8 Len=  415
 Calling FoFJK, ICntrl=    100127 FMM=F ISym2X=0 I1Cent= 0 IOpClX= 0 NMat=1 NMatS=1 NMatT=0.
 Defaulting to unpruned grid for atomic number  77.
 Defaulting to unpruned grid for atomic number  77.
 Defaulting to unpruned grid for atomic number  77.
 Defaulting to unpruned grid for atomic number  77.
 Defaulting to unpruned grid for atomic number  77.
 Defaulting to unpruned grid for atomic number  77.
 Defaulting to unpruned grid for atomic number  77.
 Defaulting to unpruned grid for atomic number  77.
 Defaulting to unpruned grid for atomic number  77.
 Defaulting to unpruned grid for atomic number  77.
 Defaulting to unpruned grid for atomic number  77.
 Defaulting to unpruned grid for atomic number  77.
 Defaulting to unpruned grid for atomic number  77.
 Defaulting to unpruned grid for atomic number  77.
 Defaulting to unpruned grid for atomic number  77.
 Defaulting to unpruned grid for atomic number  77.
 Full mass-weighted force constant matrix:
 Low frequencies ---   -1.3851   -0.0005   -0.0001    0.0004    5.1274    6.3484
 Low frequencies ---   22.1770   29.1049   33.2087
 Diagonal vibrational polarizability:
      136.0043368      90.8314397      65.4681366
 Harmonic frequencies (cm**-1), IR intensities (KM/Mole), Raman scattering
 activities (A**4/AMU), depolarization ratios for plane and unpolarized
 incident light, reduced masses (AMU), force constants (mDyne/A),
 and normal coordinates:
                      1                      2                      3
                      A                      A                      A
 Frequencies --     21.6838                29.0571                33.1703
 Red. masses --      3.2916                 4.1545                 4.5646
 Frc consts  --      0.0009                 0.0021                 0.0030
 IR Inten    --      0.8905                 0.2586                 0.0322
  Atom AN      X      Y      Z        X      Y      Z        X      Y      Z
     1   6    -0.04   0.01  -0.03    -0.05   0.02   0.02    -0.03   0.01  -0.05
     2   6     0.03  -0.01  -0.04    -0.03   0.01   0.02    -0.04   0.03  -0.04
     3   6     0.00   0.01  -0.05    -0.08   0.05   0.02    -0.07   0.06  -0.04
     4   6    -0.04   0.03  -0.05    -0.12   0.07   0.03    -0.07   0.05  -0.05
     5   6    -0.06   0.03  -0.04    -0.10   0.05   0.02    -0.05   0.03  -0.05
     6   6    -0.05  -0.00  -0.02    -0.04  -0.00   0.01    -0.01  -0.02  -0.06
     7   6    -0.00  -0.04  -0.02     0.03  -0.04   0.00    -0.01  -0.03  -0.04
     8   6    -0.05  -0.04  -0.02     0.00  -0.04   0.00     0.01  -0.05  -0.06
     9   6    -0.10  -0.02  -0.01    -0.04  -0.02   0.01     0.03  -0.06  -0.08
    10   6    -0.09   0.00  -0.02    -0.06  -0.00   0.02     0.02  -0.04  -0.08
    11   1     0.06  -0.02  -0.04     0.00  -0.01   0.01    -0.04   0.04  -0.04
    12   1    -0.06   0.05  -0.05    -0.15   0.10   0.03    -0.10   0.07  -0.05
    13   1    -0.10   0.05  -0.04    -0.12   0.07   0.03    -0.05   0.02  -0.06
    14   1     0.03  -0.05  -0.02     0.06  -0.06  -0.00    -0.02  -0.03  -0.02
    15   1    -0.13  -0.02  -0.01    -0.07  -0.03   0.01     0.05  -0.07  -0.10
    16   1    -0.13   0.01  -0.02    -0.10   0.01   0.02     0.03  -0.04  -0.10
    17   7     0.01  -0.01  -0.03    -0.02  -0.00   0.01    -0.02   0.01  -0.05
    18   7    -0.01  -0.02  -0.02     0.01  -0.02   0.01    -0.02  -0.02  -0.04
    19  77     0.01  -0.02  -0.02     0.01  -0.02   0.01     0.00  -0.01  -0.03
    20   8     0.03  -0.00  -0.03     0.07   0.05   0.10    -0.00   0.01   0.08
    21   8    -0.01  -0.03   0.01     0.02  -0.02   0.01    -0.01   0.01  -0.03
    22   8     0.01  -0.03   0.00     0.00  -0.02  -0.01    -0.00   0.01   0.01
    23   5     0.00  -0.02   0.00     0.00  -0.02   0.02    -0.00  -0.00  -0.03
    24   5     0.02   0.00  -0.02     0.02   0.01   0.02     0.00  -0.01   0.02
    25   5     0.02  -0.00   0.01    -0.00  -0.01  -0.02     0.02   0.00   0.03
    26   8     0.01  -0.01   0.01     0.01   0.00  -0.02     0.01   0.01   0.06
    27   8     0.01   0.02   0.00    -0.01   0.00  -0.08     0.01  -0.02   0.03
    28   6     0.03   0.04  -0.00     0.01   0.02  -0.07     0.02  -0.00   0.11
    29   6     0.03   0.01  -0.02     0.08   0.09   0.03    -0.01   0.03   0.13
    30   6    -0.00  -0.04  -0.00     0.02  -0.00  -0.01    -0.03   0.01   0.03
    31   6     0.00  -0.04   0.01     0.02   0.01  -0.02    -0.02   0.01   0.06
    32   6    -0.03  -0.02   0.03     0.01  -0.01   0.01    -0.01   0.01  -0.04
    33   6    -0.02  -0.01   0.03    -0.01  -0.01   0.02    -0.01   0.00  -0.06
    34   8    -0.00  -0.01   0.02    -0.02  -0.01   0.02    -0.01  -0.01  -0.04
    35   6     0.05   0.02  -0.04     0.09   0.08   0.10     0.01   0.03   0.19
    36   1     0.06   0.03  -0.05     0.04   0.01   0.14     0.05  -0.01   0.19
    37   1     0.05   0.04  -0.04     0.09   0.10   0.04     0.01   0.03   0.24
    38   1     0.06   0.01  -0.05     0.14   0.13   0.16    -0.02   0.05   0.20
    39   6     0.02  -0.00  -0.01     0.14   0.18  -0.02    -0.05   0.08   0.12
    40   1     0.01  -0.02  -0.03     0.19   0.22   0.05    -0.06   0.09   0.13
    41   1     0.01   0.01  -0.01     0.16   0.22  -0.07    -0.06   0.10   0.15
    42   1     0.00  -0.01  -0.00     0.14   0.19  -0.07    -0.07   0.08   0.08
    43   6     0.04   0.06  -0.01    -0.05  -0.07  -0.03     0.09  -0.06   0.13
    44   1     0.05   0.07  -0.01    -0.05  -0.06  -0.03     0.10  -0.05   0.20
    45   1     0.05   0.05  -0.03    -0.06  -0.11   0.05     0.11  -0.08   0.12
    46   1     0.04   0.07   0.00    -0.10  -0.12  -0.09     0.10  -0.08   0.11
    47   6     0.01   0.05   0.01     0.02   0.07  -0.18    -0.00   0.03   0.13
    48   1     0.01   0.06   0.03    -0.04   0.02  -0.24     0.02  -0.00   0.11
    49   1     0.00   0.03   0.02     0.06   0.12  -0.21    -0.05   0.07   0.10
    50   1     0.02   0.06   0.01     0.03   0.09  -0.18     0.00   0.04   0.19
    51   6    -0.06  -0.04   0.04     0.02  -0.02   0.01    -0.02   0.03  -0.05
    52   1    -0.08  -0.03   0.06     0.01  -0.01   0.01    -0.02   0.03  -0.06
    53   1    -0.07  -0.07   0.02     0.02  -0.03   0.03    -0.02   0.03  -0.06
    54   1    -0.06  -0.05   0.03     0.03  -0.02   0.00    -0.03   0.04  -0.04
    55   6    -0.02  -0.00   0.05     0.01   0.01  -0.01    -0.01   0.02  -0.03
    56   1     0.00   0.01   0.05     0.00   0.00  -0.01    -0.00   0.00  -0.02
    57   1    -0.03   0.01   0.07     0.00   0.01  -0.03    -0.02   0.03  -0.04
    58   1    -0.02  -0.01   0.04     0.03   0.01  -0.01    -0.01   0.04  -0.02
    59   6    -0.03  -0.02   0.03    -0.02  -0.02   0.04    -0.01   0.01  -0.07
    60   1    -0.03  -0.03   0.01    -0.01  -0.03   0.04    -0.01   0.01  -0.06
    61   1    -0.04  -0.03   0.04    -0.02  -0.02   0.04    -0.01   0.01  -0.08
    62   1    -0.02  -0.02   0.02    -0.03  -0.02   0.04    -0.01  -0.00  -0.07
    63   6    -0.02   0.00   0.05    -0.03   0.00   0.01    -0.01  -0.01  -0.07
    64   1    -0.03  -0.00   0.06    -0.03   0.00   0.01    -0.01   0.00  -0.08
    65   1    -0.01   0.01   0.06    -0.03   0.01  -0.01    -0.01  -0.02  -0.05
    66   1    -0.01   0.00   0.05    -0.05   0.00   0.02    -0.01  -0.02  -0.07
    67   6    -0.01  -0.05   0.00     0.04   0.02  -0.02    -0.03   0.02   0.08
    68   1    -0.02  -0.07   0.00     0.05   0.03  -0.02    -0.05   0.02   0.08
    69   1    -0.01  -0.05   0.01     0.03   0.04  -0.03    -0.02   0.02   0.10
    70   1    -0.01  -0.04  -0.02     0.05   0.02  -0.01    -0.02   0.01   0.08
    71   6     0.00  -0.05   0.04     0.00   0.02  -0.03    -0.02   0.02   0.07
    72   1    -0.01  -0.06   0.04     0.01   0.03  -0.04    -0.05   0.02   0.07
    73   1     0.01  -0.04   0.04    -0.01   0.02  -0.03    -0.02   0.01   0.05
    74   1     0.01  -0.04   0.05    -0.00   0.03  -0.04    -0.01   0.01   0.09
    75   6    -0.01  -0.05   0.01     0.02  -0.00  -0.02    -0.05   0.02   0.02
    76   1    -0.01  -0.05   0.02     0.01   0.01  -0.02    -0.06   0.02   0.02
    77   1    -0.03  -0.06   0.00     0.04   0.01  -0.02    -0.06   0.03   0.03
    78   1    -0.02  -0.05  -0.01     0.02  -0.01  -0.01    -0.05   0.02   0.01
    79   6    -0.01  -0.04  -0.02     0.04  -0.01  -0.00    -0.03   0.01   0.02
    80   1    -0.00  -0.02  -0.03     0.04  -0.02  -0.00    -0.01   0.01   0.03
    81   1    -0.01  -0.03  -0.03     0.03  -0.02  -0.00    -0.03   0.01   0.00
    82   1    -0.01  -0.05  -0.03     0.05  -0.01  -0.00    -0.04   0.02   0.03
    83   1     0.01  -0.01  -0.01     0.01  -0.02   0.01     0.02  -0.01  -0.03
    84   6     0.01   0.07   0.06    -0.03  -0.02  -0.02     0.05  -0.02   0.02
    85   8     0.03   0.02   0.05    -0.02  -0.01  -0.02     0.02  -0.00   0.03
    86   6     0.01   0.10   0.09    -0.05  -0.02  -0.03     0.06  -0.02   0.02
    87   1     0.01   0.11   0.11    -0.06  -0.04  -0.03     0.07  -0.03  -0.01
    88   1    -0.00   0.13   0.08    -0.04  -0.01  -0.03     0.09  -0.02   0.03
    89   6     0.03   0.03  -0.02    -0.00  -0.03  -0.01     0.04  -0.01   0.02
    90   1     0.06   0.06  -0.06     0.01  -0.03  -0.00     0.04  -0.02   0.04
    91   1     0.04  -0.00  -0.01     0.00  -0.04  -0.00     0.04   0.00  -0.00
    92   7    -0.00   0.09   0.03    -0.01  -0.03  -0.02     0.07  -0.03   0.01
    93   6     0.02   0.15   0.01    -0.01  -0.05  -0.01     0.09  -0.05   0.01
    94   1     0.09  -0.17   0.02    -0.01  -0.05  -0.01     0.07   0.04  -0.02
    95   1     0.23   0.38  -0.17    -0.01  -0.06  -0.00     0.04  -0.11   0.07
    96   1    -0.28   0.29   0.16    -0.01  -0.06  -0.03     0.19  -0.09  -0.04
    97   6     0.01   0.08   0.13    -0.07   0.00  -0.03     0.04  -0.01   0.03
    98   1     0.02   0.06   0.10    -0.06   0.02  -0.03     0.03   0.00   0.06
    99   1     0.02   0.04   0.15    -0.08  -0.01  -0.03     0.01  -0.00   0.01
   100   1    -0.04  -0.05  -0.01     0.02  -0.06  -0.00     0.02  -0.06  -0.06
   101   1     0.02   0.01  -0.05    -0.09   0.06   0.02    -0.09   0.08  -0.04
   102   1     0.00   0.10   0.15    -0.09   0.00  -0.04     0.05  -0.01   0.03
                      4                      5                      6
                      A                      A                      A
 Frequencies --     34.6246                36.7159                43.3315
 Red. masses --      3.8774                 4.1432                 3.9825
 Frc consts  --      0.0027                 0.0033                 0.0044
 IR Inten    --      0.6831                 0.5611                 0.5867
  Atom AN      X      Y      Z        X      Y      Z        X      Y      Z
     1   6    -0.01  -0.01   0.02    -0.04   0.02   0.04     0.01  -0.01   0.01
     2   6    -0.06  -0.00   0.03    -0.06  -0.00   0.04    -0.06   0.01   0.02
     3   6    -0.08   0.01   0.05    -0.12   0.04   0.07    -0.09   0.03   0.04
     4   6    -0.07   0.01   0.05    -0.14   0.07   0.09    -0.06   0.03   0.05
     5   6    -0.03  -0.00   0.04    -0.10   0.06   0.08    -0.01   0.00   0.03
     6   6     0.02  -0.02   0.01    -0.01   0.02   0.03     0.05  -0.03  -0.00
     7   6     0.03  -0.02   0.00     0.03   0.01   0.00     0.04  -0.02  -0.00
     8   6     0.06  -0.04  -0.01     0.01   0.02   0.02     0.10  -0.04  -0.03
     9   6     0.08  -0.04  -0.01    -0.02   0.03   0.04     0.14  -0.06  -0.05
    10   6     0.06  -0.04  -0.00    -0.03   0.03   0.04     0.11  -0.05  -0.03
    11   1    -0.07  -0.01   0.02    -0.04  -0.03   0.02    -0.07   0.01   0.02
    12   1    -0.08   0.02   0.07    -0.19   0.11   0.12    -0.08   0.04   0.06
    13   1    -0.02  -0.00   0.05    -0.11   0.09   0.09     0.01   0.00   0.04
    14   1     0.01  -0.02   0.01     0.05   0.00  -0.01     0.02  -0.01   0.01
    15   1     0.11  -0.05  -0.02    -0.03   0.04   0.05     0.20  -0.08  -0.07
    16   1     0.06  -0.04  -0.01    -0.06   0.04   0.06     0.14  -0.06  -0.05
    17   7    -0.03  -0.01   0.02    -0.02  -0.01   0.02    -0.01  -0.00   0.01
    18   7     0.01  -0.02   0.01     0.02   0.01   0.01     0.01  -0.01   0.01
    19  77    -0.02  -0.01   0.01     0.02  -0.01  -0.01    -0.01  -0.00   0.01
    20   8     0.01   0.01  -0.02     0.03  -0.03  -0.08    -0.02  -0.01   0.03
    21   8    -0.10   0.02   0.03     0.04  -0.01  -0.03     0.01  -0.02   0.01
    22   8    -0.01  -0.00  -0.01     0.01  -0.02  -0.01     0.00   0.01  -0.04
    23   5    -0.01  -0.01   0.01     0.01  -0.01  -0.02    -0.02   0.00   0.02
    24   5    -0.01   0.01  -0.00     0.02  -0.00  -0.01    -0.01  -0.01   0.02
    25   5    -0.01   0.01  -0.02     0.01  -0.02  -0.01    -0.00   0.02  -0.04
    26   8    -0.01   0.02  -0.03     0.02   0.00  -0.00    -0.01   0.00  -0.05
    27   8    -0.02   0.04   0.01     0.03   0.04   0.06    -0.00  -0.03   0.02
    28   6    -0.00   0.06  -0.00     0.04   0.06   0.05    -0.02  -0.04   0.02
    29   6     0.02   0.03  -0.03     0.02  -0.02  -0.04    -0.02  -0.03   0.02
    30   6     0.00   0.00  -0.02     0.01  -0.01  -0.01     0.01   0.01  -0.04
    31   6    -0.00   0.02  -0.03     0.01   0.01  -0.00     0.01   0.01  -0.06
    32   6    -0.06  -0.01   0.05     0.02   0.01  -0.04    -0.02  -0.00   0.02
    33   6     0.06  -0.03  -0.02    -0.03   0.01  -0.02    -0.08   0.02   0.06
    34   8     0.07  -0.05  -0.01    -0.03   0.01  -0.02    -0.08   0.03   0.04
    35   6     0.04   0.04  -0.06     0.05   0.00  -0.11    -0.05  -0.04   0.02
    36   1     0.05   0.05  -0.06     0.09   0.06  -0.15    -0.06  -0.04   0.02
    37   1     0.04   0.06  -0.06     0.05   0.02  -0.08    -0.05  -0.06   0.01
    38   1     0.05   0.02  -0.07     0.04  -0.06  -0.17    -0.05  -0.03   0.02
    39   6     0.01   0.00  -0.02    -0.04  -0.11   0.00    -0.00  -0.04   0.02
    40   1     0.02  -0.02  -0.03    -0.06  -0.15  -0.06    -0.00  -0.03   0.02
    41   1     0.01   0.01  -0.02    -0.04  -0.11   0.04    -0.00  -0.05   0.01
    42   1    -0.00  -0.00   0.01    -0.05  -0.12   0.05     0.01  -0.03   0.02
    43   6     0.01   0.09  -0.02     0.11   0.15   0.01    -0.04  -0.04   0.02
    44   1     0.02   0.10  -0.03     0.13   0.17   0.01    -0.05  -0.05   0.01
    45   1     0.02   0.08  -0.03     0.13   0.15  -0.06    -0.05  -0.03   0.02
    46   1    -0.00   0.11   0.00     0.13   0.20   0.07    -0.03  -0.05   0.01
    47   6    -0.01   0.07   0.01     0.02   0.06   0.15    -0.00  -0.06   0.01
    48   1    -0.02   0.09   0.03     0.04   0.11   0.20     0.00  -0.06   0.00
    49   1    -0.02   0.05   0.02    -0.03   0.00   0.17     0.01  -0.06   0.01
    50   1    -0.00   0.09  -0.00     0.02   0.06   0.14    -0.01  -0.07   0.00
    51   6    -0.13   0.05   0.01     0.03  -0.01  -0.02    -0.00  -0.05   0.05
    52   1    -0.09   0.02   0.02    -0.00   0.01  -0.03    -0.03  -0.03   0.06
    53   1    -0.14   0.11  -0.07     0.03  -0.04   0.00    -0.00  -0.09   0.08
    54   1    -0.22   0.05   0.07     0.07  -0.00  -0.04     0.04  -0.06   0.02
    55   6    -0.07  -0.07   0.17     0.02   0.05  -0.07    -0.01   0.04  -0.03
    56   1    -0.02  -0.11   0.20     0.02   0.07  -0.08    -0.03   0.07  -0.05
    57   1    -0.04  -0.09   0.19     0.00   0.07  -0.07    -0.03   0.06  -0.03
    58   1    -0.15  -0.05   0.21     0.06   0.04  -0.09     0.03   0.02  -0.06
    59   6     0.07   0.03  -0.13    -0.05  -0.02   0.02    -0.09  -0.02   0.12
    60   1     0.02   0.08  -0.16    -0.02  -0.04   0.04    -0.07  -0.04   0.12
    61   1     0.06   0.04  -0.15    -0.05  -0.02   0.03    -0.09  -0.03   0.14
    62   1     0.15   0.01  -0.17    -0.08  -0.02   0.04    -0.12   0.00   0.14
    63   6     0.14  -0.11   0.03    -0.07   0.04  -0.03    -0.12   0.07   0.06
    64   1     0.12  -0.09   0.02    -0.07   0.05  -0.04    -0.12   0.06   0.07
    65   1     0.14  -0.16   0.11    -0.06   0.07  -0.06    -0.12   0.10   0.01
    66   1     0.22  -0.12  -0.03    -0.11   0.04  -0.02    -0.16   0.08   0.09
    67   6     0.02   0.02  -0.04     0.03   0.02   0.00     0.01   0.01  -0.06
    68   1     0.02   0.02  -0.04     0.03   0.02   0.00     0.02   0.01  -0.06
    69   1     0.01   0.04  -0.04     0.03   0.03   0.00     0.00   0.00  -0.07
    70   1     0.02   0.02  -0.04     0.04   0.01   0.01     0.00   0.01  -0.06
    71   6    -0.01   0.02  -0.03    -0.01   0.02  -0.01     0.01   0.01  -0.06
    72   1    -0.00   0.02  -0.03    -0.01   0.03  -0.00     0.03  -0.00  -0.07
    73   1    -0.02   0.02  -0.02    -0.02   0.01  -0.01     0.01   0.01  -0.05
    74   1    -0.02   0.04  -0.04    -0.00   0.03  -0.00     0.00   0.01  -0.08
    75   6     0.00  -0.00  -0.02    -0.00  -0.01  -0.01     0.03   0.02  -0.04
    76   1    -0.01   0.00  -0.02    -0.02  -0.01  -0.01     0.02   0.02  -0.05
    77   1     0.01   0.00  -0.02     0.01  -0.00  -0.01     0.04   0.03  -0.05
[...]
 088,-0.00000377,-0.00000131,-0.00000069,0.00000087,0.00000012,0.000001
 13,-0.00000387,-0.00000463,-0.00000492,-0.00000163,0.00000269,-0.00000
 351,0.00000424,-0.00000302,-0.00000061,-0.00000136,-0.00000451,0.00000
 398,0.00000172,-0.00000386,-0.00000501,-0.00000253,-0.00000244,0.00000
 087,0.00000093,0.00000095,-0.00000147,0.00000018,-0.00000273,0.0000026
 0,0.00000906,0.00000558,-0.00000341,0.00000397,-0.00000721,0.00000718,
 -0.00000269,-0.00000294,0.00000217,0.00000164,0.00000779,0.00000207,-0
 .00000950,0.00003645,-0.00002120,0.00003508,-0.00002903,0.00002697,-0.
 00001057,-0.00000346,-0.00004060,-0.00000490,0.00000895,0.00001689,-0.
 00002973,-0.00013247,0.00013824,0.00001454,0.00005168,-0.00008549,0.00
 001851,-0.00002851,-0.00000327,-0.00000032,0.00002933,-0.00002722,-0.0
 0000672,0.00000313,0.00005977,0.00000466,0.00002247,0.00001166,-0.0000
 0717,0.00000201,-0.00001305,0.00000151,-0.00001307,0.00000179,0.000010
 33,0.00003817,0.00007419,-0.00002758,-0.00001585,-0.00002902,0.0000219
 1,-0.00002802,0.00004111,-0.00001046,0.00000036,0.00000778,-0.00000047
 ,0.00000058,0.00000250,0.00000247,0.00000423,0.00000278,0.00000555,-0.
 00000226,0.00001267,0.00000094,-0.00000147,-0.00000553,-0.00000217,0.0
 0000466,0.00000693,0.00002385,0.00001624,0.00001133,-0.00000781,-0.000
 00137,-0.00000599,0.00000161,0.00000201,0.00000139,0.00000049,0.000000
 45,0.00000136,-0.00000081,-0.00000109,0.00000200,0.00000787,0.00000007
 ,-0.00000899,0.00000105,0.00000354,0.00000105,-0.00000326,-0.00001626,
 -0.00000615,-0.00001671,0.00001188,0.00000507,0.02790302,0.05028543,0.
 00052638,0.00041341,0.00059306,0.00046750,0.00149907,-0.00214001,-0.08
 908589,-0.03513338,-0.30634618,-0.00853473,-0.00588561,-0.01532848,0.0
 0101449,0.00386047,-0.00100690,0.00021640,-0.00016497,-0.00000186,0.00
 001498,-0.00000906,0.00003213,0.00000096,0.00000850,-0.00002997,-0.000
 00949,-0.00003765,0.00001023,-0.00001303,0.00005221,-0.00002086,0.0003
 6859,-0.00050453,0.00010268,0.00060496,-0.00056306,0.00074942,-0.00052
 226,-0.00031873,-0.00072981,0.00000183,0.00000358,-0.00000571,-0.00000
 158,0.00000307,-0.00000729,0.00000995,-0.00004847,0.00003959,-0.001480
 73,-0.00007425,0.00172312,-0.00006560,-0.00004805,-0.00007894,-0.00007
 899,0.00019920,-0.00003395,-0.00009058,0.00004215,-0.00000329,-0.00006
 739,-0.00010520,-0.00006433,0.00012509,-0.00007839,0.00005438,0.000095
 66,0.00016624,0.00006004,0.00019440,-0.00005400,-0.00002286,-0.0001085
 2,0.00008858,-0.00004677,0.00010105,-0.00001712,0.00010108,-0.00010477
 ,0.00001561,0.00002144,0.00003499,-0.00002812,-0.00000759,0.00005037,-
 0.00000776,-0.00000044,-0.00003795,0.00006773,-0.00012478,-0.00004785,
 -0.00005175,-0.00006193,0.00003133,0.00003744,-0.00000092,0.00000296,0
 .00003637,0.00002774,-0.00005506,-0.00014684,-0.00000691,-0.00000487,0
 .00000133,-0.00000615,0.00000145,0.00000037,0.00000248,-0.00000531,0.0
 0000204,0.00000057,0.00000249,-0.00000085,0.00000061,-0.00000722,0.000
 00168,-0.00000260,0.00000249,-0.00000330,0.00000287,-0.00000698,-0.000
 00015,-0.00000215,0.00000207,0.00000383,0.00000281,-0.00000858,0.00000
 251,0.00000336,-0.00000438,0.00000436,0.00000251,0.00000305,-0.0000012
 4,-0.00000524,-0.00000001,-0.00000263,0.00000077,-0.00000383,0.0000030
 4,0.00000429,-0.00000074,-0.00000317,0.00000125,0.00000277,0.00000100,
 0.00000121,-0.00000439,0.00000178,-0.00000134,-0.00000725,-0.00000545,
 0.00000007,-0.00000212,-0.00000574,-0.00000319,0.00000152,0.00000168,0
 .00000006,0.00000143,0.00000169,-0.00000069,-0.00000495,-0.00000746,-0
 .00000033,0.00000363,0.00000187,-0.00000058,-0.00000646,-0.00000389,-0
 .00000065,0.00000173,0.00000125,0.00000040,-0.00000244,-0.00000532,-0.
 00000633,-0.00000232,0.00000263,-0.00000072,0.00000241,-0.00000578,-0.
 00000323,-0.00000040,-0.00000153,0.00000407,0.00000030,-0.00000681,-0.
 00000561,-0.00000413,-0.00000486,-0.00000088,0.00000097,0.00000191,-0.
 00000107,0.00000097,-0.00000180,0.00000351,0.00001577,0.00001070,0.000
 00153,0.00000004,-0.00000531,0.00000647,0.00000377,-0.00000510,-0.0000
 0164,-0.00000089,0.00001024,0.00000085,0.00001292,0.00004121,-0.000009
 81,0.00002586,-0.00003542,0.00003239,-0.00002426,-0.00000616,-0.000048
 58,-0.00000074,0.00000741,0.00000547,-0.00000659,-0.00007748,0.0000473
 1,-0.00004303,-0.00006064,-0.00007482,0.00001078,-0.00001315,0.0000039
 6,0.00001243,0.00003196,-0.00001709,0.00000238,-0.00000488,0.00003285,
 0.00000044,0.00001162,0.00000436,-0.00000262,0.00000858,-0.00001073,0.
 00000277,-0.00000980,0.00000492,0.00001295,-0.00000930,0.00004687,-0.0
 0001954,0.00002318,-0.00001830,0.00002473,-0.00005518,0.00002987,0.000
 00768,-0.00000034,0.00000019,-0.00000289,0.00000248,0.00000966,-0.0000
 0215,-0.00000913,-0.00000427,0.00000216,-0.00000358,0.00000289,0.00000
 188,-0.00000550,-0.00000726,-0.00000013,0.00000578,0.00000958,0.000017
 40,-0.00000956,0.00000505,-0.00000514,0.00000314,0.00000664,-0.0000001
 9,0.00000428,0.00000203,0.00000292,-0.00000321,-0.00000031,-0.00000227
 ,0.00000079,0.00000477,-0.00001796,0.00000975,0.00002896,0.00001019,-0
 .00001003,-0.00001116,-0.00000434,0.00001266,-0.00000079,-0.00001039,-
 0.00000320,-0.00000343,0.09646925,0.03695395,0.32248784,0.00002579,-0.
 00000298,-0.00003490,0.00001540,0.00000834,0.00002545,-0.00001864,-0.0
 0002713,0.00000080,-0.00000182,0.00003045,-0.00004960,-0.00006232,-0.0
 0006398,0.00006628,0.00005168,-0.00005504,0.00011099,-0.00000739,0.000
 03333,-0.00006106,-0.00003096,-0.00008282,-0.00002922,0.00006878,0.000
 04043,0.00001737,0.00010124,-0.00011732,-0.00007813,0.00000167,-0.0000
 0048,-0.00000085,0.00000290,-0.00000093,0.00000288,0.00000362,-0.00000
 176,0.00003463,0.00000726,-0.00001168,-0.00000588,-0.00006535,0.000031
 91,-0.00003392,-0.00002875,0.00009996,0.00007922,0.00000361,0.00005810
 ,-0.00006462,0.00002536,0.00015503,0.00007080,0.00002291,-0.00000754,-
 0.00001119,-0.00000422,0.00002065,-0.00001400,-0.00001756,0.00002987,0
 .00002312,-0.00001399,0.00000038,0.00012947,-0.00000678,-0.00004208,-0
 .00003024,0.00000692,-0.00002713,0.00001941,-0.00007537,0.00009932,-0.
 00032574,0.00013112,-0.00003166,0.00011483,-0.00000317,0.00001376,-0.0
 0000332,0.00000140,-0.00000671,0.00000233,-0.00000065,-0.00000076,0.00
 000133,-0.00003018,0.00002924,-0.00002817,-0.00002578,-0.00003621,-0.0
 0006612,0.00000571,0.00000016,-0.00000348,0.00000635,-0.00001150,-0.00
 000782,0.00000333,0.00002375,0.00000871,-0.00000115,-0.00000162,0.0000
 0212,-0.00000056,-0.00000035,0.00000053,0.00000081,0.00000073,0.000000
 02,0.00000009,0.00000179,-0.00000249,-0.00000213,-0.00000316,0.0000023
 3,0.00000081,0.00000299,-0.00000214,0.00000083,-0.00000036,-0.00000087
 ,-0.00000105,-0.00000061,0.00000083,-0.00000011,0.00000147,-0.00000075
 ,-0.00000073,0.00000008,0.00000054,0.00000061,-0.00000039,0.00000087,0
 .00000042,0.00000079,-0.00000107,-0.00000046,0.00000106,-0.00000152,0.
 00000080,0.00000062,-0.00000132,0.00000034,-0.00000122,0.00000092,-0.0
 0000085,0.00000037,0.00000051,0.00000814,-0.00000341,-0.00000017,-0.00
 000242,-0.00000001,0.00000161,-0.00000320,0.00000608,0.00000120,0.0000
 0086,0.00000060,-0.00000051,-0.00000074,0.00000028,0.00000265,-0.00000
 106,-0.00000116,0.00000099,-0.00000073,0.00000046,-0.00000016,-0.00000
 074,0.00000036,-0.00000251,0.00000723,0.00000762,-0.00000631,-0.000001
 77,0.00000026,0.00000153,-0.00000252,-0.00000056,0.00000152,-0.0000021
 0,-0.00000143,0.00000149,-0.00000223,0.00000405,0.00000197,0.00000091,
 0.00000050,-0.00000019,-0.00000254,-0.00000035,0.00000118,0.00000049,-
 0.00000008,-0.00000059,0.00000398,0.00000788,0.00001173,0.00000303,-0.
 00000287,0.00000318,0.00000350,-0.00000374,-0.00000060,-0.00000060,0.0
 0000699,-0.00000214,-0.00000719,0.00001033,0.00000614,0.00001046,0.000
 01296,-0.00000779,-0.00002919,0.00000405,0.00001619,0.00002824,-0.0000
 2265,0.00001016,0.00000571,-0.00000569,0.00000214,-0.00000055,0.000004
 15,0.00000132,-0.00000122,0.00000031,0.00000471,0.00000019,0.00000034,
 0.00000137,0.00001269,-0.00000965,-0.00000025,-0.00000211,0.00000652,0
 .00000067,0.00000226,0.00000048,-0.00000081,-0.00000125,-0.00000222,0.
 00000448,-0.00000593,0.00000635,-0.00000896,-0.00190437,-0.00193176,-0
 .00346728,0.00055320,0.00013906,0.00003091,-0.00482657,-0.01381320,0.0
 1277094,0.00037838,0.00051711,0.00071138,0.00065236,0.00061542,-0.0000
 3391,-0.00014815,-0.00010047,-0.00017077,-0.00003311,-0.00008207,0.000
 04998,0.00000402,-0.00008879,0.00003612,-0.00005057,-0.00092546,0.0010
 6372,0.00009844,0.00002281,0.00028070,-0.00003053,-0.00001472,-0.00002
 934,-0.00000911,-0.00001097,-0.00003801,0.00002586,0.00003093,-0.00001
 300,-0.05885961,-0.03975592,0.03517003,0.00810436,0.02034325,-0.017896
 26,-0.00361665,-0.01207489,0.00853969,-0.00000055,-0.00000070,0.000005
 31,0.00000145,0.00000143,-0.00000157,0.05955173,-0.00001854,-0.0000172
 6,-0.00002794,-0.00001850,-0.00001135,-0.00003916,0.00001624,0.0000266
 6,-0.00000475,0.00001686,-0.00000876,0.00003987,0.00002421,0.00002648,
 -0.00001960,-0.00006227,-0.00004587,-0.00002719,0.00002639,-0.00001783
 ,0.00004277,-0.00000658,0.00004776,0.00001268,-0.00003024,-0.00006419,
 0.00002417,-0.00005610,0.00003201,0.00002494,0.00000102,-0.00000445,-0
 .00000279,0.00000023,0.00000301,0.00000129,-0.00000256,0.00001446,-0.0
 0000015,0.00001682,-0.00000102,-0.00000330,-0.00002169,0.00001742,-0.0
 0000765,-0.00003815,-0.00000807,0.00002270,0.00000530,-0.00003178,0.00
 004425,-0.00006404,-0.00000686,0.00000905,0.00004281,-0.00000543,-0.00
 001251,-0.00004362,0.00003144,-0.00000655,-0.00005667,0.00000608,0.000
 03795,-0.00009285,-0.00001435,0.00031995,0.00001014,-0.00002984,-0.000
 05718,0.00005810,-0.00002733,0.00001115,0.00000872,0.00043560,-0.00067
 050,0.00013511,-0.00012672,0.00027086,-0.00004764,0.00001591,0.0000052
 7,0.00001790,-0.00001663,-0.00000321,0.00002067,-0.00000414,0.00000153
 ,-0.00005141,0.00005381,-0.00007304,-0.00002498,-0.00000310,-0.0001778
 3,0.00002840,0.00002476,0.00000173,0.00001651,-0.00000449,-0.00000456,
 -0.00001398,0.00000273,0.00001342,-0.00000177,0.00000072,0.00000006,0.
 00000067,0.00000005,0.00000119,-0.00000305,0.00000071,0.00000022,0.000
 00179,0.00000053,-0.00000133,-0.00000221,-0.00000202,-0.00000040,0.000
 00313,-0.00000092,0.00000028,-0.00000418,-0.00000002,-0.00000062,0.000
 00132,0.00000202,0.00000080,-0.00000148,0.00000205,0.00000120,-0.00000
 310,0.00000252,0.00000094,0.00000101,-0.00000135,-0.00000103,0.0000009
 4,-0.00000086,-0.00000031,-0.00000226,0.00000079,-0.00000056,0.0000007
 8,-0.00000144,-0.00000009,0.00000198,-0.00000093,0.00000123,-0.0000028
 8,0.00000232,-0.00000006,0.00001278,-0.00000731,-0.00000339,-0.0000063
 5,-0.00000390,0.00000315,-0.00000474,0.00001252,0.00000294,0.00000288,
 0.00000313,-0.00000021,-0.00000367,-0.00000065,0.00000246,0.00000001,-
 0.00000027,0.00000129,-0.00000439,-0.00000277,-0.00000017,0.00000054,0
 .00000178,-0.00000251,0.00001403,0.00001256,-0.00001115,-0.00000415,0.
 00000102,0.00000519,-0.00000629,-0.00000402,-0.00000033,-0.00000180,-0
 .00000008,0.00000287,-0.00000379,0.00000582,0.00000476,-0.00000016,-0.
 00000115,-0.00000227,-0.00000446,0.00000064,0.00000185,0.00000191,-0.0
 0000050,0.00000066,-0.00000132,0.00000243,0.00002027,0.00000547,-0.000
 00644,0.00001339,0.00000341,0.00000154,-0.00000540,-0.00000272,0.00000
 156,-0.00000408,0.00000725,0.00001217,0.00002715,0.00000632,-0.0000014
 6,0.00002406,0.00000614,-0.00001975,-0.00001637,-0.00001396,0.00000472
 ,-0.00001285,-0.00000606,-0.00001046,0.00000743,0.00000582,0.00000379,
 -0.00000168,0.00000257,0.00000060,0.00000945,-0.00000583,0.00000080,0.
 00000453,0.00000687,-0.00001568,0.00000634,0.00000153,0.00001429,0.000
 00007,0.00000210,-0.00000030,0.00000013,0.00000012,-0.00000884,0.00001
 144,-0.00000339,0.00000294,0.00000253,-0.00213011,-0.00110280,-0.00368
 106,-0.00027407,-0.00007149,-0.00001067,-0.00380944,-0.01625586,0.0146
 2502,0.00022372,0.00088086,0.00013738,0.00070713,0.00033541,0.00022461
 ,-0.00012018,-0.00020040,-0.00027969,-0.00005837,-0.00011638,0.0000709
 7,-0.00000585,-0.00010585,0.00003697,-0.00033840,-0.00110772,0.0012212
 2,0.00016623,0.00001256,0.00041961,-0.00004874,-0.00002565,-0.00005410
 ,-0.00001500,-0.00004240,-0.00006235,0.00001647,0.00006451,0.00000815,
 -0.03982995,-0.19461523,0.12792137,-0.00365311,-0.00863846,0.00670912,
 0.00241960,0.01091120,-0.00852445,0.00000259,-0.00000770,0.00000128,0.
 00000150,-0.00000059,-0.00000039,0.04695301,0.20979444,-0.00005050,0.0
 0001929,0.00007559,-0.00003735,-0.00001975,-0.00003648,0.00003377,0.00
 004414,-0.00000724,0.00005516,-0.00000938,0.00012705,0.00010030,0.0000
 6424,-0.00018093,-0.00007047,-0.00002716,-0.00010081,0.00001436,-0.000
 03343,0.00006593,0.00002201,0.00006738,0.00000619,-0.00001178,-0.00006
 970,-0.00009534,0.00007416,0.00020324,-0.00000484,-0.00000476,0.000000
 17,-0.00000058,-0.00000773,-0.00000232,-0.00001904,0.00003242,0.000051
 31,-0.00004651,-0.00000257,0.00000070,0.00000545,0.00001935,0.00000056
 ,0.00002737,0.00003629,-0.00004213,-0.00006156,-0.00001377,-0.00010700
 ,0.00008259,-0.00004585,-0.00015899,-0.00002613,0.00002600,0.00002504,
 -0.00000582,0.00005294,-0.00003816,0.00001161,0.00002682,0.00002622,0.
 00002024,0.00007021,0.00004386,-0.00009902,-0.00004121,-0.00004563,-0.
 00002445,-0.00009702,0.00003335,-0.00000481,-0.00014381,-0.00048894,0.
 00032474,-0.00001983,0.00010048,-0.00006274,0.00005952,-0.00001391,-0.
 00000388,-0.00001827,0.00001760,0.00000042,-0.00002675,0.00000503,-0.0
 0000248,0.00001402,-0.00002559,0.00004187,-0.00002451,-0.00003399,0.00
 003779,-0.00001439,-0.00001367,-0.00000093,-0.00000854,-0.00001360,-0.
 00000962,0.00002401,0.00003275,0.00000607,0.00000332,-0.00000030,-0.00
 000088,-0.00000077,0.00000076,-0.00000167,0.00000303,-0.00000142,-0.00
 000001,-0.00000173,-0.00000058,0.00000280,0.00000418,-0.00000017,0.000
 00037,-0.00000304,0.00000161,0.00000033,0.00000426,0.00000038,0.000001
 21,-0.00000120,-0.00000265,-0.00000111,0.00000131,-0.00000296,-0.00000
 078,0.00000369,-0.00000244,-0.00000106,-0.00000114,0.00000220,0.000001
 10,-0.00000093,0.00000037,0.00000032,0.00000198,-0.00000134,-0.0000002
 1,-0.00000041,0.00000111,-0.00000023,-0.00000121,0.00000050,-0.0000003
 6,0.00000317,-0.00000153,0.00000038,-0.00000031,0.00000191,0.00000090,
 0.00000156,0.00000259,0.00000001,0.00000078,-0.00000284,-0.00000069,-0
 .00000090,-0.00000144,0.00000104,0.00000216,0.00000117,-0.00000056,-0.
 00000171,-0.00000040,-0.00000028,0.00000266,0.00000208,0.00000023,-0.0
 0000031,-0.00000123,0.00000112,-0.00000018,0.00000067,0.00000146,0.000
 00102,-0.00000008,-0.00000266,0.00000123,0.00000237,0.00000242,-0.0000
 0148,-0.00000298,0.00000040,0.00000079,0.00000117,0.00000011,0.0000013
 8,0.00000210,0.00000138,0.00000070,-0.00000092,-0.00000039,-0.00000096
 ,-0.00000034,-0.00000069,0.00001189,0.00001310,0.00000275,-0.00000112,
 0.00000057,-0.00000622,-0.00000026,-0.00000450,0.00000277,0.00000020,0
 .00001055,-0.00000012,0.00003254,-0.00003000,-0.00000918,-0.00000434,0
 .00002167,-0.00002369,-0.00002954,0.00000689,0.00004846,0.00002101,-0.
 00001207,0.00001022,0.00000299,-0.00000423,-0.00000425,-0.00000292,0.0
 0000726,0.00000756,-0.00000277,0.00000338,-0.00000340,0.00000454,0.000
 00067,-0.00000224,0.00000739,0.00000268,-0.00000742,-0.00000420,-0.000
 00152,0.00000168,0.00000016,0.00000084,-0.00000164,-0.00000111,0.00000
 716,-0.00000380,-0.00000512,0.00000355,-0.00000034,-0.00293108,-0.0027
 4288,-0.00349281,0.00087119,0.00153717,0.00037150,-0.00413198,-0.01405
 957,0.01072846,0.00050452,0.00073850,0.00054136,0.00065792,0.00055738,
 0.00063973,0.00000660,-0.00001645,-0.00011225,-0.00000759,-0.00003102,
 0.00005891,0.00000112,-0.00002254,0.00004310,-0.00001286,-0.00059553,0
 .00108523,0.00007308,0.00003530,0.00013187,0.00000165,0.00000970,-0.00
 000817,-0.00000173,0.00000083,-0.00000005,-0.00000703,0.00003258,-0.00
 001934,0.03583603,0.12944720,-0.15942456,0.00317426,0.00505531,-0.0061
 3490,0.00281155,0.01904009,-0.01399390,-0.00000346,-0.00000190,0.00000
 042,-0.00000300,0.00000217,-0.00000147,-0.03691172,-0.13860172,0.16953
 199\\-0.00000140,0.00000417,-0.00001433,-0.00000180,-0.00000035,-0.000
 00047,0.00000102,0.00000385,-0.00000588,0.00000177,0.00000264,-0.00000
 159,0.00000328,-0.00000108,0.00000231,-0.00000047,-0.00000135,-0.00000
 601,-0.00000640,-0.00000647,-0.00000571,0.00000184,0.00000116,-0.00000
 597,0.00000218,0.00000249,0.00000115,0.00000052,-0.00000860,-0.0000070
 3,0.00000164,-0.00000108,-0.00000192,-0.00000028,0.00000088,-0.0000025
 8,0.00000041,0.00000020,-0.00000350,0.00000391,-0.00000242,0.00000247,
 0.00000246,-0.00000467,-0.00000334,0.00000179,0.00000145,-0.00000132,-
 0.00000362,0.00000101,0.00000843,0.00000619,-0.00000061,0.00001742,0.0
 0003161,-0.00001162,-0.00000530,-0.00000380,-0.00000729,-0.00000602,0.
 00000735,-0.00000176,-0.00000108,-0.00000521,0.00001234,-0.00000435,-0
 .00001251,0.00000872,-0.00000225,0.00000333,0.00001340,-0.00000010,-0.
 00001330,0.00000975,0.00000286,0.00001096,-0.00001000,0.00000532,-0.00
 001010,0.,-0.00000174,-0.00000226,-0.00000324,-0.00000182,0.00000353,-
 0.00000558,-0.00000294,0.00000194,-0.00000813,0.00001876,-0.00000528,0
 .00000541,-0.00001131,-0.00000436,-0.00000220,0.00000633,-0.00000497,0
 .00000395,0.00000180,0.00000077,-0.00000378,0.00000241,0.00000087,0.00
 000528,-0.00000569,0.00000062,0.00000141,-0.00000293,-0.00000098,0.000
 00125,-0.00000475,-0.00000032,0.00000084,-0.00000507,0.00000104,-0.000
 00472,0.00000043,0.00000361,0.00000028,-0.00000472,0.00000142,0.000000
 29,-0.00000414,0.00000209,0.00000213,0.00000006,-0.00000100,0.00000857
 ,-0.00000419,0.00000144,0.00000155,-0.00000311,-0.00000243,0.00000150,
 -0.00000284,-0.00000091,0.00000326,-0.00000264,0.00000315,0.00000675,-
 0.00000591,-0.00000099,-0.00000111,0.00000131,-0.00000023,0.00000185,-
 0.00000157,-0.00000065,0.00000204,-0.00000424,0.00000558,-0.00000623,-
 0.00000441,0.00000149,0.00000125,0.00000349,-0.00000434,-0.00000157,0.
 00000300,-0.00000021,-0.00000189,0.00000101,-0.00000370,-0.00000102,-0
 .00000203,0.00000009,-0.00000033,0.00000163,0.00000267,0.00000284,0.00
 000063,0.00000090,-0.00000256,0.00000020,0.00000805,0.00000690,0.00001
 101,-0.00001016,-0.00000320,0.00000061,-0.00000171,-0.00000385,0.00000
 116,-0.00000165,0.00000010,0.00000455,0.00000113,0.00000022,0.00000248
 ,-0.00000076,-0.00000016,0.00000284,-0.00000131,0.00000293,0.00000253,
 -0.00000226,0.00000120,0.00000241,0.00000273,-0.00000616,0.00001116,-0
 .00000249,0.00000141,0.00000022,-0.00000137,-0.00000012,0.00000388,0.0
 0000068,0.00000332,0.00000553,0.00000116,0.00000137,0.00000991,-0.0000
 0129,0.00000210,-0.00000093,-0.00000131,-0.00000046,0.00000086,-0.0000
 0143,-0.00000082,0.00000247,-0.00000944,-0.00000147,-0.00000507,-0.000
 00186,0.00001173,0.00000107,-0.00000164,0.00000210,-0.00000038,0.00000
 563,0.00000343,0.00000690,-0.00000156,0.00000389,0.00000151,-0.0000031
 5,-0.00000146,0.00000289,-0.00000314,0.00000124,0.00000205,-0.00000146
 ,0.00000205,0.00000369,-0.00001533,0.00000230,-0.00000212,0.00000034,-
 0.00000807,-0.00000620,-0.00000230,0.00000059,-0.00000010,0.00000819,-
 0.00000344,-0.00000035,-0.00000192,-0.00000176,0.00000137,0.00000117,-
 0.00000422,-0.00000011,-0.00001463,-0.00000242,0.00000160,0.00000453,-
 0.00000298,0.00000533,0.00001536,-0.00000509,-0.00000425,0.00000069,0.
 00000986,0.00000097,0.00000562,0.00000467,0.00000439,0.00000359,-0.000
 00435,0.00000454,-0.00000085,-0.00000503,-0.00000113,0.00000267,-0.000
 00859,0.00000218,-0.00000692,-0.00000424,0.00000470,0.00000365,-0.0000
 0324,-0.00000105,0.00000268,-0.00000123,-0.00000480,0.00000087,-0.0000
 0339,-0.00000192,-0.00000082,0.00000282,-0.00000085,0.00000206,-0.0000
 0134,-0.00000181\\\@
 The archive entry for this job was punched.


 MYSTERY IS THE WISDOM OF BLOCKHEADS... HORACE WALPOLE 
 Job cpu time:       1 days 15 hours 10 minutes  3.8 seconds.
 Elapsed time:       0 days  2 hours 29 minutes 31.7 seconds.
 File lengths (MBytes):  RWF=   6947 Int=      0 D2E=      0 Chk=     43 Scr=      1
 Normal termination of Gaussian 16 at Sun Dec  8 00:26:45 2024.
