/mnt/lustre/scratch/nvme/SLURM/9663726/usccqdma.Hmir1VbR3z
OMP_STACKSIZE=0m
GAUSS_PDEF=16
GAUSS_MDEF=65536MB
GAUSS_RDEF=SCF=Direct
 Entering Gaussian System, Link 0=g16.exe
 Initial command:
 /opt/cesga/2020/software/Core/g16/c1/l1.exe "/mnt/lustre/scratch/nvme/SLURM/9663726/usccqdma.Hmir1VbR3z/Gau-3718649.inp" -scrdir="/mnt/lustre/scratch/nvme/SLURM/9663726/usccqdma.Hmir1VbR3z/"
 Default is to use a total of  16 processors:
                               16 via shared-memory
                                1 via Linda
 Entering Link 1 = /opt/cesga/2020/software/Core/g16/c1/l1.exe PID=   3718675.
  
 Copyright (c) 1988-2019, Gaussian, Inc.  All Rights Reserved.
  
 This is part of the Gaussian(R) 16 program.  It is based on
 the Gaussian(R) 09 system (copyright 2009, Gaussian, Inc.),
 the Gaussian(R) 03 system (copyright 2003, Gaussian, Inc.),
 the Gaussian(R) 98 system (copyright 1998, Gaussian, Inc.),
 the Gaussian(R) 94 system (copyright 1995, Gaussian, Inc.),
 the Gaussian 92(TM) system (copyright 1992, Gaussian, Inc.),
 the Gaussian 90(TM) system (copyright 1990, Gaussian, Inc.),
 the Gaussian 88(TM) system (copyright 1988, Gaussian, Inc.),
 the Gaussian 86(TM) system (copyright 1986, Carnegie Mellon
 University), and the Gaussian 82(TM) system (copyright 1983,
 Carnegie Mellon University). Gaussian is a federally registered
 trademark of Gaussian, Inc.
  
 This software contains proprietary and confidential information,
 including trade secrets, belonging to Gaussian, Inc.
  
 This software is provided under written license and may be
 used, copied, transmitted, or stored only in accord with that
 written license.
  
 The following legend is applicable only to US Government
 contracts under FAR:
  
                    RESTRICTED RIGHTS LEGEND
  
 Use, reproduction and disclosure by the US Government is
 subject to restrictions as set forth in subparagraphs (a)
 and (c) of the Commercial Computer Software - Restricted
 Rights clause in FAR 52.227-19.
  
 Gaussian, Inc.
 340 Quinnipiac St., Bldg. 40, Wallingford CT 06492
  
  
 ---------------------------------------------------------------
 Warning -- This program may not be used in any manner that
 competes with the business of Gaussian, Inc. or will provide
 assistance to any competitor of Gaussian, Inc.  The licensee
 of this program is prohibited from giving any competitor of
 Gaussian, Inc. access to this program.  By using this program,
 the user acknowledges that Gaussian, Inc. is engaged in the
 business of creating and licensing software in the field of
 computational chemistry and represents and warrants to the
 licensee that it is not a competitor of Gaussian, Inc. and that
 it will not use this program in any manner prohibited above.
 ---------------------------------------------------------------
  

 Cite this work as:
 Gaussian 16, Revision C.01,
 M. J. Frisch, G. W. Trucks, H. B. Schlegel, G. E. Scuseria, 
 M. A. Robb, J. R. Cheeseman, G. Scalmani, V. Barone, 
 G. A. Petersson, H. Nakatsuji, X. Li, M. Caricato, A. V. Marenich, 
 J. Bloino, B. G. Janesko, R. Gomperts, B. Mennucci, H. P. Hratchian, 
 J. V. Ortiz, A. F. Izmaylov, J. L. Sonnenberg, D. Williams-Young, 
 F. Ding, F. Lipparini, F. Egidi, J. Goings, B. Peng, A. Petrone, 
 T. Henderson, D. Ranasinghe, V. G. Zakrzewski, J. Gao, N. Rega, 
 G. Zheng, W. Liang, M. Hada, M. Ehara, K. Toyota, R. Fukuda, 
 J. Hasegawa, M. Ishida, T. Nakajima, Y. Honda, O. Kitao, H. Nakai, 
 T. Vreven, K. Throssell, J. A. Montgomery, Jr., J. E. Peralta, 
 F. Ogliaro, M. J. Bearpark, J. J. Heyd, E. N. Brothers, K. N. Kudin, 
 V. N. Staroverov, T. A. Keith, R. Kobayashi, J. Normand, 
 K. Raghavachari, A. P. Rendell, J. C. Burant, S. S. Iyengar, 
 J. Tomasi, M. Cossi, J. M. Millam, M. Klene, C. Adamo, R. Cammi, 
 J. W. Ochterski, R. L. Martin, K. Morokuma, O. Farkas, 
 J. B. Foresman, and D. J. Fox, Gaussian, Inc., Wallingford CT, 2019.
 
 ******************************************
 Gaussian 16:  ES64L-G16RevC.01  3-Jul-2019
                 7-Dec-2024 
 ******************************************
 Default route: SCF=Direct
 ----------------------------------------------------
 # m06/genecp scf=tight int=ultrafine 5d freq=noraman
 ----------------------------------------------------
 1/10=4,30=1,38=1/1,3;
 2/12=2,17=6,18=5,40=1/2;
 3/5=7,8=1,11=2,16=1,17=8,25=1,30=1,71=2,74=-54,75=-5,140=1/1,2,3;
 4//1;
 5/5=2,32=2,38=5,98=1/2;
 8/6=4,10=90,11=11/1;
 11/6=1,8=1,9=11,15=111,16=1/1,2,10;
 10/6=1/2;
 6/7=2,8=2,9=2,10=2,28=1/1;
 7/8=1,10=1,25=1/1,2,3,16;
 1/10=4,30=1/3;
 99//99;
 ------
 OPT-TS
 ------
 Symbolic Z-matrix:
 Charge =  0 Multiplicity = 1
 Ir                   -0.01115  -0.27398  -0.17492 
 B                    -2.02578  -0.97156  -0.07906 
 C                     0.53826  -0.71464  -3.30817 
 C                     0.979    -1.35842  -4.456 
 C                     1.17222  -3.35927  -3.15923 
 C                     0.71693  -2.64723  -2.04938 
 C                     0.5969   -3.25794  -0.71135 
 C                     0.69056  -4.63539  -0.50775 
 C                     0.41547  -4.27299   1.83858 
 C                     0.3234   -2.91429   1.57166 
 B                     2.20411  -0.36159   0.04932 
 N                     0.41015  -1.34167  -2.13869 
 N                     0.40246  -2.41935   0.3295 
 O                     2.91825  -0.24381   1.22219 
 O                     2.94133  -1.0316   -0.91163 
 O                    -1.24733   1.53045   2.01791 
 O                    -0.03124  -0.21146   2.8364 
 O                     1.83659   1.97769  -1.4054 
 O                     1.34719   2.35429   0.78799 
 C                     1.30374  -2.70672  -4.37538 
 C                     0.59582  -5.14964   0.77655 
 C                     4.2695   -1.24313  -0.41141 
 C                     4.07926  -1.08851   1.12983 
 C                     2.25082   3.39777   0.42715 
 C                     2.27489   3.32253  -1.13761 
 C                    -1.455     1.52161   3.42923 
 C                    -0.2533    0.67719   3.94041 
 C                    -3.54297  -2.67625   0.04897 
 B                     1.19158   1.47854  -0.27006 
 H                     0.28025   0.3423   -3.30556 
 B                    -0.47167   0.44143   1.67505 
 C                    -4.25372  -1.32484   0.32146 
 O                    -3.14128  -0.44476   0.55607 
 O                    -2.31658  -2.24779  -0.5582 
 C                    -5.00562  -0.807    -0.89582 
 H                    -5.34556   0.21762  -0.69355 
 H                    -4.35186  -0.78185  -1.77775 
 H                    -5.8905   -1.41813  -1.11922 
 C                    -5.16137  -1.30116   1.53458 
 H                    -5.58114  -0.29372   1.65722 
 H                    -5.99663  -2.00627   1.41282 
 H                    -4.62328  -1.55065   2.45595 
 C                    -3.17172  -3.4177    1.32773 
 H                    -4.0505   -3.85149   1.82424 
 H                    -2.47937  -4.23231   1.07342 
 H                    -2.65996  -2.75088   2.03767 
 C                    -4.267    -3.61097  -0.89811 
 H                    -3.68355  -4.53257  -1.02399 
 H                    -5.25498  -3.88653  -0.50145 
 H                    -4.3979   -3.15905  -1.88715 
 C                    -1.47971   2.95325   3.92799 
 H                    -2.36463   3.46679   3.52991 
 H                    -1.52864   2.99155   5.02636 
 H                    -0.59358   3.50281   3.5908 
 C                    -2.80203   0.85575   3.68162 
 H                    -3.56668   1.38228   3.09544 
 H                    -2.79235  -0.18706   3.33704 
 H                    -3.08776   0.88452   4.7425 
 C                     1.02398   1.49075   4.11102 
 H                     0.97165   2.16242   4.97926 
 H                     1.86301   0.79654   4.25379 
 H                     1.23045   2.07426   3.20422 
 C                    -0.52559  -0.13563   5.19013 
 H                     0.37442  -0.69938   5.47008 
 H                    -0.7875    0.51988   6.03337 
 H                    -1.34237  -0.8513    5.03993 
 C                     1.71605   4.69928   0.99681 
 H                     1.74923   4.65344   2.0939 
 H                     2.32324   5.55809   0.67552 
 H                     0.67298   4.86146   0.70121 
 C                     1.28184   4.2667   -1.79421 
 H                     1.57369   5.31826  -1.6699 
 H                     1.24462   4.04993  -2.87106 
 H                     0.28322   4.11521  -1.37474 
 C                     3.64039   3.52985  -1.76579 
 H                     3.56027   3.43154  -2.85603 
 H                     4.01903   4.53812  -1.54306 
 H                     4.37743   2.79855  -1.41749 
 C                     3.59151   3.07274   1.07216 
 H                     3.44257   2.9405    2.15204 
 H                     3.99245   2.12826   0.68797 
 H                     4.33028   3.87018   0.91338 
 C                     5.23073  -0.42634   1.86062 
 H                     4.97897  -0.32949   2.92471 
 H                     6.14405  -1.03355   1.77944 
 H                     5.44495   0.57642   1.47604 
 C                     5.15564  -0.17135  -1.0271 
 H                     6.21073  -0.30122  -0.7507 
 H                     5.07023  -0.22736  -2.11938 
 H                     4.8333    0.83224  -0.72325 
 C                     4.74044  -2.6121   -0.86596 
 H                     4.83481  -2.6208   -1.95978 
 H                     5.72335  -2.85542  -0.43723 
 H                     4.03063  -3.39949  -0.585 
 C                     3.73057  -2.39743   1.82569 
 H                     4.6031   -3.05918   1.912 
 H                     3.36207  -2.16852   2.83453 
 H                     2.9364   -2.93813   1.29581 
 B                    -1.18682   1.22148  -1.00606 
 O                    -2.00083   0.92015  -2.10855 
 O                    -1.32298   2.56346  -0.68425 
 C                    -2.55798   2.14987  -2.60148 
 C                    -2.49686   3.05756  -1.34469 
 C                    -1.65165   2.62292  -3.73143 
 C                    -3.95177   1.90335  -3.14047 
 C                    -2.35355   4.53912  -1.63619 
 C                    -3.65286   2.84782  -0.37302 
 H                    -0.63457   2.8191   -3.36461 
 H                    -2.03268   3.53061  -4.21871 
 H                    -1.59565   1.82927  -4.48886 
 H                    -3.90602   1.21044  -3.99132 
 H                    -4.39931   2.84424  -3.49251 
 H                    -4.61149   1.46809  -2.38379 
 H                    -2.19867   5.08217  -0.69417 
 H                    -3.27238   4.92443  -2.10156 
 H                    -1.51369   4.76681  -2.30079 
 H                    -3.74387   1.79051  -0.09202 
 H                    -4.60718   3.21307  -0.77784 
 H                    -3.42746   3.40289   0.5468 
 H                     0.19122  -2.17139   2.35916 
 H                     1.66463  -3.2458   -5.24927 
 H                     1.44722  -4.40742  -3.07375 
 H                     0.66108  -6.22337   0.94216 
 H                     0.81732  -5.30638  -1.35304 
 H                     0.34248  -4.62643   2.86402 
 H                     1.07299  -0.80548  -5.3872 
 

 GradGradGradGradGradGradGradGradGradGradGradGradGradGradGradGradGradGrad
 Berny optimization.
 Initialization pass.
 Trust Radius=3.00D-01 FncErr=1.00D-07 GrdErr=1.00D-07 EigMax=2.50D+02 EigMin=1.00D-04
 Number of steps in this run=      2 maximum allowed number of steps=      2.
 GradGradGradGradGradGradGradGradGradGradGradGradGradGradGradGradGradGrad

 Stoichiometry    C40H68B5IrN2O10
 Framework group  C1[X(C40H68B5IrN2O10)]
 Deg. of freedom   372
 Full point group                 C1      NOp   1
 Largest Abelian subgroup         C1      NOp   1
 Largest concise Abelian subgroup C1      NOp   1
                         Standard orientation:                         
 ---------------------------------------------------------------------
 Center     Atomic      Atomic             Coordinates (Angstroms)
 Number     Number       Type             X           Y           Z
 ---------------------------------------------------------------------
      1         77           0       -0.011149   -0.273980   -0.174920
      2          5           0       -2.025779   -0.971561   -0.079060
      3          6           0        0.538261   -0.714639   -3.308170
      4          6           0        0.979001   -1.358419   -4.456000
      5          6           0        1.172222   -3.359269   -3.159230
      6          6           0        0.716932   -2.647229   -2.049380
      7          6           0        0.596902   -3.257939   -0.711350
      8          6           0        0.690563   -4.635389   -0.507750
      9          6           0        0.415473   -4.272989    1.838580
     10          6           0        0.323402   -2.914289    1.571660
     11          5           0        2.204111   -0.361588    0.049320
     12          7           0        0.410151   -1.341669   -2.138690
     13          7           0        0.402462   -2.419349    0.329500
     14          8           0        2.918251   -0.243808    1.222190
     15          8           0        2.941331   -1.031598   -0.911630
     16          8           0       -1.247330    1.530450    2.017910
     17          8           0       -0.031239   -0.211460    2.836400
     18          8           0        1.836590    1.977691   -1.405400
     19          8           0        1.347189    2.354291    0.787990
     20          6           0        1.303742   -2.706719   -4.375380
     21          6           0        0.595823   -5.149639    0.776550
     22          6           0        4.269501   -1.243127   -0.411410
     23          6           0        4.079261   -1.088507    1.129830
     24          6           0        2.250819    3.397772    0.427150
     25          6           0        2.274889    3.322532   -1.137610
     26          6           0       -1.455000    1.521610    3.429230
     27          6           0       -0.253300    0.677190    3.940410
     28          6           0       -3.542968   -2.676251    0.048970
     29          5           0        1.191580    1.478541   -0.270060
     30          1           0        0.280250    0.342301   -3.305560
     31          5           0       -0.471670    0.441430    1.675050
     32          6           0       -4.253719   -1.324842    0.321460
     33          8           0       -3.141279   -0.444761    0.556070
     34          8           0       -2.316578   -2.247791   -0.558200
     35          6           0       -5.005619   -0.807002   -0.895820
     36          1           0       -5.345560    0.217618   -0.693550
     37          1           0       -4.351859   -0.781852   -1.777750
     38          1           0       -5.890499   -1.418132   -1.119220
     39          6           0       -5.161369   -1.301162    1.534580
     40          1           0       -5.581139   -0.293722    1.657220
     41          1           0       -5.996628   -2.006273    1.412820
     42          1           0       -4.623279   -1.550652    2.455950
     43          6           0       -3.171718   -3.417701    1.327730
     44          1           0       -4.050497   -3.851492    1.824240
     45          1           0       -2.479367   -4.232311    1.073420
     46          1           0       -2.659958   -2.750881    2.037670
     47          6           0       -4.266998   -3.610972   -0.898110
     48          1           0       -3.683547   -4.532571   -1.023990
     49          1           0       -5.254977   -3.886532   -0.501450
     50          1           0       -4.397898   -3.159052   -1.887150
     51          6           0       -1.479711    2.953250    3.927990
     52          1           0       -2.364631    3.466789    3.529910
     53          1           0       -1.528641    2.991550    5.026360
     54          1           0       -0.593581    3.502810    3.590800
     55          6           0       -2.802030    0.855749    3.681620
     56          1           0       -3.566680    1.382279    3.095440
     57          1           0       -2.792349   -0.187061    3.337040
     58          1           0       -3.087760    0.884519    4.742500
     59          6           0        1.023980    1.490751    4.111020
     60          1           0        0.971649    2.162421    4.979260
     61          1           0        1.863010    0.796541    4.253790
     62          1           0        1.230450    2.074261    3.204220
     63          6           0       -0.525589   -0.135630    5.190130
     64          1           0        0.374421   -0.699379    5.470080
     65          1           0       -0.787500    0.519880    6.033370
     66          1           0       -1.342369   -0.851300    5.039930
     67          6           0        1.716048    4.699281    0.996810
     68          1           0        1.749228    4.653441    2.093900
     69          1           0        2.323238    5.558092    0.675520
     70          1           0        0.672978    4.861461    0.701210
     71          6           0        1.281838    4.266701   -1.794210
     72          1           0        1.573688    5.318261   -1.669900
     73          1           0        1.244619    4.049931   -2.871060
     74          1           0        0.283219    4.115211   -1.374740
     75          6           0        3.640389    3.529852   -1.765790
     76          1           0        3.560269    3.431542   -2.856030
     77          1           0        4.019028    4.538123   -1.543060
     78          1           0        4.377429    2.798553   -1.417490
     79          6           0        3.591509    3.072742    1.072160
     80          1           0        3.442569    2.940502    2.152040
     81          1           0        3.992450    2.128262    0.687970
     82          1           0        4.330279    3.870183    0.913380
     83          6           0        5.230731   -0.426337    1.860620
     84          1           0        4.978971   -0.329487    2.924710
     85          1           0        6.144051   -1.033546    1.779440
     86          1           0        5.444950    0.576423    1.476040
     87          6           0        5.155641   -0.171347   -1.027100
     88          1           0        6.210731   -0.301216   -0.750700
     89          1           0        5.070231   -0.227357   -2.119380
     90          1           0        4.833300    0.832243   -0.723250
     91          6           0        4.740442   -2.612097   -0.865960
     92          1           0        4.834812   -2.620797   -1.959780
     93          1           0        5.723352   -2.855417   -0.437230
     94          1           0        4.030632   -3.399487   -0.585000
     95          6           0        3.730572   -2.397428    1.825690
     96          1           0        4.603102   -3.059177    1.912000
     97          1           0        3.362072   -2.168518    2.834530
     98          1           0        2.936402   -2.938128    1.295810
     99          5           0       -1.186820    1.221480   -1.006060
    100          8           0       -2.000830    0.920149   -2.108550
    101          8           0       -1.322981    2.563460   -0.684250
    102          6           0       -2.557981    2.149869   -2.601480
    103          6           0       -2.496861    3.057559   -1.344690
    104          6           0       -1.651651    2.622920   -3.731430
    105          6           0       -3.951770    1.903348   -3.140470
    106          6           0       -2.353552    4.539119   -1.636190
    107          6           0       -3.652861    2.847819   -0.373020
    108          1           0       -0.634571    2.819100   -3.364610
    109          1           0       -2.032681    3.530609   -4.218710
    110          1           0       -1.595650    1.829270   -4.488860
    111          1           0       -3.906020    1.210439   -3.991320
    112          1           0       -4.399311    2.844238   -3.492510
    113          1           0       -4.611490    1.468088   -2.383790
    114          1           0       -2.198672    5.082169   -0.694170
    115          1           0       -3.272382    4.924429   -2.101560
    116          1           0       -1.513692    4.766810   -2.300790
    117          1           0       -3.743870    1.790509   -0.092020
    118          1           0       -4.607181    3.213068   -0.777840
    119          1           0       -3.427461    3.402889    0.546800
    120          1           0        0.191222   -2.171389    2.359160
    121          1           0        1.664632   -3.245799   -5.249270
    122          1           0        1.447223   -4.407419   -3.073750
    123          1           0        0.661084   -6.223369    0.942160
    124          1           0        0.817323   -5.306379   -1.353040
    125          1           0        0.342483   -4.626429    2.864020
    126          1           0        1.072991   -0.805479   -5.387200
 ---------------------------------------------------------------------
 Rotational constants (GHZ):           0.0570926           0.0523036           0.0462798
 General basis read from cards:  (5D, 7F)
 ======================================================================================================
                                       Pseudopotential Parameters
 ======================================================================================================
  Center     Atomic      Valence      Angular      Power
  Number     Number     Electrons     Momentum     of R      Exponent        Coefficient   SO-Coeffient
 ======================================================================================================
    1         77           17
                                      G and up 
                                                     1      823.5880147       -0.15780140    0.00000000
                                                     2      364.6613336    -1517.52704460    0.00000000
                                                     2       55.7082801     -316.53065290    0.00000000
                                                     2       12.0464544      -91.88809410    0.00000000
                                                     2        3.5120610       -9.22417730    0.00000000
                                      S - G
                                                     0      188.0490770        3.15780140    0.00000000
                                                     1      340.4194712       26.83225770    0.00000000
                                                     2      128.2373673      800.42500070    0.00000000
                                                     2       33.8644961      369.40506830    0.00000000
                                                     2        4.7560005      242.41718990    0.00000000
                                                     2        3.9649974     -118.21732820    0.00000000
                                      P - G
                                                     0      289.7291139        2.15780140    0.00000000
                                                     1       87.4633789       61.96786100    0.00000000
                                                     2       30.4363766      269.05819860    0.00000000
                                                     2        4.0553412      231.16547930    0.00000000
                                                     2        3.5525341     -133.69526670    0.00000000
                                      D - G
                                                     0      136.4017106        3.15780140    0.00000000
                                                     1       95.0776925       45.93498030    0.00000000
                                                     2       49.2258410      359.03446680    0.00000000
                                                     2       15.0874145      176.47401190    0.00000000
                                                     2        4.0405764       54.51552860    0.00000000
                                      F - G
                                                     0      127.3507908        3.95461970    0.00000000
                                                     1       66.2364374       52.97736550    0.00000000
                                                     2       34.4299229      274.86433830    0.00000000
                                                     2       10.1995721      137.20473380    0.00000000
                                                     2        2.5409702       14.86333050    0.00000000
    2          5
                                   No pseudopotential on this center.
    3          6
                                   No pseudopotential on this center.
    4          6
                                   No pseudopotential on this center.
    5          6
                                   No pseudopotential on this center.
    6          6
                                   No pseudopotential on this center.
    7          6
                                   No pseudopotential on this center.
    8          6
                                   No pseudopotential on this center.
    9          6
                                   No pseudopotential on this center.
   10          6
                                   No pseudopotential on this center.
   11          5
                                   No pseudopotential on this center.
   12          7
                                   No pseudopotential on this center.
   13          7
                                   No pseudopotential on this center.
   14          8
                                   No pseudopotential on this center.
   15          8
                                   No pseudopotential on this center.
   16          8
                                   No pseudopotential on this center.
   17          8
                                   No pseudopotential on this center.
   18          8
                                   No pseudopotential on this center.
   19          8
                                   No pseudopotential on this center.
   20          6
                                   No pseudopotential on this center.
   21          6
                                   No pseudopotential on this center.
   22          6
                                   No pseudopotential on this center.
   23          6
                                   No pseudopotential on this center.
   24          6
                                   No pseudopotential on this center.
   25          6
                                   No pseudopotential on this center.
   26          6
                                   No pseudopotential on this center.
   27          6
                                   No pseudopotential on this center.
   28          6
                                   No pseudopotential on this center.
   29          5
                                   No pseudopotential on this center.
   30          1
                                   No pseudopotential on this center.
   31          5
                                   No pseudopotential on this center.
   32          6
                                   No pseudopotential on this center.
   33          8
                                   No pseudopotential on this center.
   34          8
                                   No pseudopotential on this center.
   35          6
                                   No pseudopotential on this center.
   36          1
                                   No pseudopotential on this center.
   37          1
                                   No pseudopotential on this center.
   38          1
                                   No pseudopotential on this center.
   39          6
                                   No pseudopotential on this center.
   40          1
                                   No pseudopotential on this center.
   41          1
                                   No pseudopotential on this center.
   42          1
                                   No pseudopotential on this center.
   43          6
                                   No pseudopotential on this center.
   44          1
                                   No pseudopotential on this center.
   45          1
                                   No pseudopotential on this center.
   46          1
                                   No pseudopotential on this center.
   47          6
                                   No pseudopotential on this center.
   48          1
                                   No pseudopotential on this center.
   49          1
                                   No pseudopotential on this center.
   50          1
                                   No pseudopotential on this center.
   51          6
                                   No pseudopotential on this center.
   52          1
                                   No pseudopotential on this center.
   53          1
                                   No pseudopotential on this center.
   54          1
                                   No pseudopotential on this center.
   55          6
                                   No pseudopotential on this center.
   56          1
                                   No pseudopotential on this center.
   57          1
                                   No pseudopotential on this center.
   58          1
                                   No pseudopotential on this center.
   59          6
                                   No pseudopotential on this center.
   60          1
                                   No pseudopotential on this center.
   61          1
                                   No pseudopotential on this center.
   62          1
                                   No pseudopotential on this center.
   63          6
                                   No pseudopotential on this center.
   64          1
                                   No pseudopotential on this center.
   65          1
                                   No pseudopotential on this center.
   66          1
                                   No pseudopotential on this center.
   67          6
                                   No pseudopotential on this center.
   68          1
                                   No pseudopotential on this center.
   69          1
                                   No pseudopotential on this center.
   70          1
                                   No pseudopotential on this center.
   71          6
                                   No pseudopotential on this center.
   72          1
                                   No pseudopotential on this center.
   73          1
                                   No pseudopotential on this center.
   74          1
                                   No pseudopotential on this center.
   75          6
                                   No pseudopotential on this center.
   76          1
                                   No pseudopotential on this center.
   77          1
                                   No pseudopotential on this center.
   78          1
                                   No pseudopotential on this center.
   79          6
                                   No pseudopotential on this center.
   80          1
                                   No pseudopotential on this center.
   81          1
                                   No pseudopotential on this center.
   82          1
                                   No pseudopotential on this center.
   83          6
                                   No pseudopotential on this center.
   84          1
                                   No pseudopotential on this center.
   85          1
                                   No pseudopotential on this center.
   86          1
                                   No pseudopotential on this center.
   87          6
                                   No pseudopotential on this center.
   88          1
                                   No pseudopotential on this center.
   89          1
                                   No pseudopotential on this center.
   90          1
                                   No pseudopotential on this center.
   91          6
                                   No pseudopotential on this center.
   92          1
                                   No pseudopotential on this center.
   93          1
                                   No pseudopotential on this center.
   94          1
                                   No pseudopotential on this center.
   95          6
                                   No pseudopotential on this center.
   96          1
                                   No pseudopotential on this center.
   97          1
                                   No pseudopotential on this center.
   98          1
                                   No pseudopotential on this center.
   99          5
                                   No pseudopotential on this center.
  100          8
                                   No pseudopotential on this center.
  101          8
                                   No pseudopotential on this center.
  102          6
                                   No pseudopotential on this center.
  103          6
                                   No pseudopotential on this center.
  104          6
                                   No pseudopotential on this center.
  105          6
                                   No pseudopotential on this center.
  106          6
                                   No pseudopotential on this center.
  107          6
                                   No pseudopotential on this center.
  108          1
                                   No pseudopotential on this center.
  109          1
                                   No pseudopotential on this center.
  110          1
                                   No pseudopotential on this center.
  111          1
                                   No pseudopotential on this center.
  112          1
                                   No pseudopotential on this center.
  113          1
                                   No pseudopotential on this center.
  114          1
                                   No pseudopotential on this center.
  115          1
                                   No pseudopotential on this center.
  116          1
                                   No pseudopotential on this center.
  117          1
                                   No pseudopotential on this center.
  118          1
                                   No pseudopotential on this center.
  119          1
                                   No pseudopotential on this center.
  120          1
                                   No pseudopotential on this center.
  121          1
                                   No pseudopotential on this center.
  122          1
                                   No pseudopotential on this center.
  123          1
                                   No pseudopotential on this center.
  124          1
                                   No pseudopotential on this center.
  125          1
                                   No pseudopotential on this center.
  126          1
                                   No pseudopotential on this center.
 ======================================================================================================
 There are  1015 symmetry adapted cartesian basis functions of A   symmetry.
 There are   956 symmetry adapted basis functions of A   symmetry.
   956 basis functions,  1911 primitive gaussians,  1015 cartesian basis functions
   222 alpha electrons      222 beta electrons
       nuclear repulsion energy     10803.5632477099 Hartrees.
 NAtoms=  126 NActive=  126 NUniq=  126 SFac= 1.00D+00 NAtFMM=   60 NAOKFM=T Big=T
 Integral buffers will be    131072 words long.
 Raffenetti 2 integral format.
 Two-electron integral symmetry is turned on.
 One-electron integrals computed using PRISM.
   1 Symmetry operations used in ECPInt.
 ECPInt:  NShTT=   69378 NPrTT=  420311 LenC2=   54192 LenP2D=  164518.
 LDataN:  DoStor=T MaxTD1= 6 Len=  172
 NBasis=   956 RedAO= T EigKep=  5.35D-04  NBF=   956
 NBsUse=   956 1.00D-06 EigRej= -1.00D+00 NBFU=   956
 Defaulting to unpruned grid for atomic number  77.
 ExpMin= 2.90D-02 ExpMax= 5.48D+03 ExpMxC= 8.25D+02 IAcc=3 IRadAn=         5 AccDes= 0.00D+00
 Harris functional with IExCor= 1009 and IRadAn=       5 diagonalized for initial guess.
 HarFok:  IExCor= 1009 AccDes= 0.00D+00 IRadAn=         5 IDoV= 1 UseB2=F ITyADJ=14
 ICtDFT=  3500011 ScaDFX=  1.000000  1.000000  1.000000  1.000000
 Defaulting to unpruned grid for atomic number  77.
 FoFCou: FMM=F IPFlag=           0 FMFlag=      100000 FMFlg1=        2001
         NFxFlg=           0 DoJE=T BraDBF=F KetDBF=T FulRan=T
         wScrn=  0.000000 ICntrl=       500 IOpCl=  0 I1Cent=   200000004 NGrid=           0
         NMat0=    1 NMatS0=      1 NMatT0=    0 NMatD0=    1 NMtDS0=    0 NMtDT0=    0
 Petite list used in FoFCou.
 Requested convergence on RMS density matrix=1.00D-08 within 128 cycles.
 Requested convergence on MAX density matrix=1.00D-06.
 Requested convergence on             energy=1.00D-06.
 No special actions if energy rises.
 Defaulting to unpruned grid for atomic number  77.
 Defaulting to unpruned grid for atomic number  77.
 Defaulting to unpruned grid for atomic number  77.
 Defaulting to unpruned grid for atomic number  77.
 Defaulting to unpruned grid for atomic number  77.
 Defaulting to unpruned grid for atomic number  77.
 Defaulting to unpruned grid for atomic number  77.
 Defaulting to unpruned grid for atomic number  77.
 Defaulting to unpruned grid for atomic number  77.
 Defaulting to unpruned grid for atomic number  77.
 Defaulting to unpruned grid for atomic number  77.
 Defaulting to unpruned grid for atomic number  77.
 Defaulting to unpruned grid for atomic number  77.
 Defaulting to unpruned grid for atomic number  77.
 Defaulting to unpruned grid for atomic number  77.
 Defaulting to unpruned grid for atomic number  77.
 SCF Done:  E(RM06) =  -2654.81087534     A.U. after   14 cycles
            NFock= 14  Conv=0.93D-08     -V/T= 2.0342
 DoSCS=F DFT=T ScalE2(SS,OS)=  1.000000  1.000000
 Range of M.O.s used for correlation:     1   956
 NBasis=   956 NAE=   222 NBE=   222 NFC=     0 NFV=     0
 NROrb=    956 NOA=   222 NOB=   222 NVA=   734 NVB=   734

 **** Warning!!: The largest alpha MO coefficient is  0.17140259D+02

   1 Symmetry operations used in ECPInt.
 ECPInt:  NShTT=   69378 NPrTT=  420311 LenC2=   54192 LenP2D=  164518.
 LDataN:  DoStor=T MaxTD1= 7 Len=  274
 Number of processors reduced to   6 by ecpmxn.
 Symmetrizing basis deriv contribution to polar:
 IMax=3 JMax=2 DiffMx= 0.00D+00
 G2DrvN: will do   127 centers at a time, making    1 passes.
 Calling FoFCou, ICntrl=  3107 FMM=T I1Cent=   0 AccDes= 0.00D+00.
 Defaulting to unpruned grid for atomic number  77.
 Defaulting to unpruned grid for atomic number  77.
 Defaulting to unpruned grid for atomic number  77.
 Defaulting to unpruned grid for atomic number  77.
 Defaulting to unpruned grid for atomic number  77.
 Defaulting to unpruned grid for atomic number  77.
 Defaulting to unpruned grid for atomic number  77.
 Defaulting to unpruned grid for atomic number  77.
 Defaulting to unpruned grid for atomic number  77.
 Defaulting to unpruned grid for atomic number  77.
 Defaulting to unpruned grid for atomic number  77.
 Defaulting to unpruned grid for atomic number  77.
 Defaulting to unpruned grid for atomic number  77.
 Defaulting to unpruned grid for atomic number  77.
 Defaulting to unpruned grid for atomic number  77.
 Defaulting to unpruned grid for atomic number  77.
 End of G2Drv F.D. properties file   721 does not exist.
 End of G2Drv F.D. properties file   722 does not exist.
 End of G2Drv F.D. properties file   788 does not exist.
          IDoAtm=11111111111111111111111111111111111111111111111111
          IDoAtm=11111111111111111111111111111111111111111111111111
          IDoAtm=11111111111111111111111111
          Differentiating once with respect to electric field.
                with respect to dipole field.
          Differentiating once with respect to nuclear coordinates.
 Defaulting to unpruned grid for atomic number  77.
 CalDSu exits because no D1Ps are significant.
 Defaulting to unpruned grid for atomic number  77.
 Defaulting to unpruned grid for atomic number  77.
 Defaulting to unpruned grid for atomic number  77.
 Defaulting to unpruned grid for atomic number  77.
 Defaulting to unpruned grid for atomic number  77.
 Defaulting to unpruned grid for atomic number  77.
 Defaulting to unpruned grid for atomic number  77.
 Defaulting to unpruned grid for atomic number  77.
 Defaulting to unpruned grid for atomic number  77.
 Defaulting to unpruned grid for atomic number  77.
 Defaulting to unpruned grid for atomic number  77.
 Defaulting to unpruned grid for atomic number  77.
 Defaulting to unpruned grid for atomic number  77.
 Defaulting to unpruned grid for atomic number  77.
 Defaulting to unpruned grid for atomic number  77.
 Defaulting to unpruned grid for atomic number  77.
          There are   381 degrees of freedom in the 1st order CPHF.  IDoFFX=6 NUNeed=     3.
    378 vectors produced by pass  0 Test12= 1.63D-13 1.00D-09 XBig12= 4.97D+02 9.29D+00.
 AX will form    72 AO Fock derivatives at one time.
    378 vectors produced by pass  1 Test12= 1.63D-13 1.00D-09 XBig12= 7.59D+01 1.14D+00.
    378 vectors produced by pass  2 Test12= 1.63D-13 1.00D-09 XBig12= 8.31D-01 8.11D-02.
    378 vectors produced by pass  3 Test12= 1.63D-13 1.00D-09 XBig12= 4.75D-03 4.48D-03.
    378 vectors produced by pass  4 Test12= 1.63D-13 1.00D-09 XBig12= 1.34D-05 2.33D-04.
    320 vectors produced by pass  5 Test12= 1.63D-13 1.00D-09 XBig12= 2.42D-08 9.33D-06.
     79 vectors produced by pass  6 Test12= 1.63D-13 1.00D-09 XBig12= 3.49D-11 4.23D-07.
      3 vectors produced by pass  7 Test12= 1.63D-13 1.00D-09 XBig12= 5.03D-14 1.46D-08.
 InvSVY:  IOpt=1 It=  1 EMax= 3.55D-14
 Solved reduced A of dimension  2292 with   381 vectors.
 Isotropic polarizability for W=    0.000000      548.93 Bohr**3.
 End of Minotr F.D. properties file   721 does not exist.
 End of Minotr F.D. properties file   722 does not exist.
 End of Minotr F.D. properties file   788 does not exist.
 Hyperfine terms turned off by default for NAtoms > 100.

 **********************************************************************

            Population analysis using the SCF Density.

 **********************************************************************

 Orbital symmetries:
       Occupied  (A) (A) (A) (A) (A) (A) (A) (A) (A) (A) (A) (A)
                 (A) (A) (A) (A) (A) (A) (A) (A) (A) (A) (A) (A)
                 (A) (A) (A) (A) (A) (A) (A) (A) (A) (A) (A) (A)
                 (A) (A) (A) (A) (A) (A) (A) (A) (A) (A) (A) (A)
                 (A) (A) (A) (A) (A) (A) (A) (A) (A) (A) (A) (A)
                 (A) (A) (A) (A) (A) (A) (A) (A) (A) (A) (A) (A)
                 (A) (A) (A) (A) (A) (A) (A) (A) (A) (A) (A) (A)
                 (A) (A) (A) (A) (A) (A) (A) (A) (A) (A) (A) (A)
                 (A) (A) (A) (A) (A) (A) (A) (A) (A) (A) (A) (A)
                 (A) (A) (A) (A) (A) (A) (A) (A) (A) (A) (A) (A)
                 (A) (A) (A) (A) (A) (A) (A) (A) (A) (A) (A) (A)
                 (A) (A) (A) (A) (A) (A) (A) (A) (A) (A) (A) (A)
                 (A) (A) (A) (A) (A) (A) (A) (A) (A) (A) (A) (A)
                 (A) (A) (A) (A) (A) (A) (A) (A) (A) (A) (A) (A)
                 (A) (A) (A) (A) (A) (A) (A) (A) (A) (A) (A) (A)
                 (A) (A) (A) (A) (A) (A) (A) (A) (A) (A) (A) (A)
                 (A) (A) (A) (A) (A) (A) (A) (A) (A) (A) (A) (A)
                 (A) (A) (A) (A) (A) (A) (A) (A) (A) (A) (A) (A)
                 (A) (A) (A) (A) (A) (A)
       Virtual   (A) (A) (A) (A) (A) (A) (A) (A) (A) (A) (A) (A)
                 (A) (A) (A) (A) (A) (A) (A) (A) (A) (A) (A) (A)
                 (A) (A) (A) (A) (A) (A) (A) (A) (A) (A) (A) (A)
                 (A) (A) (A) (A) (A) (A) (A) (A) (A) (A) (A) (A)
                 (A) (A) (A) (A) (A) (A) (A) (A) (A) (A) (A) (A)
                 (A) (A) (A) (A) (A) (A) (A) (A) (A) (A) (A) (A)
                 (A) (A) (A) (A) (A) (A) (A) (A) (A) (A) (A) (A)
                 (A) (A) (A) (A) (A) (A) (A) (A) (A) (A) (A) (A)
                 (A) (A) (A) (A) (A) (A) (A) (A) (A) (A) (A) (A)
                 (A) (A) (A) (A) (A) (A) (A) (A) (A) (A) (A) (A)
                 (A) (A) (A) (A) (A) (A) (A) (A) (A) (A) (A) (A)
                 (A) (A) (A) (A) (A) (A) (A) (A) (A) (A) (A) (A)
                 (A) (A) (A) (A) (A) (A) (A) (A) (A) (A) (A) (A)
                 (A) (A) (A) (A) (A) (A) (A) (A) (A) (A) (A) (A)
                 (A) (A) (A) (A) (A) (A) (A) (A) (A) (A) (A) (A)
                 (A) (A) (A) (A) (A) (A) (A) (A) (A) (A) (A) (A)
                 (A) (A) (A) (A) (A) (A) (A) (A) (A) (A) (A) (A)
                 (A) (A) (A) (A) (A) (A) (A) (A) (A) (A) (A) (A)
                 (A) (A) (A) (A) (A) (A) (A) (A) (A) (A) (A) (A)
                 (A) (A) (A) (A) (A) (A) (A) (A) (A) (A) (A) (A)
                 (A) (A) (A) (A) (A) (A) (A) (A) (A) (A) (A) (A)
                 (A) (A) (A) (A) (A) (A) (A) (A) (A) (A) (A) (A)
                 (A) (A) (A) (A) (A) (A) (A) (A) (A) (A) (A) (A)
                 (A) (A) (A) (A) (A) (A) (A) (A) (A) (A) (A) (A)
                 (A) (A) (A) (A) (A) (A) (A) (A) (A) (A) (A) (A)
                 (A) (A) (A) (A) (A) (A) (A) (A) (A) (A) (A) (A)
                 (A) (A) (A) (A) (A) (A) (A) (A) (A) (A) (A) (A)
                 (A) (A) (A) (A) (A) (A) (A) (A) (A) (A) (A) (A)
                 (A) (A) (A) (A) (A) (A) (A) (A) (A) (A) (A) (A)
                 (A) (A) (A) (A) (A) (A) (A) (A) (A) (A) (A) (A)
                 (A) (A) (A) (A) (A) (A) (A) (A) (A) (A) (A) (A)
                 (A) (A) (A) (A) (A) (A) (A) (A) (A) (A) (A) (A)
                 (A) (A) (A) (A) (A) (A) (A) (A) (A) (A) (A) (A)
                 (A) (A) (A) (A) (A) (A) (A) (A) (A) (A) (A) (A)
                 (A) (A) (A) (A) (A) (A) (A) (A) (A) (A) (A) (A)
                 (A) (A) (A) (A) (A) (A) (A) (A) (A) (A) (A) (A)
                 (A) (A) (A) (A) (A) (A) (A) (A) (A) (A) (A) (A)
                 (A) (A) (A) (A) (A) (A) (A) (A) (A) (A) (A) (A)
                 (A) (A) (A) (A) (A) (A) (A) (A) (A) (A) (A) (A)
                 (A) (A) (A) (A) (A) (A) (A) (A) (A) (A) (A) (A)
                 (A) (A) (A) (A) (A) (A) (A) (A) (A) (A) (A) (A)
                 (A) (A) (A) (A) (A) (A) (A) (A) (A) (A) (A) (A)
                 (A) (A) (A) (A) (A) (A) (A) (A) (A) (A) (A) (A)
                 (A) (A) (A) (A) (A) (A) (A) (A) (A) (A) (A) (A)
                 (A) (A) (A) (A) (A) (A) (A) (A) (A) (A) (A) (A)
                 (A) (A) (A) (A) (A) (A) (A) (A) (A) (A) (A) (A)
                 (A) (A) (A) (A) (A) (A) (A) (A) (A) (A) (A) (A)
                 (A) (A) (A) (A) (A) (A) (A) (A) (A) (A) (A) (A)
                 (A) (A) (A) (A) (A) (A) (A) (A) (A) (A) (A) (A)
                 (A) (A) (A) (A) (A) (A) (A) (A) (A) (A) (A) (A)
                 (A) (A) (A) (A) (A) (A) (A) (A) (A) (A) (A) (A)
                 (A) (A) (A) (A) (A) (A) (A) (A) (A) (A) (A) (A)
                 (A) (A) (A) (A) (A) (A) (A) (A) (A) (A) (A) (A)
                 (A) (A) (A) (A) (A) (A) (A) (A) (A) (A) (A) (A)
                 (A) (A) (A) (A) (A) (A) (A) (A) (A) (A) (A) (A)
                 (A) (A) (A) (A) (A) (A) (A) (A) (A) (A) (A) (A)
                 (A) (A) (A) (A) (A) (A) (A) (A) (A) (A) (A) (A)
                 (A) (A) (A) (A) (A) (A) (A) (A) (A) (A) (A) (A)
                 (A) (A) (A) (A) (A) (A) (A) (A) (A) (A) (A) (A)
                 (A) (A) (A) (A) (A) (A) (A) (A) (A) (A) (A) (A)
                 (A) (A) (A) (A) (A) (A) (A) (A) (A) (A) (A) (A)
                 (A) (A)
 The electronic state is 1-A.
 Alpha  occ. eigenvalues --  -19.20809 -19.20788 -19.19933 -19.19833 -19.19774
 Alpha  occ. eigenvalues --  -19.19598 -19.19094 -19.18853 -19.18722 -19.17566
 Alpha  occ. eigenvalues --  -14.44894 -14.43264 -10.31580 -10.30867 -10.29846
 Alpha  occ. eigenvalues --  -10.29819 -10.29356 -10.29102 -10.29100 -10.28966
 Alpha  occ. eigenvalues --  -10.28613 -10.28544 -10.28542 -10.28432 -10.28314
 Alpha  occ. eigenvalues --  -10.27859 -10.27766 -10.27752 -10.27404 -10.27211
 Alpha  occ. eigenvalues --  -10.27162 -10.26634 -10.23388 -10.22994 -10.22817
 Alpha  occ. eigenvalues --  -10.22729 -10.22720 -10.22568 -10.22511 -10.22134
 Alpha  occ. eigenvalues --  -10.22101 -10.22024 -10.22007 -10.21957 -10.21853
 Alpha  occ. eigenvalues --  -10.21592 -10.21451 -10.21116 -10.21052 -10.20735
 Alpha  occ. eigenvalues --  -10.20514 -10.20272  -6.80829  -6.80433  -6.79943
 Alpha  occ. eigenvalues --   -6.79332  -6.77873  -3.62803  -2.05240  -2.04909
 Alpha  occ. eigenvalues --   -2.03800  -1.06741  -1.05893  -1.05372  -1.05114
 Alpha  occ. eigenvalues --   -1.04366  -0.99876  -0.99237  -0.98738  -0.98415
 Alpha  occ. eigenvalues --   -0.98273  -0.97346  -0.96617  -0.83723  -0.82649
 Alpha  occ. eigenvalues --   -0.81965  -0.80926  -0.80249  -0.79669  -0.79513
 Alpha  occ. eigenvalues --   -0.78694  -0.76549  -0.75364  -0.74720  -0.74094
 Alpha  occ. eigenvalues --   -0.73978  -0.73183  -0.70878  -0.70284  -0.69685
 Alpha  occ. eigenvalues --   -0.69342  -0.68796  -0.68125  -0.67996  -0.67508
 Alpha  occ. eigenvalues --   -0.67149  -0.66756  -0.66539  -0.66045  -0.63757
 Alpha  occ. eigenvalues --   -0.62766  -0.62129  -0.61565  -0.60884  -0.60423
 Alpha  occ. eigenvalues --   -0.59815  -0.56893  -0.55210  -0.54472  -0.54305
 Alpha  occ. eigenvalues --   -0.54049  -0.53797  -0.53314  -0.52877  -0.52707
 Alpha  occ. eigenvalues --   -0.52601  -0.52439  -0.52334  -0.51577  -0.50084
 Alpha  occ. eigenvalues --   -0.49008  -0.48224  -0.47218  -0.47026  -0.46648
 Alpha  occ. eigenvalues --   -0.46547  -0.46309  -0.46068  -0.45867  -0.45552
 Alpha  occ. eigenvalues --   -0.45372  -0.45291  -0.45146  -0.44706  -0.44596
 Alpha  occ. eigenvalues --   -0.44360  -0.44214  -0.43850  -0.43706  -0.43515
 Alpha  occ. eigenvalues --   -0.43401  -0.43238  -0.42685  -0.42565  -0.42059
 Alpha  occ. eigenvalues --   -0.41875  -0.41628  -0.41500  -0.40477  -0.40107
 Alpha  occ. eigenvalues --   -0.40015  -0.39883  -0.39808  -0.39745  -0.39490
 Alpha  occ. eigenvalues --   -0.39438  -0.39354  -0.39163  -0.39078  -0.38948
 Alpha  occ. eigenvalues --   -0.38860  -0.38768  -0.38740  -0.38555  -0.38338
 Alpha  occ. eigenvalues --   -0.38235  -0.37966  -0.37878  -0.37653  -0.37528
 Alpha  occ. eigenvalues --   -0.37261  -0.37138  -0.36951  -0.36912  -0.36518
 Alpha  occ. eigenvalues --   -0.36422  -0.36052  -0.35919  -0.35815  -0.35707
 Alpha  occ. eigenvalues --   -0.35597  -0.35509  -0.35011  -0.34905  -0.34830
 Alpha  occ. eigenvalues --   -0.34526  -0.34342  -0.34314  -0.34162  -0.33935
 Alpha  occ. eigenvalues --   -0.33715  -0.33287  -0.33199  -0.32625  -0.32346
 Alpha  occ. eigenvalues --   -0.32001  -0.31553  -0.31282  -0.31231  -0.31120
 Alpha  occ. eigenvalues --   -0.30941  -0.30631  -0.30443  -0.30307  -0.30090
 Alpha  occ. eigenvalues --   -0.29912  -0.29621  -0.29120  -0.28733  -0.28308
 Alpha  occ. eigenvalues --   -0.27599  -0.26755  -0.26025  -0.25854  -0.25499
 Alpha  occ. eigenvalues --   -0.25327  -0.25056  -0.24651  -0.23846  -0.22365
 Alpha  occ. eigenvalues --   -0.21437  -0.20201
 Alpha virt. eigenvalues --   -0.06098  -0.03157  -0.02046   0.02433   0.02984
 Alpha virt. eigenvalues --    0.04248   0.06576   0.07018   0.07298   0.07702
 Alpha virt. eigenvalues --    0.08517   0.09111   0.09686   0.10145   0.10721
 Alpha virt. eigenvalues --    0.11071   0.11150   0.11639   0.11946   0.12255
 Alpha virt. eigenvalues --    0.12417   0.12721   0.12871   0.13098   0.13195
 Alpha virt. eigenvalues --    0.13543   0.13813   0.13996   0.14128   0.14267
 Alpha virt. eigenvalues --    0.14568   0.14955   0.15004   0.15173   0.15265
 Alpha virt. eigenvalues --    0.15276   0.15561   0.15766   0.15966   0.16048
 Alpha virt. eigenvalues --    0.16338   0.16420   0.16512   0.16602   0.16792
 Alpha virt. eigenvalues --    0.17200   0.17406   0.17546   0.17629   0.17811
 Alpha virt. eigenvalues --    0.17901   0.18079   0.18187   0.18562   0.18722
 Alpha virt. eigenvalues --    0.18903   0.19179   0.19290   0.19462   0.19520
 Alpha virt. eigenvalues --    0.19554   0.19792   0.20092   0.20154   0.20240
 Alpha virt. eigenvalues --    0.20453   0.20605   0.20733   0.20843   0.20920
 Alpha virt. eigenvalues --    0.21257   0.21425   0.21564   0.21600   0.21848
 Alpha virt. eigenvalues --    0.22176   0.22263   0.22370   0.22671   0.22947
 Alpha virt. eigenvalues --    0.23247   0.23463   0.23617   0.23797   0.24011
 Alpha virt. eigenvalues --    0.24169   0.24674   0.24717   0.24875   0.25080
 Alpha virt. eigenvalues --    0.25258   0.25476   0.25695   0.25750   0.25918
 Alpha virt. eigenvalues --    0.26024   0.26223   0.26548   0.26817   0.27212
 Alpha virt. eigenvalues --    0.27263   0.27525   0.27667   0.27993   0.28261
 Alpha virt. eigenvalues --    0.28494   0.28697   0.28967   0.29323   0.29386
 Alpha virt. eigenvalues --    0.29582   0.29825   0.29960   0.30377   0.30875
 Alpha virt. eigenvalues --    0.30986   0.31203   0.31659   0.31786   0.32690
 Alpha virt. eigenvalues --    0.32936   0.33343   0.33650   0.34230   0.34632
 Alpha virt. eigenvalues --    0.35090   0.35294   0.36455   0.36543   0.36902
 Alpha virt. eigenvalues --    0.37683   0.38254   0.38526   0.38821   0.39958
 Alpha virt. eigenvalues --    0.40693   0.42455   0.42864   0.42893   0.44160
 Alpha virt. eigenvalues --    0.45429   0.46482   0.47107   0.48071   0.49062
 Alpha virt. eigenvalues --    0.49350   0.50183   0.50351   0.50690   0.50913
 Alpha virt. eigenvalues --    0.51033   0.51603   0.51740   0.51924   0.52118
 Alpha virt. eigenvalues --    0.52691   0.52762   0.53575   0.53751   0.54199
 Alpha virt. eigenvalues --    0.54371   0.54620   0.54826   0.55414   0.55809
 Alpha virt. eigenvalues --    0.55932   0.56581   0.56717   0.57016   0.57273
 Alpha virt. eigenvalues --    0.57556   0.57863   0.58222   0.58499   0.58699
 Alpha virt. eigenvalues --    0.58953   0.58986   0.59192   0.59334   0.59436
 Alpha virt. eigenvalues --    0.59640   0.59880   0.59930   0.60411   0.60620
 Alpha virt. eigenvalues --    0.60870   0.60996   0.61138   0.61404   0.61783
 Alpha virt. eigenvalues --    0.61865   0.61966   0.62201   0.62863   0.62918
 Alpha virt. eigenvalues --    0.63045   0.63527   0.63585   0.63789   0.64438
 Alpha virt. eigenvalues --    0.64597   0.65080   0.65473   0.65648   0.65996
 Alpha virt. eigenvalues --    0.66717   0.66744   0.67053   0.67129   0.67511
 Alpha virt. eigenvalues --    0.67706   0.68085   0.68955   0.69222   0.69547
 Alpha virt. eigenvalues --    0.69821   0.70016   0.70399   0.70506   0.70568
 Alpha virt. eigenvalues --    0.70931   0.71215   0.71250   0.71751   0.72215
 Alpha virt. eigenvalues --    0.72710   0.72920   0.73289   0.73324   0.73668
 Alpha virt. eigenvalues --    0.73901   0.74233   0.74354   0.74658   0.74945
 Alpha virt. eigenvalues --    0.75236   0.75647   0.75792   0.75951   0.76374
 Alpha virt. eigenvalues --    0.76473   0.76806   0.77239   0.77467   0.78460
 Alpha virt. eigenvalues --    0.78626   0.78705   0.78934   0.79595   0.79866
 Alpha virt. eigenvalues --    0.80417   0.80569   0.80863   0.81003   0.81318
 Alpha virt. eigenvalues --    0.81465   0.82163   0.82738   0.82855   0.83153
 Alpha virt. eigenvalues --    0.83225   0.83402   0.83809   0.83899   0.84203
 Alpha virt. eigenvalues --    0.84709   0.84951   0.85056   0.85267   0.85407
 Alpha virt. eigenvalues --    0.85594   0.85720   0.85801   0.86006   0.86256
 Alpha virt. eigenvalues --    0.86429   0.86798   0.86918   0.86990   0.87459
 Alpha virt. eigenvalues --    0.87632   0.87814   0.88021   0.88346   0.88372
 Alpha virt. eigenvalues --    0.88883   0.89105   0.89125   0.89420   0.89850
 Alpha virt. eigenvalues --    0.89957   0.90372   0.90398   0.90598   0.90829
 Alpha virt. eigenvalues --    0.91001   0.91090   0.91149   0.91348   0.91605
 Alpha virt. eigenvalues --    0.91867   0.92042   0.92388   0.92683   0.92850
 Alpha virt. eigenvalues --    0.93234   0.93430   0.93478   0.93674   0.94247
 Alpha virt. eigenvalues --    0.94799   0.94941   0.95251   0.95377   0.95653
 Alpha virt. eigenvalues --    0.95975   0.96266   0.96397   0.96638   0.96954
 Alpha virt. eigenvalues --    0.97373   0.97638   0.98051   0.98276   0.98613
 Alpha virt. eigenvalues --    0.99053   0.99591   0.99735   1.00122   1.00469
 Alpha virt. eigenvalues --    1.00598   1.01087   1.01223   1.01690   1.01947
 Alpha virt. eigenvalues --    1.02336   1.02633   1.02815   1.02923   1.03323
 Alpha virt. eigenvalues --    1.03501   1.04266   1.04337   1.05115   1.05598
 Alpha virt. eigenvalues --    1.05802   1.06147   1.07326   1.07482   1.08039
 Alpha virt. eigenvalues --    1.08115   1.08867   1.09817   1.10198   1.10381
 Alpha virt. eigenvalues --    1.10754   1.10974   1.11703   1.12244   1.12931
 Alpha virt. eigenvalues --    1.13303   1.13593   1.14318   1.14948   1.15511
 Alpha virt. eigenvalues --    1.15673   1.16567   1.16988   1.18027   1.18438
 Alpha virt. eigenvalues --    1.18884   1.19417   1.19669   1.20028   1.20705
 Alpha virt. eigenvalues --    1.20975   1.21396   1.21685   1.22202   1.23054
 Alpha virt. eigenvalues --    1.23209   1.23805   1.24297   1.24944   1.25564
 Alpha virt. eigenvalues --    1.25929   1.26531   1.26806   1.27491   1.28140
 Alpha virt. eigenvalues --    1.28230   1.29179   1.29968   1.30447   1.30956
 Alpha virt. eigenvalues --    1.31357   1.31595   1.32957   1.33276   1.33754
 Alpha virt. eigenvalues --    1.34106   1.34243   1.35516   1.35873   1.36571
 Alpha virt. eigenvalues --    1.37357   1.37834   1.38116   1.38917   1.39386
 Alpha virt. eigenvalues --    1.39931   1.40339   1.41297   1.42249   1.42389
 Alpha virt. eigenvalues --    1.43250   1.43716   1.44045   1.44521   1.44979
 Alpha virt. eigenvalues --    1.45052   1.46093   1.46260   1.46684   1.47421
 Alpha virt. eigenvalues --    1.47836   1.47922   1.48070   1.49254   1.49681
 Alpha virt. eigenvalues --    1.50113   1.50441   1.51029   1.51598   1.52353
 Alpha virt. eigenvalues --    1.52878   1.53047   1.53464   1.54689   1.55331
 Alpha virt. eigenvalues --    1.56383   1.56527   1.57130   1.58129   1.58952
 Alpha virt. eigenvalues --    1.59795   1.60560   1.61128   1.61879   1.63034
 Alpha virt. eigenvalues --    1.63280   1.64236   1.64393   1.64848   1.65077
 Alpha virt. eigenvalues --    1.65875   1.66449   1.67008   1.67472   1.67711
 Alpha virt. eigenvalues --    1.68285   1.68414   1.69001   1.69342   1.69894
 Alpha virt. eigenvalues --    1.70343   1.70941   1.71432   1.71750   1.72036
 Alpha virt. eigenvalues --    1.73043   1.74073   1.74554   1.75722   1.76047
 Alpha virt. eigenvalues --    1.76406   1.76777   1.77469   1.77900   1.78757
 Alpha virt. eigenvalues --    1.79094   1.79207   1.79351   1.80426   1.80630
 Alpha virt. eigenvalues --    1.81096   1.81746   1.81842   1.82208   1.82796
 Alpha virt. eigenvalues --    1.83340   1.83677   1.84020   1.84377   1.84722
 Alpha virt. eigenvalues --    1.85351   1.85640   1.86008   1.86356   1.86433
 Alpha virt. eigenvalues --    1.87444   1.87630   1.87891   1.88587   1.89122
 Alpha virt. eigenvalues --    1.89660   1.89804   1.90391   1.90639   1.91217
 Alpha virt. eigenvalues --    1.91396   1.91743   1.92098   1.92154   1.92294
 Alpha virt. eigenvalues --    1.92621   1.92729   1.93004   1.93151   1.93375
 Alpha virt. eigenvalues --    1.93685   1.93809   1.94193   1.94349   1.94696
 Alpha virt. eigenvalues --    1.95005   1.95343   1.95582   1.95818   1.96083
 Alpha virt. eigenvalues --    1.96651   1.97078   1.97901   1.98726   1.99194
 Alpha virt. eigenvalues --    1.99686   1.99933   2.00099   2.01086   2.02030
 Alpha virt. eigenvalues --    2.02353   2.02785   2.03008   2.03346   2.03776
 Alpha virt. eigenvalues --    2.04403   2.05306   2.05552   2.05776   2.06165
 Alpha virt. eigenvalues --    2.06774   2.06827   2.07266   2.07498   2.07790
 Alpha virt. eigenvalues --    2.08267   2.08586   2.08874   2.09275   2.09578
 Alpha virt. eigenvalues --    2.09836   2.10122   2.10696   2.11247   2.11692
 Alpha virt. eigenvalues --    2.11750   2.11902   2.12446   2.12843   2.13407
 Alpha virt. eigenvalues --    2.13994   2.14512   2.14561   2.15077   2.15239
 Alpha virt. eigenvalues --    2.15805   2.16422   2.16494   2.17064   2.17360
 Alpha virt. eigenvalues --    2.17656   2.18184   2.18250   2.18532   2.18694
 Alpha virt. eigenvalues --    2.19063   2.19361   2.19973   2.20198   2.20330
 Alpha virt. eigenvalues --    2.20395   2.20642   2.21019   2.21337   2.21607
 Alpha virt. eigenvalues --    2.22074   2.22509   2.22630   2.22783   2.23352
 Alpha virt. eigenvalues --    2.23687   2.24085   2.24327   2.24421   2.24791
 Alpha virt. eigenvalues --    2.25234   2.25293   2.25978   2.26035   2.26243
 Alpha virt. eigenvalues --    2.26673   2.26906   2.27141   2.27252   2.27734
 Alpha virt. eigenvalues --    2.28184   2.28246   2.28620   2.29313   2.29452
 Alpha virt. eigenvalues --    2.29919   2.30598   2.31149   2.31645   2.31858
 Alpha virt. eigenvalues --    2.32591   2.33099   2.33675   2.34270   2.34720
 Alpha virt. eigenvalues --    2.35070   2.35466   2.35934   2.36291   2.36493
 Alpha virt. eigenvalues --    2.37665   2.38428   2.39032   2.39383   2.39820
 Alpha virt. eigenvalues --    2.40791   2.41317   2.41619   2.42298   2.42585
 Alpha virt. eigenvalues --    2.43339   2.44133   2.46166   2.47004   2.47087
 Alpha virt. eigenvalues --    2.47189   2.48177   2.48622   2.49447   2.49755
 Alpha virt. eigenvalues --    2.50379   2.50486   2.50855   2.51210   2.52498
 Alpha virt. eigenvalues --    2.53651   2.54146   2.54568   2.55390   2.58231
 Alpha virt. eigenvalues --    2.59933   2.61005   2.61307   2.61705   2.62386
 Alpha virt. eigenvalues --    2.62741   2.63369   2.63973   2.64978   2.65360
 Alpha virt. eigenvalues --    2.65833   2.66157   2.66957   2.67429   2.69007
 Alpha virt. eigenvalues --    2.69450   2.70236   2.71153   2.73187   2.76787
 Alpha virt. eigenvalues --    2.78197   2.78354   2.79144   2.79393   2.79730
 Alpha virt. eigenvalues --    2.80215   2.80464   2.81031   2.81261   2.81555
 Alpha virt. eigenvalues --    2.81705   2.82018   2.82553   2.82577   2.82890
 Alpha virt. eigenvalues --    2.83308   2.83552   2.84655   2.85521   2.86243
 Alpha virt. eigenvalues --    2.87325   2.88010   2.90759   2.93364   2.94451
 Alpha virt. eigenvalues --    2.95169   2.95826   2.96124   2.97641   2.97812
 Alpha virt. eigenvalues --    2.98377   2.98973   2.99719   3.00616   3.01471
 Alpha virt. eigenvalues --    3.04794   3.05565   3.09165   3.10426   3.11233
 Alpha virt. eigenvalues --    3.13036   3.14391   3.15345   3.16232   3.17027
 Alpha virt. eigenvalues --    3.25666   3.32074   3.45517  17.73081
          Condensed to atoms (all electrons):
 Mulliken charges:
               1
     1  Ir  -0.437229
     2  B    0.536499
     3  C    0.093280
     4  C   -0.173808
     5  C   -0.183747
     6  C    0.326864
     7  C    0.317976
     8  C   -0.182113
     9  C   -0.163363
    10  C    0.022328
    11  B    0.586969
    12  N   -0.448543
    13  N   -0.488149
    14  O   -0.484847
    15  O   -0.494087
    16  O   -0.505650
    17  O   -0.543814
    18  O   -0.530476
    19  O   -0.489268
    20  C   -0.141716
    21  C   -0.150766
    22  C    0.293044
    23  C    0.289035
    24  C    0.285131
    25  C    0.283606
    26  C    0.294567
    27  C    0.299173
    28  C    0.300612
    29  B    0.522223
    30  H    0.197101
    31  B    0.561518
    32  C    0.290462
    33  O   -0.516140
    34  O   -0.520493
    35  C   -0.507050
    36  H    0.158586
    37  H    0.188132
    38  H    0.148706
    39  C   -0.504599
    40  H    0.168828
    41  H    0.148126
    42  H    0.166019
    43  C   -0.498470
    44  H    0.151547
    45  H    0.155405
    46  H    0.165444
    47  C   -0.513744
    48  H    0.163802
    49  H    0.148627
    50  H    0.177392
    51  C   -0.506499
    52  H    0.163581
    53  H    0.139626
    54  H    0.173765
    55  C   -0.479603
    56  H    0.162710
    57  H    0.152680
    58  H    0.137397
    59  C   -0.503827
    60  H    0.136725
    61  H    0.160088
    62  H    0.190183
    63  C   -0.513303
    64  H    0.159932
    65  H    0.150100
    66  H    0.160567
    67  C   -0.495909
    68  H    0.159554
    69  H    0.141411
    70  H    0.177715
    71  C   -0.511029
    72  H    0.145265
    73  H    0.153453
    74  H    0.196060
    75  C   -0.500691
    76  H    0.167283
    77  H    0.147460
    78  H    0.161191
    79  C   -0.483347
    80  H    0.167018
    81  H    0.149455
    82  H    0.142997
    83  C   -0.506564
    84  H    0.174309
    85  H    0.148307
    86  H    0.170210
    87  C   -0.498853
    88  H    0.150745
    89  H    0.177765
    90  H    0.161058
    91  C   -0.502428
    92  H    0.168631
    93  H    0.151543
    94  H    0.157310
    95  C   -0.491471
    96  H    0.149273
    97  H    0.176796
    98  H    0.150342
    99  B    0.558147
   100  O   -0.538862
   101  O   -0.514069
   102  C    0.307877
   103  C    0.293560
   104  C   -0.510907
   105  C   -0.508113
   106  C   -0.520424
   107  C   -0.506652
   108  H    0.168099
   109  H    0.150866
   110  H    0.159606
   111  H    0.164731
   112  H    0.148965
   113  H    0.165066
   114  H    0.172058
   115  H    0.151313
   116  H    0.163783
   117  H    0.192711
   118  H    0.133227
   119  H    0.170632
   120  H    0.250537
   121  H    0.175201
   122  H    0.162629
   123  H    0.179353
   124  H    0.169337
   125  H    0.181938
   126  H    0.177479
 Sum of Mulliken charges =  -0.00000
 Mulliken charges with hydrogens summed into heavy atoms:
               1
     1  Ir  -0.437229
     2  B    0.536499
     3  C    0.290381
     4  C    0.003671
     5  C   -0.021117
     6  C    0.326864
     7  C    0.317976
     8  C   -0.012776
     9  C    0.018575
    10  C    0.272865
    11  B    0.586969
    12  N   -0.448543
    13  N   -0.488149
    14  O   -0.484847
    15  O   -0.494087
    16  O   -0.505650
    17  O   -0.543814
    18  O   -0.530476
    19  O   -0.489268
    20  C    0.033486
    21  C    0.028588
    22  C    0.293044
    23  C    0.289035
    24  C    0.285131
    25  C    0.283606
    26  C    0.294567
    27  C    0.299173
    28  C    0.300612
    29  B    0.522223
    31  B    0.561518
    32  C    0.290462
    33  O   -0.516140
    34  O   -0.520493
    35  C   -0.011627
    39  C   -0.021625
    43  C   -0.026074
    47  C   -0.023923
    51  C   -0.029527
    55  C   -0.026816
    59  C   -0.016832
    63  C   -0.042704
    67  C   -0.017229
    71  C   -0.016250
    75  C   -0.024757
    79  C   -0.023877
    83  C   -0.013739
    87  C   -0.009285
    91  C   -0.024945
    95  C   -0.015060
    99  B    0.558147
   100  O   -0.538862
   101  O   -0.514069
   102  C    0.307877
   103  C    0.293560
   104  C   -0.032336
   105  C   -0.029351
   106  C   -0.033270
   107  C   -0.010081
 APT charges:
               1
     1  Ir  -1.170673
     2  B    1.202024
     3  C    0.100231
     4  C   -0.053895
     5  C   -0.163380
     6  C    0.176889
     7  C    0.237346
     8  C   -0.181788
     9  C   -0.082177
    10  C    0.023928
    11  B    1.089965
    12  N   -0.190553
    13  N   -0.155926
    14  O   -0.877465
    15  O   -0.868593
    16  O   -0.921403
    17  O   -0.979888
    18  O   -0.984128
    19  O   -0.965240
    20  C    0.100067
    21  C    0.118816
    22  C    0.451635
    23  C    0.441728
    24  C    0.494492
    25  C    0.502732
    26  C    0.476409
    27  C    0.492744
    28  C    0.440221
    29  B    1.339537
    30  H    0.064833
    31  B    1.247229
    32  C    0.472519
    33  O   -0.955856
    34  O   -0.908623
    35  C   -0.043754
    36  H    0.007336
    37  H    0.020406
    38  H   -0.027825
    39  C   -0.007722
    40  H    0.006653
    41  H   -0.020540
    42  H    0.002933
    43  C   -0.026991
    44  H   -0.020347
    45  H   -0.007520
    46  H    0.000214
    47  C   -0.003280
    48  H   -0.005794
    49  H   -0.017667
    50  H    0.005680
    51  C   -0.002870
    52  H   -0.002109
    53  H   -0.024701
    54  H    0.000023
    55  C   -0.021375
    56  H   -0.001632
    57  H    0.000380
    58  H   -0.036110
    59  C   -0.038161
    60  H   -0.032919
    61  H   -0.004274
    62  H    0.043031
    63  C   -0.006861
    64  H   -0.007475
    65  H   -0.017187
    66  H   -0.005734
    67  C   -0.001657
    68  H   -0.002021
    69  H   -0.025471
    70  H    0.006966
    71  C   -0.067167
    72  H   -0.028633
    73  H    0.000721
    74  H    0.050839
    75  C   -0.004507
    76  H   -0.002651
    77  H   -0.022036
    78  H   -0.006333
    79  C   -0.021957
    80  H    0.003438
    81  H    0.000430
    82  H   -0.030198
    83  C   -0.000070
    84  H    0.005987
    85  H   -0.021538
    86  H    0.005740
    87  C   -0.017443
    88  H   -0.025472
    89  H    0.004763
    90  H    0.000588
    91  C   -0.005679
    92  H    0.003250
    93  H   -0.012208
    94  H   -0.011997
    95  C   -0.021734
    96  H   -0.021858
    97  H    0.011910
    98  H   -0.009716
    99  B    1.269188
   100  O   -0.965687
   101  O   -0.952590
   102  C    0.474851
   103  C    0.482846
   104  C   -0.032238
   105  C   -0.006236
   106  C   -0.014909
   107  C   -0.037922
   108  H    0.013750
   109  H   -0.023835
   110  H   -0.004025
   111  H   -0.001704
   112  H   -0.021373
   113  H    0.010658
   114  H    0.007702
   115  H   -0.018734
   116  H    0.003345
   117  H    0.037807
   118  H   -0.030610
   119  H    0.002725
   120  H    0.157554
   121  H    0.023142
   122  H    0.035065
   123  H    0.027786
   124  H    0.040462
   125  H    0.038183
   126  H    0.032949
 Sum of APT charges =  -0.00000
 APT charges with hydrogens summed into heavy atoms:
               1
     1  Ir  -1.170673
     2  B    1.202024
     3  C    0.165064
     4  C   -0.020946
     5  C   -0.128316
     6  C    0.176889
     7  C    0.237346
     8  C   -0.141326
     9  C   -0.043994
    10  C    0.181481
    11  B    1.089965
    12  N   -0.190553
    13  N   -0.155926
    14  O   -0.877465
    15  O   -0.868593
    16  O   -0.921403
    17  O   -0.979888
    18  O   -0.984128
    19  O   -0.965240
    20  C    0.123210
    21  C    0.146602
    22  C    0.451635
    23  C    0.441728
    24  C    0.494492
    25  C    0.502732
    26  C    0.476409
    27  C    0.492744
    28  C    0.440221
    29  B    1.339537
    31  B    1.247229
    32  C    0.472519
    33  O   -0.955856
    34  O   -0.908623
    35  C   -0.043837
    39  C   -0.018677
    43  C   -0.054644
    47  C   -0.021062
    51  C   -0.029657
    55  C   -0.058738
    59  C   -0.032323
    63  C   -0.037257
    67  C   -0.022183
    71  C   -0.044240
    75  C   -0.035526
    79  C   -0.048287
    83  C   -0.009881
    87  C   -0.037565
    91  C   -0.026634
    95  C   -0.041397
    99  B    1.269188
   100  O   -0.965687
   101  O   -0.952590
   102  C    0.474851
   103  C    0.482846
   104  C   -0.046348
   105  C   -0.018656
   106  C   -0.022596
   107  C   -0.028000
 Electronic spatial extent (au):  <R**2>=          30567.2648
 Charge=              0.0000 electrons
 Dipole moment (field-independent basis, Debye):
    X=              1.8670    Y=             -5.6114    Z=             -2.1349  Tot=              6.2874
 Quadrupole moment (field-independent basis, Debye-Ang):
   XX=           -347.0054   YY=           -326.9717   ZZ=           -342.5883
   XY=             -5.7631   XZ=             -3.1220   YZ=             -1.3117
 Traceless Quadrupole moment (field-independent basis, Debye-Ang):
   XX=             -8.1503   YY=             11.8834   ZZ=             -3.7332
   XY=             -5.7631   XZ=             -3.1220   YZ=             -1.3117
 Octapole moment (field-independent basis, Debye-Ang**2):
  XXX=              3.0716  YYY=           -147.0068  ZZZ=            -82.0864  XYY=             29.3406
  XXY=            -20.1459  XXZ=             -3.5055  XZZ=             15.9868  YZZ=            -42.6224
  YYZ=            -22.0096  XYZ=             24.4451
 Hexadecapole moment (field-independent basis, Debye-Ang**3):
 XXXX=         -16003.1714 YYYY=         -13191.7387 ZZZZ=         -10175.6527 XXXY=              8.8213
 XXXZ=             65.0643 YYYX=            -85.5996 YYYZ=            -17.6976 ZZZX=           -141.4550
 ZZZY=            178.6072 XXYY=          -4975.1832 XXZZ=          -4562.7822 YYZZ=          -3952.9965
 XXYZ=            -40.0974 YYXZ=            -36.9425 ZZXY=           -129.7680
 N-N= 1.080356324771D+04 E-N=-2.777123421322D+04  KE= 2.567082338604D+03
  Exact polarizability:     521.284     -11.414     578.073     -12.386      -6.193     547.434
 Approx polarizability:     694.108     -23.261     844.595     -26.390     -13.855     842.252
   1 Symmetry operations used in ECPInt.
 ECPInt:  NShTT=   69378 NPrTT=  420311 LenC2=   54192 LenP2D=  164518.
 LDataN:  DoStor=T MaxTD1= 8 Len=  415
 Calling FoFJK, ICntrl=    100127 FMM=F ISym2X=0 I1Cent= 0 IOpClX= 0 NMat=1 NMatS=1 NMatT=0.
 Defaulting to unpruned grid for atomic number  77.
 Defaulting to unpruned grid for atomic number  77.
 Defaulting to unpruned grid for atomic number  77.
 Defaulting to unpruned grid for atomic number  77.
 Defaulting to unpruned grid for atomic number  77.
 Defaulting to unpruned grid for atomic number  77.
 Defaulting to unpruned grid for atomic number  77.
 Defaulting to unpruned grid for atomic number  77.
 Defaulting to unpruned grid for atomic number  77.
 Defaulting to unpruned grid for atomic number  77.
 Defaulting to unpruned grid for atomic number  77.
 Defaulting to unpruned grid for atomic number  77.
 Defaulting to unpruned grid for atomic number  77.
 Defaulting to unpruned grid for atomic number  77.
 Defaulting to unpruned grid for atomic number  77.
 Defaulting to unpruned grid for atomic number  77.
 Full mass-weighted force constant matrix:
 Low frequencies ---   -6.1193    0.0005    0.0007    0.0009    3.7651    6.9550
 Low frequencies ---   24.0011   31.4906   33.8343
 Diagonal vibrational polarizability:
      110.0259433      57.2883801      53.9729919
 Harmonic frequencies (cm**-1), IR intensities (KM/Mole), Raman scattering
 activities (A**4/AMU), depolarization ratios for plane and unpolarized
 incident light, reduced masses (AMU), force constants (mDyne/A),
 and normal coordinates:
                      1                      2                      3
                      A                      A                      A
 Frequencies --     23.8264                31.4747                33.7996
 Red. masses --      4.0531                 4.8782                 4.4247
 Frc consts  --      0.0014                 0.0028                 0.0030
 IR Inten    --      0.0607                 0.6574                 0.1937
  Atom AN      X      Y      Z        X      Y      Z        X      Y      Z
     1  77     0.00  -0.00  -0.01    -0.01  -0.01  -0.01    -0.01  -0.00   0.01
     2   5    -0.00   0.00  -0.02    -0.01  -0.01   0.02    -0.02   0.01  -0.01
     3   6    -0.02   0.02  -0.01     0.07   0.05  -0.00     0.04  -0.04   0.03
     4   6    -0.05   0.02  -0.02     0.20   0.09   0.02     0.14  -0.03   0.06
     5   6    -0.03   0.01  -0.03     0.20   0.08   0.00     0.12  -0.02   0.09
     6   6    -0.00   0.01  -0.02     0.08   0.03  -0.02     0.03  -0.02   0.05
     7   6     0.01   0.01  -0.02     0.02   0.01  -0.04    -0.02  -0.01   0.05
     8   6     0.03   0.01  -0.02    -0.01   0.00  -0.07    -0.04  -0.01   0.07
     9   6    -0.00  -0.01  -0.03    -0.05  -0.04  -0.07    -0.07   0.01   0.06
    10   6    -0.02  -0.01  -0.02    -0.03  -0.03  -0.04    -0.06   0.01   0.04
    11   5    -0.00  -0.00   0.03    -0.01  -0.00   0.00    -0.01   0.00  -0.02
    12   7     0.00   0.02  -0.01     0.02   0.02  -0.02    -0.00  -0.03   0.02
    13   7    -0.01   0.00  -0.02    -0.00  -0.01  -0.03    -0.03   0.00   0.04
    14   8    -0.00   0.06   0.03    -0.03  -0.01   0.01     0.02   0.00  -0.04
    15   8     0.00  -0.06   0.08     0.01   0.00   0.01    -0.02   0.01  -0.04
    16   8    -0.00  -0.02   0.01     0.02   0.00  -0.00    -0.02  -0.02   0.02
    17   8     0.04   0.00  -0.00    -0.03  -0.03  -0.01     0.08   0.04   0.00
    18   8     0.02  -0.04  -0.03    -0.00  -0.03  -0.03    -0.02   0.00  -0.01
    19   8    -0.01   0.02  -0.05    -0.00  -0.00  -0.03    -0.01  -0.00  -0.00
    20   6    -0.05   0.02  -0.03     0.27   0.10   0.02     0.18  -0.02   0.09
    21   6     0.03   0.00  -0.03    -0.04  -0.02  -0.08    -0.06   0.00   0.07
    22   6    -0.00  -0.03   0.10    -0.00  -0.00   0.03    -0.01   0.01  -0.06
    23   6    -0.01   0.05   0.09    -0.03  -0.01   0.03     0.01  -0.01  -0.06
    24   6     0.00   0.01  -0.06    -0.01  -0.00  -0.05    -0.01  -0.00  -0.00
    25   6     0.02  -0.03  -0.06    -0.00  -0.02  -0.05    -0.01   0.00  -0.00
    26   6     0.01  -0.03   0.01     0.02   0.01  -0.00     0.01  -0.03   0.03
    27   6     0.04   0.01  -0.01    -0.00  -0.03  -0.01     0.06   0.04   0.00
    28   6    -0.00  -0.00  -0.07    -0.03   0.01   0.08    -0.03   0.01  -0.08
    29   5     0.00  -0.00  -0.03    -0.00  -0.01  -0.02    -0.01  -0.00  -0.01
    30   1    -0.01   0.02  -0.01     0.02   0.03  -0.01     0.01  -0.05   0.00
    31   5     0.01  -0.01  -0.00    -0.01  -0.01  -0.01     0.02   0.01   0.01
    32   6     0.00  -0.02  -0.00    -0.01   0.02   0.05    -0.02   0.00  -0.02
    33   8     0.01  -0.02   0.01    -0.00   0.02   0.02    -0.02  -0.01   0.01
    34   8    -0.01   0.02  -0.07    -0.02  -0.02   0.07    -0.02   0.02  -0.05
    35   6    -0.02   0.03   0.03    -0.01  -0.00   0.04    -0.03   0.05   0.00
    36   1    -0.01   0.02   0.08    -0.01   0.00   0.02    -0.02   0.05   0.04
    37   1    -0.04   0.06   0.02    -0.02  -0.03   0.03    -0.03   0.08  -0.00
    38   1    -0.03   0.04   0.03    -0.02  -0.00   0.06    -0.03   0.06  -0.01
    39   6     0.03  -0.06   0.02    -0.01   0.06   0.05    -0.01  -0.04  -0.02
    40   1     0.02  -0.07   0.06     0.01   0.07   0.03    -0.02  -0.05   0.02
    41   1     0.03  -0.07   0.01    -0.02   0.08   0.07    -0.00  -0.05  -0.03
    42   1     0.05  -0.09  -0.00    -0.01   0.07   0.05     0.00  -0.06  -0.03
    43   6     0.01  -0.06  -0.10    -0.03   0.03   0.10    -0.04  -0.05  -0.11
    44   1     0.02  -0.08  -0.11    -0.04   0.06   0.11    -0.05  -0.07  -0.14
    45   1     0.02  -0.04  -0.14    -0.05   0.02   0.11    -0.04  -0.05  -0.14
    46   1     0.02  -0.09  -0.08    -0.02   0.04   0.08    -0.05  -0.09  -0.08
    47   6    -0.01   0.04  -0.10    -0.04  -0.01   0.11    -0.03   0.06  -0.13
    48   1    -0.02   0.04  -0.14    -0.05  -0.02   0.13    -0.03   0.06  -0.17
    49   1    -0.01   0.02  -0.10    -0.04   0.01   0.12    -0.03   0.05  -0.15
    50   1    -0.03   0.08  -0.08    -0.04  -0.03   0.10    -0.02   0.10  -0.11
    51   6    -0.02  -0.03   0.01     0.07   0.01  -0.00    -0.06  -0.03   0.02
    52   1    -0.05  -0.06   0.03     0.08   0.04   0.01    -0.10  -0.08   0.04
    53   1    -0.00  -0.03   0.01     0.08   0.01  -0.00    -0.04  -0.03   0.03
    54   1    -0.05  -0.00  -0.01     0.09  -0.02  -0.01    -0.10   0.02   0.01
[...]
 0000009,0.00000307,0.00000366,-0.00000020,-0.00000023,-0.00000154,-0.0
 0000007,0.00000477,0.00000508,-0.00000094,-0.00000140,-0.00000015,0.00
 000208,-0.00000232,-0.00000032,-0.00000202,0.00000436,0.00000181,0.000
 00033,0.00000369,-0.00001763,0.00000984,0.00000023,0.00000689,0.000005
 20,0.00000718,0.00000045,-0.00000076,-0.00000654,-0.00000608,-0.000001
 12,0.00000961,0.00000209,0.00001320,0.00000769,0.00000128,-0.00000077,
 -0.00000492,-0.00000241,0.00000495,-0.00000211,0.00000004,-0.00000198,
 0.00000205,-0.00001014,0.00001215,-0.00000635,-0.00000414,0.00000662,0
 .00001504,0.00000359,-0.00000033,-0.00001055,0.00000180,-0.00001675,-0
 .00000685,-0.00004469,0.00002080,0.00002465,0.00000107,0.00000027,0.00
 004356,0.00006059,0.00000967,0.00000255,0.00002931,-0.00007130,0.00011
 559,-0.00005237,0.00005800,-0.00006896,0.00004121,-0.00004048,-0.00007
 231,0.00008413,-0.00002760,0.00001392,-0.00002601,0.00001252,0.0000353
 2,-0.00000955,0.00000977,-0.00000256,0.00000397,-0.00000305,0.00000062
 ,0.00000341,-0.00000441,-0.00000691,0.00000154,-0.00000027,-0.00000554
 ,0.00000287,-0.00000126,-0.00000274,-0.00000391,0.00000032,-0.00000182
 ,0.00000433,-0.00000215,0.00000280,-0.00000076,0.00000324,0.00000079,-
 0.00000114,-0.00000089,-0.00000377,0.00000148,-0.00000121,-0.00000149,
 0.00000111,0.00000146,0.00000143,0.00000093,0.00000145,-0.00000233,0.0
 0000347,-0.00000233,0.00000042,-0.00000181,0.00000068,0.00000311,0.000
 00054,-0.00000141,-0.00000559,0.00000170,-0.00000026,0.00000091,0.0000
 0021,0.00000112,-0.00035838,0.00000547,0.00014491,0.00000200,-0.000001
 31,-0.00000760,-0.00002934,0.00003758,0.00004454,-0.00045595,0.0000392
 9,0.00085994,0.00008120,0.00059707,-0.00076173,-0.02226141,-0.09430765
 ,0.32685856,-0.00019857,-0.00027801,-0.00013868,0.00004083,0.00006005,
 0.00009984,0.00062760,-0.00686691,0.00724178,-0.03946651,-0.00733453,0
 .02657995,0.00623508,0.00302466,0.00144902,-0.00055122,0.00060894,0.00
 001745,-0.00129701,-0.00037815,-0.00020901,0.00004924,-0.00000504,0.00
 015768,-0.00004110,0.00009804,0.00001817,-0.00001409,-0.00008829,0.000
 07260,0.00002612,-0.00007954,-0.00013974,0.00668649,0.00277596,0.00369
 561,0.00008539,0.00007637,-0.00013010,-0.00003964,0.00002574,0.0000154
 5,-0.00001140,-0.00001850,0.00006055,-0.00003200,0.00002660,0.00005069
 ,-0.00001372,0.00000205,0.00004308,-0.00006706,-0.00003454,0.00000195,
 -0.00000582,0.00000546,0.00000828,0.00324589,0.00346071,-0.00703401,-0
 .00001406,-0.00006246,-0.00012040,0.00003752,0.00002840,-0.00001289,0.
 00000842,-0.00000902,-0.00002227,0.00000940,-0.00001249,-0.00000548,0.
 00003694,0.00000884,-0.00001770,0.00000579,0.00000439,-0.00001104,0.00
 000223,-0.00000790,-0.00000882,0.00000777,0.00000376,0.00000431,-0.000
 02054,-0.00001564,0.00002626,-0.00266714,-0.00074513,-0.00096830,0.000
 05862,0.00004636,-0.00002831,0.00002188,0.00001475,0.00001464,-0.00006
 145,-0.00001661,-0.00001638,0.00000408,-0.00000324,-0.00003211,-0.0000
 1000,-0.00000130,-0.00000071,-0.00000103,0.00000124,0.00000173,0.00000
 464,-0.00000126,0.00000158,-0.00000332,0.00000057,-0.00000128,-0.00000
 477,-0.00000168,-0.00000400,0.00000100,-0.00000004,0.00000173,-0.00000
 200,-0.00000090,0.00000137,0.00000022,0.00000216,-0.00000396,-0.000003
 73,0.00000181,-0.00000071,-0.00000033,0.00000012,-0.00000026,0.0000014
 1,0.00000107,0.00000187,0.00000254,-0.00000106,-0.00000367,0.00000130,
 -0.00000539,0.00000551,0.00000015,-0.00000080,0.00000111,-0.00000018,-
 0.00000061,-0.00000228,-0.00000353,0.00000285,-0.00000237,-0.00000009,
 -0.00000224,0.00000356,-0.00000229,0.00000177,0.00000021,-0.00000016,0
 .00000210,0.00000113,0.00000022,-0.00000144,-0.00000011,-0.00000004,0.
 00000022,0.00000457,-0.00000191,0.00000230,-0.00000112,0.00000333,-0.0
 0000084,-0.00000109,-0.00000262,-0.00000110,0.00000089,-0.00000110,0.0
 0000077,0.00000160,0.00000026,0.00000114,0.00000183,-0.00000089,0.0000
 0115,-0.00000180,0.00000045,-0.00000129,-0.00000050,0.00000016,0.00000
 302,0.00000151,-0.00000014,0.00000017,-0.00000053,-0.00000023,-0.00000
 014,0.00000228,-0.00000090,-0.00000155,-0.00000012,-0.00000051,-0.0000
 0085,0.00000059,-0.00000025,0.,0.00000064,0.00000029,-0.00000089,-0.00
 000046,-0.00000292,0.00000172,0.00000040,-0.00001577,-0.00000309,-0.00
 000122,-0.00000207,-0.00000141,-0.00000286,0.00001510,-0.00000049,-0.0
 0000478,0.00000083,0.00000625,0.00000950,-0.00000403,0.00000415,-0.000
 01949,0.00000644,-0.00001639,0.00001126,-0.00000308,0.00000488,0.00000
 904,-0.00000927,0.00000113,-0.00000983,0.00000172,-0.00000042,-0.00000
 208,-0.00000230,0.00000044,0.00000188,-0.00000098,0.00000407,-0.000001
 10,-0.00000070,-0.00000204,-0.00000145,-0.00000354,0.00000120,0.000005
 07,-0.00000056,-0.00000047,0.00000459,-0.00000188,0.00000117,-0.000002
 89,0.00000023,-0.00000464,-0.00000269,0.00000139,-0.00001293,-0.000032
 00,0.00000068,-0.00000182,0.00000812,-0.00001284,0.00000691,0.00000723
 ,-0.00000123,-0.00000040,0.00000081,0.00000376,0.00000320,-0.00001671,
 0.00000262,0.00000864,0.00000439,-0.00000126,-0.00000084,0.00000204,-0
 .00000331,-0.00000897,0.00000906,-0.00000245,0.00000405,0.00000968,-0.
 00000073,0.00000047,-0.00000220,-0.00000009,-0.00000104,0.00000440,0.0
 0000152,-0.00000026,-0.00000262,0.00012737,-0.00008961,0.00012156,-0.0
 0016949,0.00011724,-0.00012291,-0.00006405,0.00003862,-0.00006068,-0.0
 0000840,-0.00012763,0.00008623,0.00005315,0.00002643,0.00003279,0.0000
 4236,0.00010264,0.00009123,0.00000248,0.00003342,0.00001184,-0.0000084
 2,0.00000060,-0.00000824,-0.00001075,-0.00001080,-0.00001635,-0.000000
 35,0.00000156,-0.00000617,0.00000920,-0.00001772,-0.00002572,-0.000032
 89,-0.00004199,-0.00006048,-0.00001513,-0.00001338,-0.00001196,-0.0000
 0625,-0.00000330,-0.00000540,0.00000846,-0.00000400,-0.00000611,0.0000
 0424,-0.00000346,-0.00000895,-0.00000483,0.00000460,0.00000144,0.00000
 809,0.00000748,0.00000660,0.00000457,-0.00000090,0.00000486,-0.0000047
 2,0.00000421,0.00000145,0.00000427,-0.00000458,-0.00000834,-0.00000035
 ,0.00000474,-0.00000120,-0.00323829,-0.00121661,-0.00089582,0.00026675
 ,0.00027491,-0.00028588,-0.00001040,-0.00000228,0.00000044,0.00007363,
 -0.00002640,-0.00000192,0.00003944,0.00000109,0.00000349,0.03030107,-0
 .00010626,0.00027054,0.00033099,0.00003143,0.00002463,-0.00000670,0.00
 061132,0.01170820,-0.01305851,-0.00718209,-0.12964582,0.12476927,0.003
 21861,-0.00450962,-0.00054837,0.00049375,-0.00142741,-0.00088473,-0.00
 036579,0.00009443,-0.00007842,-0.00000730,-0.00010598,0.00003344,-0.00
 000978,0.00004385,0.00003135,-0.00000987,-0.00001480,0.00005467,-0.000
 01980,0.00001252,-0.00003030,0.00277182,0.00006247,-0.00378532,0.00002
 239,-0.00003747,-0.00001016,0.00001765,-0.00000167,0.00001195,0.000016
 32,0.00000352,-0.00000193,0.00000303,-0.00000353,-0.00001985,0.0000023
 0,0.00001059,-0.00001046,-0.00000968,-0.00001757,0.00005249,-0.0000145
 9,-0.00000639,0.00003417,-0.00393938,-0.00912268,0.02704158,-0.0000067
 0,0.00005195,-0.00005520,-0.00000868,-0.00000619,-0.00000889,-0.000009
 90,0.00000073,0.00000076,0.00000251,-0.00000534,-0.00001280,-0.0000131
 7,-0.00000575,-0.00001274,0.00000340,-0.00000230,-0.00000347,0.0000051
 4,-0.00000026,-0.00000785,0.00001095,0.00000514,0.00000035,0.00004044,
 0.00000143,-0.00007418,-0.00087041,0.00012214,0.00030487,0.00000980,-0
 .00005197,-0.00003117,0.00001400,0.00000564,0.00000360,-0.00003279,-0.
 00001252,0.00000900,-0.00001861,-0.00000611,-0.00001437,-0.00000346,0.
 00000109,0.00000081,0.00000287,0.00000012,-0.00000268,0.00000189,0.000
 00442,0.00000274,-0.00000341,-0.00000261,0.00000085,-0.00000183,0.0000
 0032,-0.00000072,0.00000034,0.00000114,-0.00000010,-0.00000169,-0.0000
 0153,0.00000069,0.00000052,-0.00000025,-0.00000116,0.00000056,-0.00000
 509,-0.00000205,-0.00000371,0.00000026,0.00000046,0.00000193,0.0000046
 5,0.00000165,0.00000034,-0.00000238,-0.00000410,0.00000081,-0.00000681
 ,0.00000172,0.00000222,0.00000100,0.00000094,-0.00000251,0.00000045,-0
 .00000007,-0.00000168,0.00000336,-0.00000087,0.00000025,0.00000244,-0.
 00000209,0.00000029,0.00000002,-0.00000082,0.00000022,-0.00000148,0.00
 000084,-0.00000068,-0.00000056,-0.00000042,-0.00000167,-0.00000109,-0.
 00000236,0.00000027,0.00000015,-0.00000022,-0.00000022,0.00000032,0.00
 000024,0.00000090,0.00000042,0.00000118,0.00000048,0.00000040,0.000000
 06,-0.00000066,0.00000081,0.00000099,-0.00000065,-0.00000010,-0.000001
 22,0.00000086,0.00000006,-0.00000103,-0.00000064,-0.00000263,0.0000004
 7,-0.00000057,-0.00000026,-0.00000120,-0.00000016,0.00000175,-0.000000
 08,0.00000071,-0.00000039,-0.00000012,-0.00000138,-0.00000176,0.000004
 08,0.00000064,0.00000018,0.00000404,-0.00000013,-0.00000072,-0.0000017
 2,0.00000145,-0.00000039,-0.00000259,0.00000053,-0.00000077,-0.0000228
 5,0.00000274,0.00000357,0.00000678,0.00000017,-0.00000705,0.00001191,0
 .00000173,0.00000030,0.00000086,0.00000117,0.00000118,-0.00001626,-0.0
 0000765,-0.00000625,0.00000649,0.00000044,0.00000355,0.00000578,0.0000
 0167,-0.00000172,0.00000298,-0.00000078,-0.00000053,0.00000482,0.00000
 059,-0.00000079,0.00000309,-0.00000087,0.00000050,-0.00000106,0.000000
 26,0.00000048,-0.00000127,0.00000074,0.00000280,-0.00000150,-0.0000006
 9,0.00000005,0.00000052,0.00000118,-0.00000154,0.00000006,-0.00000017,
 0.00000168,0.,-0.00000118,0.00000463,0.00000723,0.00000297,-0.00000134
 ,0.00000142,-0.00000393,0.00000438,-0.00000057,0.00000031,0.00000044,-
 0.00000565,-0.00000311,-0.00000849,0.00001157,-0.00000970,-0.00000532,
 0.00000108,0.00000570,0.00000425,0.00000345,0.00000040,0.00000484,-0.0
 0001495,-0.00000183,-0.00000292,-0.00000481,0.00000216,-0.00000085,-0.
 00000020,-0.00000043,0.00000069,-0.00000034,-0.00000014,0.00000140,0.0
 0000147,-0.00003692,0.00002299,-0.00004971,-0.00003218,-0.00001149,0.0
 0005377,-0.00001053,-0.00000254,0.00001433,0.00003856,0.00004643,-0.00
 002526,-0.00000741,-0.00001221,-0.00000767,-0.00003437,-0.00003796,0.0
 0000082,-0.00000703,-0.00000181,0.00002589,0.00000565,0.00000216,0.000
 00118,0.00000409,0.00000252,0.00000899,-0.00000898,-0.00002671,-0.0000
 3654,-0.00001048,0.00000976,0.00001077,0.00002875,0.00007354,0.0000617
 0,0.00000254,0.00000143,-0.00000524,0.00000140,-0.00000018,-0.00000247
 ,-0.00000953,-0.00000285,0.00000065,-0.00000084,0.00000122,0.00000393,
 -0.00000178,-0.00000038,-0.00000139,-0.00000348,-0.00000602,0.00000012
 ,0.00000007,-0.00000062,-0.00000117,-0.00000265,0.00000134,-0.00000124
 ,-0.00000276,0.00000125,0.00000345,0.00000239,-0.00001454,-0.00000291,
 -0.00108636,0.00096747,-0.00057384,-0.00013799,-0.00046279,0.00135054,
 -0.00000276,-0.00000368,0.00000061,0.00003037,0.00007572,-0.00000038,0
 .00000944,0.00000699,0.00000868,0.00663788,0.13194408,-0.00010152,0.00
 036056,0.00056068,-0.00020119,0.00001615,0.00005333,-0.00013181,0.0168
 7895,-0.01500097,0.02648124,0.12421723,-0.26544217,0.00143634,-0.00007
 384,0.00196912,0.00024860,-0.00167433,0.00030296,-0.00036017,0.0000114
 0,-0.00002266,0.00000952,-0.00000023,-0.00002006,-0.00000935,0.0000370
 9,-0.00000703,-0.00001220,-0.00001912,0.00004714,0.00019017,0.00000583
 ,0.00001380,0.00337109,-0.00241302,-0.00380580,0.00003735,-0.00003085,
 -0.00012078,-0.00009455,0.00001583,-0.00001532,-0.00017872,-0.00000821
 ,0.00002480,0.00008024,-0.00010160,-0.00017949,0.00001874,-0.00004787,
 -0.00019651,-0.00013186,-0.00017117,0.00018984,-0.00010258,-0.00015959
 ,0.00005235,0.00029523,-0.00196262,0.00320924,-0.00000030,0.00000894,-
 0.00002808,0.00009144,0.00001891,-0.00000459,0.00002172,-0.00001905,-0
 .00001652,0.00004619,0.00004480,-0.00004334,0.00001528,0.00004546,-0.0
 0002059,-0.00001165,-0.00000502,0.00004940,0.00000776,0.00005251,0.000
 04652,-0.00005571,-0.00001854,0.00001299,0.00022538,0.00031483,-0.0002
 0539,-0.00077129,-0.00030098,0.00043112,-0.00008287,0.00000262,0.00016
 534,-0.00003399,-0.00001024,-0.00001533,0.00010182,-0.00001074,-0.0000
 0516,0.00010503,0.00003692,-0.00002434,0.00000857,0.00000152,0.0000011
 0,0.00000444,-0.00000490,-0.00000385,-0.00000564,0.00000661,-0.0000019
 3,0.00000376,-0.00000034,0.00000376,0.00000592,-0.00000194,0.00000414,
 0.00000128,-0.00000318,-0.00000310,0.00000291,0.00000254,-0.00000104,-
 0.00000161,-0.00000105,0.00000390,0.00000826,0.00000335,-0.00000390,0.
 00000491,0.00000327,-0.00000413,-0.00000161,-0.00000582,0.00000085,-0.
 00000054,0.00000118,0.00000482,0.00000322,0.00000428,-0.00000562,-0.00
 000178,-0.00000263,0.00000096,0.00000531,0.00000268,0.00000032,-0.0000
 0070,-0.00000046,0.00000284,0.00000462,0.00000456,-0.00001111,0.000004
 04,-0.00000306,0.00000081,0.00000058,-0.00000609,-0.00000581,-0.000003
 21,0.00000031,0.00000080,-0.00000060,0.00000015,-0.00001335,0.00000165
 ,-0.00000179,0.00000262,-0.00000316,-0.00000265,0.00000164,0.00000640,
 0.00000155,-0.00000656,0.00000050,-0.00000662,-0.00000811,-0.00000346,
 -0.00000604,-0.00000651,-0.00000043,0.00000250,0.00000073,0.00000373,0
 .00000391,0.00000156,-0.00000104,-0.00001205,-0.00000944,-0.00000106,0
 .00000326,0.00000063,0.00000205,-0.00000053,-0.00000924,-0.00000132,-0
 .00000005,0.00000261,-0.00000809,-0.00000838,0.00000829,0.00000304,0.0
 0000269,0.00000668,-0.00000321,-0.00000972,-0.00000238,0.00000255,0.00
 000241,-0.00000505,-0.00000861,-0.00001262,-0.00003474,0.00000556,-0.0
 0000267,0.00001109,0.00000354,-0.00000948,0.00002384,0.00000077,0.0000
 0881,-0.00000154,-0.00000067,-0.00000384,-0.00003355,-0.00000604,-0.00
 002091,0.00002503,-0.00000626,0.00000472,0.00001508,-0.00000123,-0.000
 00040,-0.00000673,-0.00000860,-0.00000937,0.00001190,0.00000241,0.0000
 0273,0.00000812,0.00000373,0.00000612,-0.00000579,-0.00000807,-0.00000
 614,-0.00000341,-0.00000263,0.00000465,0.00000037,-0.00000012,-0.00000
 153,0.00000205,-0.00000495,0.00000158,-0.00000250,-0.00000150,-0.00000
 668,-0.00000142,-0.00000892,-0.00000749,-0.00003319,-0.00000511,-0.000
 00705,0.00001194,-0.00001647,0.00001354,0.00001125,0.,-0.00000296,-0.0
 0000715,-0.00000701,-0.00000004,-0.00001491,0.00000317,0.00001005,0.00
 000471,-0.00000605,0.00000209,0.00000064,-0.00000121,-0.00001252,0.000
 00965,-0.00000380,0.00000676,0.00001080,-0.00000478,0.00000245,-0.0000
 0168,0.00000146,-0.00000176,0.00000461,0.00000211,-0.00000516,-0.00000
 367,-0.00024465,0.00027170,-0.00018739,0.00011592,-0.00012363,0.000232
 71,0.00007219,-0.00012309,0.00008269,0.00002174,0.00012592,-0.00010501
 ,-0.00005369,-0.00000790,-0.00004307,-0.00002987,-0.00006354,-0.000023
 62,-0.00000694,-0.00003006,0.00001464,0.00001439,0.00000148,0.00000332
 ,0.00001286,0.00000615,0.00001917,-0.00000426,-0.00002258,-0.00003919,
 -0.00001582,0.00001359,0.00002583,0.00008475,0.00000539,0.00001835,0.0
 0001260,0.00001052,0.00000502,0.00000854,-0.00000057,0.00000465,-0.000
 01619,0.00000211,0.00000315,-0.00000277,0.00000283,0.00000587,0.000002
 17,-0.00000681,0.00000025,-0.00000926,-0.00001046,0.00000079,-0.000007
 09,0.00000204,-0.00000421,0.00000603,-0.00000328,-0.00000034,-0.000005
 41,0.00000551,0.00000665,-0.00000164,0.00000047,-0.00000057,-0.0010498
 3,0.00005070,0.00024230,0.00010115,-0.00021186,0.00012267,-0.00000147,
 0.00000727,-0.00000600,0.00001344,-0.00001398,0.00000914,0.00001092,0.
 00000554,-0.00000392,-0.02949217,-0.13485685,0.27771294\\0.00000761,0.
 00000747,0.00000606,0.00000164,0.00000099,0.00000359,-0.00000041,-0.00
 000288,0.00000574,-0.00000124,0.00000650,0.00000519,0.00000399,-0.0000
 0182,-0.00000690,-0.00000283,0.00000303,0.00000641,-0.00000260,-0.0000
 0101,-0.00000159,-0.00000568,0.00000052,0.00000807,-0.00000317,0.00000
 890,0.00000122,0.00000129,-0.00001335,0.00000240,-0.00000682,0.0000000
 7,-0.00000124,-0.00000110,0.00001138,-0.00002049,-0.00000105,-0.000003
 56,-0.00000373,-0.00000187,0.00000067,-0.00000285,0.00000027,0.0000005
 0,0.00000189,-0.00000408,0.00000037,-0.00000061,-0.00000155,-0.0000028
 3,-0.00000593,-0.00000017,0.00000147,-0.00000133,0.00000049,0.00000255
 ,0.00000692,-0.00000196,-0.00000640,0.00000063,-0.00000127,-0.00000559
 ,-0.00001027,-0.00000318,-0.00000366,-0.00000573,0.00000298,-0.0000059
 2,0.00000555,-0.00000349,0.00000183,0.00000773,-0.00000161,-0.00000473
 ,0.00000065,-0.00000252,-0.00000029,0.00000467,-0.00000141,0.00000436,
 0.00000065,-0.00000032,-0.00000193,0.00000169,0.00000387,-0.00000065,-
 0.00000465,0.00000101,-0.00000228,-0.00000208,0.00000615,-0.00000828,-
 0.00000033,-0.00000976,-0.00000030,-0.00000505,0.00000177,0.00000713,0
 .00000240,-0.00000451,-0.00000132,-0.00000489,0.00000634,0.00000441,0.
 00000234,0.00000019,0.00000440,-0.00000083,-0.00000062,0.00000400,-0.0
 0000244,-0.00000213,0.00000115,-0.00000228,0.00000508,-0.00000190,0.00
 000171,-0.00000159,0.00000507,-0.00000067,-0.00000033,0.00000374,-0.00
 000223,-0.00000363,0.00000425,-0.00000520,0.00000093,0.00000821,-0.000
 00110,-0.00000525,0.00000019,-0.00000206,-0.00000494,0.00000115,-0.000
 00328,-0.00000290,-0.00000343,-0.00000545,-0.00000423,0.00000859,-0.00
 000354,-0.00000041,-0.00000007,-0.00000275,-0.00000083,0.00000342,-0.0
 0000356,-0.00000140,0.00000261,0.00000014,0.00000767,-0.00000028,0.000
 00101,0.00000017,-0.00000118,-0.00000088,0.00000043,-0.00000088,0.0000
 0170,-0.00000203,-0.00000022,0.00000368,-0.00000352,-0.00000438,0.0000
 0011,0.00000029,-0.00000069,-0.00000120,-0.00000307,0.00000210,-0.0000
 0191,0.00000136,-0.00000010,0.,0.00000212,-0.00000361,0.00000870,-0.00
 000013,-0.00000458,-0.00000334,0.00000108,-0.00000605,0.00000155,-0.00
 000151,0.00000150,-0.00000240,0.00000466,-0.00000040,-0.00000388,-0.00
 000348,-0.00000107,-0.00000126,-0.00000105,-0.00000049,0.00000300,-0.0
 0000538,-0.00000488,-0.00000139,0.00000685,-0.00000318,0.00000543,0.00
 000108,-0.00000350,-0.00000063,0.00000306,-0.00000017,0.00000129,0.000
 00119,-0.00000092,0.00000188,0.00000511,-0.00000222,0.00000032,0.00000
 282,0.00000173,0.00000229,0.00000352,0.00000070,0.00000364,-0.00000044
 ,0.00000072,0.00000287,0.00000206,-0.00000973,0.00000152,0.00000176,-0
 .00000109,0.00000149,0.00000454,0.00000351,0.00000415,0.00000010,0.000
 00086,0.00000134,0.00000746,0.00000798,0.00000143,0.00000026,-0.000003
 80,-0.00000021,-0.00000095,-0.00000270,0.00000179,-0.00000291,-0.00000
 708,0.00000247,-0.00000707,-0.00000516,-0.00000835,-0.00000072,-0.0000
 0407,0.00000320,0.00000099,-0.00000518,-0.00000005,0.00000178,-0.00000
 034,0.00000022,-0.00000526,0.00000333,0.00000383,0.00000332,-0.0000050
 4,0.00000160,0.00000001,-0.00000242,0.00000317,0.00000563,-0.00000497,
 0.00000043,0.00000304,-0.00000442,0.00000805,0.00000118,-0.00000265,-0
 .00000470,-0.00000104,-0.00000376,-0.00000100,-0.00000351,-0.00000013,
 -0.00000041,0.00000064,-0.00000414,-0.00000357,-0.00000387,-0.00000344
 ,0.00000096,-0.00000144,-0.00000306,0.00000006,-0.00000113,-0.00000134
 ,-0.00000029,-0.00000912,-0.00000424,-0.00000411,0.00000381,-0.0000023
 8,0.00000309,-0.00000110,-0.00000306,0.00000407,0.00000094,0.00000493,
 0.00000336,0.00000206,0.00000107,0.00000411,-0.00000249,0.00000846,-0.
 00000738,0.00000319,0.00000198,-0.00000509,-0.00000222,0.00000731,-0.0
 0000179,0.00000427,0.00000331,-0.00000731,0.00000634,0.00000203,0.0000
 0228,0.00000423,-0.00000211,0.00000334,0.00000150,0.00000224,0.0000012
 6,0.00000137,0.00000641,0.00000349,0.00000111,0.00000302,0.00000075,0.
 00000215,0.00000436,0.00000245,0.00000309,0.00000076,0.00000319,0.0000
 0412,0.00000428,0.00000218,0.00000296,-0.00000021,0.00000341,0.0000031
 5,-0.00000082,0.00000150,0.00000368,0.00000187,0.00000052,0.00000129,0
 .00000249,0.00000086,-0.00000013,-0.00000035,0.00000053,-0.00000061,0.
 00000271,-0.00000115,-0.00000265,0.00000610,-0.00000488,-0.00000356,0.
 00000371,-0.00000188,-0.00000432,-0.00000085,0.00000058,-0.00000254,-0
 .00000098,-0.00000609,0.00000109,0.00000217,-0.00000160\\\@
 The archive entry for this job was punched.


 BRING ME INTO THE COMPANY OF THOSE WHO SEEK TRUTH,
 AND DELIVER ME FROM THOSE WHO HAVE FOUND IT.
 Job cpu time:       2 days 20 hours  6 minutes 35.8 seconds.
 Elapsed time:       0 days  4 hours 19 minutes 47.7 seconds.
 File lengths (MBytes):  RWF=  12856 Int=      0 D2E=      0 Chk=     64 Scr=      1
 Normal termination of Gaussian 16 at Sun Dec  8 02:09:08 2024.
