/mnt/lustre/scratch/nvme/SLURM/9663709/usccqdma.MblLxcIL2x
OMP_STACKSIZE=0m
GAUSS_PDEF=16
GAUSS_MDEF=65536MB
GAUSS_RDEF=SCF=Direct
 Entering Gaussian System, Link 0=g16.exe
 Initial command:
 /opt/cesga/2020/software/Core/g16/c1/l1.exe "/mnt/lustre/scratch/nvme/SLURM/9663709/usccqdma.MblLxcIL2x/Gau-3486657.inp" -scrdir="/mnt/lustre/scratch/nvme/SLURM/9663709/usccqdma.MblLxcIL2x/"
 Default is to use a total of  16 processors:
                               16 via shared-memory
                                1 via Linda
 Entering Link 1 = /opt/cesga/2020/software/Core/g16/c1/l1.exe PID=   3486683.
  
 Copyright (c) 1988-2019, Gaussian, Inc.  All Rights Reserved.
  
 This is part of the Gaussian(R) 16 program.  It is based on
 the Gaussian(R) 09 system (copyright 2009, Gaussian, Inc.),
 the Gaussian(R) 03 system (copyright 2003, Gaussian, Inc.),
 the Gaussian(R) 98 system (copyright 1998, Gaussian, Inc.),
 the Gaussian(R) 94 system (copyright 1995, Gaussian, Inc.),
 the Gaussian 92(TM) system (copyright 1992, Gaussian, Inc.),
 the Gaussian 90(TM) system (copyright 1990, Gaussian, Inc.),
 the Gaussian 88(TM) system (copyright 1988, Gaussian, Inc.),
 the Gaussian 86(TM) system (copyright 1986, Carnegie Mellon
 University), and the Gaussian 82(TM) system (copyright 1983,
 Carnegie Mellon University). Gaussian is a federally registered
 trademark of Gaussian, Inc.
  
 This software contains proprietary and confidential information,
 including trade secrets, belonging to Gaussian, Inc.
  
 This software is provided under written license and may be
 used, copied, transmitted, or stored only in accord with that
 written license.
  
 The following legend is applicable only to US Government
 contracts under FAR:
  
                    RESTRICTED RIGHTS LEGEND
  
 Use, reproduction and disclosure by the US Government is
 subject to restrictions as set forth in subparagraphs (a)
 and (c) of the Commercial Computer Software - Restricted
 Rights clause in FAR 52.227-19.
  
 Gaussian, Inc.
 340 Quinnipiac St., Bldg. 40, Wallingford CT 06492
  
  
 ---------------------------------------------------------------
 Warning -- This program may not be used in any manner that
 competes with the business of Gaussian, Inc. or will provide
 assistance to any competitor of Gaussian, Inc.  The licensee
 of this program is prohibited from giving any competitor of
 Gaussian, Inc. access to this program.  By using this program,
 the user acknowledges that Gaussian, Inc. is engaged in the
 business of creating and licensing software in the field of
 computational chemistry and represents and warrants to the
 licensee that it is not a competitor of Gaussian, Inc. and that
 it will not use this program in any manner prohibited above.
 ---------------------------------------------------------------
  

 Cite this work as:
 Gaussian 16, Revision C.01,
 M. J. Frisch, G. W. Trucks, H. B. Schlegel, G. E. Scuseria, 
 M. A. Robb, J. R. Cheeseman, G. Scalmani, V. Barone, 
 G. A. Petersson, H. Nakatsuji, X. Li, M. Caricato, A. V. Marenich, 
 J. Bloino, B. G. Janesko, R. Gomperts, B. Mennucci, H. P. Hratchian, 
 J. V. Ortiz, A. F. Izmaylov, J. L. Sonnenberg, D. Williams-Young, 
 F. Ding, F. Lipparini, F. Egidi, J. Goings, B. Peng, A. Petrone, 
 T. Henderson, D. Ranasinghe, V. G. Zakrzewski, J. Gao, N. Rega, 
 G. Zheng, W. Liang, M. Hada, M. Ehara, K. Toyota, R. Fukuda, 
 J. Hasegawa, M. Ishida, T. Nakajima, Y. Honda, O. Kitao, H. Nakai, 
 T. Vreven, K. Throssell, J. A. Montgomery, Jr., J. E. Peralta, 
 F. Ogliaro, M. J. Bearpark, J. J. Heyd, E. N. Brothers, K. N. Kudin, 
 V. N. Staroverov, T. A. Keith, R. Kobayashi, J. Normand, 
 K. Raghavachari, A. P. Rendell, J. C. Burant, S. S. Iyengar, 
 J. Tomasi, M. Cossi, J. M. Millam, M. Klene, C. Adamo, R. Cammi, 
 J. W. Ochterski, R. L. Martin, K. Morokuma, O. Farkas, 
 J. B. Foresman, and D. J. Fox, Gaussian, Inc., Wallingford CT, 2019.
 
 ******************************************
 Gaussian 16:  ES64L-G16RevC.01  3-Jul-2019
                 7-Dec-2024 
 ******************************************
 Default route: SCF=Direct
 ----------------------------------------------------
 # m06/genecp scf=tight int=ultrafine 5d freq=noraman
 ----------------------------------------------------
 1/10=4,30=1,38=1/1,3;
 2/12=2,17=6,18=5,40=1/2;
 3/5=7,8=1,11=2,16=1,17=8,25=1,30=1,71=2,74=-54,75=-5,140=1/1,2,3;
 4//1;
 5/5=2,32=2,38=5,98=1/2;
 8/6=4,10=90,11=11/1;
 11/6=1,8=1,9=11,15=111,16=1/1,2,10;
 10/6=1/2;
 6/7=2,8=2,9=2,10=2,28=1/1;
 7/8=1,10=1,25=1/1,2,3,16;
 1/10=4,30=1/3;
 99//99;
 ------
 OPT-TS
 ------
 Symbolic Z-matrix:
 Charge =  0 Multiplicity = 1
 C                     1.81392  -1.94845  -0.89021 
 C                     0.99362  -2.14487   1.27599 
 C                     1.86733  -3.18093   1.56507 
 C                     2.75147  -3.60104   0.58184 
 C                     2.72578  -2.97713  -0.65566 
 C                     1.72158  -1.25098  -2.18736 
 C                     0.62379   0.38475  -3.41587 
 C                     1.37973   0.11968  -4.54807 
 C                     2.35278  -0.87215  -4.47536 
 C                     2.5267   -1.5645   -3.28669 
 H                     0.30041  -1.74592   2.01474 
 H                     3.46026  -4.40415   0.77394 
 H                     3.41667  -3.29046  -1.43412 
 H                    -0.13341   1.16762  -3.39355 
 H                     2.97108  -1.10852  -5.3392 
 H                     3.28049  -2.34497  -3.22072 
 N                     0.95885  -1.54917   0.0784 
 N                     0.79186  -0.28042  -2.26926 
 Ir                   -0.40075   0.07518  -0.3802 
 O                    -0.98216  -0.04875   2.58735 
 O                    -2.77024  -1.41639  -1.77681 
 O                    -1.16121   2.91036   0.58783 
 B                    -1.84003  -1.38705  -0.75331 
 B                    -1.51203   0.16094   1.31543 
 B                    -0.5518    2.14087  -0.40296 
 O                    -0.3446    2.92167  -1.55254 
 O                    -2.88763   0.35149   1.39349 
 C                    -3.2387    0.49118   2.77637 
 C                    -2.07964  -0.2615    3.49007 
 C                    -1.69663   4.07539  -0.04686 
 C                    -0.71972   4.27395  -1.2423 
 C                    -3.70575  -2.46866  -1.489 
 C                    -2.85791  -3.4262   -0.60713 
 O                    -1.96909  -2.51532   0.05522 
 C                    -1.70865   0.27979   4.85531 
 H                    -1.38765   1.32547   4.79981 
 H                    -2.55859   0.20712   5.54942 
 H                    -0.87894  -0.30474   5.27325 
 C                    -2.30474  -1.76713   3.56454 
 H                    -1.38289  -2.24393   3.92521 
 H                    -3.11334  -2.03039   4.25989 
 H                    -2.5311   -2.18002   2.57082 
 C                    -3.26255   1.98163   3.09251 
 H                    -3.55716   2.17621   4.13279 
 H                    -2.2855    2.44149   2.89522 
 H                    -3.99673   2.46619   2.43446 
 C                    -4.61479  -0.10457   2.99976 
 H                    -4.89195  -0.06698   4.06342 
 H                    -5.36029   0.469     2.43357 
 H                    -4.66699  -1.14687   2.66312 
 C                    -4.8635   -1.83384  -0.7303 
 H                    -5.65896  -2.55849  -0.5084 
 H                    -4.51183  -1.37802   0.20533 
 H                    -5.28864  -1.03266  -1.34768 
 C                    -4.19727  -3.06831  -2.79045 
 H                    -4.85177  -3.93154  -2.60037 
 H                    -4.77696  -2.32051  -3.34642 
 H                    -3.3669   -3.39176  -3.428 
 C                    -3.64014  -4.20276   0.43228 
 H                    -4.38157  -4.86075  -0.04389 
 H                    -2.95635  -4.83013   1.0193 
 H                    -4.1634   -3.53429   1.12617 
 C                    -1.98418  -4.37473  -1.41969 
 H                    -1.26183  -4.85067  -0.74338 
 H                    -2.56962  -5.16332  -1.9116 
 H                    -1.41787  -3.82632  -2.18522 
 C                    -1.34258   4.90305  -2.47305 
 H                    -0.58629   5.00682  -3.2622 
 H                    -2.1616    4.2921   -2.8675 
 H                    -1.7315    5.90579  -2.24462 
 C                     0.54054   5.04014  -0.86191 
 H                     1.26416   4.96995  -1.68504 
 H                     0.32999   6.10337  -0.68505 
 H                     1.01137   4.62866   0.04062 
 C                    -1.72568   5.21334   0.95346 
 H                    -0.74478   5.37048   1.41569 
 H                    -2.04583   6.15038   0.47531 
 H                    -2.44075   4.98045   1.75345 
 C                    -3.11544   3.73931  -0.49246 
 H                    -3.67727   3.37838   0.37805 
 H                    -3.63503   4.61324  -0.90848 
 H                    -3.12279   2.93528  -1.23991 
 H                    -1.64808   0.86949  -1.03009 
 C                     3.48415   0.41723   0.34184 
 O                     3.30304  -0.19817   1.38881 
 C                     4.78545   0.26829  -0.43956 
 H                     4.54904  -0.1655   -1.42657 
 H                     5.21401   1.26114  -0.65374 
 C                     1.27121   1.44867   0.48444 
 H                     1.3262    0.94174   1.45206 
 H                     1.2002    2.51898   0.72642 
 N                     2.53733   1.23472  -0.20943 
 C                     2.80876   2.06057  -1.36936 
 H                     3.28206   1.48942  -2.17889 
 H                     1.8582    2.45223  -1.74364 
 H                     3.46044   2.91594  -1.12374 
 C                     5.80705  -0.59356   0.2849 
 H                     5.32114  -1.52545   0.61275 
 H                     6.60269  -0.87725  -0.42338 
 C                     6.43174   0.09516   1.48873 
 H                     6.91567   1.03415   1.16445 
 H                     5.63391   0.37938   2.19102 
 C                     7.45457  -0.77439   2.20351 
 H                     6.9665   -1.70673   2.53094 
 H                     8.23954  -1.07874   1.49087 
 C                     8.08312  -0.07469   3.39687 
 H                     8.81491  -0.71085   3.91055 
 H                     8.60006   0.84469   3.08731 
 H                     7.3171    0.21319   4.1301 
 H                     1.21052   0.68397  -5.46151 
 H                     1.86054  -3.63066   2.55412 
 

 GradGradGradGradGradGradGradGradGradGradGradGradGradGradGradGradGradGrad
 Berny optimization.
 Initialization pass.
 Trust Radius=3.00D-01 FncErr=1.00D-07 GrdErr=1.00D-07 EigMax=2.50D+02 EigMin=1.00D-04
 Number of steps in this run=      2 maximum allowed number of steps=      2.
 GradGradGradGradGradGradGradGradGradGradGradGradGradGradGradGradGradGrad

 Stoichiometry    C36H61B3IrN3O7
 Framework group  C1[X(C36H61B3IrN3O7)]
 Deg. of freedom   327
 Full point group                 C1      NOp   1
 Largest Abelian subgroup         C1      NOp   1
 Largest concise Abelian subgroup C1      NOp   1
                         Standard orientation:                         
 ---------------------------------------------------------------------
 Center     Atomic      Atomic             Coordinates (Angstroms)
 Number     Number       Type             X           Y           Z
 ---------------------------------------------------------------------
      1          6           0        1.813921   -1.948450   -0.890209
      2          6           0        0.993621   -2.144870    1.275991
      3          6           0        1.867331   -3.180930    1.565071
      4          6           0        2.751471   -3.601040    0.581841
      5          6           0        2.725781   -2.977130   -0.655659
      6          6           0        1.721581   -1.250980   -2.187359
      7          6           0        0.623791    0.384750   -3.415869
      8          6           0        1.379731    0.119680   -4.548069
      9          6           0        2.352781   -0.872150   -4.475359
     10          6           0        2.526701   -1.564500   -3.286689
     11          1           0        0.300411   -1.745920    2.014741
     12          1           0        3.460261   -4.404149    0.773941
     13          1           0        3.416671   -3.290459   -1.434119
     14          1           0       -0.133409    1.167620   -3.393549
     15          1           0        2.971081   -1.108519   -5.339199
     16          1           0        3.280491   -2.344969   -3.220719
     17          7           0        0.958851   -1.549170    0.078401
     18          7           0        0.791861   -0.280420   -2.269259
     19         77           0       -0.400749    0.075180   -0.380199
     20          8           0       -0.982159   -0.048750    2.587351
     21          8           0       -2.770239   -1.416390   -1.776809
     22          8           0       -1.161209    2.910360    0.587831
     23          5           0       -1.840029   -1.387050   -0.753309
     24          5           0       -1.512029    0.160940    1.315431
     25          5           0       -0.551799    2.140870   -0.402959
     26          8           0       -0.344599    2.921670   -1.552539
     27          8           0       -2.887629    0.351490    1.393491
     28          6           0       -3.238699    0.491180    2.776371
     29          6           0       -2.079639   -0.261500    3.490071
     30          6           0       -1.696629    4.075390   -0.046859
     31          6           0       -0.719719    4.273950   -1.242299
     32          6           0       -3.705749   -2.468660   -1.488999
     33          6           0       -2.857909   -3.426200   -0.607129
     34          8           0       -1.969089   -2.515320    0.055221
     35          6           0       -1.708649    0.279790    4.855311
     36          1           0       -1.387649    1.325470    4.799811
     37          1           0       -2.558589    0.207120    5.549421
     38          1           0       -0.878939   -0.304740    5.273251
     39          6           0       -2.304739   -1.767130    3.564541
     40          1           0       -1.382889   -2.243930    3.925211
     41          1           0       -3.113339   -2.030390    4.259891
     42          1           0       -2.531099   -2.180020    2.570821
     43          6           0       -3.262549    1.981630    3.092511
     44          1           0       -3.557159    2.176210    4.132791
     45          1           0       -2.285499    2.441490    2.895221
     46          1           0       -3.996729    2.466190    2.434461
     47          6           0       -4.614789   -0.104570    2.999761
     48          1           0       -4.891949   -0.066980    4.063421
     49          1           0       -5.360289    0.469000    2.433571
     50          1           0       -4.666989   -1.146870    2.663121
     51          6           0       -4.863499   -1.833840   -0.730299
     52          1           0       -5.658959   -2.558490   -0.508399
     53          1           0       -4.511829   -1.378020    0.205331
     54          1           0       -5.288639   -1.032660   -1.347679
     55          6           0       -4.197269   -3.068310   -2.790449
     56          1           0       -4.851769   -3.931540   -2.600369
     57          1           0       -4.776959   -2.320510   -3.346419
     58          1           0       -3.366899   -3.391760   -3.427999
     59          6           0       -3.640139   -4.202760    0.432281
     60          1           0       -4.381569   -4.860750   -0.043889
     61          1           0       -2.956349   -4.830130    1.019301
     62          1           0       -4.163399   -3.534290    1.126171
     63          6           0       -1.984179   -4.374730   -1.419689
     64          1           0       -1.261829   -4.850670   -0.743379
     65          1           0       -2.569619   -5.163320   -1.911599
     66          1           0       -1.417869   -3.826320   -2.185219
     67          6           0       -1.342579    4.903050   -2.473049
     68          1           0       -0.586289    5.006820   -3.262199
     69          1           0       -2.161599    4.292100   -2.867499
     70          1           0       -1.731500    5.905790   -2.244619
     71          6           0        0.540541    5.040140   -0.861909
     72          1           0        1.264161    4.969950   -1.685039
     73          1           0        0.329990    6.103370   -0.685049
     74          1           0        1.011371    4.628660    0.040621
     75          6           0       -1.725679    5.213340    0.953461
     76          1           0       -0.744780    5.370480    1.415691
     77          1           0       -2.045830    6.150380    0.475311
     78          1           0       -2.440749    4.980450    1.753451
     79          6           0       -3.115439    3.739310   -0.492459
     80          1           0       -3.677269    3.378380    0.378051
     81          1           0       -3.635029    4.613240   -0.908479
     82          1           0       -3.122789    2.935280   -1.239909
     83          1           0       -1.648079    0.869490   -1.030089
     84          6           0        3.484151    0.417231    0.341841
     85          8           0        3.303041   -0.198169    1.388811
     86          6           0        4.785451    0.268291   -0.439559
     87          1           0        4.549041   -0.165499   -1.426569
     88          1           0        5.214011    1.261141   -0.653739
     89          6           0        1.271211    1.448670    0.484441
     90          1           0        1.326201    0.941740    1.452061
     91          1           0        1.200201    2.518980    0.726421
     92          7           0        2.537331    1.234720   -0.209429
     93          6           0        2.808761    2.060570   -1.369359
     94          1           0        3.282061    1.489421   -2.178889
     95          1           0        1.858201    2.452230   -1.743639
     96          1           0        3.460441    2.915941   -1.123739
     97          6           0        5.807051   -0.593559    0.284901
     98          1           0        5.321141   -1.525449    0.612751
     99          1           0        6.602691   -0.877249   -0.423379
    100          6           0        6.431741    0.095161    1.488731
    101          1           0        6.915671    1.034151    1.164451
    102          1           0        5.633911    0.379381    2.191021
    103          6           0        7.454571   -0.774389    2.203511
    104          1           0        6.966501   -1.706729    2.530941
    105          1           0        8.239541   -1.078739    1.490871
    106          6           0        8.083121   -0.074689    3.396871
    107          1           0        8.814911   -0.710849    3.910551
    108          1           0        8.600061    0.844691    3.087311
    109          1           0        7.317101    0.213191    4.130101
    110          1           0        1.210521    0.683970   -5.461509
    111          1           0        1.860541   -3.630660    2.554121
 ---------------------------------------------------------------------
 Rotational constants (GHZ):           0.0693195           0.0501905           0.0454907
 General basis read from cards:  (5D, 7F)
 ======================================================================================================
                                       Pseudopotential Parameters
 ======================================================================================================
  Center     Atomic      Valence      Angular      Power
  Number     Number     Electrons     Momentum     of R      Exponent        Coefficient   SO-Coeffient
 ======================================================================================================
    1          6
                                   No pseudopotential on this center.
    2          6
                                   No pseudopotential on this center.
    3          6
                                   No pseudopotential on this center.
    4          6
                                   No pseudopotential on this center.
    5          6
                                   No pseudopotential on this center.
    6          6
                                   No pseudopotential on this center.
    7          6
                                   No pseudopotential on this center.
    8          6
                                   No pseudopotential on this center.
    9          6
                                   No pseudopotential on this center.
   10          6
                                   No pseudopotential on this center.
   11          1
                                   No pseudopotential on this center.
   12          1
                                   No pseudopotential on this center.
   13          1
                                   No pseudopotential on this center.
   14          1
                                   No pseudopotential on this center.
   15          1
                                   No pseudopotential on this center.
   16          1
                                   No pseudopotential on this center.
   17          7
                                   No pseudopotential on this center.
   18          7
                                   No pseudopotential on this center.
   19         77           17
                                      G and up 
                                                     1      823.5880147       -0.15780140    0.00000000
                                                     2      364.6613336    -1517.52704460    0.00000000
                                                     2       55.7082801     -316.53065290    0.00000000
                                                     2       12.0464544      -91.88809410    0.00000000
                                                     2        3.5120610       -9.22417730    0.00000000
                                      S - G
                                                     0      188.0490770        3.15780140    0.00000000
                                                     1      340.4194712       26.83225770    0.00000000
                                                     2      128.2373673      800.42500070    0.00000000
                                                     2       33.8644961      369.40506830    0.00000000
                                                     2        4.7560005      242.41718990    0.00000000
                                                     2        3.9649974     -118.21732820    0.00000000
                                      P - G
                                                     0      289.7291139        2.15780140    0.00000000
                                                     1       87.4633789       61.96786100    0.00000000
                                                     2       30.4363766      269.05819860    0.00000000
                                                     2        4.0553412      231.16547930    0.00000000
                                                     2        3.5525341     -133.69526670    0.00000000
                                      D - G
                                                     0      136.4017106        3.15780140    0.00000000
                                                     1       95.0776925       45.93498030    0.00000000
                                                     2       49.2258410      359.03446680    0.00000000
                                                     2       15.0874145      176.47401190    0.00000000
                                                     2        4.0405764       54.51552860    0.00000000
                                      F - G
                                                     0      127.3507908        3.95461970    0.00000000
                                                     1       66.2364374       52.97736550    0.00000000
                                                     2       34.4299229      274.86433830    0.00000000
                                                     2       10.1995721      137.20473380    0.00000000
                                                     2        2.5409702       14.86333050    0.00000000
   20          8
                                   No pseudopotential on this center.
   21          8
                                   No pseudopotential on this center.
   22          8
                                   No pseudopotential on this center.
   23          5
                                   No pseudopotential on this center.
   24          5
                                   No pseudopotential on this center.
   25          5
                                   No pseudopotential on this center.
   26          8
                                   No pseudopotential on this center.
   27          8
                                   No pseudopotential on this center.
   28          6
                                   No pseudopotential on this center.
   29          6
                                   No pseudopotential on this center.
   30          6
                                   No pseudopotential on this center.
   31          6
                                   No pseudopotential on this center.
   32          6
                                   No pseudopotential on this center.
   33          6
                                   No pseudopotential on this center.
   34          8
                                   No pseudopotential on this center.
   35          6
                                   No pseudopotential on this center.
   36          1
                                   No pseudopotential on this center.
   37          1
                                   No pseudopotential on this center.
   38          1
                                   No pseudopotential on this center.
   39          6
                                   No pseudopotential on this center.
   40          1
                                   No pseudopotential on this center.
   41          1
                                   No pseudopotential on this center.
   42          1
                                   No pseudopotential on this center.
   43          6
                                   No pseudopotential on this center.
   44          1
                                   No pseudopotential on this center.
   45          1
                                   No pseudopotential on this center.
   46          1
                                   No pseudopotential on this center.
   47          6
                                   No pseudopotential on this center.
   48          1
                                   No pseudopotential on this center.
   49          1
                                   No pseudopotential on this center.
   50          1
                                   No pseudopotential on this center.
   51          6
                                   No pseudopotential on this center.
   52          1
                                   No pseudopotential on this center.
   53          1
                                   No pseudopotential on this center.
   54          1
                                   No pseudopotential on this center.
   55          6
                                   No pseudopotential on this center.
   56          1
                                   No pseudopotential on this center.
   57          1
                                   No pseudopotential on this center.
   58          1
                                   No pseudopotential on this center.
   59          6
                                   No pseudopotential on this center.
   60          1
                                   No pseudopotential on this center.
   61          1
                                   No pseudopotential on this center.
   62          1
                                   No pseudopotential on this center.
   63          6
                                   No pseudopotential on this center.
   64          1
                                   No pseudopotential on this center.
   65          1
                                   No pseudopotential on this center.
   66          1
                                   No pseudopotential on this center.
   67          6
                                   No pseudopotential on this center.
   68          1
                                   No pseudopotential on this center.
   69          1
                                   No pseudopotential on this center.
   70          1
                                   No pseudopotential on this center.
   71          6
                                   No pseudopotential on this center.
   72          1
                                   No pseudopotential on this center.
   73          1
                                   No pseudopotential on this center.
   74          1
                                   No pseudopotential on this center.
   75          6
                                   No pseudopotential on this center.
   76          1
                                   No pseudopotential on this center.
   77          1
                                   No pseudopotential on this center.
   78          1
                                   No pseudopotential on this center.
   79          6
                                   No pseudopotential on this center.
   80          1
                                   No pseudopotential on this center.
   81          1
                                   No pseudopotential on this center.
   82          1
                                   No pseudopotential on this center.
   83          1
                                   No pseudopotential on this center.
   84          6
                                   No pseudopotential on this center.
   85          8
                                   No pseudopotential on this center.
   86          6
                                   No pseudopotential on this center.
   87          1
                                   No pseudopotential on this center.
   88          1
                                   No pseudopotential on this center.
   89          6
                                   No pseudopotential on this center.
   90          1
                                   No pseudopotential on this center.
   91          1
                                   No pseudopotential on this center.
   92          7
                                   No pseudopotential on this center.
   93          6
                                   No pseudopotential on this center.
   94          1
                                   No pseudopotential on this center.
   95          1
                                   No pseudopotential on this center.
   96          1
                                   No pseudopotential on this center.
   97          6
                                   No pseudopotential on this center.
   98          1
                                   No pseudopotential on this center.
   99          1
                                   No pseudopotential on this center.
  100          6
                                   No pseudopotential on this center.
  101          1
                                   No pseudopotential on this center.
  102          1
                                   No pseudopotential on this center.
  103          6
                                   No pseudopotential on this center.
  104          1
                                   No pseudopotential on this center.
  105          1
                                   No pseudopotential on this center.
  106          6
                                   No pseudopotential on this center.
  107          1
                                   No pseudopotential on this center.
  108          1
                                   No pseudopotential on this center.
  109          1
                                   No pseudopotential on this center.
  110          1
                                   No pseudopotential on this center.
  111          1
                                   No pseudopotential on this center.
 ======================================================================================================
 There are   881 symmetry adapted cartesian basis functions of A   symmetry.
 There are   830 symmetry adapted basis functions of A   symmetry.
   830 basis functions,  1659 primitive gaussians,   881 cartesian basis functions
   193 alpha electrons      193 beta electrons
       nuclear repulsion energy      8117.9481276310 Hartrees.
 NAtoms=  111 NActive=  111 NUniq=  111 SFac= 1.00D+00 NAtFMM=   60 NAOKFM=T Big=T
 Integral buffers will be    131072 words long.
 Raffenetti 2 integral format.
 Two-electron integral symmetry is turned on.
 One-electron integrals computed using PRISM.
   1 Symmetry operations used in ECPInt.
 ECPInt:  NShTT=   53301 NPrTT=  320676 LenC2=   40123 LenP2D=  123030.
 LDataN:  DoStor=T MaxTD1= 6 Len=  172
 NBasis=   830 RedAO= T EigKep=  5.21D-04  NBF=   830
 NBsUse=   830 1.00D-06 EigRej= -1.00D+00 NBFU=   830
 Defaulting to unpruned grid for atomic number  77.
 ExpMin= 2.90D-02 ExpMax= 5.48D+03 ExpMxC= 8.25D+02 IAcc=3 IRadAn=         5 AccDes= 0.00D+00
 Harris functional with IExCor= 1009 and IRadAn=       5 diagonalized for initial guess.
 HarFok:  IExCor= 1009 AccDes= 0.00D+00 IRadAn=         5 IDoV= 1 UseB2=F ITyADJ=14
 ICtDFT=  3500011 ScaDFX=  1.000000  1.000000  1.000000  1.000000
 Defaulting to unpruned grid for atomic number  77.
 FoFCou: FMM=F IPFlag=           0 FMFlag=      100000 FMFlg1=        2001
         NFxFlg=           0 DoJE=T BraDBF=F KetDBF=T FulRan=T
         wScrn=  0.000000 ICntrl=       500 IOpCl=  0 I1Cent=   200000004 NGrid=           0
         NMat0=    1 NMatS0=      1 NMatT0=    0 NMatD0=    1 NMtDS0=    0 NMtDT0=    0
 Petite list used in FoFCou.
 Requested convergence on RMS density matrix=1.00D-08 within 128 cycles.
 Requested convergence on MAX density matrix=1.00D-06.
 Requested convergence on             energy=1.00D-06.
 No special actions if energy rises.
 Defaulting to unpruned grid for atomic number  77.
 Defaulting to unpruned grid for atomic number  77.
 Defaulting to unpruned grid for atomic number  77.
 Defaulting to unpruned grid for atomic number  77.
 Defaulting to unpruned grid for atomic number  77.
 Defaulting to unpruned grid for atomic number  77.
 Defaulting to unpruned grid for atomic number  77.
 Defaulting to unpruned grid for atomic number  77.
 Defaulting to unpruned grid for atomic number  77.
 Defaulting to unpruned grid for atomic number  77.
 Defaulting to unpruned grid for atomic number  77.
 Defaulting to unpruned grid for atomic number  77.
 Defaulting to unpruned grid for atomic number  77.
 Defaulting to unpruned grid for atomic number  77.
 Defaulting to unpruned grid for atomic number  77.
 Defaulting to unpruned grid for atomic number  77.
 SCF Done:  E(RM06) =  -2277.51434059     A.U. after   15 cycles
            NFock= 15  Conv=0.69D-08     -V/T= 2.0391
 DoSCS=F DFT=T ScalE2(SS,OS)=  1.000000  1.000000
 Range of M.O.s used for correlation:     1   830
 NBasis=   830 NAE=   193 NBE=   193 NFC=     0 NFV=     0
 NROrb=    830 NOA=   193 NOB=   193 NVA=   637 NVB=   637

 **** Warning!!: The largest alpha MO coefficient is  0.11449472D+02

   1 Symmetry operations used in ECPInt.
 ECPInt:  NShTT=   53301 NPrTT=  320676 LenC2=   40123 LenP2D=  123030.
 LDataN:  DoStor=T MaxTD1= 7 Len=  274
 Number of processors reduced to   8 by ecpmxn.
 Symmetrizing basis deriv contribution to polar:
 IMax=3 JMax=2 DiffMx= 0.00D+00
 G2DrvN: will do   112 centers at a time, making    1 passes.
 Calling FoFCou, ICntrl=  3107 FMM=T I1Cent=   0 AccDes= 0.00D+00.
 Defaulting to unpruned grid for atomic number  77.
 Defaulting to unpruned grid for atomic number  77.
 Defaulting to unpruned grid for atomic number  77.
 Defaulting to unpruned grid for atomic number  77.
 Defaulting to unpruned grid for atomic number  77.
 Defaulting to unpruned grid for atomic number  77.
 Defaulting to unpruned grid for atomic number  77.
 Defaulting to unpruned grid for atomic number  77.
 Defaulting to unpruned grid for atomic number  77.
 Defaulting to unpruned grid for atomic number  77.
 Defaulting to unpruned grid for atomic number  77.
 Defaulting to unpruned grid for atomic number  77.
 Defaulting to unpruned grid for atomic number  77.
 Defaulting to unpruned grid for atomic number  77.
 Defaulting to unpruned grid for atomic number  77.
 Defaulting to unpruned grid for atomic number  77.
 End of G2Drv F.D. properties file   721 does not exist.
 End of G2Drv F.D. properties file   722 does not exist.
 End of G2Drv F.D. properties file   788 does not exist.
          IDoAtm=11111111111111111111111111111111111111111111111111
          IDoAtm=11111111111111111111111111111111111111111111111111
          IDoAtm=11111111111
          Differentiating once with respect to electric field.
                with respect to dipole field.
          Differentiating once with respect to nuclear coordinates.
 Defaulting to unpruned grid for atomic number  77.
 CalDSu exits because no D1Ps are significant.
 Defaulting to unpruned grid for atomic number  77.
 Defaulting to unpruned grid for atomic number  77.
 Defaulting to unpruned grid for atomic number  77.
 Defaulting to unpruned grid for atomic number  77.
 Defaulting to unpruned grid for atomic number  77.
 Defaulting to unpruned grid for atomic number  77.
 Defaulting to unpruned grid for atomic number  77.
 Defaulting to unpruned grid for atomic number  77.
 Defaulting to unpruned grid for atomic number  77.
 Defaulting to unpruned grid for atomic number  77.
 Defaulting to unpruned grid for atomic number  77.
 Defaulting to unpruned grid for atomic number  77.
 Defaulting to unpruned grid for atomic number  77.
 Defaulting to unpruned grid for atomic number  77.
 Defaulting to unpruned grid for atomic number  77.
 Defaulting to unpruned grid for atomic number  77.
          There are   336 degrees of freedom in the 1st order CPHF.  IDoFFX=6 NUNeed=     3.
    333 vectors produced by pass  0 Test12= 1.23D-13 1.00D-09 XBig12= 4.60D+02 9.52D+00.
 AX will form    72 AO Fock derivatives at one time.
    333 vectors produced by pass  1 Test12= 1.23D-13 1.00D-09 XBig12= 8.38D+01 1.06D+00.
    333 vectors produced by pass  2 Test12= 1.23D-13 1.00D-09 XBig12= 9.12D-01 7.36D-02.
    333 vectors produced by pass  3 Test12= 1.23D-13 1.00D-09 XBig12= 5.09D-03 5.99D-03.
    333 vectors produced by pass  4 Test12= 1.23D-13 1.00D-09 XBig12= 1.67D-05 3.69D-04.
    288 vectors produced by pass  5 Test12= 1.23D-13 1.00D-09 XBig12= 3.06D-08 8.98D-06.
     72 vectors produced by pass  6 Test12= 1.23D-13 1.00D-09 XBig12= 4.24D-11 4.30D-07.
      3 vectors produced by pass  7 Test12= 1.23D-13 1.00D-09 XBig12= 5.85D-14 1.76D-08.
 InvSVY:  IOpt=1 It=  1 EMax= 2.84D-14
 Solved reduced A of dimension  2028 with   336 vectors.
 Isotropic polarizability for W=    0.000000      493.37 Bohr**3.
 End of Minotr F.D. properties file   721 does not exist.
 End of Minotr F.D. properties file   722 does not exist.
 End of Minotr F.D. properties file   788 does not exist.
 Hyperfine terms turned off by default for NAtoms > 100.

 **********************************************************************

            Population analysis using the SCF Density.

 **********************************************************************

 Orbital symmetries:
       Occupied  (A) (A) (A) (A) (A) (A) (A) (A) (A) (A) (A) (A)
                 (A) (A) (A) (A) (A) (A) (A) (A) (A) (A) (A) (A)
                 (A) (A) (A) (A) (A) (A) (A) (A) (A) (A) (A) (A)
                 (A) (A) (A) (A) (A) (A) (A) (A) (A) (A) (A) (A)
                 (A) (A) (A) (A) (A) (A) (A) (A) (A) (A) (A) (A)
                 (A) (A) (A) (A) (A) (A) (A) (A) (A) (A) (A) (A)
                 (A) (A) (A) (A) (A) (A) (A) (A) (A) (A) (A) (A)
                 (A) (A) (A) (A) (A) (A) (A) (A) (A) (A) (A) (A)
                 (A) (A) (A) (A) (A) (A) (A) (A) (A) (A) (A) (A)
                 (A) (A) (A) (A) (A) (A) (A) (A) (A) (A) (A) (A)
                 (A) (A) (A) (A) (A) (A) (A) (A) (A) (A) (A) (A)
                 (A) (A) (A) (A) (A) (A) (A) (A) (A) (A) (A) (A)
                 (A) (A) (A) (A) (A) (A) (A) (A) (A) (A) (A) (A)
                 (A) (A) (A) (A) (A) (A) (A) (A) (A) (A) (A) (A)
                 (A) (A) (A) (A) (A) (A) (A) (A) (A) (A) (A) (A)
                 (A) (A) (A) (A) (A) (A) (A) (A) (A) (A) (A) (A)
                 (A)
       Virtual   (A) (A) (A) (A) (A) (A) (A) (A) (A) (A) (A) (A)
                 (A) (A) (A) (A) (A) (A) (A) (A) (A) (A) (A) (A)
                 (A) (A) (A) (A) (A) (A) (A) (A) (A) (A) (A) (A)
                 (A) (A) (A) (A) (A) (A) (A) (A) (A) (A) (A) (A)
                 (A) (A) (A) (A) (A) (A) (A) (A) (A) (A) (A) (A)
                 (A) (A) (A) (A) (A) (A) (A) (A) (A) (A) (A) (A)
                 (A) (A) (A) (A) (A) (A) (A) (A) (A) (A) (A) (A)
                 (A) (A) (A) (A) (A) (A) (A) (A) (A) (A) (A) (A)
                 (A) (A) (A) (A) (A) (A) (A) (A) (A) (A) (A) (A)
                 (A) (A) (A) (A) (A) (A) (A) (A) (A) (A) (A) (A)
                 (A) (A) (A) (A) (A) (A) (A) (A) (A) (A) (A) (A)
                 (A) (A) (A) (A) (A) (A) (A) (A) (A) (A) (A) (A)
                 (A) (A) (A) (A) (A) (A) (A) (A) (A) (A) (A) (A)
                 (A) (A) (A) (A) (A) (A) (A) (A) (A) (A) (A) (A)
                 (A) (A) (A) (A) (A) (A) (A) (A) (A) (A) (A) (A)
                 (A) (A) (A) (A) (A) (A) (A) (A) (A) (A) (A) (A)
                 (A) (A) (A) (A) (A) (A) (A) (A) (A) (A) (A) (A)
                 (A) (A) (A) (A) (A) (A) (A) (A) (A) (A) (A) (A)
                 (A) (A) (A) (A) (A) (A) (A) (A) (A) (A) (A) (A)
                 (A) (A) (A) (A) (A) (A) (A) (A) (A) (A) (A) (A)
                 (A) (A) (A) (A) (A) (A) (A) (A) (A) (A) (A) (A)
                 (A) (A) (A) (A) (A) (A) (A) (A) (A) (A) (A) (A)
                 (A) (A) (A) (A) (A) (A) (A) (A) (A) (A) (A) (A)
                 (A) (A) (A) (A) (A) (A) (A) (A) (A) (A) (A) (A)
                 (A) (A) (A) (A) (A) (A) (A) (A) (A) (A) (A) (A)
                 (A) (A) (A) (A) (A) (A) (A) (A) (A) (A) (A) (A)
                 (A) (A) (A) (A) (A) (A) (A) (A) (A) (A) (A) (A)
                 (A) (A) (A) (A) (A) (A) (A) (A) (A) (A) (A) (A)
                 (A) (A) (A) (A) (A) (A) (A) (A) (A) (A) (A) (A)
                 (A) (A) (A) (A) (A) (A) (A) (A) (A) (A) (A) (A)
                 (A) (A) (A) (A) (A) (A) (A) (A) (A) (A) (A) (A)
                 (A) (A) (A) (A) (A) (A) (A) (A) (A) (A) (A) (A)
                 (A) (A) (A) (A) (A) (A) (A) (A) (A) (A) (A) (A)
                 (A) (A) (A) (A) (A) (A) (A) (A) (A) (A) (A) (A)
                 (A) (A) (A) (A) (A) (A) (A) (A) (A) (A) (A) (A)
                 (A) (A) (A) (A) (A) (A) (A) (A) (A) (A) (A) (A)
                 (A) (A) (A) (A) (A) (A) (A) (A) (A) (A) (A) (A)
                 (A) (A) (A) (A) (A) (A) (A) (A) (A) (A) (A) (A)
                 (A) (A) (A) (A) (A) (A) (A) (A) (A) (A) (A) (A)
                 (A) (A) (A) (A) (A) (A) (A) (A) (A) (A) (A) (A)
                 (A) (A) (A) (A) (A) (A) (A) (A) (A) (A) (A) (A)
                 (A) (A) (A) (A) (A) (A) (A) (A) (A) (A) (A) (A)
                 (A) (A) (A) (A) (A) (A) (A) (A) (A) (A) (A) (A)
                 (A) (A) (A) (A) (A) (A) (A) (A) (A) (A) (A) (A)
                 (A) (A) (A) (A) (A) (A) (A) (A) (A) (A) (A) (A)
                 (A) (A) (A) (A) (A) (A) (A) (A) (A) (A) (A) (A)
                 (A) (A) (A) (A) (A) (A) (A) (A) (A) (A) (A) (A)
                 (A) (A) (A) (A) (A) (A) (A) (A) (A) (A) (A) (A)
                 (A) (A) (A) (A) (A) (A) (A) (A) (A) (A) (A) (A)
                 (A) (A) (A) (A) (A) (A) (A) (A) (A) (A) (A) (A)
                 (A) (A) (A) (A) (A) (A) (A) (A) (A) (A) (A) (A)
                 (A) (A) (A) (A) (A) (A) (A) (A) (A) (A) (A) (A)
                 (A) (A) (A) (A) (A) (A) (A) (A) (A) (A) (A) (A)
                 (A)
 The electronic state is 1-A.
 Alpha  occ. eigenvalues --  -19.20437 -19.19951 -19.19658 -19.19649 -19.19585
 Alpha  occ. eigenvalues --  -19.19203 -19.16899 -14.44760 -14.44362 -14.40972
 Alpha  occ. eigenvalues --  -10.32593 -10.31925 -10.31519 -10.30232 -10.29594
 Alpha  occ. eigenvalues --  -10.29242 -10.29234 -10.29041 -10.28900 -10.28760
 Alpha  occ. eigenvalues --  -10.28630 -10.28475 -10.28261 -10.28102 -10.27644
 Alpha  occ. eigenvalues --  -10.27600 -10.26660 -10.26006 -10.24313 -10.24180
 Alpha  occ. eigenvalues --  -10.23016 -10.22974 -10.22877 -10.22860 -10.22698
 Alpha  occ. eigenvalues --  -10.22598 -10.22479 -10.22430 -10.22231 -10.22218
 Alpha  occ. eigenvalues --  -10.22177 -10.22056 -10.21819 -10.21716 -10.21392
 Alpha  occ. eigenvalues --  -10.21293  -6.82388  -6.79116  -6.78731  -3.63584
 Alpha  occ. eigenvalues --   -2.06520  -2.05468  -2.04399  -1.06189  -1.05778
 Alpha  occ. eigenvalues --   -1.05328  -1.02778  -0.99657  -0.99265  -0.98798
 Alpha  occ. eigenvalues --   -0.98437  -0.97093  -0.92342  -0.84033  -0.83034
 Alpha  occ. eigenvalues --   -0.82415  -0.80581  -0.80466  -0.80043  -0.79637
 Alpha  occ. eigenvalues --   -0.76957  -0.76336  -0.74896  -0.74507  -0.74098
 Alpha  occ. eigenvalues --   -0.70543  -0.70445  -0.70117  -0.69793  -0.69633
 Alpha  occ. eigenvalues --   -0.68571  -0.67622  -0.67549  -0.67331  -0.66873
 Alpha  occ. eigenvalues --   -0.65724  -0.64124  -0.63183  -0.61746  -0.61224
 Alpha  occ. eigenvalues --   -0.60695  -0.59951  -0.57312  -0.57186  -0.54736
 Alpha  occ. eigenvalues --   -0.54209  -0.53981  -0.53868  -0.53022  -0.52972
 Alpha  occ. eigenvalues --   -0.52870  -0.52438  -0.51853  -0.50532  -0.49856
 Alpha  occ. eigenvalues --   -0.49310  -0.48446  -0.47673  -0.47107  -0.46822
 Alpha  occ. eigenvalues --   -0.46551  -0.46156  -0.46002  -0.45910  -0.45805
 Alpha  occ. eigenvalues --   -0.45663  -0.45467  -0.45237  -0.44785  -0.44436
 Alpha  occ. eigenvalues --   -0.44135  -0.44031  -0.43686  -0.43553  -0.43469
 Alpha  occ. eigenvalues --   -0.43178  -0.42802  -0.42548  -0.41631  -0.40991
 Alpha  occ. eigenvalues --   -0.40391  -0.40242  -0.40174  -0.40119  -0.40034
 Alpha  occ. eigenvalues --   -0.39820  -0.39785  -0.39501  -0.39367  -0.39220
 Alpha  occ. eigenvalues --   -0.39167  -0.39070  -0.38759  -0.38552  -0.38480
 Alpha  occ. eigenvalues --   -0.38188  -0.38090  -0.37550  -0.37310  -0.37085
 Alpha  occ. eigenvalues --   -0.36840  -0.36654  -0.36531  -0.36216  -0.36100
 Alpha  occ. eigenvalues --   -0.35972  -0.35757  -0.35692  -0.35615  -0.35221
 Alpha  occ. eigenvalues --   -0.35161  -0.34862  -0.34533  -0.34160  -0.34096
 Alpha  occ. eigenvalues --   -0.33704  -0.33387  -0.32869  -0.32418  -0.32370
 Alpha  occ. eigenvalues --   -0.32056  -0.31945  -0.31691  -0.31399  -0.31335
 Alpha  occ. eigenvalues --   -0.31081  -0.30995  -0.30625  -0.30190  -0.29939
 Alpha  occ. eigenvalues --   -0.29447  -0.28607  -0.27219  -0.26650  -0.26188
 Alpha  occ. eigenvalues --   -0.25805  -0.25619  -0.25340  -0.24775  -0.24152
 Alpha  occ. eigenvalues --   -0.22846  -0.21540  -0.18823
 Alpha virt. eigenvalues --   -0.06604  -0.03536  -0.02396   0.02176   0.03411
 Alpha virt. eigenvalues --    0.04229   0.05379   0.06177   0.06920   0.07816
 Alpha virt. eigenvalues --    0.08112   0.08575   0.09969   0.10176   0.10422
 Alpha virt. eigenvalues --    0.10948   0.11349   0.11693   0.11854   0.12036
 Alpha virt. eigenvalues --    0.12111   0.12947   0.13041   0.13153   0.13384
 Alpha virt. eigenvalues --    0.13657   0.14137   0.14304   0.14460   0.14789
 Alpha virt. eigenvalues --    0.15087   0.15136   0.15281   0.15503   0.15848
 Alpha virt. eigenvalues --    0.15881   0.16137   0.16353   0.16428   0.16774
 Alpha virt. eigenvalues --    0.16891   0.17038   0.17255   0.17404   0.17545
 Alpha virt. eigenvalues --    0.17680   0.17726   0.17899   0.18168   0.18407
 Alpha virt. eigenvalues --    0.18630   0.18809   0.18837   0.19189   0.19302
 Alpha virt. eigenvalues --    0.19581   0.19836   0.19933   0.20110   0.20492
 Alpha virt. eigenvalues --    0.20550   0.20637   0.20886   0.20955   0.21000
 Alpha virt. eigenvalues --    0.21071   0.21320   0.21584   0.21713   0.21853
 Alpha virt. eigenvalues --    0.22290   0.22442   0.22653   0.22951   0.23116
 Alpha virt. eigenvalues --    0.23454   0.23713   0.24147   0.24260   0.24706
 Alpha virt. eigenvalues --    0.24906   0.25136   0.25363   0.25793   0.25898
 Alpha virt. eigenvalues --    0.26061   0.26225   0.26608   0.26635   0.26905
 Alpha virt. eigenvalues --    0.27072   0.27266   0.27468   0.27800   0.28264
 Alpha virt. eigenvalues --    0.28401   0.28761   0.29081   0.29187   0.29634
 Alpha virt. eigenvalues --    0.29852   0.30114   0.30253   0.30775   0.31204
 Alpha virt. eigenvalues --    0.31353   0.32009   0.32809   0.33243   0.33681
 Alpha virt. eigenvalues --    0.34929   0.35514   0.36092   0.36516   0.37004
 Alpha virt. eigenvalues --    0.37428   0.38086   0.38875   0.39320   0.40554
 Alpha virt. eigenvalues --    0.41051   0.41875   0.42504   0.44017   0.46881
 Alpha virt. eigenvalues --    0.47150   0.47304   0.48832   0.49447   0.49744
 Alpha virt. eigenvalues --    0.50059   0.50562   0.50715   0.51138   0.51487
 Alpha virt. eigenvalues --    0.51711   0.51973   0.52328   0.52757   0.52926
 Alpha virt. eigenvalues --    0.53145   0.53687   0.54247   0.54541   0.54922
 Alpha virt. eigenvalues --    0.55321   0.55733   0.55927   0.56730   0.56782
 Alpha virt. eigenvalues --    0.56996   0.57365   0.57640   0.57804   0.58096
 Alpha virt. eigenvalues --    0.58392   0.58483   0.58682   0.58808   0.58921
 Alpha virt. eigenvalues --    0.59140   0.59669   0.59767   0.60071   0.60380
 Alpha virt. eigenvalues --    0.60545   0.61060   0.61128   0.61391   0.61644
 Alpha virt. eigenvalues --    0.61817   0.62296   0.63075   0.63182   0.63535
 Alpha virt. eigenvalues --    0.63843   0.64157   0.65003   0.65103   0.65364
 Alpha virt. eigenvalues --    0.65475   0.65837   0.66419   0.66894   0.67123
 Alpha virt. eigenvalues --    0.67235   0.67636   0.67766   0.68325   0.68864
 Alpha virt. eigenvalues --    0.69006   0.69396   0.69447   0.69963   0.70524
 Alpha virt. eigenvalues --    0.70583   0.70828   0.71148   0.71644   0.71940
 Alpha virt. eigenvalues --    0.72341   0.72617   0.72891   0.73519   0.73619
 Alpha virt. eigenvalues --    0.74007   0.74445   0.74891   0.75194   0.75681
 Alpha virt. eigenvalues --    0.76218   0.76507   0.76627   0.77319   0.77771
 Alpha virt. eigenvalues --    0.77908   0.78154   0.78451   0.78648   0.79292
 Alpha virt. eigenvalues --    0.79732   0.80097   0.80452   0.80933   0.81330
 Alpha virt. eigenvalues --    0.81600   0.81833   0.82139   0.82668   0.82873
 Alpha virt. eigenvalues --    0.83203   0.83695   0.83838   0.83994   0.84267
 Alpha virt. eigenvalues --    0.84649   0.84726   0.84851   0.85224   0.85446
 Alpha virt. eigenvalues --    0.85611   0.85882   0.86095   0.86427   0.86744
 Alpha virt. eigenvalues --    0.86839   0.87364   0.87506   0.87650   0.87811
 Alpha virt. eigenvalues --    0.87983   0.88309   0.88563   0.88820   0.89028
 Alpha virt. eigenvalues --    0.89264   0.89300   0.89788   0.90042   0.90294
 Alpha virt. eigenvalues --    0.90395   0.90737   0.90875   0.90983   0.91139
 Alpha virt. eigenvalues --    0.91666   0.91739   0.91931   0.92393   0.92589
 Alpha virt. eigenvalues --    0.92731   0.92876   0.93437   0.93610   0.93897
 Alpha virt. eigenvalues --    0.94121   0.94588   0.94725   0.94887   0.95336
 Alpha virt. eigenvalues --    0.95522   0.96072   0.96152   0.96578   0.96770
 Alpha virt. eigenvalues --    0.96906   0.97114   0.97271   0.97822   0.97969
 Alpha virt. eigenvalues --    0.98302   0.99056   0.99294   0.99864   1.00448
 Alpha virt. eigenvalues --    1.00612   1.00853   1.01305   1.01741   1.02083
 Alpha virt. eigenvalues --    1.03088   1.03486   1.04527   1.04742   1.05189
 Alpha virt. eigenvalues --    1.05480   1.06052   1.06630   1.06718   1.07839
 Alpha virt. eigenvalues --    1.08190   1.08692   1.08887   1.10085   1.10662
 Alpha virt. eigenvalues --    1.11470   1.12031   1.12546   1.12589   1.13510
 Alpha virt. eigenvalues --    1.13739   1.14565   1.15126   1.15573   1.16689
 Alpha virt. eigenvalues --    1.17070   1.17866   1.18404   1.19054   1.19569
 Alpha virt. eigenvalues --    1.19843   1.20389   1.20958   1.21186   1.21889
 Alpha virt. eigenvalues --    1.22177   1.23515   1.23859   1.24123   1.24670
 Alpha virt. eigenvalues --    1.25066   1.25642   1.26363   1.27441   1.27623
 Alpha virt. eigenvalues --    1.28454   1.29480   1.30685   1.31005   1.32214
 Alpha virt. eigenvalues --    1.32845   1.33075   1.33877   1.34276   1.34904
 Alpha virt. eigenvalues --    1.35824   1.36892   1.37461   1.37876   1.38299
 Alpha virt. eigenvalues --    1.39459   1.39884   1.40279   1.41129   1.41605
 Alpha virt. eigenvalues --    1.42064   1.42757   1.43322   1.44255   1.44578
 Alpha virt. eigenvalues --    1.45161   1.45240   1.45868   1.46091   1.46364
 Alpha virt. eigenvalues --    1.46682   1.47596   1.47796   1.48328   1.48587
 Alpha virt. eigenvalues --    1.49195   1.49437   1.50103   1.51423   1.51537
 Alpha virt. eigenvalues --    1.52927   1.53149   1.53639   1.54391   1.55662
 Alpha virt. eigenvalues --    1.56577   1.57926   1.58049   1.59054   1.60066
 Alpha virt. eigenvalues --    1.61236   1.62461   1.63192   1.63947   1.65095
 Alpha virt. eigenvalues --    1.65240   1.65671   1.66595   1.66931   1.67602
 Alpha virt. eigenvalues --    1.67824   1.68266   1.68658   1.69787   1.70328
 Alpha virt. eigenvalues --    1.71513   1.71782   1.72454   1.73344   1.74555
 Alpha virt. eigenvalues --    1.75592   1.76132   1.76428   1.77447   1.77532
 Alpha virt. eigenvalues --    1.78646   1.78821   1.79203   1.79922   1.80046
 Alpha virt. eigenvalues --    1.80439   1.81245   1.81406   1.82365   1.82539
 Alpha virt. eigenvalues --    1.82686   1.83324   1.83673   1.84487   1.85058
 Alpha virt. eigenvalues --    1.85201   1.85710   1.85855   1.86292   1.87208
 Alpha virt. eigenvalues --    1.87550   1.88076   1.88215   1.88927   1.89410
 Alpha virt. eigenvalues --    1.90215   1.90398   1.90911   1.91361   1.91558
 Alpha virt. eigenvalues --    1.91825   1.92076   1.92147   1.92561   1.92709
 Alpha virt. eigenvalues --    1.93007   1.93289   1.93615   1.93993   1.94225
 Alpha virt. eigenvalues --    1.94302   1.94610   1.94681   1.95195   1.95783
 Alpha virt. eigenvalues --    1.96139   1.96578   1.97013   1.98116   1.98326
 Alpha virt. eigenvalues --    1.98932   1.99578   1.99993   2.00467   2.01181
 Alpha virt. eigenvalues --    2.02067   2.02269   2.02944   2.03107   2.03334
 Alpha virt. eigenvalues --    2.04032   2.04558   2.05425   2.06260   2.06649
 Alpha virt. eigenvalues --    2.06678   2.07112   2.07477   2.07877   2.08464
 Alpha virt. eigenvalues --    2.08713   2.09665   2.10088   2.10476   2.10562
 Alpha virt. eigenvalues --    2.10861   2.11392   2.12271   2.12594   2.13014
 Alpha virt. eigenvalues --    2.13322   2.13887   2.14430   2.14470   2.15275
 Alpha virt. eigenvalues --    2.15830   2.16075   2.16411   2.16542   2.17305
 Alpha virt. eigenvalues --    2.18017   2.18074   2.18504   2.18648   2.19532
 Alpha virt. eigenvalues --    2.19570   2.20123   2.20194   2.20542   2.20807
 Alpha virt. eigenvalues --    2.21347   2.21415   2.22262   2.22591   2.22966
 Alpha virt. eigenvalues --    2.23315   2.23663   2.23917   2.24139   2.24690
 Alpha virt. eigenvalues --    2.25310   2.25888   2.26323   2.26738   2.26782
 Alpha virt. eigenvalues --    2.26975   2.27128   2.27825   2.28290   2.28738
 Alpha virt. eigenvalues --    2.29080   2.29937   2.31376   2.31997   2.32299
 Alpha virt. eigenvalues --    2.32669   2.33073   2.33327   2.33931   2.34283
 Alpha virt. eigenvalues --    2.35263   2.35746   2.35832   2.37154   2.37638
 Alpha virt. eigenvalues --    2.38396   2.39043   2.39385   2.39987   2.41257
 Alpha virt. eigenvalues --    2.41723   2.42917   2.43510   2.44375   2.44927
 Alpha virt. eigenvalues --    2.46948   2.47747   2.48028   2.48896   2.49388
 Alpha virt. eigenvalues --    2.49619   2.49998   2.50439   2.50777   2.52644
 Alpha virt. eigenvalues --    2.53639   2.54207   2.56145   2.57458   2.58596
 Alpha virt. eigenvalues --    2.58833   2.60495   2.61201   2.61512   2.62234
 Alpha virt. eigenvalues --    2.62483   2.63296   2.64363   2.64763   2.65098
 Alpha virt. eigenvalues --    2.65979   2.67810   2.69013   2.69697   2.70424
 Alpha virt. eigenvalues --    2.70551   2.73381   2.77397   2.78213   2.78275
 Alpha virt. eigenvalues --    2.78596   2.78659   2.79550   2.80241   2.80899
 Alpha virt. eigenvalues --    2.81221   2.81318   2.81688   2.82237   2.82823
 Alpha virt. eigenvalues --    2.84209   2.84684   2.85326   2.86479   2.88297
 Alpha virt. eigenvalues --    2.89098   2.90143   2.91848   2.92850   2.94932
 Alpha virt. eigenvalues --    2.96354   2.97308   2.98056   2.99281   3.02791
 Alpha virt. eigenvalues --    3.03210   3.05006   3.07145   3.10971   3.12034
 Alpha virt. eigenvalues --    3.12632   3.13604   3.21653   3.25267   3.31162
 Alpha virt. eigenvalues --    3.44997  13.34261
          Condensed to atoms (all electrons):
 Mulliken charges:
               1
     1  C    0.313379
     2  C    0.104746
     3  C   -0.154450
     4  C   -0.131679
     5  C   -0.182437
     6  C    0.285640
     7  C    0.041079
     8  C   -0.171338
     9  C   -0.146189
    10  C   -0.188047
    11  H    0.219449
    12  H    0.179661
    13  H    0.164127
    14  H    0.222959
    15  H    0.180943
    16  H    0.170950
    17  N   -0.544519
    18  N   -0.472900
    19  Ir  -0.125876
    20  O   -0.516242
    21  O   -0.500512
    22  O   -0.521222
    23  B    0.465785
    24  B    0.472067
    25  B    0.475688
    26  O   -0.545727
    27  O   -0.519823
    28  C    0.291176
    29  C    0.302016
    30  C    0.294102
    31  C    0.301285
    32  C    0.292365
    33  C    0.299017
    34  O   -0.516887
    35  C   -0.512571
    36  H    0.177425
    37  H    0.147024
    38  H    0.166862
    39  C   -0.515887
    40  H    0.155214
    41  H    0.148525
    42  H    0.184451
    43  C   -0.504613
    44  H    0.143590
    45  H    0.190271
    46  H    0.155738
    47  C   -0.506180
    48  H    0.148836
    49  H    0.169942
    50  H    0.159433
    51  C   -0.507000
    52  H    0.141451
    53  H    0.183628
    54  H    0.173517
    55  C   -0.512603
    56  H    0.147519
    57  H    0.171230
    58  H    0.166993
    59  C   -0.507406
    60  H    0.151087
    61  H    0.166628
    62  H    0.165421
    63  C   -0.510143
    64  H    0.168897
    65  H    0.150047
    66  H    0.171138
    67  C   -0.513126
    68  H    0.163256
    69  H    0.175656
    70  H    0.152182
    71  C   -0.510553
    72  H    0.159885
    73  H    0.156793
    74  H    0.170211
    75  C   -0.512794
    76  H    0.169757
    77  H    0.148805
    78  H    0.170898
    79  C   -0.507572
    80  H    0.172824
    81  H    0.145340
    82  H    0.187897
    83  H    0.194272
    84  C    0.578459
    85  O   -0.524275
    86  C   -0.401478
    87  H    0.148212
    88  H    0.163425
    89  C   -0.359822
    90  H    0.243805
    91  H    0.179565
    92  N   -0.365330
    93  C   -0.384860
    94  H    0.158819
    95  H    0.220590
    96  H    0.164436
    97  C   -0.264380
    98  H    0.149469
    99  H    0.129495
   100  C   -0.279711
   101  H    0.127128
   102  H    0.177165
   103  C   -0.281566
   104  H    0.147984
   105  H    0.137651
   106  C   -0.498369
   107  H    0.159410
   108  H    0.155900
   109  H    0.164475
   110  H    0.181958
   111  H    0.181064
 Sum of Mulliken charges =  -0.00000
 Mulliken charges with hydrogens summed into heavy atoms:
               1
     1  C    0.313379
     2  C    0.324195
     3  C    0.026615
     4  C    0.047983
     5  C   -0.018310
     6  C    0.285640
     7  C    0.264039
     8  C    0.010619
     9  C    0.034754
    10  C   -0.017097
    17  N   -0.544519
    18  N   -0.472900
    19  Ir   0.068396
    20  O   -0.516242
    21  O   -0.500512
    22  O   -0.521222
    23  B    0.465785
    24  B    0.472067
    25  B    0.475688
    26  O   -0.545727
    27  O   -0.519823
    28  C    0.291176
    29  C    0.302016
    30  C    0.294102
    31  C    0.301285
    32  C    0.292365
    33  C    0.299017
    34  O   -0.516887
    35  C   -0.021261
    39  C   -0.027698
    43  C   -0.015014
    47  C   -0.027970
    51  C   -0.008404
    55  C   -0.026861
    59  C   -0.024271
    63  C   -0.020062
    67  C   -0.022032
    71  C   -0.023664
    75  C   -0.023333
    79  C   -0.001510
    84  C    0.578459
    85  O   -0.524275
    86  C   -0.089841
    89  C    0.063548
    92  N   -0.365330
    93  C    0.158986
    97  C    0.014585
   100  C    0.024583
   103  C    0.004068
   106  C   -0.018583
 APT charges:
               1
     1  C    0.151421
     2  C    0.055677
     3  C   -0.035505
     4  C    0.108589
     5  C   -0.178620
     6  C    0.213290
     7  C    0.070883
     8  C   -0.046969
     9  C    0.098133
    10  C   -0.190083
    11  H    0.124738
    12  H    0.031395
    13  H    0.039785
    14  H    0.080208
    15  H    0.030322
    16  H    0.043716
    17  N   -0.098029
    18  N   -0.171689
    19  Ir  -0.902481
    20  O   -0.978141
    21  O   -0.956612
    22  O   -1.036924
    23  B    1.290613
    24  B    1.276989
    25  B    1.559224
    26  O   -1.057725
    27  O   -0.982494
    28  C    0.485925
    29  C    0.499136
    30  C    0.520820
    31  C    0.540678
    32  C    0.469559
    33  C    0.472174
    34  O   -0.975947
    35  C   -0.009865
    36  H    0.004680
    37  H   -0.019837
    38  H   -0.001159
    39  C   -0.035679
    40  H   -0.006470
    41  H   -0.022866
    42  H    0.016933
    43  C   -0.045956
    44  H   -0.030202
    45  H    0.034455
    46  H   -0.001718
    47  C    0.008524
    48  H   -0.023330
    49  H    0.000469
    50  H   -0.009987
    51  C   -0.032550
    52  H   -0.027471
    53  H    0.021292
    54  H    0.001384
    55  C   -0.003779
    56  H   -0.017811
    57  H   -0.002336
    58  H   -0.003647
    59  C    0.006465
    60  H   -0.023052
    61  H   -0.000526
    62  H   -0.004108
    63  C   -0.031715
    64  H   -0.000422
    65  H   -0.022750
    66  H   -0.004344
    67  C   -0.017571
    68  H   -0.004594
    69  H    0.008323
    70  H   -0.014899
    71  C   -0.052823
    72  H   -0.000934
    73  H   -0.021078
    74  H    0.009654
    75  C   -0.014035
    76  H    0.005021
    77  H   -0.018668
    78  H    0.004961
    79  C   -0.036667
    80  H    0.008634
    81  H   -0.028417
    82  H    0.008917
    83  H    0.025895
    84  C    0.851118
    85  O   -0.695648
    86  C    0.008963
    87  H   -0.040632
    88  H   -0.022097
    89  C    0.134416
    90  H    0.050200
    91  H   -0.063676
    92  N   -0.728161
    93  C    0.217406
    94  H   -0.014858
    95  H    0.081219
    96  H   -0.047600
    97  C    0.112059
    98  H   -0.011439
    99  H   -0.063981
   100  C    0.068330
   101  H   -0.057040
   102  H    0.010599
   103  C    0.134198
   104  H   -0.046839
   105  H   -0.061701
   106  C    0.058663
   107  H   -0.042865
   108  H   -0.021724
   109  H   -0.012718
   110  H    0.035773
   111  H    0.041634
 Sum of APT charges =  -0.00000
 APT charges with hydrogens summed into heavy atoms:
               1
     1  C    0.151421
     2  C    0.180415
     3  C    0.006129
     4  C    0.139984
     5  C   -0.138835
     6  C    0.213290
     7  C    0.151090
     8  C   -0.011196
     9  C    0.128455
    10  C   -0.146367
    17  N   -0.098029
    18  N   -0.171689
    19  Ir  -0.876586
    20  O   -0.978141
    21  O   -0.956612
    22  O   -1.036924
    23  B    1.290613
    24  B    1.276989
    25  B    1.559224
    26  O   -1.057725
    27  O   -0.982494
    28  C    0.485925
    29  C    0.499136
    30  C    0.520820
    31  C    0.540678
    32  C    0.469559
    33  C    0.472174
    34  O   -0.975947
    35  C   -0.026182
    39  C   -0.048081
    43  C   -0.043420
    47  C   -0.024324
    51  C   -0.037344
    55  C   -0.027572
    59  C   -0.021220
    63  C   -0.059231
    67  C   -0.028741
    71  C   -0.065181
    75  C   -0.022722
    79  C   -0.047533
    84  C    0.851118
    85  O   -0.695648
    86  C   -0.053766
    89  C    0.120940
    92  N   -0.728161
    93  C    0.236167
    97  C    0.036638
   100  C    0.021889
   103  C    0.025658
   106  C   -0.018643
 Electronic spatial extent (au):  <R**2>=          29519.6737
 Charge=             -0.0000 electrons
 Dipole moment (field-independent basis, Debye):
    X=              2.3814    Y=             -2.0420    Z=             -4.2258  Tot=              5.2629
 Quadrupole moment (field-independent basis, Debye-Ang):
   XX=           -310.7341   YY=           -291.4471   ZZ=           -298.3061
   XY=             -7.8363   XZ=            -20.4411   YZ=             -3.3803
 Traceless Quadrupole moment (field-independent basis, Debye-Ang):
   XX=            -10.5716   YY=              8.7153   ZZ=              1.8563
   XY=             -7.8363   XZ=            -20.4411   YZ=             -3.3803
 Octapole moment (field-independent basis, Debye-Ang**2):
  XXX=            -95.0499  YYY=             18.3559  ZZZ=           -108.4827  XYY=             -6.1983
  XXY=            -32.8646  XXZ=            -60.1687  XZZ=             -1.1453  YZZ=            -10.1566
  YYZ=            -18.6562  XYZ=              2.8997
 Hexadecapole moment (field-independent basis, Debye-Ang**3):
 XXXX=         -19659.3906 YYYY=         -11267.0932 ZZZZ=          -8242.4026 XXXY=              9.8007
 XXXZ=           -230.6294 YYYX=           -163.0210 YYYZ=            -95.6765 ZZZX=           -325.5626
 ZZZY=            -60.0952 XXYY=          -4943.9483 XXZZ=          -4622.1619 YYZZ=          -3386.8604
 XXYZ=             50.0296 YYXZ=             61.7442 ZZXY=            -87.1342
 N-N= 8.117948127631D+03 E-N=-2.151377083209D+04  KE= 2.191871943972D+03
  Exact polarizability:     506.797     -39.120     485.233     -25.878     -21.360     488.085
 Approx polarizability:     677.796     -76.157     701.061     -37.569     -55.721     757.368
   1 Symmetry operations used in ECPInt.
 ECPInt:  NShTT=   53301 NPrTT=  320676 LenC2=   40123 LenP2D=  123030.
 LDataN:  DoStor=T MaxTD1= 8 Len=  415
 Calling FoFJK, ICntrl=    100127 FMM=F ISym2X=0 I1Cent= 0 IOpClX= 0 NMat=1 NMatS=1 NMatT=0.
 Defaulting to unpruned grid for atomic number  77.
 Defaulting to unpruned grid for atomic number  77.
 Defaulting to unpruned grid for atomic number  77.
 Defaulting to unpruned grid for atomic number  77.
 Defaulting to unpruned grid for atomic number  77.
 Defaulting to unpruned grid for atomic number  77.
 Defaulting to unpruned grid for atomic number  77.
 Defaulting to unpruned grid for atomic number  77.
 Defaulting to unpruned grid for atomic number  77.
 Defaulting to unpruned grid for atomic number  77.
 Defaulting to unpruned grid for atomic number  77.
 Defaulting to unpruned grid for atomic number  77.
 Defaulting to unpruned grid for atomic number  77.
 Defaulting to unpruned grid for atomic number  77.
 Defaulting to unpruned grid for atomic number  77.
 Defaulting to unpruned grid for atomic number  77.
 Full mass-weighted force constant matrix:
 Low frequencies ---  -71.9476   -7.0912   -6.0319   -0.0005    0.0003    0.0005
 Low frequencies ---    4.5011   17.6080   21.5973
 ******    1 imaginary frequencies (negative Signs) ****** 
 Diagonal vibrational polarizability:
      172.3544927     115.1660499      62.3238428
 Harmonic frequencies (cm**-1), IR intensities (KM/Mole), Raman scattering
 activities (A**4/AMU), depolarization ratios for plane and unpolarized
 incident light, reduced masses (AMU), force constants (mDyne/A),
 and normal coordinates:
                      1                      2                      3
                      A                      A                      A
 Frequencies --    -71.9411                17.5174                21.5618
 Red. masses --      6.5528                 4.3449                 4.2272
 Frc consts  --      0.0200                 0.0008                 0.0012
 IR Inten    --     14.2019                 0.3354                 0.0861
  Atom AN      X      Y      Z        X      Y      Z        X      Y      Z
     1   6     0.01  -0.02   0.00    -0.01  -0.02   0.05     0.01   0.00  -0.04
     2   6     0.03  -0.01   0.01     0.00   0.02   0.06     0.01  -0.03  -0.04
     3   6     0.03  -0.01   0.01     0.00   0.03   0.07     0.03  -0.02  -0.05
     4   6     0.02  -0.01   0.00     0.00   0.01   0.08     0.04   0.01  -0.05
     5   6     0.01  -0.02  -0.00    -0.01  -0.02   0.07     0.03   0.02  -0.05
     6   6     0.00  -0.02  -0.00    -0.02  -0.05   0.03    -0.02   0.00  -0.04
     7   6     0.01  -0.01   0.01    -0.01  -0.06   0.02    -0.05  -0.01  -0.02
     8   6     0.00  -0.00   0.01    -0.03  -0.10   0.01    -0.06  -0.00  -0.03
     9   6    -0.00  -0.01  -0.00    -0.05  -0.11   0.01    -0.05   0.00  -0.05
    10   6    -0.00  -0.02  -0.00    -0.04  -0.09   0.03    -0.03   0.01  -0.05
    11   1     0.03  -0.00   0.01     0.00   0.03   0.05     0.01  -0.05  -0.03
    12   1     0.02  -0.01   0.00     0.01   0.02   0.09     0.06   0.02  -0.06
    13   1     0.00  -0.03  -0.01    -0.01  -0.03   0.07     0.03   0.04  -0.05
    14   1     0.01  -0.00   0.02     0.01  -0.04   0.01    -0.05  -0.01  -0.01
    15   1    -0.01  -0.01  -0.00    -0.07  -0.15   0.01    -0.06   0.01  -0.06
    16   1    -0.01  -0.02  -0.01    -0.06  -0.11   0.03    -0.03   0.01  -0.06
    17   7     0.02  -0.01   0.01    -0.00  -0.00   0.04     0.00  -0.02  -0.03
    18   7     0.00  -0.02   0.00     0.00  -0.03   0.03    -0.02  -0.01  -0.02
    19  77    -0.02  -0.03  -0.00     0.00  -0.00   0.02    -0.00  -0.02  -0.01
    20   8    -0.01  -0.00  -0.01    -0.04  -0.01   0.02     0.04  -0.05  -0.00
    21   8    -0.01   0.02   0.00     0.02   0.04  -0.03    -0.03   0.03  -0.00
    22   8     0.18   0.03   0.08     0.01  -0.00   0.02     0.02  -0.01  -0.01
    23   5    -0.01   0.01   0.00     0.00   0.01  -0.01    -0.02   0.00  -0.01
    24   5    -0.03  -0.02  -0.01    -0.02  -0.00   0.01     0.02  -0.02   0.01
    25   5     0.30   0.03   0.12     0.01  -0.00   0.02     0.01  -0.02  -0.01
    26   8     0.19   0.02   0.07     0.01  -0.00   0.02     0.01  -0.03  -0.02
    27   8    -0.03  -0.04   0.01    -0.02   0.00  -0.01     0.03   0.01   0.03
    28   6    -0.01  -0.01   0.01    -0.04  -0.01  -0.02     0.05  -0.00   0.04
    29   6     0.00  -0.00   0.00    -0.06  -0.03  -0.01     0.04  -0.04   0.01
    30   6     0.08  -0.05   0.03     0.02   0.01   0.03     0.03  -0.00  -0.01
    31   6     0.08  -0.01   0.03     0.02   0.00   0.03     0.02  -0.02  -0.02
    32   6    -0.01   0.01  -0.00     0.00   0.04  -0.06    -0.05   0.04   0.00
    33   6    -0.00   0.01  -0.01    -0.02   0.02  -0.06    -0.06   0.02  -0.01
    34   8    -0.01   0.00  -0.01    -0.02  -0.00  -0.03    -0.04  -0.00  -0.02
    35   6     0.01   0.01  -0.01    -0.09  -0.04   0.01     0.08  -0.06   0.01
    36   1     0.00   0.01  -0.02    -0.08  -0.04   0.03     0.09  -0.07   0.02
    37   1     0.02   0.02   0.00    -0.10  -0.05  -0.01     0.08  -0.06   0.02
    38   1     0.02   0.02  -0.01    -0.10  -0.05   0.02     0.07  -0.08  -0.01
    39   6     0.01  -0.00   0.02    -0.06  -0.03  -0.03     0.01  -0.03  -0.01
    40   1     0.02   0.01   0.01    -0.07  -0.03  -0.02     0.01  -0.06  -0.03
    41   1     0.02  -0.00   0.03    -0.08  -0.03  -0.05     0.02  -0.03   0.00
    42   1     0.00  -0.01   0.02    -0.04  -0.01  -0.04    -0.01  -0.01  -0.01
    43   6    -0.01  -0.01  -0.02    -0.05  -0.02  -0.00     0.09  -0.01   0.05
    44   1     0.02   0.01  -0.01    -0.07  -0.03  -0.01     0.10  -0.01   0.06
    45   1    -0.02  -0.01  -0.06    -0.04  -0.02   0.02     0.10  -0.03   0.05
    46   1    -0.04  -0.03  -0.00    -0.03  -0.01  -0.01     0.10   0.02   0.06
    47   6    -0.01  -0.01   0.03    -0.05  -0.01  -0.05     0.04   0.03   0.05
    48   1     0.01   0.00   0.03    -0.07  -0.02  -0.06     0.06   0.02   0.05
    49   1    -0.01  -0.03   0.03    -0.04  -0.01  -0.06     0.04   0.05   0.07
    50   1    -0.01  -0.02   0.05    -0.05  -0.01  -0.07     0.01   0.03   0.04
    51   6    -0.01   0.01  -0.00    -0.00   0.04  -0.07    -0.03   0.06   0.02
    52   1    -0.01   0.00  -0.01    -0.01   0.05  -0.09    -0.04   0.08   0.02
    53   1    -0.01   0.00   0.00    -0.01   0.02  -0.05    -0.01   0.05   0.02
    54   1    -0.01   0.01   0.00     0.02   0.06  -0.06    -0.02   0.08   0.03
    55   6    -0.00   0.02  -0.01     0.01   0.07  -0.08    -0.08   0.07   0.00
    56   1    -0.00   0.02  -0.01     0.00   0.07  -0.10    -0.09   0.08   0.00
    57   1    -0.01   0.02  -0.00     0.03   0.09  -0.07    -0.06   0.08   0.01
    58   1    -0.00   0.02  -0.01     0.02   0.08  -0.07    -0.09   0.05  -0.01
    59   6    -0.01   0.00  -0.01    -0.04   0.01  -0.09    -0.07   0.03  -0.01
    60   1    -0.01   0.01  -0.01    -0.04   0.02  -0.11    -0.09   0.05  -0.01
    61   1    -0.01   0.00  -0.02    -0.06  -0.01  -0.09    -0.08   0.01  -0.02
    62   1    -0.00   0.00  -0.01    -0.05  -0.00  -0.08    -0.05   0.04  -0.00
    63   6    -0.01   0.01  -0.01    -0.02   0.02  -0.07    -0.09   0.01  -0.03
    64   1    -0.01   0.01  -0.01    -0.03   0.00  -0.07    -0.10  -0.02  -0.04
    65   1    -0.01   0.01  -0.02    -0.02   0.04  -0.09    -0.11   0.03  -0.03
    66   1    -0.00   0.01  -0.01    -0.00   0.03  -0.05    -0.08   0.00  -0.03
    67   6     0.04  -0.09   0.00     0.03   0.01   0.03     0.01  -0.02  -0.02
    68   1     0.04  -0.05   0.01     0.03   0.01   0.03     0.01  -0.03  -0.02
    69   1     0.09  -0.16   0.02     0.02   0.02   0.03     0.00  -0.02  -0.00
    70   1    -0.04  -0.11  -0.03     0.04   0.01   0.03     0.03  -0.02  -0.02
    71   6     0.01   0.11   0.01     0.03  -0.01   0.03     0.03  -0.03  -0.04
    72   1     0.03   0.13   0.02     0.03  -0.02   0.03     0.02  -0.04  -0.05
    73   1    -0.07   0.10  -0.02     0.04  -0.01   0.03     0.05  -0.03  -0.04
    74   1     0.04   0.18   0.03     0.03  -0.02   0.03     0.04  -0.03  -0.04
    75   6    -0.01  -0.01  -0.02     0.04   0.00   0.03     0.06   0.00  -0.01
    76   1    -0.03   0.09  -0.02     0.04  -0.01   0.03     0.06  -0.01  -0.02
    77   1    -0.09  -0.06  -0.05     0.05   0.01   0.03     0.07   0.01  -0.02
    78   1     0.00  -0.04  -0.01     0.03   0.01   0.03     0.06   0.02  -0.01
    79   6     0.11  -0.16   0.02     0.02   0.02   0.03     0.02   0.01   0.01
    80   1     0.11  -0.14   0.03     0.02   0.03   0.03     0.03   0.02   0.02
    81   1     0.07  -0.21  -0.04     0.03   0.03   0.03     0.03   0.01   0.02
    82   1     0.17  -0.20   0.06     0.01   0.02   0.02     0.00   0.01   0.01
    83   1     0.04   0.09   0.05     0.02   0.01   0.01    -0.01  -0.01   0.01
    84   6    -0.09   0.10  -0.03     0.02  -0.01  -0.01     0.01  -0.03   0.02
    85   8    -0.12   0.13  -0.02     0.04   0.00   0.00    -0.00  -0.02   0.02
    86   6    -0.08   0.03  -0.00    -0.00  -0.02  -0.04     0.02  -0.02   0.04
    87   1    -0.08   0.02   0.00    -0.03  -0.06  -0.02     0.05  -0.06   0.05
    88   1    -0.04   0.01  -0.02    -0.01  -0.03  -0.08     0.00  -0.02   0.02
    89   6    -0.04   0.21  -0.08     0.01  -0.01   0.01     0.01  -0.03  -0.01
    90   1    -0.11   0.14  -0.11     0.03  -0.01   0.01    -0.00  -0.02  -0.01
    91   1     0.09   0.20   0.04     0.02  -0.01   0.01     0.01  -0.03  -0.02
    92   7    -0.05   0.11  -0.07     0.01  -0.01  -0.00     0.01  -0.04  -0.00
    93   6     0.02   0.08  -0.08    -0.01  -0.03  -0.01     0.01  -0.05  -0.01
    94   1    -0.00   0.03  -0.06    -0.02  -0.03  -0.02     0.02  -0.06   0.00
    95   1     0.05   0.13  -0.11    -0.01  -0.03  -0.00     0.02  -0.06  -0.02
    96   1     0.06   0.04  -0.09    -0.00  -0.03  -0.03     0.01  -0.05  -0.01
    97   6    -0.11   0.02   0.02     0.02   0.01  -0.03     0.03   0.03   0.09
    98   1    -0.13   0.04   0.04     0.04   0.02   0.02     0.05   0.03   0.11
    99   1    -0.12  -0.03   0.02     0.00  -0.01  -0.05     0.06   0.04   0.12
   100   6    -0.07   0.02   0.00     0.06   0.07  -0.08    -0.02   0.09   0.08
   101   1    -0.06   0.01  -0.02     0.03   0.06  -0.14    -0.04   0.10   0.06
   102   1    -0.05   0.04   0.01     0.08   0.09  -0.07    -0.05   0.09   0.05
   103   6    -0.07   0.01  -0.01     0.09   0.11  -0.08    -0.01   0.15   0.15
   104   1    -0.07   0.02   0.00     0.12   0.13  -0.01     0.01   0.15   0.17
   105   1    -0.09  -0.00  -0.02     0.07   0.08  -0.10     0.02   0.15   0.18
   106   6    -0.04   0.01  -0.03     0.14   0.18  -0.15    -0.07   0.22   0.14
   107   1    -0.04   0.00  -0.04     0.16   0.21  -0.14    -0.06   0.26   0.18
   108   1    -0.03   0.00  -0.04     0.12   0.17  -0.22    -0.09   0.22   0.12
   109   1    -0.02   0.02  -0.01     0.17   0.22  -0.13    -0.10   0.22   0.10
   110   1     0.01   0.00   0.01    -0.03  -0.11  -0.00    -0.08  -0.00  -0.03
   111   1     0.04  -0.00   0.01     0.01   0.05   0.08     0.04  -0.02  -0.05
                      4                      5                      6
                      A                      A                      A
 Frequencies --     26.3485                28.1946                37.1930
 Red. masses --      4.2704                 4.8289                 4.1086
 Frc consts  --      0.0017                 0.0023                 0.0033
 IR Inten    --      0.2704                 0.7583                 0.3658
  Atom AN      X      Y      Z        X      Y      Z        X      Y      Z
     1   6    -0.03  -0.01  -0.03     0.02  -0.00   0.01    -0.02   0.02  -0.02
     2   6    -0.03  -0.01  -0.03    -0.05  -0.06  -0.02    -0.02  -0.04  -0.03
     3   6    -0.04  -0.02  -0.03    -0.06  -0.07  -0.02    -0.03  -0.05  -0.06
     4   6    -0.04  -0.02  -0.03    -0.03  -0.05  -0.00    -0.03  -0.03  -0.07
     5   6    -0.03  -0.02  -0.03     0.01  -0.02   0.01    -0.03   0.00  -0.05
     6   6    -0.02  -0.01  -0.03     0.07   0.04   0.03    -0.02   0.05  -0.01
     7   6     0.00   0.01  -0.02     0.08   0.03   0.02    -0.04   0.05   0.02
     8   6    -0.00   0.00  -0.02     0.17   0.11   0.06    -0.04   0.09   0.02
     9   6    -0.01  -0.01  -0.03     0.21   0.15   0.09    -0.02   0.11   0.00
    10   6    -0.02  -0.02  -0.03     0.16   0.12   0.07    -0.01   0.08  -0.01
    11   1    -0.03  -0.01  -0.03    -0.07  -0.08  -0.03    -0.03  -0.06  -0.02
    12   1    -0.04  -0.02  -0.03    -0.04  -0.06  -0.00    -0.04  -0.04  -0.09
    13   1    -0.03  -0.02  -0.03     0.03  -0.00   0.03    -0.03   0.02  -0.06
    14   1     0.01   0.02  -0.02     0.05   0.00   0.00    -0.06   0.04   0.04
    15   1    -0.02  -0.02  -0.03     0.28   0.22   0.12    -0.01   0.14   0.00
    16   1    -0.03  -0.03  -0.03     0.20   0.15   0.10     0.01   0.10  -0.02
    17   7    -0.03  -0.01  -0.03    -0.01  -0.03  -0.01    -0.02  -0.00  -0.01
    18   7    -0.01  -0.00  -0.03     0.04   0.00   0.01    -0.03   0.03   0.01
    19  77    -0.01   0.00  -0.03    -0.01  -0.03  -0.01    -0.01   0.01   0.03
    20   8    -0.02   0.04  -0.03    -0.01  -0.02  -0.02    -0.02  -0.05   0.03
    21   8    -0.02  -0.06   0.00    -0.04  -0.00   0.01     0.05  -0.05  -0.03
[...]
 00515,-0.00000037,0.00000268,0.00000268,-0.00000248,0.00000198,0.00000
 095,0.00000090,-0.00000336,0.00000073,0.00000090,0.00000448,0.00000849
 ,-0.00000318,0.00000181,-0.00000387,0.00000576,-0.00000159,0.00000386,
 0.00000103,0.00000214,0.00000336,0.00000410,0.00000059,-0.00000059,-0.
 00000181,0.00000016,-0.00000180,-0.00000089,-0.00000101,0.00000513,0.0
 0000286,0.00000607,-0.00000004,-0.00000415,0.00000251,0.00000311,0.000
 00645,0.00000218,-0.00000419,-0.00000153,-0.00000637,0.00001612,0.0000
 0753,-0.00002613,-0.00002250,-0.00003477,0.00001578,0.00002006,-0.0000
 0097,-0.00000951,-0.00000449,0.00000426,0.00002295,0.00002335,-0.00001
 683,-0.00001754,-0.00001795,-0.00000640,0.00000392,-0.00000709,-0.0000
 0454,0.00000232,0.00000525,0.00000412,0.00001253,0.00000288,-0.0000111
 9,0.00000982,0.00000062,0.00000302,-0.00000272,0.00000416,-0.00000972,
 -0.00000268,-0.00000511,0.00000281,0.00000378,0.00000172,-0.00001006,0
 .00001216,-0.00000731,0.00000331,0.00000689,0.00000843,-0.00000948,0.0
 0000014,-0.00000085,0.00000918,-0.00000974,-0.00000347,-0.00001215,0.0
 0002961,0.00000204,0.00003366,-0.00000294,-0.00002135,-0.00004149,0.00
 003573,0.00000145,0.00001010,0.00001360,0.00000809,0.00000971,-0.00000
 419,-0.00001014,-0.00000992,-0.00000844,0.00006692,-0.00001119,-0.0000
 1699,-0.00000721,-0.00000949,0.00000778,-0.00002498,-0.00001311,-0.000
 02455,-0.00000689,-0.00008036,0.00006547,0.00001212,0.00001975,-0.0000
 9571,-0.00003414,0.00006402,0.00000696,0.00003029,0.00002300,-0.000051
 19,-0.00001712,-0.00001384,-0.00000700,-0.00000084,-0.00000124,-0.0000
 0159,0.00000231,-0.00000570,0.00000448,-0.00000207,0.00000189,0.000000
 27,0.00000251,0.00000304,-0.00000045,-0.00000331,-0.00000406,-0.000000
 05,0.00000104,0.00000121,0.00000108,0.00000141,0.00000011,-0.00000113,
 -0.00000034,-0.00000238,0.00000116,-0.00000069,0.00000064,0.00000039,0
 .00000038,0.00000115,-0.00000009,-0.00000044,0.00000019,-0.00000071,-0
 .00000100,-0.00000166,0.00000029,0.00000012,0.00000040,0.00000022,0.03
 406955,-0.13977539,0.26922293,-0.00129467,0.00065560,0.00055726,0.0039
 1776,0.00605931,-0.01927854,-0.04748154,0.00959861,0.00577190,0.003935
 27,-0.00966943,0.01847031,0.00076213,0.00459010,0.00390175,-0.00050877
 ,-0.00067520,-0.00034684,0.00001970,-0.00000616,-0.00001474,-0.0000183
 7,-0.00000944,0.00000991,0.00001994,-0.00005095,-0.00003524,-0.0000258
 7,0.00006535,0.00001315,-0.00120792,-0.00190059,-0.00045802,-0.0011064
 1,-0.00198385,-0.00146647,0.00013227,-0.00043794,0.00094697,-0.0000001
 2,-0.00000145,0.00000461,-0.00000251,-0.00000247,-0.00000243,0.0000682
 4,0.00002115,-0.00001832,0.00134522,0.00717614,0.00004715,-0.00002360,
 0.00005224,0.00008354,0.00030855,-0.00042357,-0.00019311,-0.00000441,-
 0.00008349,0.00020228,-0.00003004,-0.00007197,0.00002243,-0.00001623,0
 .00007104,0.00005188,0.00005779,0.00016524,-0.00001999,0.00009469,0.00
 001438,-0.00027602,-0.00010019,-0.00012161,-0.00005155,0.00000626,0.00
 005848,-0.00001528,-0.00003709,-0.00002894,0.00010604,-0.00002553,-0.0
 0000372,-0.00006496,0.00011181,0.00010690,-0.00001529,0.00001633,-0.00
 001487,0.00001059,0.00001774,-0.00002213,-0.00000313,0.00000546,0.0000
 1940,-0.00002785,0.00001476,0.00005075,-0.00001041,-0.00010095,-0.0001
 6329,0.00005619,-0.00002131,-0.00002007,0.00000506,0.00000079,-0.00001
 945,-0.00000726,0.00000241,0.00000164,0.00000454,0.00001412,0.00001208
 ,0.00001487,-0.00014173,0.00001324,-0.00010039,0.00009743,-0.00002383,
 0.00011882,0.00003501,-0.00003240,0.00001006,-0.00002081,0.00001228,-0
 .00002358,0.00001397,-0.00000812,0.00002489,-0.00000226,0.00000260,0.0
 0000111,-0.00000350,0.00000167,-0.00000775,0.00000830,-0.00001143,0.00
 000101,0.00000417,-0.00000121,0.00001617,-0.00000663,0.00000291,0.0000
 0275,0.00000705,-0.00000913,0.00000277,-0.00001043,-0.00000626,-0.0000
 1073,-0.00000060,-0.00000673,0.00000347,-0.00000621,-0.00000093,-0.000
 00119,0.00000283,0.00000588,-0.00000193,0.00000405,-0.00000329,0.00000
 487,-0.00000279,-0.00000448,0.00000382,-0.00000397,-0.00000193,-0.0000
 0334,0.00000379,-0.00000287,0.00000188,-0.00000076,0.00000240,-0.00000
 121,-0.00001918,0.00002545,-0.00002196,0.00000710,-0.00000625,0.000016
 37,0.00000042,-0.00003258,0.00000285,-0.00000830,0.00000288,-0.0000004
 9,-0.00002419,0.00000881,-0.00002138,0.00001692,-0.00000638,-0.0000085
 9,0.00000296,-0.00000432,0.00000274,0.00000154,-0.00000497,0.00001820,
 -0.00000123,0.00000169,0.00000093,0.00000019,-0.00000010,0.00000060,-0
 .00000051,-0.00000101,-0.00000032,-0.00000032,0.00000202,-0.00000081,-
 0.00000307,0.00000683,0.00000255,-0.00000066,-0.00000141,0.00000179,0.
 00000127,0.00000339,0.00000026,0.00000054,-0.00000055,-0.00000234,0.00
 000064,0.00000213,-0.00000380,-0.00000001,-0.00000026,-0.00000118,-0.0
 0000072,0.00000164,0.00000175,-0.00000255,0.00000188,0.00000197,-0.000
 00160,-0.00000102,-0.00001009,-0.00000216,0.00000192,0.00000206,-0.000
 00217,0.00000196,0.00000143,0.00000329,0.00000026,0.00000388,-0.000128
 17,0.00016106,-0.00003774,0.00001557,-0.00000063,0.00009562,-0.0000583
 9,0.00001715,-0.00016036,0.00001368,0.00001177,0.00000863,-0.00000036,
 0.00000669,-0.00001572,-0.00000180,0.00000308,-0.00000617,0.00002165,-
 0.00013912,-0.00000022,0.00003751,0.00002154,0.00001236,-0.00001914,0.
 00000131,0.00000280,0.00001263,0.00005790,-0.00003852,-0.00001513,-0.0
 0001350,0.00001804,0.00000428,0.00000151,-0.00000429,0.00000063,0.0000
 0451,-0.00000078,0.00000338,0.00000345,-0.00000676,-0.00001222,-0.0000
 2473,0.00000455,0.00001442,0.00001317,0.00003121,0.00000829,0.00000660
 ,-0.00000834,-0.00000598,0.00000128,0.00001373,0.00000485,0.00001084,-
 0.00001171,0.00000194,-0.00001694,-0.00000111,-0.00002352,-0.00004794,
 0.00001419,-0.00000125,0.00002736,-0.00000314,0.00001037,0.00000806,-0
 .00000712,-0.00000325,0.00001058,-0.00000789,-0.00000344,-0.00000343,0
 .00000010,0.00000759,0.00001023,-0.00000136,-0.00000086,-0.00000924,-0
 .00000254,0.00002351,0.00001586,0.00000717,0.04130236,0.00096273,-0.00
 085956,-0.00112697,-0.00377700,-0.00452188,0.02123631,0.00999791,-0.09
 732619,0.11178160,-0.00026039,0.00768195,-0.01012850,0.00434288,0.0031
 4390,-0.00044104,-0.00068677,-0.00054684,-0.00020528,-0.00000947,0.000
 03192,-0.00003950,-0.00002928,0.00000336,0.00001584,-0.00003476,-0.000
 02612,0.00003104,0.00005238,-0.00000589,-0.00000330,-0.00181947,-0.000
 98716,-0.00089091,-0.00218700,-0.00134248,-0.00051406,0.00011138,0.000
 35348,-0.00053364,0.00000086,-0.00000223,-0.00000312,-0.00000336,-0.00
 000333,0.00000290,0.00002179,0.00004713,0.00002587,0.00682188,-0.00011
 812,0.00302467,0.00008374,-0.00003696,0.00004690,-0.00057532,0.0002603
 7,0.00008914,0.00003289,0.00006126,-0.00031601,0.00002941,0.00001433,0
 .00000678,0.00001059,-0.00009937,-0.00004816,-0.00019182,-0.00001611,-
 0.00002528,-0.00013076,0.00004169,0.00032065,0.00017620,0.00013920,0.0
 0009859,-0.00002720,-0.00010312,0.00000570,0.00003063,0.00000560,-0.00
 013346,0.00002581,0.00000273,0.00005820,-0.00002481,-0.00006943,0.0000
 4821,-0.00001826,0.00002014,-0.00001333,-0.00001386,0.00002935,0.00000
 925,-0.00002171,-0.00001051,-0.00000565,0.00000045,0.00002128,-0.00000
 312,0.00004927,0.00002415,-0.00005744,0.00004004,-0.00001817,0.0000170
 9,0.00000003,0.00000253,0.00000083,-0.00001693,0.00000342,-0.00000975,
 -0.00000819,0.00000933,-0.00003234,0.00008546,-0.00006074,0.00004889,0
 .00000479,0.00002704,-0.00004949,-0.00002856,0.00002565,-0.00000650,-0
 .00001220,0.00000461,-0.00000071,-0.00000925,0.00000473,-0.00001770,0.
 00000644,-0.00000458,-0.00000551,0.00000123,-0.00000405,0.00001005,-0.
 00000818,0.00000687,-0.00000260,-0.00000320,0.00000601,-0.00001140,0.0
 0000704,-0.00000179,-0.00000480,-0.00000608,0.00000622,-0.00000163,0.0
 0000476,-0.00000112,0.00000644,0.00000672,0.00000143,0.00000445,0.0000
 0208,0.00000091,-0.00000152,-0.00000073,0.00000082,0.00000154,-0.00000
 004,-0.00000204,-0.00000005,0.00000274,0.00000101,-0.00000093,-0.00000
 016,0.00000172,0.00000043,0.00000084,-0.00000214,0.00000074,0.00000027
 ,-0.00000043,-0.00000340,-0.00001026,0.00001209,0.00000175,0.00000169,
 0.00000025,-0.00000448,-0.00000281,0.00000306,0.00000547,0.00001114,-0
 .00000650,-0.00000005,-0.00000831,0.00000612,-0.00001559,0.00000218,0.
 00000417,0.00000051,0.00000016,-0.00000033,0.00000061,0.00000249,-0.00
 000444,0.00000392,-0.00000038,-0.00000359,-0.00000220,-0.00000016,0.00
 000079,0.00000118,-0.00000206,0.00000158,-0.00000108,0.00000137,-0.000
 00283,0.00000107,0.00000460,-0.00000892,-0.00000032,0.00000012,-0.0000
 0012,0.00000185,-0.00000287,-0.00000419,-0.00000119,0.00000041,0.00000
 233,-0.00000181,0.00000235,-0.00000382,0.00000460,-0.00000290,-0.00000
 119,0.00000031,0.00000074,-0.00000312,-0.00000238,0.00000282,-0.000000
 76,-0.00000123,0.00000087,0.00000213,0.00001117,0.00000090,-0.00000011
 ,-0.00000030,0.00000188,-0.00000354,-0.00000159,-0.00000334,-0.0000016
 0,-0.00000687,0.00010840,-0.00013947,-0.00000687,0.00007767,-0.0000399
 6,0.00015202,-0.00006632,0.00002971,-0.00028904,0.00001628,0.00002161,
 0.00000140,-0.00000189,0.00000102,-0.00000453,0.00000130,0.00000397,-0
 .00000278,-0.00004254,-0.00005021,-0.00006140,0.00000284,-0.00001031,0
 .00005242,-0.00000946,-0.00001831,0.00003351,-0.00002136,0.00006477,-0
 .00011553,-0.00000573,-0.00000132,0.00001352,0.00000411,0.00000227,-0.
 00000358,0.00000687,0.00000647,-0.00000322,0.00000035,0.00000395,-0.00
 000734,-0.00000400,-0.00001775,0.00000830,-0.00000194,0.00001494,0.000
 01823,0.00000578,0.00000536,-0.00001251,-0.00002041,0.00000586,0.00001
 651,0.00000837,0.00000464,-0.00000927,0.00000280,-0.00001969,-0.000000
 58,-0.00001216,-0.00002015,0.00000400,-0.00000819,0.00001876,0.0000030
 1,0.00001232,0.00000422,-0.00000909,-0.00000882,0.00000752,0.00000228,
 0.00000187,-0.00000267,0.00000124,0.00000518,0.00000449,-0.00000294,0.
 00000049,-0.00000883,-0.00000716,0.00001562,0.00002095,0.00001280,-0.0
 1307655,0.09430685,0.00018485,-0.00064930,0.00049701,0.00161547,-0.000
 19272,-0.00217271,0.00606206,0.11261840,-0.29202069,-0.00270075,0.0102
 4626,-0.01390182,0.00421800,-0.00068535,-0.00048374,-0.00030664,-0.000
 28488,-0.00007181,0.00000256,0.00000135,-0.00000705,-0.00001686,0.0000
 1234,-0.00001050,-0.00002405,-0.00000895,0.00002841,0.00003944,0.00001
 323,-0.00006455,-0.00080905,-0.00068841,-0.00003225,-0.00101942,-0.000
 87913,0.00044465,-0.00013461,0.00057380,-0.00067237,0.00000033,0.00000
 122,-0.00000365,0.00000136,-0.00000079,-0.00000819,-0.00002060,0.00003
 076,0.00005609,0.00088111,0.00194093,0.00218142,0.00000615,0.00005909,
 -0.00003069,-0.00002177,-0.00016543,-0.00010189,-0.00005651,-0.0000045
 5,0.00013118,-0.00008103,-0.00010194,0.00000508,-0.00003269,0.00009568
 ,0.00003798,0.00017182,0.00021943,-0.00002347,0.00012596,0.00001011,-0
 .00015200,-0.00002307,-0.00019097,-0.00001599,-0.00000545,0.00009327,-
 0.00002090,-0.00007416,-0.00000944,0.00007327,0.00000440,-0.00000459,-
 0.00003481,0.00004516,0.00005818,-0.00005170,0.00002287,-0.00003127,0.
 00001666,0.00001641,-0.00004254,-0.00000717,0.00002051,0.00004284,-0.0
 0002913,0.00002497,0.00006251,0.00001656,-0.00009253,-0.00020918,0.000
 04829,-0.00000653,-0.00001325,0.00000819,-0.00000198,-0.00000427,-0.00
 000581,-0.00000216,0.00000179,0.00000582,0.00000327,0.00000062,0.00000
 248,0.00000594,-0.00002549,0.00000451,-0.00006394,0.00007165,0.0000283
 9,-0.00000002,-0.00000704,-0.00000030,-0.00002371,0.00001877,-0.000015
 51,0.00000075,-0.00000126,0.00000938,-0.00000194,0.00000195,0.00000442
 ,-0.00000120,-0.00000233,-0.00000555,0.00000298,-0.00000152,-0.0000014
 0,-0.00000080,0.00000626,0.00000611,-0.00000383,-0.00000033,0.00000364
 ,0.00000009,-0.00000188,-0.00000074,-0.00000249,-0.00000383,-0.0000034
 7,-0.00000064,-0.00001144,0.00000877,-0.00000929,-0.00000262,0.0000002
 1,0.00000310,0.00000588,-0.00000212,0.00000490,-0.00000296,0.00000241,
 -0.00000180,-0.00000780,0.00000271,-0.00000676,-0.00000429,-0.00000273
 ,0.00000417,-0.00000163,0.00000133,0.00000101,0.00000369,-0.00000264,-
 0.00002628,0.00002540,-0.00002115,0.00000305,-0.00000839,0.00000925,-0
 .00000095,-0.00002225,0.00001133,0.00000321,-0.00000245,0.00000103,-0.
 00003076,0.00001916,-0.00003947,0.00001703,-0.00000393,-0.00000667,0.0
 0000031,-0.00000956,0.00000206,0.00000532,-0.00001017,0.00002351,-0.00
 000038,0.00000439,-0.00000027,0.00000048,-0.00000147,-0.00000077,0.000
 00085,-0.00000150,0.00000042,-0.00000177,0.00000423,-0.00000013,-0.000
 00161,0.00000958,0.00000280,-0.00000025,-0.00000259,0.00000017,0.00000
 036,0.00000629,0.00000049,-0.00000090,-0.00000343,-0.00000222,-0.00000
 283,0.00000348,-0.00000212,0.00000117,-0.00000111,-0.00000089,-0.00000
 094,0.00000406,0.00000008,-0.00000159,-0.00000038,0.00000219,-0.000003
 51,0.00000115,-0.00000647,0.00000001,-0.00000052,0.00000213,-0.0000030
 6,0.00000425,-0.00000097,0.00000435,0.00000132,0.00000448,-0.00004632,
 0.00007736,-0.00000506,-0.00005923,0.00010429,-0.00012027,0.00002688,-
 0.00002958,0.00012874,-0.00001181,-0.00001501,-0.00000672,-0.00000039,
 -0.00000735,0.00002207,0.00000274,0.00000366,0.00000643,-0.00006308,-0
 .00006361,-0.00001586,0.00000956,0.00001136,-0.00000421,0.00002095,0.0
 0001075,0.00001222,0.00013067,-0.00003017,0.00005200,-0.00000175,-0.00
 002188,0.00000536,-0.00000307,-0.00000119,-0.00000243,-0.00000027,-0.0
 0000344,0.00000192,0.00000407,0.00000670,0.00000220,0.00000388,0.00001
 407,0.00000139,-0.00001245,-0.00000465,-0.00002197,-0.00000162,-0.0000
 0528,0.00000414,0.00000378,-0.00000320,-0.00001061,0.00000008,-0.00000
 214,0.00000694,-0.00000230,0.00000712,-0.00000029,0.00000765,0.0000264
 4,-0.00000508,0.00000053,-0.00001148,0.00000282,-0.00000304,-0.0000038
 3,0.00000157,0.00000188,-0.00000725,0.00000414,0.00000390,0.00000036,0
 .00000308,-0.00000311,-0.00000296,-0.00000066,-0.00000019,0.00000330,0
 .00000041,0.00000492,0.00001516,-0.00000056,-0.00789752,-0.12203179,0.
 30629186\\0.00000392,-0.00000124,-0.00000789,0.00000393,-0.00000377,-0
 .00000821,-0.00000297,0.00000058,0.00001048,0.00000002,-0.00000200,-0.
 00000256,0.00000475,-0.00000674,0.00000271,0.00000181,-0.00000117,-0.0
 0000547,0.00000603,-0.00001029,0.00000614,-0.00000995,0.00000717,0.000
 00297,0.00000991,-0.00001232,0.00000514,-0.00000042,-0.00000227,-0.000
 00154,-0.00000661,0.00000480,0.00000760,-0.00000019,0.00000048,-0.0000
 0052,0.00000067,-0.00000046,-0.00000195,-0.00000572,0.00000496,0.00000
 121,0.00000159,-0.00000191,0.00000051,0.00000299,-0.00000227,-0.000001
 16,-0.00000839,0.00000355,0.00001310,-0.00000637,0.00000672,-0.0000077
 5,-0.00000499,-0.00000017,-0.00000412,-0.00000386,0.00000205,-0.000006
 09,0.00000106,0.00000177,0.00000054,0.00000160,-0.00000300,-0.00000212
 ,0.00000045,0.00000241,0.00000084,0.00000639,-0.00000116,0.00000650,-0
 .00000015,0.00000248,0.00000023,-0.00000014,0.00000019,0.00000095,-0.0
 0000341,0.00000185,0.00000062,0.00000538,-0.00000164,0.00000248,-0.000
 00031,0.00000691,-0.00000159,-0.00000061,0.00000185,-0.00000231,0.0000
 0362,-0.00000316,-0.00000351,-0.00000052,-0.00000564,-0.00000232,-0.00
 000272,0.00000365,-0.00000172,0.00000011,-0.00000043,0.00000305,-0.000
 00479,-0.00000081,0.00000041,0.00000030,0.00000225,0.00000004,0.000001
 17,0.00000185,-0.00000087,0.00000180,0.00000005,0.00000090,0.00000463,
 0.00000275,0.00000223,-0.00000223,0.00000134,0.00000056,-0.00000272,-0
 .00000067,0.00000233,-0.00000213,-0.00000124,-0.00000489,-0.00000135,-
 0.00000158,-0.00000285,-0.00000073,0.00000153,0.00000411,0.00000461,0.
 00000276,-0.00000128,-0.00000153,0.00000224,-0.00000220,-0.00000157,0.
 00000153,-0.00000244,-0.00000022,0.00000174,0.00000119,-0.00000125,0.0
 0000056,-0.00000019,-0.00000011,0.00000118,-0.00000063,-0.00000355,0.0
 0000382,-0.00000467,0.00000002,0.00000025,0.00000043,0.00000054,0.0000
 0123,0.00000127,0.00000193,-0.00000240,0.00000296,0.00000742,0.0000065
 5,-0.00000447,-0.00000360,-0.00000384,0.00000125,0.00000126,-0.0000025
 4,0.00000257,-0.00000571,0.00000214,0.00000485,0.00000758,-0.00000361,
 0.00000107,-0.00000394,-0.00000099,-0.00000167,-0.00000244,0.00000329,
 -0.00000125,-0.00000367,0.00000328,0.00000393,0.00000230,0.00000211,0.
 00000899,-0.00000224,0.00000191,-0.00000125,-0.00000476,-0.00000466,-0
 .00000329,0.00000238,0.00000138,-0.00000113,0.00001176,0.00000337,-0.0
 0000343,-0.00000358,-0.00000156,0.00000393,-0.00000344,-0.00000279,-0.
 00000230,-0.00000069,0.00000106,-0.00000080,0.00000106,0.00000844,-0.0
 0000747,-0.00000240,-0.00000052,0.00000311,0.00000150,-0.00000573,-0.0
 0000168,0.00000196,-0.00000209,0.00000195,-0.00000275,0.00000353,-0.00
 000065,0.00000089,-0.00000040,-0.00000071,0.00000132,-0.00000103,-0.00
 000017,0.00000271,0.00000128,-0.00000252,0.00000206,0.00000104,0.00000
 254,0.00000051,0.00000057,-0.00000228,0.00000119,-0.00000095,-0.000000
 35,0.00000016,0.00000047,-0.00000090,0.00000187,-0.00000048,0.00000078
 ,-0.00000316,-0.00000705,0.00000774,0.00000378,0.00000243,-0.00000464,
 0.00000422,0.00000434,0.00000233,-0.00000238,-0.00000320,-0.00000341,-
 0.00000069,-0.00000384,0.00000095,-0.00000039,0.00000415,-0.00000089,-
 0.00000024,0.00000003,0.00000101,0.00000077,-0.00000399,-0.00000092,0.
 00000277,0.00000385,-0.00000711,-0.00000631,0.00000066,0.00000702,0.00
 000417,-0.00000344,-0.00000441,0.00000028,-0.00000260,-0.00000001,0.00
 000224,-0.00000017,0.00000059,0.00000018,0.00000099,-0.00000059,-0.000
 00051,-0.00000295,0.00000098,-0.00000104,-0.00000055,0.00000078,-0.000
 00564,-0.00000101,0.00000822,0.00000063,0.00000037,-0.00000090,0.00000
 518,-0.00000250,-0.00000552,0.00000582,-0.00000368,-0.00000119,0.00000
 091,0.00000157,-0.00000025,-0.00000510,0.00000127,0.00000591,-0.000003
 19,-0.00000594,0.00000250,-0.00000307,0.00000077,-0.00000148,-0.000000
 53,0.00000118,0.00000035,0.00000382,-0.00000056,-0.00000364,0.00000015
 ,-0.00000151,0.00000121,-0.00000111,0.00000202,-0.00000392\\\@
 The archive entry for this job was punched.


 "THE ACADEMIC HIERARCHY"


 THE PRESIDENT:
   LEAPS TALL BUILDINGS IN A SINGLE BOUND,
     IS MORE POWERFUL THAN A LOCOMOTIVE,
       IS FASTER THAN A SPEEDING BULLET,
         WALKS ON WATER,
           GIVES POLICY TO GOD.

 THE VICE PRESIDENT FOR ACADEMIC AFFAIRS:
   LEAPS SHORT BUILDINGS IN A SINGLE BOUND,
     IS MORE POWERFUL THAN A SWITCH ENGINE,
       IS JUST AS FAST AS A SPEEDING BULLET,
         WALKS ON WATER IF SEA IS CALM,
           TALKS WITH GOD.

 PROFESSOR:
   LEAPS SHORT BUILDINGS WITH A RUNNING START AND FAVORABLE WINDS,
     IS ALMOST AS POWERFUL AS A SWITCH ENGINE,
       CAN FIRE A SPEEDING BULLET,
         WALKS ON WATER IN AN INDOOR SWIMMING POOL,
          TALKS WITH GOD IF SPECIAL REQUEST IS APPROVED.

 ASSOCIATE PROFESSOR:
   BARELY CLEARS A QUONSET HUT,
     LOSES TUG OF WAR WITH LOCOMOTIVE,
       MISFIRES FREQUENTLY,
         SWIMS WELL,
           IS OCCASIONALLY ADDRESSED BY GOD.

 ASSISTANT PROFESSOR:
   MAKES HIGH MARKS ON WALLS WHEN TRYING TO LEAP TALL BUILDINGS,
     IS RUN OVER BY LOCOMOTIVES,
       CAN SOMETIMES HANDLE A GUN WITHOUT INFLICTING SELF INJURY,
         DOG PADDLES,
           TALKS TO ANIMALS.

 GRADUATE STUDENT:
   RUNS INTO BUILDINGS,
     RECOGNIZES LOCOMOTIVES TWO OUT OF THREE TIMES,
       IS NOT ISSUED AMMUNITION,
         CAN STAY AFLOAT WITH A LIFE JACKET,
           TALKS TO WALLS.

 UNDERGRADUATE AND WORK STUDY STUDENT:
   FALLS OVER DOORSTEP WHEN TRYING TO ENTER BUILDINGS,
     SAYS, "LOOK AT THE CHOO-CHOO,"
       WETS HIMSELF WITH A WATER PISTOL,
        PLAYS IN MUD PUDDLES,
          MUMBLES TO HIMSELF.

 DEPARTMENT SECRETARY:
   LIFTS TALL BUILDINGS AND WALKS UNDER THEM,
     KICKS LOCOMOTIVES OFF THE TRACKS,
       CATCHES SPEEDING BULLETS IN HER TEETH AND EATS THEM,
         FREEZES WATER WITH A SINGLE GLANCE,
           IS GOD.
 Job cpu time:       1 days 20 hours 18 minutes 35.8 seconds.
 Elapsed time:       0 days  2 hours 49 minutes 17.6 seconds.
 File lengths (MBytes):  RWF=   8594 Int=      0 D2E=      0 Chk=     49 Scr=      1
 Normal termination of Gaussian 16 at Sat Dec  7 23:16:50 2024.
