/mnt/lustre/scratch/nvme/SLURM/9663643/usccqdma.lr94faj9tM
OMP_STACKSIZE=0m
GAUSS_PDEF=16
GAUSS_MDEF=65536MB
GAUSS_RDEF=SCF=Direct
 Entering Gaussian System, Link 0=g16.exe
 Initial command:
 /opt/cesga/2020/software/Core/g16/c1/l1.exe "/mnt/lustre/scratch/nvme/SLURM/9663643/usccqdma.lr94faj9tM/Gau-3303139.inp" -scrdir="/mnt/lustre/scratch/nvme/SLURM/9663643/usccqdma.lr94faj9tM/"
 Default is to use a total of  16 processors:
                               16 via shared-memory
                                1 via Linda
 Entering Link 1 = /opt/cesga/2020/software/Core/g16/c1/l1.exe PID=   3303165.
  
 Copyright (c) 1988-2019, Gaussian, Inc.  All Rights Reserved.
  
 This is part of the Gaussian(R) 16 program.  It is based on
 the Gaussian(R) 09 system (copyright 2009, Gaussian, Inc.),
 the Gaussian(R) 03 system (copyright 2003, Gaussian, Inc.),
 the Gaussian(R) 98 system (copyright 1998, Gaussian, Inc.),
 the Gaussian(R) 94 system (copyright 1995, Gaussian, Inc.),
 the Gaussian 92(TM) system (copyright 1992, Gaussian, Inc.),
 the Gaussian 90(TM) system (copyright 1990, Gaussian, Inc.),
 the Gaussian 88(TM) system (copyright 1988, Gaussian, Inc.),
 the Gaussian 86(TM) system (copyright 1986, Carnegie Mellon
 University), and the Gaussian 82(TM) system (copyright 1983,
 Carnegie Mellon University). Gaussian is a federally registered
 trademark of Gaussian, Inc.
  
 This software contains proprietary and confidential information,
 including trade secrets, belonging to Gaussian, Inc.
  
 This software is provided under written license and may be
 used, copied, transmitted, or stored only in accord with that
 written license.
  
 The following legend is applicable only to US Government
 contracts under FAR:
  
                    RESTRICTED RIGHTS LEGEND
  
 Use, reproduction and disclosure by the US Government is
 subject to restrictions as set forth in subparagraphs (a)
 and (c) of the Commercial Computer Software - Restricted
 Rights clause in FAR 52.227-19.
  
 Gaussian, Inc.
 340 Quinnipiac St., Bldg. 40, Wallingford CT 06492
  
  
 ---------------------------------------------------------------
 Warning -- This program may not be used in any manner that
 competes with the business of Gaussian, Inc. or will provide
 assistance to any competitor of Gaussian, Inc.  The licensee
 of this program is prohibited from giving any competitor of
 Gaussian, Inc. access to this program.  By using this program,
 the user acknowledges that Gaussian, Inc. is engaged in the
 business of creating and licensing software in the field of
 computational chemistry and represents and warrants to the
 licensee that it is not a competitor of Gaussian, Inc. and that
 it will not use this program in any manner prohibited above.
 ---------------------------------------------------------------
  

 Cite this work as:
 Gaussian 16, Revision C.01,
 M. J. Frisch, G. W. Trucks, H. B. Schlegel, G. E. Scuseria, 
 M. A. Robb, J. R. Cheeseman, G. Scalmani, V. Barone, 
 G. A. Petersson, H. Nakatsuji, X. Li, M. Caricato, A. V. Marenich, 
 J. Bloino, B. G. Janesko, R. Gomperts, B. Mennucci, H. P. Hratchian, 
 J. V. Ortiz, A. F. Izmaylov, J. L. Sonnenberg, D. Williams-Young, 
 F. Ding, F. Lipparini, F. Egidi, J. Goings, B. Peng, A. Petrone, 
 T. Henderson, D. Ranasinghe, V. G. Zakrzewski, J. Gao, N. Rega, 
 G. Zheng, W. Liang, M. Hada, M. Ehara, K. Toyota, R. Fukuda, 
 J. Hasegawa, M. Ishida, T. Nakajima, Y. Honda, O. Kitao, H. Nakai, 
 T. Vreven, K. Throssell, J. A. Montgomery, Jr., J. E. Peralta, 
 F. Ogliaro, M. J. Bearpark, J. J. Heyd, E. N. Brothers, K. N. Kudin, 
 V. N. Staroverov, T. A. Keith, R. Kobayashi, J. Normand, 
 K. Raghavachari, A. P. Rendell, J. C. Burant, S. S. Iyengar, 
 J. Tomasi, M. Cossi, J. M. Millam, M. Klene, C. Adamo, R. Cammi, 
 J. W. Ochterski, R. L. Martin, K. Morokuma, O. Farkas, 
 J. B. Foresman, and D. J. Fox, Gaussian, Inc., Wallingford CT, 2019.
 
 ******************************************
 Gaussian 16:  ES64L-G16RevC.01  3-Jul-2019
                 7-Dec-2024 
 ******************************************
 Default route: SCF=Direct
 ----------------------------------------------------
 # m06/genecp scf=tight int=ultrafine 5d freq=noraman
 ----------------------------------------------------
 1/10=4,30=1,38=1/1,3;
 2/12=2,17=6,18=5,40=1/2;
 3/5=7,8=1,11=2,16=1,17=8,25=1,30=1,71=2,74=-54,75=-5,140=1/1,2,3;
 4//1;
 5/5=2,32=2,38=5,98=1/2;
 8/6=4,10=90,11=11/1;
 11/6=1,8=1,9=11,15=111,16=1/1,2,10;
 10/6=1/2;
 6/7=2,8=2,9=2,10=2,28=1/1;
 7/8=1,10=1,25=1/1,2,3,16;
 1/10=4,30=1/3;
 99//99;
 ------
 OPT-TS
 ------
 Symbolic Z-matrix:
 Charge =  0 Multiplicity = 1
 C                     1.82774  -2.67038  -0.90354 
 C                     2.84059  -0.59797  -0.65069 
 C                     4.10129  -1.17419  -0.59655 
 C                     4.21659  -2.55707  -0.71174 
 C                     3.06914  -3.31266  -0.86766 
 C                     0.54927  -3.4031   -0.99387 
 C                    -1.7528   -3.30868  -0.73811 
 C                    -1.88376  -4.66975  -0.97375 
 C                    -0.74371  -5.41247  -1.25379 
 C                     0.48584  -4.77159  -1.25392 
 H                     2.69284   0.48114  -0.57119 
 H                     5.19623  -3.03071  -0.66708 
 H                     3.13948  -4.39498  -0.93319 
 H                    -2.60662  -2.67865  -0.48752 
 H                    -0.80722  -6.47887  -1.46019 
 H                     1.39136  -5.33509  -1.46418 
 N                     1.73472  -1.33265  -0.79924 
 N                    -0.57093  -2.67923  -0.77258 
 Ir                   -0.36551  -0.52391  -0.51229 
 O                     0.2048   -1.84411   2.08955 
 O                    -3.13829  -0.75619   0.69935 
 O                     0.31172   3.88761  -0.88503 
 B                    -2.22886   0.04621  -0.01816 
 B                    -0.24048  -0.67485   1.46217 
 B                     1.03084   2.8469   -1.39775 
 O                     2.11364   2.50715  -0.63192 
 O                    -0.48052   0.31289   2.42281 
 C                    -0.39761  -0.2981    3.71605 
 C                     0.53134  -1.51513   3.44299 
 C                     0.76113   4.11367   0.46873 
 C                     2.15821   3.39008   0.50779 
 C                    -4.42079  -0.12024   0.68849 
 C                    -4.0454    1.37148   0.46634 
 O                    -2.84608   1.27176  -0.30861 
 C                     2.0132   -1.15534   3.46402 
 H                     2.21562  -0.27243   2.84119 
 H                     2.38314  -0.9613    4.48015 
 H                     2.5805   -1.99598   3.04205 
 C                     0.28094  -2.72065   4.32676 
 H                    -0.73599  -3.10716   4.19816 
 H                     0.98241  -3.52397   4.06625 
 H                     0.43199  -2.46994   5.38688 
 C                     0.14227   0.71783   4.70291 
 H                    -0.57017   1.54823   4.7992 
 H                     0.27824   0.26934   5.69789 
 H                     1.10119   1.13533   4.3739 
 C                    -1.80934  -0.71223   4.11487 
 H                    -2.23637  -1.41273   3.38402 
 H                    -1.83945  -1.16755   5.11409 
 H                    -2.4467    0.18281   4.1318 
 C                    -5.21054  -0.71462  -0.47216 
 H                    -4.7225   -0.50462  -1.43398 
 H                    -5.25401  -1.80535  -0.34778 
 H                    -6.24073  -0.33502  -0.51172 
 C                    -5.13457  -0.41379   1.99348 
 H                    -6.09089   0.12658   2.04992 
 H                    -5.34826  -1.48847   2.0658 
 H                    -4.52267  -0.13492   2.85853 
 C                    -5.0664    2.18433  -0.30604 
 H                    -6.0229    2.23663   0.23437 
 H                    -4.69502   3.20978  -0.43522 
 H                    -5.25314   1.76781  -1.303 
 C                    -3.68551   2.09115   1.76136 
 H                    -3.2888    3.08345   1.51126 
 H                    -4.55655   2.22608   2.41728 
 H                    -2.89788   1.54946   2.305 
 C                     3.34324   4.31445   0.27504 
 H                     3.21702   4.89899  -0.64556 
 H                     3.49479   5.00749   1.11267 
 H                     4.24873   3.70546   0.16208 
 C                     2.38316   2.54343   1.74569 
 H                     3.35014   2.02781   1.66417 
 H                     2.40789   3.17065   2.64892 
 H                     1.59095   1.7917    1.8619 
 C                    -0.28965   3.50544   1.3842 
 H                    -1.24801   3.99792   1.17301 
 H                    -0.42347   2.43104   1.21426 
 H                    -0.04713   3.66275   2.44471 
 C                     0.82682   5.61141   0.70193 
 H                     1.20127   5.82953   1.71207 
 H                     1.46846   6.11881  -0.0267 
 H                    -0.18125   6.03579   0.6173 
 H                    -0.10547   1.05727  -0.3367 
 C                    -1.07057   0.66783  -3.15949 
 O                    -0.31681  -0.30283  -2.95694 
 C                    -2.53245   0.4596   -3.49567 
 H                    -3.13044   0.98108  -2.73232 
 H                    -2.75122   0.96058  -4.45173 
 C                     0.77778   2.2125   -2.8234 
 H                     1.31873   1.26461  -2.91197 
 H                     1.17653   2.88509  -3.60246 
 N                    -0.62507   1.94432  -3.14319 
 C                    -1.54431   3.07128  -3.11837 
 H                    -2.0923    3.11094  -2.1646 
 H                    -0.96648   3.99454  -3.21869 
 H                    -2.25723   3.02216  -3.94986 
 C                    -2.91066  -1.00641  -3.56657 
 H                    -2.30596  -1.5405   -4.30843 
 H                    -2.743    -1.49642  -2.59885 
 C                     5.33672  -0.34935  -0.42858 
 F                     6.06794  -0.78779   0.60499 
 F                     6.1192   -0.42869  -1.51252 
 F                     5.06309   0.93896  -0.21781 
 H                    -2.86735  -5.13142  -0.93838 
 H                    -3.96927  -1.11908  -3.83343 
 

 GradGradGradGradGradGradGradGradGradGradGradGradGradGradGradGradGradGrad
 Berny optimization.
 Initialization pass.
 Trust Radius=3.00D-01 FncErr=1.00D-07 GrdErr=1.00D-07 EigMax=2.50D+02 EigMin=1.00D-04
 Number of steps in this run=      2 maximum allowed number of steps=      2.
 GradGradGradGradGradGradGradGradGradGradGradGradGradGradGradGradGradGrad

 Stoichiometry    C34H54B3F3IrN3O7
 Framework group  C1[X(C34H54B3F3IrN3O7)]
 Deg. of freedom   309
 Full point group                 C1      NOp   1
 Largest Abelian subgroup         C1      NOp   1
 Largest concise Abelian subgroup C1      NOp   1
                         Standard orientation:                         
 ---------------------------------------------------------------------
 Center     Atomic      Atomic             Coordinates (Angstroms)
 Number     Number       Type             X           Y           Z
 ---------------------------------------------------------------------
      1          6           0        1.827739   -2.670381   -0.903540
      2          6           0        2.840589   -0.597971   -0.650690
      3          6           0        4.101289   -1.174191   -0.596550
      4          6           0        4.216589   -2.557071   -0.711740
      5          6           0        3.069139   -3.312661   -0.867660
      6          6           0        0.549269   -3.403100   -0.993870
      7          6           0       -1.752801   -3.308680   -0.738110
      8          6           0       -1.883762   -4.669750   -0.973750
      9          6           0       -0.743712   -5.412470   -1.253790
     10          6           0        0.485838   -4.771590   -1.253920
     11          1           0        2.692839    0.481139   -0.571190
     12          1           0        5.196229   -3.030711   -0.667080
     13          1           0        3.139479   -4.394981   -0.933190
     14          1           0       -2.606621   -2.678650   -0.487520
     15          1           0       -0.807222   -6.478870   -1.460190
     16          1           0        1.391358   -5.335091   -1.464180
     17          7           0        1.734719   -1.332651   -0.799240
     18          7           0       -0.570931   -2.679230   -0.772580
     19         77           0       -0.365511   -0.523910   -0.512290
     20          8           0        0.204799   -1.844110    2.089550
     21          8           0       -3.138291   -0.756190    0.699350
     22          8           0        0.311720    3.887610   -0.885030
     23          5           0       -2.228861    0.046210   -0.018160
     24          5           0       -0.240481   -0.674850    1.462170
     25          5           0        1.030840    2.846900   -1.397750
     26          8           0        2.113640    2.507149   -0.631920
     27          8           0       -0.480521    0.312890    2.422810
     28          6           0       -0.397611   -0.298100    3.716050
     29          6           0        0.531339   -1.515130    3.442990
     30          6           0        0.761130    4.113670    0.468730
     31          6           0        2.158210    3.390079    0.507790
     32          6           0       -4.420791   -0.120239    0.688490
     33          6           0       -4.045400    1.371481    0.466340
     34          8           0       -2.846080    1.271760   -0.308610
     35          6           0        2.013199   -1.155341    3.464020
     36          1           0        2.215619   -0.272431    2.841190
     37          1           0        2.383139   -0.961301    4.480150
     38          1           0        2.580499   -1.995981    3.042050
     39          6           0        0.280939   -2.720650    4.326760
     40          1           0       -0.735991   -3.107160    4.198160
     41          1           0        0.982409   -3.523970    4.066250
     42          1           0        0.431989   -2.469940    5.386880
     43          6           0        0.142270    0.717830    4.702910
     44          1           0       -0.570170    1.548230    4.799200
     45          1           0        0.278239    0.269340    5.697890
     46          1           0        1.101190    1.135330    4.373900
     47          6           0       -1.809341   -0.712230    4.114870
     48          1           0       -2.236371   -1.412730    3.384020
     49          1           0       -1.839451   -1.167550    5.114090
     50          1           0       -2.446701    0.182810    4.131800
     51          6           0       -5.210541   -0.714619   -0.472160
     52          1           0       -4.722501   -0.504619   -1.433980
     53          1           0       -5.254011   -1.805349   -0.347780
     54          1           0       -6.240731   -0.335019   -0.511720
     55          6           0       -5.134571   -0.413789    1.993480
     56          1           0       -6.090891    0.126581    2.049920
     57          1           0       -5.348261   -1.488469    2.065800
     58          1           0       -4.522671   -0.134919    2.858530
     59          6           0       -5.066400    2.184331   -0.306040
     60          1           0       -6.022900    2.236631    0.234370
     61          1           0       -4.695020    3.209781   -0.435220
     62          1           0       -5.253140    1.767811   -1.303000
     63          6           0       -3.685510    2.091150    1.761360
     64          1           0       -3.288800    3.083450    1.511260
     65          1           0       -4.556550    2.226081    2.417280
     66          1           0       -2.897880    1.549460    2.305000
     67          6           0        3.343240    4.314449    0.275040
     68          1           0        3.217020    4.898989   -0.645560
     69          1           0        3.494790    5.007489    1.112670
     70          1           0        4.248730    3.705459    0.162080
     71          6           0        2.383160    2.543429    1.745690
     72          1           0        3.350140    2.027809    1.664170
     73          1           0        2.407890    3.170649    2.648920
     74          1           0        1.590950    1.791699    1.861900
     75          6           0       -0.289650    3.505440    1.384200
     76          1           0       -1.248010    3.997920    1.173010
     77          1           0       -0.423470    2.431040    1.214260
     78          1           0       -0.047130    3.662750    2.444710
     79          6           0        0.826820    5.611410    0.701930
     80          1           0        1.201270    5.829530    1.712070
     81          1           0        1.468461    6.118809   -0.026700
     82          1           0       -0.181249    6.035790    0.617300
     83          1           0       -0.105470    1.057270   -0.336700
     84          6           0       -1.070570    0.667830   -3.159490
     85          8           0       -0.316811   -0.302830   -2.956940
     86          6           0       -2.532451    0.459600   -3.495670
     87          1           0       -3.130440    0.981080   -2.732320
     88          1           0       -2.751220    0.960580   -4.451730
     89          6           0        0.777780    2.212500   -2.823400
     90          1           0        1.318730    1.264609   -2.911970
     91          1           0        1.176530    2.885090   -3.602460
     92          7           0       -0.625070    1.944320   -3.143190
     93          6           0       -1.544310    3.071280   -3.118370
     94          1           0       -2.092300    3.110940   -2.164600
     95          1           0       -0.966480    3.994540   -3.218690
     96          1           0       -2.257230    3.022160   -3.949860
     97          6           0       -2.910661   -1.006410   -3.566570
     98          1           0       -2.305961   -1.540500   -4.308430
     99          1           0       -2.743001   -1.496420   -2.598850
    100          6           0        5.336719   -0.349351   -0.428580
    101          9           0        6.067939   -0.787791    0.604990
    102          9           0        6.119199   -0.428691   -1.512520
    103          9           0        5.063090    0.938959   -0.217810
    104          1           0       -2.867352   -5.131420   -0.938380
    105          1           0       -3.969271   -1.119080   -3.833430
 ---------------------------------------------------------------------
 Rotational constants (GHZ):           0.0673270           0.0544858           0.0477742
 General basis read from cards:  (5D, 7F)
 ======================================================================================================
                                       Pseudopotential Parameters
 ======================================================================================================
  Center     Atomic      Valence      Angular      Power
  Number     Number     Electrons     Momentum     of R      Exponent        Coefficient   SO-Coeffient
 ======================================================================================================
    1          6
                                   No pseudopotential on this center.
    2          6
                                   No pseudopotential on this center.
    3          6
                                   No pseudopotential on this center.
    4          6
                                   No pseudopotential on this center.
    5          6
                                   No pseudopotential on this center.
    6          6
                                   No pseudopotential on this center.
    7          6
                                   No pseudopotential on this center.
    8          6
                                   No pseudopotential on this center.
    9          6
                                   No pseudopotential on this center.
   10          6
                                   No pseudopotential on this center.
   11          1
                                   No pseudopotential on this center.
   12          1
                                   No pseudopotential on this center.
   13          1
                                   No pseudopotential on this center.
   14          1
                                   No pseudopotential on this center.
   15          1
                                   No pseudopotential on this center.
   16          1
                                   No pseudopotential on this center.
   17          7
                                   No pseudopotential on this center.
   18          7
                                   No pseudopotential on this center.
   19         77           17
                                      G and up 
                                                     1      823.5880147       -0.15780140    0.00000000
                                                     2      364.6613336    -1517.52704460    0.00000000
                                                     2       55.7082801     -316.53065290    0.00000000
                                                     2       12.0464544      -91.88809410    0.00000000
                                                     2        3.5120610       -9.22417730    0.00000000
                                      S - G
                                                     0      188.0490770        3.15780140    0.00000000
                                                     1      340.4194712       26.83225770    0.00000000
                                                     2      128.2373673      800.42500070    0.00000000
                                                     2       33.8644961      369.40506830    0.00000000
                                                     2        4.7560005      242.41718990    0.00000000
                                                     2        3.9649974     -118.21732820    0.00000000
                                      P - G
                                                     0      289.7291139        2.15780140    0.00000000
                                                     1       87.4633789       61.96786100    0.00000000
                                                     2       30.4363766      269.05819860    0.00000000
                                                     2        4.0553412      231.16547930    0.00000000
                                                     2        3.5525341     -133.69526670    0.00000000
                                      D - G
                                                     0      136.4017106        3.15780140    0.00000000
                                                     1       95.0776925       45.93498030    0.00000000
                                                     2       49.2258410      359.03446680    0.00000000
                                                     2       15.0874145      176.47401190    0.00000000
                                                     2        4.0405764       54.51552860    0.00000000
                                      F - G
                                                     0      127.3507908        3.95461970    0.00000000
                                                     1       66.2364374       52.97736550    0.00000000
                                                     2       34.4299229      274.86433830    0.00000000
                                                     2       10.1995721      137.20473380    0.00000000
                                                     2        2.5409702       14.86333050    0.00000000
   20          8
                                   No pseudopotential on this center.
   21          8
                                   No pseudopotential on this center.
   22          8
                                   No pseudopotential on this center.
   23          5
                                   No pseudopotential on this center.
   24          5
                                   No pseudopotential on this center.
   25          5
                                   No pseudopotential on this center.
   26          8
                                   No pseudopotential on this center.
   27          8
                                   No pseudopotential on this center.
   28          6
                                   No pseudopotential on this center.
   29          6
                                   No pseudopotential on this center.
   30          6
                                   No pseudopotential on this center.
   31          6
                                   No pseudopotential on this center.
   32          6
                                   No pseudopotential on this center.
   33          6
                                   No pseudopotential on this center.
   34          8
                                   No pseudopotential on this center.
   35          6
                                   No pseudopotential on this center.
   36          1
                                   No pseudopotential on this center.
   37          1
                                   No pseudopotential on this center.
   38          1
                                   No pseudopotential on this center.
   39          6
                                   No pseudopotential on this center.
   40          1
                                   No pseudopotential on this center.
   41          1
                                   No pseudopotential on this center.
   42          1
                                   No pseudopotential on this center.
   43          6
                                   No pseudopotential on this center.
   44          1
                                   No pseudopotential on this center.
   45          1
                                   No pseudopotential on this center.
   46          1
                                   No pseudopotential on this center.
   47          6
                                   No pseudopotential on this center.
   48          1
                                   No pseudopotential on this center.
   49          1
                                   No pseudopotential on this center.
   50          1
                                   No pseudopotential on this center.
   51          6
                                   No pseudopotential on this center.
   52          1
                                   No pseudopotential on this center.
   53          1
                                   No pseudopotential on this center.
   54          1
                                   No pseudopotential on this center.
   55          6
                                   No pseudopotential on this center.
   56          1
                                   No pseudopotential on this center.
   57          1
                                   No pseudopotential on this center.
   58          1
                                   No pseudopotential on this center.
   59          6
                                   No pseudopotential on this center.
   60          1
                                   No pseudopotential on this center.
   61          1
                                   No pseudopotential on this center.
   62          1
                                   No pseudopotential on this center.
   63          6
                                   No pseudopotential on this center.
   64          1
                                   No pseudopotential on this center.
   65          1
                                   No pseudopotential on this center.
   66          1
                                   No pseudopotential on this center.
   67          6
                                   No pseudopotential on this center.
   68          1
                                   No pseudopotential on this center.
   69          1
                                   No pseudopotential on this center.
   70          1
                                   No pseudopotential on this center.
   71          6
                                   No pseudopotential on this center.
   72          1
                                   No pseudopotential on this center.
   73          1
                                   No pseudopotential on this center.
   74          1
                                   No pseudopotential on this center.
   75          6
                                   No pseudopotential on this center.
   76          1
                                   No pseudopotential on this center.
   77          1
                                   No pseudopotential on this center.
   78          1
                                   No pseudopotential on this center.
   79          6
                                   No pseudopotential on this center.
   80          1
                                   No pseudopotential on this center.
   81          1
                                   No pseudopotential on this center.
   82          1
                                   No pseudopotential on this center.
   83          1
                                   No pseudopotential on this center.
   84          6
                                   No pseudopotential on this center.
   85          8
                                   No pseudopotential on this center.
   86          6
                                   No pseudopotential on this center.
   87          1
                                   No pseudopotential on this center.
   88          1
                                   No pseudopotential on this center.
   89          6
                                   No pseudopotential on this center.
   90          1
                                   No pseudopotential on this center.
   91          1
                                   No pseudopotential on this center.
   92          7
                                   No pseudopotential on this center.
   93          6
                                   No pseudopotential on this center.
   94          1
                                   No pseudopotential on this center.
   95          1
                                   No pseudopotential on this center.
   96          1
                                   No pseudopotential on this center.
   97          6
                                   No pseudopotential on this center.
   98          1
                                   No pseudopotential on this center.
   99          1
                                   No pseudopotential on this center.
  100          6
                                   No pseudopotential on this center.
  101          9
                                   No pseudopotential on this center.
  102          9
                                   No pseudopotential on this center.
  103          9
                                   No pseudopotential on this center.
  104          1
                                   No pseudopotential on this center.
  105          1
                                   No pseudopotential on this center.
 ======================================================================================================
 There are   882 symmetry adapted cartesian basis functions of A   symmetry.
 There are   830 symmetry adapted basis functions of A   symmetry.
   830 basis functions,  1659 primitive gaussians,   882 cartesian basis functions
   197 alpha electrons      197 beta electrons
       nuclear repulsion energy      8550.9338751900 Hartrees.
 NAtoms=  105 NActive=  105 NUniq=  105 SFac= 1.00D+00 NAtFMM=   60 NAOKFM=T Big=T
 Integral buffers will be    131072 words long.
 Raffenetti 2 integral format.
 Two-electron integral symmetry is turned on.
 One-electron integrals computed using PRISM.
   1 Symmetry operations used in ECPInt.
 ECPInt:  NShTT=   50086 NPrTT=  307226 LenC2=   39052 LenP2D=  121454.
 LDataN:  DoStor=T MaxTD1= 6 Len=  172
 NBasis=   830 RedAO= T EigKep=  4.85D-04  NBF=   830
 NBsUse=   830 1.00D-06 EigRej= -1.00D+00 NBFU=   830
 Defaulting to unpruned grid for atomic number  77.
 ExpMin= 2.90D-02 ExpMax= 7.00D+03 ExpMxC= 1.05D+03 IAcc=3 IRadAn=         5 AccDes= 0.00D+00
 Harris functional with IExCor= 1009 and IRadAn=       5 diagonalized for initial guess.
 HarFok:  IExCor= 1009 AccDes= 0.00D+00 IRadAn=         5 IDoV= 1 UseB2=F ITyADJ=14
 ICtDFT=  3500011 ScaDFX=  1.000000  1.000000  1.000000  1.000000
 Defaulting to unpruned grid for atomic number  77.
 FoFCou: FMM=F IPFlag=           0 FMFlag=      100000 FMFlg1=        2001
         NFxFlg=           0 DoJE=T BraDBF=F KetDBF=T FulRan=T
         wScrn=  0.000000 ICntrl=       500 IOpCl=  0 I1Cent=   200000004 NGrid=           0
         NMat0=    1 NMatS0=      1 NMatT0=    0 NMatD0=    1 NMtDS0=    0 NMtDT0=    0
 Petite list used in FoFCou.
 Requested convergence on RMS density matrix=1.00D-08 within 128 cycles.
 Requested convergence on MAX density matrix=1.00D-06.
 Requested convergence on             energy=1.00D-06.
 No special actions if energy rises.
 Defaulting to unpruned grid for atomic number  77.
 Defaulting to unpruned grid for atomic number  77.
 Defaulting to unpruned grid for atomic number  77.
 Defaulting to unpruned grid for atomic number  77.
 Defaulting to unpruned grid for atomic number  77.
 Defaulting to unpruned grid for atomic number  77.
 Defaulting to unpruned grid for atomic number  77.
 Defaulting to unpruned grid for atomic number  77.
 Defaulting to unpruned grid for atomic number  77.
 Defaulting to unpruned grid for atomic number  77.
 Defaulting to unpruned grid for atomic number  77.
 Defaulting to unpruned grid for atomic number  77.
 Defaulting to unpruned grid for atomic number  77.
 Defaulting to unpruned grid for atomic number  77.
 Defaulting to unpruned grid for atomic number  77.
 Defaulting to unpruned grid for atomic number  77.
 SCF Done:  E(RM06) =  -2496.64781399     A.U. after   16 cycles
            NFock= 16  Conv=0.54D-08     -V/T= 2.0358
 DoSCS=F DFT=T ScalE2(SS,OS)=  1.000000  1.000000
 Range of M.O.s used for correlation:     1   830
 NBasis=   830 NAE=   197 NBE=   197 NFC=     0 NFV=     0
 NROrb=    830 NOA=   197 NOB=   197 NVA=   633 NVB=   633

 **** Warning!!: The largest alpha MO coefficient is  0.10420879D+02

   1 Symmetry operations used in ECPInt.
 ECPInt:  NShTT=   50086 NPrTT=  307226 LenC2=   39052 LenP2D=  121454.
 LDataN:  DoStor=T MaxTD1= 7 Len=  274
 Number of processors reduced to   8 by ecpmxn.
 Symmetrizing basis deriv contribution to polar:
 IMax=3 JMax=2 DiffMx= 0.00D+00
 G2DrvN: will do   106 centers at a time, making    1 passes.
 Calling FoFCou, ICntrl=  3107 FMM=T I1Cent=   0 AccDes= 0.00D+00.
 Defaulting to unpruned grid for atomic number  77.
 Defaulting to unpruned grid for atomic number  77.
 Defaulting to unpruned grid for atomic number  77.
 Defaulting to unpruned grid for atomic number  77.
 Defaulting to unpruned grid for atomic number  77.
 Defaulting to unpruned grid for atomic number  77.
 Defaulting to unpruned grid for atomic number  77.
 Defaulting to unpruned grid for atomic number  77.
 Defaulting to unpruned grid for atomic number  77.
 Defaulting to unpruned grid for atomic number  77.
 Defaulting to unpruned grid for atomic number  77.
 Defaulting to unpruned grid for atomic number  77.
 Defaulting to unpruned grid for atomic number  77.
 Defaulting to unpruned grid for atomic number  77.
 Defaulting to unpruned grid for atomic number  77.
 Defaulting to unpruned grid for atomic number  77.
 End of G2Drv F.D. properties file   721 does not exist.
 End of G2Drv F.D. properties file   722 does not exist.
 End of G2Drv F.D. properties file   788 does not exist.
          IDoAtm=11111111111111111111111111111111111111111111111111
          IDoAtm=11111111111111111111111111111111111111111111111111
          IDoAtm=11111
          Differentiating once with respect to electric field.
                with respect to dipole field.
          Differentiating once with respect to nuclear coordinates.
 Defaulting to unpruned grid for atomic number  77.
 CalDSu exits because no D1Ps are significant.
 Defaulting to unpruned grid for atomic number  77.
 Defaulting to unpruned grid for atomic number  77.
 Defaulting to unpruned grid for atomic number  77.
 Defaulting to unpruned grid for atomic number  77.
 Defaulting to unpruned grid for atomic number  77.
 Defaulting to unpruned grid for atomic number  77.
 Defaulting to unpruned grid for atomic number  77.
 Defaulting to unpruned grid for atomic number  77.
 Defaulting to unpruned grid for atomic number  77.
 Defaulting to unpruned grid for atomic number  77.
 Defaulting to unpruned grid for atomic number  77.
 Defaulting to unpruned grid for atomic number  77.
 Defaulting to unpruned grid for atomic number  77.
 Defaulting to unpruned grid for atomic number  77.
 Defaulting to unpruned grid for atomic number  77.
 Defaulting to unpruned grid for atomic number  77.
          There are   318 degrees of freedom in the 1st order CPHF.  IDoFFX=6 NUNeed=     3.
    315 vectors produced by pass  0 Test12= 1.25D-13 1.00D-09 XBig12= 5.10D+02 9.58D+00.
 AX will form    72 AO Fock derivatives at one time.
    315 vectors produced by pass  1 Test12= 1.25D-13 1.00D-09 XBig12= 7.52D+01 9.00D-01.
    315 vectors produced by pass  2 Test12= 1.25D-13 1.00D-09 XBig12= 9.64D-01 1.01D-01.
    315 vectors produced by pass  3 Test12= 1.25D-13 1.00D-09 XBig12= 6.00D-03 6.81D-03.
    315 vectors produced by pass  4 Test12= 1.25D-13 1.00D-09 XBig12= 2.10D-05 3.64D-04.
    281 vectors produced by pass  5 Test12= 1.25D-13 1.00D-09 XBig12= 4.50D-08 1.17D-05.
     78 vectors produced by pass  6 Test12= 1.25D-13 1.00D-09 XBig12= 6.34D-11 4.04D-07.
      3 vectors produced by pass  7 Test12= 1.25D-13 1.00D-09 XBig12= 8.43D-14 1.74D-08.
 InvSVY:  IOpt=1 It=  1 EMax= 1.78D-14
 Solved reduced A of dimension  1937 with   318 vectors.
 Isotropic polarizability for W=    0.000000      476.90 Bohr**3.
 End of Minotr F.D. properties file   721 does not exist.
 End of Minotr F.D. properties file   722 does not exist.
 End of Minotr F.D. properties file   788 does not exist.
 Hyperfine terms turned off by default for NAtoms > 100.

 **********************************************************************

            Population analysis using the SCF Density.

 **********************************************************************

 Orbital symmetries:
       Occupied  (A) (A) (A) (A) (A) (A) (A) (A) (A) (A) (A) (A)
                 (A) (A) (A) (A) (A) (A) (A) (A) (A) (A) (A) (A)
                 (A) (A) (A) (A) (A) (A) (A) (A) (A) (A) (A) (A)
                 (A) (A) (A) (A) (A) (A) (A) (A) (A) (A) (A) (A)
                 (A) (A) (A) (A) (A) (A) (A) (A) (A) (A) (A) (A)
                 (A) (A) (A) (A) (A) (A) (A) (A) (A) (A) (A) (A)
                 (A) (A) (A) (A) (A) (A) (A) (A) (A) (A) (A) (A)
                 (A) (A) (A) (A) (A) (A) (A) (A) (A) (A) (A) (A)
                 (A) (A) (A) (A) (A) (A) (A) (A) (A) (A) (A) (A)
                 (A) (A) (A) (A) (A) (A) (A) (A) (A) (A) (A) (A)
                 (A) (A) (A) (A) (A) (A) (A) (A) (A) (A) (A) (A)
                 (A) (A) (A) (A) (A) (A) (A) (A) (A) (A) (A) (A)
                 (A) (A) (A) (A) (A) (A) (A) (A) (A) (A) (A) (A)
                 (A) (A) (A) (A) (A) (A) (A) (A) (A) (A) (A) (A)
                 (A) (A) (A) (A) (A) (A) (A) (A) (A) (A) (A) (A)
                 (A) (A) (A) (A) (A) (A) (A) (A) (A) (A) (A) (A)
                 (A) (A) (A) (A) (A)
       Virtual   (A) (A) (A) (A) (A) (A) (A) (A) (A) (A) (A) (A)
                 (A) (A) (A) (A) (A) (A) (A) (A) (A) (A) (A) (A)
                 (A) (A) (A) (A) (A) (A) (A) (A) (A) (A) (A) (A)
                 (A) (A) (A) (A) (A) (A) (A) (A) (A) (A) (A) (A)
                 (A) (A) (A) (A) (A) (A) (A) (A) (A) (A) (A) (A)
                 (A) (A) (A) (A) (A) (A) (A) (A) (A) (A) (A) (A)
                 (A) (A) (A) (A) (A) (A) (A) (A) (A) (A) (A) (A)
                 (A) (A) (A) (A) (A) (A) (A) (A) (A) (A) (A) (A)
                 (A) (A) (A) (A) (A) (A) (A) (A) (A) (A) (A) (A)
                 (A) (A) (A) (A) (A) (A) (A) (A) (A) (A) (A) (A)
                 (A) (A) (A) (A) (A) (A) (A) (A) (A) (A) (A) (A)
                 (A) (A) (A) (A) (A) (A) (A) (A) (A) (A) (A) (A)
                 (A) (A) (A) (A) (A) (A) (A) (A) (A) (A) (A) (A)
                 (A) (A) (A) (A) (A) (A) (A) (A) (A) (A) (A) (A)
                 (A) (A) (A) (A) (A) (A) (A) (A) (A) (A) (A) (A)
                 (A) (A) (A) (A) (A) (A) (A) (A) (A) (A) (A) (A)
                 (A) (A) (A) (A) (A) (A) (A) (A) (A) (A) (A) (A)
                 (A) (A) (A) (A) (A) (A) (A) (A) (A) (A) (A) (A)
                 (A) (A) (A) (A) (A) (A) (A) (A) (A) (A) (A) (A)
                 (A) (A) (A) (A) (A) (A) (A) (A) (A) (A) (A) (A)
                 (A) (A) (A) (A) (A) (A) (A) (A) (A) (A) (A) (A)
                 (A) (A) (A) (A) (A) (A) (A) (A) (A) (A) (A) (A)
                 (A) (A) (A) (A) (A) (A) (A) (A) (A) (A) (A) (A)
                 (A) (A) (A) (A) (A) (A) (A) (A) (A) (A) (A) (A)
                 (A) (A) (A) (A) (A) (A) (A) (A) (A) (A) (A) (A)
                 (A) (A) (A) (A) (A) (A) (A) (A) (A) (A) (A) (A)
                 (A) (A) (A) (A) (A) (A) (A) (A) (A) (A) (A) (A)
                 (A) (A) (A) (A) (A) (A) (A) (A) (A) (A) (A) (A)
                 (A) (A) (A) (A) (A) (A) (A) (A) (A) (A) (A) (A)
                 (A) (A) (A) (A) (A) (A) (A) (A) (A) (A) (A) (A)
                 (A) (A) (A) (A) (A) (A) (A) (A) (A) (A) (A) (A)
                 (A) (A) (A) (A) (A) (A) (A) (A) (A) (A) (A) (A)
                 (A) (A) (A) (A) (A) (A) (A) (A) (A) (A) (A) (A)
                 (A) (A) (A) (A) (A) (A) (A) (A) (A) (A) (A) (A)
                 (A) (A) (A) (A) (A) (A) (A) (A) (A) (A) (A) (A)
                 (A) (A) (A) (A) (A) (A) (A) (A) (A) (A) (A) (A)
                 (A) (A) (A) (A) (A) (A) (A) (A) (A) (A) (A) (A)
                 (A) (A) (A) (A) (A) (A) (A) (A) (A) (A) (A) (A)
                 (A) (A) (A) (A) (A) (A) (A) (A) (A) (A) (A) (A)
                 (A) (A) (A) (A) (A) (A) (A) (A) (A) (A) (A) (A)
                 (A) (A) (A) (A) (A) (A) (A) (A) (A) (A) (A) (A)
                 (A) (A) (A) (A) (A) (A) (A) (A) (A) (A) (A) (A)
                 (A) (A) (A) (A) (A) (A) (A) (A) (A) (A) (A) (A)
                 (A) (A) (A) (A) (A) (A) (A) (A) (A) (A) (A) (A)
                 (A) (A) (A) (A) (A) (A) (A) (A) (A) (A) (A) (A)
                 (A) (A) (A) (A) (A) (A) (A) (A) (A) (A) (A) (A)
                 (A) (A) (A) (A) (A) (A) (A) (A) (A) (A) (A) (A)
                 (A) (A) (A) (A) (A) (A) (A) (A) (A) (A) (A) (A)
                 (A) (A) (A) (A) (A) (A) (A) (A) (A) (A) (A) (A)
                 (A) (A) (A) (A) (A) (A) (A) (A) (A) (A) (A) (A)
                 (A) (A) (A) (A) (A) (A) (A) (A) (A) (A) (A) (A)
                 (A) (A) (A) (A) (A) (A) (A) (A) (A) (A) (A) (A)
                 (A) (A) (A) (A) (A) (A) (A) (A) (A)
 The electronic state is 1-A.
 Alpha  occ. eigenvalues --  -24.82768 -24.82220 -24.82105 -19.21801 -19.21546
 Alpha  occ. eigenvalues --  -19.19467 -19.19349 -19.19311 -19.19098 -19.18665
 Alpha  occ. eigenvalues --  -14.44526 -14.44094 -14.41985 -10.50861 -10.34005
 Alpha  occ. eigenvalues --  -10.32072 -10.31387 -10.30202 -10.30151 -10.29858
 Alpha  occ. eigenvalues --  -10.29502 -10.29352 -10.28746 -10.28713 -10.28708
 Alpha  occ. eigenvalues --  -10.28695 -10.28526 -10.28378 -10.28282 -10.27852
 Alpha  occ. eigenvalues --  -10.27248 -10.26133 -10.24372 -10.23929 -10.22865
 Alpha  occ. eigenvalues --  -10.22854 -10.22506 -10.22433 -10.22430 -10.22408
 Alpha  occ. eigenvalues --  -10.22406 -10.22361 -10.22353 -10.22173 -10.21772
 Alpha  occ. eigenvalues --  -10.21396 -10.20861  -6.81289  -6.78417  -6.77667
 Alpha  occ. eigenvalues --   -3.59773  -2.02370  -2.01612  -2.01141  -1.35253
 Alpha  occ. eigenvalues --   -1.26769  -1.26216  -1.07466  -1.05339  -1.05035
 Alpha  occ. eigenvalues --   -1.04072  -1.00941  -0.99614  -0.98406  -0.98120
 Alpha  occ. eigenvalues --   -0.97096  -0.93502  -0.85636  -0.83474  -0.82784
 Alpha  occ. eigenvalues --   -0.80837  -0.79804  -0.79713  -0.78495  -0.77765
 Alpha  occ. eigenvalues --   -0.75058  -0.74360  -0.74287  -0.73223  -0.71380
 Alpha  occ. eigenvalues --   -0.70391  -0.70028  -0.69853  -0.69409  -0.68185
 Alpha  occ. eigenvalues --   -0.68053  -0.67309  -0.67242  -0.67095  -0.64827
 Alpha  occ. eigenvalues --   -0.63756  -0.62906  -0.61353  -0.61243  -0.61149
 Alpha  occ. eigenvalues --   -0.60951  -0.60769  -0.59785  -0.56599  -0.55700
 Alpha  occ. eigenvalues --   -0.54538  -0.53900  -0.53733  -0.53234  -0.52827
 Alpha  occ. eigenvalues --   -0.52499  -0.52398  -0.51852  -0.49908  -0.49763
 Alpha  occ. eigenvalues --   -0.48809  -0.48676  -0.48591  -0.48176  -0.47624
 Alpha  occ. eigenvalues --   -0.47219  -0.46873  -0.46702  -0.46455  -0.46183
 Alpha  occ. eigenvalues --   -0.45851  -0.45656  -0.45584  -0.45012  -0.44671
 Alpha  occ. eigenvalues --   -0.44589  -0.44441  -0.44163  -0.44063  -0.44011
 Alpha  occ. eigenvalues --   -0.43601  -0.43381  -0.43098  -0.42883  -0.42732
 Alpha  occ. eigenvalues --   -0.42555  -0.41932  -0.41606  -0.40444  -0.40320
 Alpha  occ. eigenvalues --   -0.40124  -0.40002  -0.39848  -0.39680  -0.39651
 Alpha  occ. eigenvalues --   -0.39608  -0.39479  -0.39396  -0.39131  -0.39019
 Alpha  occ. eigenvalues --   -0.38955  -0.38673  -0.38433  -0.38257  -0.38043
 Alpha  occ. eigenvalues --   -0.37288  -0.37073  -0.37032  -0.37023  -0.36535
 Alpha  occ. eigenvalues --   -0.36320  -0.36278  -0.35987  -0.35644  -0.35556
 Alpha  occ. eigenvalues --   -0.35404  -0.35262  -0.34975  -0.34767  -0.34509
 Alpha  occ. eigenvalues --   -0.34225  -0.34085  -0.33979  -0.33281  -0.33187
 Alpha  occ. eigenvalues --   -0.32946  -0.32341  -0.31594  -0.31447  -0.31023
 Alpha  occ. eigenvalues --   -0.30701  -0.30575  -0.30460  -0.29690  -0.29424
 Alpha  occ. eigenvalues --   -0.27794  -0.27415  -0.26672  -0.26467  -0.25999
 Alpha  occ. eigenvalues --   -0.25451  -0.24930  -0.24128  -0.23262  -0.19870
 Alpha  occ. eigenvalues --   -0.19172  -0.18965
 Alpha virt. eigenvalues --   -0.07140  -0.03637  -0.02666   0.01283   0.03499
 Alpha virt. eigenvalues --    0.04636   0.04960   0.05488   0.06845   0.07592
 Alpha virt. eigenvalues --    0.08001   0.08452   0.09311   0.09735   0.10546
 Alpha virt. eigenvalues --    0.10860   0.10910   0.11597   0.11898   0.12143
 Alpha virt. eigenvalues --    0.12579   0.12788   0.13000   0.13203   0.13372
 Alpha virt. eigenvalues --    0.13588   0.13847   0.13948   0.14490   0.14810
 Alpha virt. eigenvalues --    0.15289   0.15346   0.15586   0.15808   0.15990
 Alpha virt. eigenvalues --    0.16073   0.16237   0.16394   0.16756   0.17004
 Alpha virt. eigenvalues --    0.17066   0.17331   0.17573   0.17698   0.17857
 Alpha virt. eigenvalues --    0.18046   0.18298   0.18636   0.18890   0.18919
 Alpha virt. eigenvalues --    0.19183   0.19342   0.19504   0.19693   0.19851
 Alpha virt. eigenvalues --    0.20075   0.20243   0.20526   0.20574   0.20864
 Alpha virt. eigenvalues --    0.21157   0.21278   0.21548   0.21807   0.22099
 Alpha virt. eigenvalues --    0.22431   0.22631   0.22763   0.23078   0.23162
 Alpha virt. eigenvalues --    0.23291   0.23781   0.24156   0.24523   0.24662
 Alpha virt. eigenvalues --    0.25042   0.25173   0.25443   0.25586   0.25739
 Alpha virt. eigenvalues --    0.25924   0.26340   0.26584   0.26880   0.27141
 Alpha virt. eigenvalues --    0.27457   0.27564   0.27998   0.28279   0.28396
 Alpha virt. eigenvalues --    0.28637   0.28972   0.29695   0.29787   0.30204
 Alpha virt. eigenvalues --    0.30713   0.30790   0.31263   0.31647   0.32083
 Alpha virt. eigenvalues --    0.32435   0.33420   0.34225   0.34671   0.34770
 Alpha virt. eigenvalues --    0.35462   0.36878   0.37399   0.37714   0.38591
 Alpha virt. eigenvalues --    0.38770   0.39313   0.40122   0.40223   0.40727
 Alpha virt. eigenvalues --    0.42007   0.42801   0.43332   0.45541   0.46822
 Alpha virt. eigenvalues --    0.47270   0.48009   0.48652   0.49367   0.49507
 Alpha virt. eigenvalues --    0.49919   0.50194   0.50954   0.51226   0.51640
 Alpha virt. eigenvalues --    0.51862   0.52008   0.52437   0.52650   0.53452
 Alpha virt. eigenvalues --    0.53622   0.53884   0.54861   0.55067   0.55250
 Alpha virt. eigenvalues --    0.55943   0.56352   0.56637   0.56945   0.57139
 Alpha virt. eigenvalues --    0.57272   0.57621   0.57927   0.58089   0.58227
 Alpha virt. eigenvalues --    0.58444   0.58759   0.58989   0.59200   0.59646
 Alpha virt. eigenvalues --    0.59903   0.59999   0.60068   0.60529   0.61000
 Alpha virt. eigenvalues --    0.61182   0.61466   0.61694   0.62040   0.62271
 Alpha virt. eigenvalues --    0.62867   0.63148   0.63431   0.63873   0.64220
 Alpha virt. eigenvalues --    0.64369   0.64771   0.65341   0.65378   0.65642
 Alpha virt. eigenvalues --    0.66233   0.66610   0.67034   0.67130   0.67584
 Alpha virt. eigenvalues --    0.67717   0.68115   0.68626   0.68673   0.69433
 Alpha virt. eigenvalues --    0.69922   0.70486   0.70522   0.70802   0.71368
 Alpha virt. eigenvalues --    0.71622   0.72183   0.72473   0.72609   0.73004
 Alpha virt. eigenvalues --    0.73295   0.73405   0.73438   0.74361   0.74501
 Alpha virt. eigenvalues --    0.74799   0.74948   0.75417   0.75685   0.76055
 Alpha virt. eigenvalues --    0.76801   0.77531   0.78133   0.78259   0.78573
 Alpha virt. eigenvalues --    0.78909   0.79199   0.79568   0.79702   0.80168
 Alpha virt. eigenvalues --    0.81184   0.81727   0.82268   0.82579   0.82811
 Alpha virt. eigenvalues --    0.83337   0.83645   0.83664   0.84292   0.84557
 Alpha virt. eigenvalues --    0.84612   0.84914   0.85053   0.85465   0.85543
 Alpha virt. eigenvalues --    0.85927   0.86081   0.86442   0.86703   0.86811
 Alpha virt. eigenvalues --    0.87081   0.87196   0.87660   0.87998   0.88401
 Alpha virt. eigenvalues --    0.88651   0.88702   0.88992   0.89326   0.89744
 Alpha virt. eigenvalues --    0.89796   0.90209   0.90341   0.90699   0.90965
 Alpha virt. eigenvalues --    0.91202   0.91434   0.91850   0.92055   0.92246
 Alpha virt. eigenvalues --    0.92915   0.93427   0.93629   0.93879   0.94219
 Alpha virt. eigenvalues --    0.94615   0.94718   0.95136   0.95374   0.95634
 Alpha virt. eigenvalues --    0.95943   0.96121   0.96473   0.96591   0.96967
 Alpha virt. eigenvalues --    0.97384   0.97598   0.97867   0.98113   0.98657
 Alpha virt. eigenvalues --    0.99031   0.99257   0.99719   1.00176   1.00564
 Alpha virt. eigenvalues --    1.01008   1.01334   1.01703   1.02428   1.03173
 Alpha virt. eigenvalues --    1.03395   1.03762   1.04357   1.05011   1.05640
 Alpha virt. eigenvalues --    1.05925   1.06149   1.06774   1.07192   1.08062
 Alpha virt. eigenvalues --    1.08469   1.08977   1.09644   1.10324   1.10958
 Alpha virt. eigenvalues --    1.12632   1.12894   1.13527   1.14396   1.14677
 Alpha virt. eigenvalues --    1.15204   1.15712   1.16613   1.16899   1.17516
 Alpha virt. eigenvalues --    1.17681   1.17802   1.18478   1.19309   1.19921
 Alpha virt. eigenvalues --    1.20593   1.21274   1.21504   1.21966   1.22233
 Alpha virt. eigenvalues --    1.23278   1.23491   1.24070   1.24743   1.25722
 Alpha virt. eigenvalues --    1.26553   1.27292   1.27783   1.28373   1.28645
 Alpha virt. eigenvalues --    1.28792   1.29263   1.29986   1.30640   1.31215
 Alpha virt. eigenvalues --    1.31464   1.32263   1.33285   1.33607   1.34560
 Alpha virt. eigenvalues --    1.34593   1.35416   1.35832   1.36488   1.37201
 Alpha virt. eigenvalues --    1.37531   1.38023   1.38504   1.38817   1.39425
 Alpha virt. eigenvalues --    1.39666   1.40270   1.40470   1.41021   1.41690
 Alpha virt. eigenvalues --    1.42094   1.42940   1.43184   1.44261   1.44489
 Alpha virt. eigenvalues --    1.44901   1.45667   1.46283   1.46509   1.46687
 Alpha virt. eigenvalues --    1.47462   1.47795   1.48219   1.48968   1.49852
 Alpha virt. eigenvalues --    1.50444   1.50989   1.51471   1.51800   1.53399
 Alpha virt. eigenvalues --    1.53434   1.54381   1.54928   1.55595   1.55848
 Alpha virt. eigenvalues --    1.56910   1.57270   1.59045   1.60317   1.60835
 Alpha virt. eigenvalues --    1.62100   1.63238   1.63652   1.64349   1.64878
 Alpha virt. eigenvalues --    1.65168   1.65552   1.66225   1.66883   1.67232
 Alpha virt. eigenvalues --    1.68116   1.68467   1.68852   1.69428   1.69616
 Alpha virt. eigenvalues --    1.70904   1.71292   1.71690   1.72403   1.73608
 Alpha virt. eigenvalues --    1.74692   1.75126   1.76018   1.76843   1.77198
 Alpha virt. eigenvalues --    1.77437   1.78332   1.78378   1.78414   1.79350
 Alpha virt. eigenvalues --    1.80254   1.80895   1.81149   1.81422   1.82165
 Alpha virt. eigenvalues --    1.82500   1.83130   1.83358   1.84099   1.84409
 Alpha virt. eigenvalues --    1.85000   1.85395   1.85502   1.85834   1.86120
 Alpha virt. eigenvalues --    1.86713   1.87027   1.87483   1.87558   1.88023
 Alpha virt. eigenvalues --    1.88296   1.88906   1.89328   1.89758   1.90584
 Alpha virt. eigenvalues --    1.91290   1.91573   1.91737   1.92085   1.92416
 Alpha virt. eigenvalues --    1.92707   1.93274   1.93521   1.93570   1.93702
 Alpha virt. eigenvalues --    1.94033   1.94291   1.94564   1.95118   1.95451
 Alpha virt. eigenvalues --    1.96163   1.96680   1.97405   1.97863   1.98411
 Alpha virt. eigenvalues --    1.99085   1.99895   2.00039   2.00901   2.01813
 Alpha virt. eigenvalues --    2.02240   2.02688   2.02887   2.03017   2.03445
 Alpha virt. eigenvalues --    2.03633   2.04367   2.04958   2.05386   2.05815
 Alpha virt. eigenvalues --    2.06341   2.06716   2.07050   2.07248   2.07338
 Alpha virt. eigenvalues --    2.07799   2.07907   2.08012   2.08468   2.09626
 Alpha virt. eigenvalues --    2.10042   2.10441   2.11029   2.11259   2.11684
 Alpha virt. eigenvalues --    2.12272   2.12632   2.13020   2.13480   2.13808
 Alpha virt. eigenvalues --    2.14252   2.14609   2.14742   2.15027   2.16039
 Alpha virt. eigenvalues --    2.16141   2.16661   2.16858   2.17329   2.17884
 Alpha virt. eigenvalues --    2.18577   2.18795   2.19325   2.19529   2.19795
 Alpha virt. eigenvalues --    2.20242   2.20293   2.20611   2.21478   2.21714
 Alpha virt. eigenvalues --    2.21859   2.22536   2.22782   2.22924   2.23403
 Alpha virt. eigenvalues --    2.23665   2.24073   2.24707   2.25162   2.25221
 Alpha virt. eigenvalues --    2.25942   2.26063   2.26575   2.26839   2.27641
 Alpha virt. eigenvalues --    2.27777   2.28404   2.28889   2.29111   2.29761
 Alpha virt. eigenvalues --    2.30899   2.31323   2.31633   2.31850   2.32528
 Alpha virt. eigenvalues --    2.32845   2.33319   2.34168   2.34218   2.35329
 Alpha virt. eigenvalues --    2.35716   2.36251   2.37180   2.39044   2.39850
 Alpha virt. eigenvalues --    2.39951   2.41011   2.41321   2.44036   2.44337
 Alpha virt. eigenvalues --    2.44583   2.45176   2.45513   2.46815   2.47522
 Alpha virt. eigenvalues --    2.48304   2.48484   2.49127   2.49932   2.50182
 Alpha virt. eigenvalues --    2.51021   2.51540   2.51671   2.52906   2.54698
 Alpha virt. eigenvalues --    2.54848   2.58263   2.60280   2.60627   2.60820
 Alpha virt. eigenvalues --    2.61425   2.62523   2.62744   2.65186   2.65426
 Alpha virt. eigenvalues --    2.65940   2.66250   2.66485   2.67770   2.68539
 Alpha virt. eigenvalues --    2.69202   2.70674   2.71166   2.72574   2.74590
 Alpha virt. eigenvalues --    2.76822   2.77280   2.78154   2.78878   2.78970
 Alpha virt. eigenvalues --    2.79833   2.79945   2.80423   2.81138   2.81555
 Alpha virt. eigenvalues --    2.82224   2.82679   2.83425   2.84115   2.84980
 Alpha virt. eigenvalues --    2.88561   2.90333   2.91073   2.91574   2.92757
 Alpha virt. eigenvalues --    2.93515   2.94398   2.95468   2.96685   2.97484
 Alpha virt. eigenvalues --    2.98734   2.99488   3.02195   3.04393   3.05686
 Alpha virt. eigenvalues --    3.05947   3.06754   3.08813   3.12016   3.12148
 Alpha virt. eigenvalues --    3.13180   3.13220   3.14590   3.20179   3.25802
 Alpha virt. eigenvalues --    3.31648   3.45435  12.02525
          Condensed to atoms (all electrons):
 Mulliken charges:
               1
     1  C    0.310330
     2  C    0.022768
     3  C   -0.078973
     4  C   -0.161912
     5  C   -0.190375
     6  C    0.326052
     7  C    0.066521
     8  C   -0.169106
     9  C   -0.142410
    10  C   -0.180288
    11  H    0.237580
    12  H    0.196360
    13  H    0.174736
    14  H    0.207196
    15  H    0.179196
    16  H    0.167644
    17  N   -0.485660
    18  N   -0.533026
    19  Ir  -0.081049
    20  O   -0.514947
    21  O   -0.539395
    22  O   -0.507858
    23  B    0.424275
    24  B    0.460054
    25  B    0.706242
    26  O   -0.505970
    27  O   -0.538951
    28  C    0.293858
    29  C    0.303070
    30  C    0.273771
    31  C    0.284676
    32  C    0.306614
    33  C    0.293068
    34  O   -0.523103
    35  C   -0.500795
    36  H    0.162511
    37  H    0.149174
    38  H    0.167370
    39  C   -0.513035
    40  H    0.174384
    41  H    0.164729
    42  H    0.147379
    43  C   -0.506535
    44  H    0.165507
    45  H    0.149385
    46  H    0.163164
    47  C   -0.505803
    48  H    0.188131
    49  H    0.146544
    50  H    0.154593
    51  C   -0.505396
    52  H    0.157995
    53  H    0.157946
    54  H    0.151675
    55  C   -0.506382
    56  H    0.147222
    57  H    0.162349
    58  H    0.167556
    59  C   -0.512145
    60  H    0.150345
    61  H    0.166446
    62  H    0.160448
    63  C   -0.496843
    64  H    0.158037
    65  H    0.142108
    66  H    0.176666
    67  C   -0.500854
    68  H    0.162289
    69  H    0.155023
    70  H    0.172668
    71  C   -0.512147
    72  H    0.158419
    73  H    0.149235
    74  H    0.195930
    75  C   -0.497418
    76  H    0.152420
    77  H    0.237783
    78  H    0.138634
    79  C   -0.504545
    80  H    0.152659
    81  H    0.162641
    82  H    0.172048
    83  H    0.008475
    84  C    0.649014
    85  O   -0.514453
    86  C   -0.404946
    87  H    0.195117
    88  H    0.169306
    89  C   -0.381103
    90  H    0.209188
    91  H    0.162664
    92  N   -0.379990
    93  C   -0.363415
    94  H    0.210325
    95  H    0.181808
    96  H    0.164279
    97  C   -0.482867
    98  H    0.183844
    99  H    0.171724
   100  C    0.964183
   101  F   -0.316806
   102  F   -0.312963
   103  F   -0.306446
   104  H    0.179582
   105  H    0.152973
 Sum of Mulliken charges =  -0.00000
 Mulliken charges with hydrogens summed into heavy atoms:
               1
     1  C    0.310330
     2  C    0.260348
     3  C   -0.078973
     4  C    0.034448
     5  C   -0.015639
     6  C    0.326052
     7  C    0.273717
     8  C    0.010476
     9  C    0.036786
    10  C   -0.012644
    17  N   -0.485660
    18  N   -0.533026
    19  Ir  -0.072574
    20  O   -0.514947
    21  O   -0.539395
    22  O   -0.507858
    23  B    0.424275
    24  B    0.460054
    25  B    0.706242
    26  O   -0.505970
    27  O   -0.538951
    28  C    0.293858
    29  C    0.303070
    30  C    0.273771
    31  C    0.284676
    32  C    0.306614
    33  C    0.293068
    34  O   -0.523103
    35  C   -0.021740
    39  C   -0.026544
    43  C   -0.028479
    47  C   -0.016535
    51  C   -0.037780
    55  C   -0.029255
    59  C   -0.034906
    63  C   -0.020032
    67  C   -0.010873
    71  C   -0.008563
    75  C    0.031419
    79  C   -0.017196
    84  C    0.649014
    85  O   -0.514453
    86  C   -0.040523
    89  C   -0.009251
    92  N   -0.379990
    93  C    0.192997
    97  C    0.025673
   100  C    0.964183
   101  F   -0.316806
   102  F   -0.312963
   103  F   -0.306446
 APT charges:
               1
     1  C    0.250705
     2  C    0.062033
     3  C   -0.205352
     4  C    0.096905
     5  C   -0.188775
     6  C    0.093646
     7  C    0.006089
     8  C    0.001152
     9  C    0.044904
    10  C   -0.131947
    11  H    0.162636
    12  H    0.051338
    13  H    0.041287
    14  H    0.101986
    15  H    0.026074
    16  H    0.037363
    17  N   -0.175052
    18  N   -0.012135
    19  Ir  -0.463002
    20  O   -0.910640
    21  O   -0.970923
    22  O   -0.874459
    23  B    1.218417
    24  B    1.256828
    25  B    1.146955
    26  O   -0.926198
    27  O   -0.980304
    28  C    0.472303
    29  C    0.464282
    30  C    0.467029
    31  C    0.477134
    32  C    0.496864
    33  C    0.473958
    34  O   -0.984482
    35  C   -0.019426
    36  H   -0.006116
    37  H   -0.019822
    38  H   -0.016190
    39  C   -0.008288
    40  H    0.003154
    41  H   -0.007207
    42  H   -0.015660
    43  C   -0.008210
    44  H    0.003399
    45  H   -0.018558
    46  H    0.004254
    47  C   -0.035456
    48  H    0.018268
    49  H   -0.029324
    50  H    0.001314
    51  C   -0.024179
    52  H   -0.003376
    53  H   -0.003635
    54  H   -0.027697
    55  C   -0.004051
    56  H   -0.023391
    57  H   -0.003632
    58  H    0.003256
    59  C   -0.003742
    60  H   -0.020667
    61  H   -0.000640
    62  H   -0.002976
    63  C   -0.037013
    64  H   -0.001680
    65  H   -0.028250
    66  H    0.014278
    67  C   -0.019370
    68  H   -0.008552
    69  H   -0.014733
    70  H    0.001326
    71  C   -0.035429
    72  H    0.003712
    73  H   -0.009964
    74  H    0.028535
    75  C   -0.051476
    76  H   -0.004968
    77  H    0.067518
    78  H   -0.019514
    79  C   -0.005717
    80  H   -0.005890
    81  H   -0.009118
    82  H    0.000792
    83  H   -0.159802
    84  C    1.081791
    85  O   -0.899316
    86  C   -0.011327
    87  H    0.035030
    88  H   -0.030519
    89  C    0.001787
    90  H    0.059625
    91  H   -0.037130
    92  N   -0.699843
    93  C    0.289003
    94  H    0.008117
    95  H    0.019438
    96  H   -0.023815
    97  C    0.060361
    98  H   -0.002040
    99  H   -0.005865
   100  C    1.834221
   101  F   -0.595904
   102  F   -0.625014
   103  F   -0.528192
   104  H    0.035557
   105  H   -0.028667
 Sum of APT charges =  -0.00000
 APT charges with hydrogens summed into heavy atoms:
               1
     1  C    0.250705
     2  C    0.224669
     3  C   -0.205352
     4  C    0.148242
     5  C   -0.147489
     6  C    0.093646
     7  C    0.108075
     8  C    0.036710
     9  C    0.070978
    10  C   -0.094583
    17  N   -0.175052
    18  N   -0.012135
    19  Ir  -0.622805
    20  O   -0.910640
    21  O   -0.970923
    22  O   -0.874459
    23  B    1.218417
    24  B    1.256828
    25  B    1.146955
    26  O   -0.926198
    27  O   -0.980304
    28  C    0.472303
    29  C    0.464282
    30  C    0.467029
    31  C    0.477134
    32  C    0.496864
    33  C    0.473958
    34  O   -0.984482
    35  C   -0.061554
    39  C   -0.028001
    43  C   -0.019115
    47  C   -0.045198
    51  C   -0.058888
    55  C   -0.027818
    59  C   -0.028025
    63  C   -0.052665
    67  C   -0.041328
    71  C   -0.013146
    75  C   -0.008439
    79  C   -0.019933
    84  C    1.081791
    85  O   -0.899316
    86  C   -0.006815
    89  C    0.024281
    92  N   -0.699843
    93  C    0.292743
    97  C    0.023789
   100  C    1.834221
   101  F   -0.595904
   102  F   -0.625014
   103  F   -0.528192
 Electronic spatial extent (au):  <R**2>=          27236.5874
 Charge=             -0.0000 electrons
 Dipole moment (field-independent basis, Debye):
    X=             -0.5047    Y=             -3.3814    Z=             -0.3652  Tot=              3.4383
 Quadrupole moment (field-independent basis, Debye-Ang):
   XX=           -308.0428   YY=           -278.5332   ZZ=           -310.8905
   XY=             -5.2835   XZ=              4.4510   YZ=              5.2570
 Traceless Quadrupole moment (field-independent basis, Debye-Ang):
   XX=             -8.8873   YY=             20.6223   ZZ=            -11.7350
   XY=             -5.2835   XZ=              4.4510   YZ=              5.2570
 Octapole moment (field-independent basis, Debye-Ang**2):
  XXX=            -46.7658  YYY=           -190.6781  ZZZ=            -46.7031  XYY=             49.4528
  XXY=            -56.8982  XXZ=            -34.3580  XZZ=              2.7999  YZZ=             14.6355
  YYZ=            -73.6362  XYZ=             13.1271
 Hexadecapole moment (field-independent basis, Debye-Ang**3):
 XXXX=         -15072.7936 YYYY=         -10807.0951 ZZZZ=          -8449.2648 XXXY=           -148.4539
 XXXZ=            -25.8351 YYYX=             59.9655 YYYZ=            289.1534 ZZZX=             72.5705
 ZZZY=           -165.3009 XXYY=          -4170.5817 XXZZ=          -3928.1547 YYZZ=          -3368.7575
 XXYZ=             58.8764 YYXZ=             -3.8309 ZZXY=             -8.1304
 N-N= 8.550933875190D+03 E-N=-2.290957508278D+04  KE= 2.410389804552D+03
  Exact polarizability:     525.743      -2.828     517.588       6.696      17.024     387.380
 Approx polarizability:     759.275      -6.064     760.191       3.360      23.134     549.643
   1 Symmetry operations used in ECPInt.
 ECPInt:  NShTT=   50086 NPrTT=  307226 LenC2=   39052 LenP2D=  121454.
 LDataN:  DoStor=T MaxTD1= 8 Len=  415
 Calling FoFJK, ICntrl=    100127 FMM=F ISym2X=0 I1Cent= 0 IOpClX= 0 NMat=1 NMatS=1 NMatT=0.
 Defaulting to unpruned grid for atomic number  77.
 Defaulting to unpruned grid for atomic number  77.
 Defaulting to unpruned grid for atomic number  77.
 Defaulting to unpruned grid for atomic number  77.
 Defaulting to unpruned grid for atomic number  77.
 Defaulting to unpruned grid for atomic number  77.
 Defaulting to unpruned grid for atomic number  77.
 Defaulting to unpruned grid for atomic number  77.
 Defaulting to unpruned grid for atomic number  77.
 Defaulting to unpruned grid for atomic number  77.
 Defaulting to unpruned grid for atomic number  77.
 Defaulting to unpruned grid for atomic number  77.
 Defaulting to unpruned grid for atomic number  77.
 Defaulting to unpruned grid for atomic number  77.
 Defaulting to unpruned grid for atomic number  77.
 Defaulting to unpruned grid for atomic number  77.
 Full mass-weighted force constant matrix:
 Low frequencies ---   -3.7733   -0.0007   -0.0005   -0.0003    4.2166    7.8925
 Low frequencies ---   11.2324   25.1855   31.8669
 Diagonal vibrational polarizability:
       69.4817938      60.9885521     164.0621846
 Harmonic frequencies (cm**-1), IR intensities (KM/Mole), Raman scattering
 activities (A**4/AMU), depolarization ratios for plane and unpolarized
 incident light, reduced masses (AMU), force constants (mDyne/A),
 and normal coordinates:
                      1                      2                      3
                      A                      A                      A
 Frequencies --     10.8304                24.8476                31.7381
 Red. masses --     12.3680                 5.8172                 3.9083
 Frc consts  --      0.0009                 0.0021                 0.0023
 IR Inten    --      0.1233                 0.3944                 0.3336
  Atom AN      X      Y      Z        X      Y      Z        X      Y      Z
     1   6    -0.01   0.01  -0.04    -0.01  -0.00  -0.04     0.01   0.02  -0.02
     2   6    -0.00   0.00  -0.01     0.01  -0.02   0.04     0.01   0.01   0.02
     3   6    -0.01  -0.00   0.03    -0.00  -0.03   0.05     0.01   0.01   0.01
     4   6    -0.01  -0.01   0.04    -0.01  -0.03   0.01     0.01   0.01  -0.01
     5   6    -0.01   0.00  -0.00    -0.02  -0.01  -0.03     0.01   0.01  -0.03
     6   6    -0.01   0.01  -0.06    -0.01   0.01  -0.08     0.01   0.02  -0.05
     7   6    -0.01   0.01  -0.05    -0.01   0.01  -0.05     0.01   0.01  -0.02
     8   6    -0.01   0.02  -0.09    -0.02   0.03  -0.15     0.01   0.02  -0.08
     9   6    -0.01   0.02  -0.12    -0.03   0.04  -0.21     0.01   0.03  -0.13
    10   6    -0.01   0.02  -0.10    -0.03   0.03  -0.18     0.01   0.03  -0.11
    11   1     0.00   0.00  -0.02     0.01  -0.02   0.07     0.01   0.01   0.04
    12   1    -0.02  -0.01   0.07    -0.02  -0.04   0.02     0.01   0.01  -0.02
    13   1    -0.02   0.00   0.00    -0.03  -0.01  -0.05     0.00   0.02  -0.05
    14   1    -0.00   0.00  -0.03    -0.01   0.00  -0.01     0.01  -0.01   0.02
    15   1    -0.02   0.03  -0.16    -0.04   0.06  -0.29     0.01   0.04  -0.19
    16   1    -0.01   0.03  -0.13    -0.03   0.04  -0.23     0.01   0.04  -0.15
    17   7    -0.00   0.01  -0.04     0.00  -0.00  -0.00     0.01   0.02   0.01
    18   7    -0.01   0.01  -0.04    -0.01   0.01  -0.02     0.01   0.01  -0.01
    19  77    -0.00   0.01  -0.02    -0.00  -0.00   0.01     0.00   0.00   0.02
    20   8     0.07   0.01  -0.03     0.11   0.06   0.02    -0.12  -0.03   0.02
    21   8     0.02  -0.01   0.03     0.01  -0.01   0.03     0.01  -0.00   0.03
    22   8    -0.03  -0.01  -0.02     0.01  -0.00  -0.04    -0.01  -0.01  -0.01
    23   5     0.00  -0.00   0.02     0.00  -0.01   0.02    -0.00  -0.01   0.01
    24   5     0.04   0.00  -0.02     0.03   0.03   0.01    -0.02   0.01   0.02
    25   5    -0.03  -0.00  -0.03    -0.00  -0.03  -0.01    -0.01  -0.02  -0.00
    26   8    -0.01   0.00  -0.05    -0.02  -0.03   0.01    -0.01  -0.00  -0.00
    27   8     0.04  -0.00  -0.01    -0.03   0.02   0.00     0.07   0.04   0.01
    28   6     0.06  -0.00  -0.02    -0.01   0.03   0.00     0.05   0.05   0.02
    29   6     0.07   0.01  -0.03     0.07   0.09   0.02    -0.06  -0.04   0.01
    30   6    -0.00  -0.00  -0.03    -0.01   0.01  -0.04    -0.01   0.01  -0.02
    31   6     0.00   0.01  -0.06    -0.02   0.00  -0.01    -0.00   0.01  -0.02
    32   6     0.02  -0.01   0.05     0.01  -0.01   0.04     0.00  -0.01   0.02
    33   6     0.01  -0.01   0.05    -0.00  -0.01   0.02    -0.01  -0.01   0.00
    34   8    -0.01  -0.00   0.03    -0.01  -0.01   0.01    -0.01  -0.01   0.00
    35   6     0.07   0.02  -0.02     0.05   0.18   0.04    -0.03  -0.18  -0.02
    36   1     0.06   0.02  -0.02     0.01   0.18   0.04     0.03  -0.19  -0.02
    37   1     0.06   0.02  -0.02     0.02   0.21   0.05     0.01  -0.22  -0.03
    38   1     0.07   0.02  -0.02     0.11   0.21   0.07    -0.12  -0.22  -0.04
    39   6     0.08  -0.00  -0.03     0.14   0.07   0.02    -0.16  -0.00   0.04
    40   1     0.08  -0.01  -0.03     0.16   0.01   0.01    -0.20   0.09   0.05
    41   1     0.09   0.00  -0.04     0.19   0.11   0.03    -0.24  -0.07   0.04
    42   1     0.08  -0.01  -0.03     0.11   0.08   0.02    -0.12  -0.00   0.03
    43   6     0.06   0.00  -0.02    -0.09   0.07   0.01     0.18   0.02  -0.02
    44   1     0.05  -0.01  -0.01    -0.14   0.02  -0.01     0.26   0.09  -0.01
    45   1     0.07   0.00  -0.02    -0.08   0.09   0.01     0.17   0.02  -0.01
    46   1     0.05   0.01  -0.03    -0.11   0.13   0.02     0.21  -0.08  -0.05
    47   6     0.07  -0.02  -0.00     0.01  -0.06  -0.01     0.03   0.19   0.06
    48   1     0.07  -0.02   0.00     0.07  -0.09  -0.01    -0.06   0.22   0.09
    49   1     0.08  -0.02  -0.00     0.03  -0.06  -0.01     0.01   0.21   0.07
    50   1     0.06  -0.02   0.01    -0.05  -0.11  -0.02     0.11   0.26   0.07
    51   6     0.00  -0.02   0.06    -0.00  -0.03   0.05     0.01  -0.03   0.02
    52   1    -0.01  -0.01   0.06    -0.01  -0.04   0.05     0.02  -0.03   0.02
    53   1     0.01  -0.02   0.06     0.00  -0.03   0.06     0.02  -0.03   0.03
    54   1     0.00  -0.02   0.08    -0.00  -0.03   0.05     0.01  -0.04   0.01
    55   6     0.04  -0.02   0.06     0.02  -0.00   0.05    -0.00  -0.01   0.01
    56   1     0.03  -0.03   0.08     0.02  -0.01   0.05    -0.01  -0.02   0.00
    57   1     0.05  -0.02   0.07     0.03  -0.01   0.06     0.01  -0.01   0.02
    58   1     0.05  -0.02   0.05     0.03   0.01   0.04    -0.01   0.01   0.02
    59   6    -0.01  -0.02   0.07    -0.01  -0.03   0.02    -0.02  -0.03   0.00
    60   1    -0.00  -0.02   0.08    -0.01  -0.03   0.03    -0.01  -0.03   0.00
    61   1    -0.02  -0.01   0.07    -0.02  -0.03   0.01    -0.02  -0.02  -0.01
    62   1    -0.02  -0.01   0.07    -0.02  -0.04   0.03    -0.01  -0.03   0.00
    63   6     0.02  -0.01   0.05     0.00   0.00   0.01    -0.01  -0.00  -0.00
    64   1     0.01  -0.01   0.04    -0.00   0.00  -0.00    -0.01  -0.00  -0.01
    65   1     0.03  -0.02   0.06     0.01   0.00   0.02    -0.01  -0.00  -0.00
    66   1     0.03  -0.01   0.03     0.01   0.01   0.01    -0.01   0.00   0.00
    67   6    -0.01   0.01  -0.08    -0.00  -0.02  -0.02    -0.01   0.01  -0.04
    68   1    -0.03   0.01  -0.08     0.01  -0.04  -0.04    -0.02   0.00  -0.04
    69   1     0.01   0.02  -0.09     0.00  -0.00  -0.04    -0.00   0.02  -0.05
    70   1    -0.00   0.02  -0.10    -0.01  -0.04  -0.01    -0.01   0.01  -0.03
    71   6     0.04   0.01  -0.06    -0.04   0.03   0.01     0.00   0.03  -0.01
    72   1     0.04   0.02  -0.08    -0.04   0.02   0.05     0.02   0.05   0.01
    73   1     0.05   0.01  -0.06    -0.05   0.06  -0.00    -0.01   0.04  -0.01
    74   1     0.04   0.01  -0.04    -0.05   0.04   0.02     0.02   0.02  -0.00
    75   6     0.02  -0.00  -0.01    -0.03   0.04  -0.05     0.00   0.01  -0.00
    76   1     0.01  -0.01   0.01    -0.02   0.04  -0.07    -0.00   0.01  -0.00
    77   1     0.02  -0.00   0.00    -0.03   0.04  -0.03     0.00   0.01   0.01
    78   1     0.04   0.00  -0.01    -0.04   0.05  -0.05     0.01   0.03  -0.01
    79   6    -0.00   0.00  -0.04     0.01   0.02  -0.06    -0.01   0.01  -0.04
    80   1     0.01   0.01  -0.04    -0.00   0.03  -0.06    -0.01   0.03  -0.05
    81   1    -0.02   0.00  -0.05     0.02  -0.00  -0.06    -0.02   0.00  -0.05
    82   1    -0.01  -0.01  -0.02     0.01   0.03  -0.08    -0.01   0.00  -0.04
    83   1    -0.01   0.01  -0.02    -0.01   0.00  -0.00    -0.01   0.01   0.01
    84   6    -0.06   0.01  -0.01    -0.02  -0.03  -0.00    -0.00  -0.03   0.00
    85   8    -0.06   0.00  -0.02    -0.03  -0.04   0.00    -0.00  -0.03   0.01
    86   6    -0.07   0.01   0.01    -0.02  -0.01   0.00    -0.00  -0.04  -0.00
    87   1    -0.05  -0.01   0.04    -0.01  -0.02   0.02    -0.01  -0.05   0.00
    88   1    -0.09   0.03   0.03    -0.02   0.00   0.01    -0.01  -0.03   0.00
    89   6    -0.05  -0.00  -0.03     0.00  -0.05  -0.00    -0.01  -0.03   0.00
    90   1    -0.06  -0.00  -0.04    -0.01  -0.06   0.01    -0.01  -0.03   0.01
    91   1    -0.06  -0.00  -0.03     0.01  -0.06  -0.01    -0.01  -0.03  -0.00
    92   7    -0.06   0.00  -0.01    -0.00  -0.03  -0.01    -0.01  -0.03  -0.00
    93   6    -0.05   0.01   0.00     0.01  -0.02  -0.00    -0.01  -0.03  -0.01
    94   1    -0.04   0.01   0.01     0.01  -0.02  -0.00    -0.02  -0.04  -0.01
    95   1    -0.05   0.01  -0.00     0.02  -0.03  -0.00    -0.01  -0.03  -0.01
    96   1    -0.07   0.01   0.02     0.01  -0.02  -0.00    -0.00  -0.04  -0.02
    97   6    -0.07   0.01  -0.01    -0.03  -0.01  -0.02     0.01  -0.04  -0.03
    98   1    -0.09   0.03  -0.04    -0.04  -0.00  -0.03     0.01  -0.02  -0.04
    99   1    -0.04  -0.01  -0.03    -0.03  -0.03  -0.03     0.01  -0.06  -0.04
   100   6    -0.01  -0.03   0.14     0.00  -0.05   0.07     0.01   0.00   0.03
   101   9    -0.26   0.14   0.39     0.06  -0.15  -0.01     0.02  -0.03   0.00
   102   9     0.23  -0.27   0.33    -0.05   0.07   0.03    -0.00   0.04   0.01
   103   9     0.00   0.03  -0.16     0.01  -0.07   0.22     0.01  -0.00   0.07
   104   1    -0.01   0.02  -0.11    -0.03   0.03  -0.18     0.01   0.01  -0.09
   105   1    -0.08   0.02   0.01    -0.04   0.01  -0.01     0.01  -0.04  -0.03
                      4                      5                      6
                      A                      A                      A
 Frequencies --     37.0304                40.3412                43.8761
 Red. masses --      4.1490                 5.2105                 4.7047
 Frc consts  --      0.0034                 0.0050                 0.0053
 IR Inten    --      0.5339                 1.1229                 0.3246
  Atom AN      X      Y      Z        X      Y      Z        X      Y      Z
     1   6    -0.01  -0.01   0.00     0.01  -0.01   0.10    -0.02  -0.01  -0.04
     2   6    -0.01  -0.00  -0.01     0.03  -0.01   0.00    -0.04  -0.01   0.00
     3   6    -0.01  -0.00   0.02     0.02  -0.03   0.10    -0.03   0.00  -0.01
     4   6    -0.01  -0.00   0.03     0.00  -0.04   0.21    -0.02   0.01  -0.07
     5   6    -0.00  -0.01   0.02    -0.00  -0.03   0.21    -0.01   0.00  -0.09
     6   6    -0.00  -0.01   0.01     0.01  -0.01   0.08    -0.02  -0.02  -0.01
     7   6    -0.00  -0.02  -0.01    -0.01   0.03  -0.07    -0.01  -0.03   0.06
     8   6     0.00  -0.02   0.03    -0.01   0.02  -0.02    -0.01  -0.04   0.11
     9   6     0.01  -0.03   0.05     0.00  -0.01   0.09    -0.01  -0.04   0.09
    10   6     0.00  -0.02   0.04     0.01  -0.02   0.14    -0.02  -0.03   0.03
    11   1    -0.02  -0.00  -0.01     0.04  -0.00  -0.07    -0.05  -0.01   0.03
    12   1    -0.01  -0.00   0.04    -0.01  -0.05   0.30    -0.02   0.02  -0.09
    13   1    -0.00  -0.01   0.03    -0.02  -0.04   0.30    -0.00   0.01  -0.13
    14   1    -0.01  -0.02  -0.03    -0.02   0.05  -0.15    -0.01  -0.03   0.06
    15   1     0.01  -0.03   0.08     0.01  -0.02   0.14    -0.01  -0.05   0.13
    16   1     0.01  -0.02   0.06     0.02  -0.04   0.22    -0.02  -0.03   0.03
    17   7    -0.01  -0.01  -0.01     0.02  -0.01   0.00    -0.03  -0.01  -0.02
    18   7    -0.01  -0.01  -0.01     0.00   0.01  -0.02    -0.02  -0.02   0.00
    19  77    -0.01  -0.01  -0.03     0.01   0.02  -0.03    -0.02  -0.01  -0.02
    20   8    -0.02  -0.00  -0.02     0.02  -0.01  -0.04     0.02   0.00  -0.02
    21   8     0.03  -0.02   0.05     0.02  -0.01  -0.01    -0.04  -0.03  -0.05
    22   8     0.08   0.07  -0.03    -0.04   0.02  -0.00     0.06   0.05  -0.05
    23   5    -0.02  -0.03  -0.02     0.01   0.01  -0.01    -0.02  -0.01  -0.00
    24   5    -0.01  -0.00  -0.03     0.03   0.00  -0.03     0.01   0.00  -0.02
    25   5     0.06   0.04  -0.02    -0.06   0.02  -0.02     0.05   0.02  -0.01
    26   8     0.02   0.01   0.02    -0.05   0.00  -0.04     0.01   0.00   0.04
    27   8     0.00   0.01  -0.03     0.04  -0.00  -0.02     0.04   0.01  -0.02
    28   6     0.00   0.02  -0.03     0.04  -0.01  -0.02     0.08   0.03  -0.02
    29   6    -0.01   0.00  -0.02     0.02  -0.03  -0.03     0.06   0.02  -0.03
    30   6     0.03   0.02  -0.01    -0.02   0.00  -0.01     0.00   0.03  -0.02
    31   6     0.02   0.01   0.02    -0.02  -0.01  -0.03    -0.00   0.03   0.02
    32   6     0.01  -0.05   0.08     0.02  -0.02  -0.00    -0.03  -0.02  -0.05
    33   6    -0.04  -0.05  -0.02     0.01  -0.01   0.04    -0.00  -0.01   0.06
    34   8    -0.06  -0.06  -0.05     0.01   0.01   0.03     0.00   0.02   0.06
    35   6    -0.01  -0.02  -0.03     0.03  -0.05  -0.02     0.06   0.00  -0.07
    36   1     0.00  -0.02  -0.03     0.05  -0.06  -0.02     0.05  -0.00  -0.07
    37   1    -0.00  -0.02  -0.03     0.02  -0.06  -0.01     0.09  -0.00  -0.08
    38   1    -0.02  -0.03  -0.02     0.02  -0.07  -0.00     0.04  -0.01  -0.08
    39   6    -0.03   0.01  -0.01    -0.01  -0.03  -0.05     0.07   0.03  -0.01
    40   1    -0.03   0.03  -0.01    -0.01  -0.01  -0.06     0.06   0.03   0.02
    41   1    -0.04   0.00  -0.01    -0.02  -0.04  -0.06     0.06   0.02  -0.02
    42   1    -0.02   0.02  -0.02    -0.00  -0.05  -0.05     0.10   0.03  -0.02
    43   6     0.02   0.02  -0.04     0.07  -0.02  -0.03     0.11   0.03  -0.04
    44   1     0.04   0.03  -0.04     0.08  -0.01  -0.02     0.13   0.04  -0.04
    45   1     0.02   0.03  -0.04     0.07  -0.02  -0.03     0.13   0.04  -0.04
    46   1     0.03   0.00  -0.05     0.07  -0.04  -0.04     0.11   0.01  -0.07
    47   6     0.00   0.04  -0.01     0.04   0.01  -0.01     0.08   0.05   0.03
[...]
 00036473,-0.00005256,-0.00012974,0.00004266,-0.00006139,0.00006960,-0.
 00004919,0.00008438,0.00001792,-0.00002220,-0.00001573,-0.00000134,0.0
 0000238,0.00000081,0.00000945,0.00001770,0.00000034,-0.00001343,-0.000
 00770,0.00000881,0.00000288,-0.00000188,-0.00000699,0.00000566,0.00000
 098,0.00001030,0.00003574,-0.00001706,0.00002955,-0.00001166,0.0000145
 3,-0.00000661,-0.00000312,-0.00000319,-0.00000664,0.00000284,0.0000004
 7,-0.00000166,0.00000383,-0.00000413,0.00000706,0.00002934,0.00003252,
 0.00002308,-0.00000828,-0.00000143,-0.00000261,-0.00006927,-0.00003415
 ,-0.00002879,0.00002703,0.00001838,-0.00000785,-0.00001377,-0.00000255
 ,-0.00000686,-0.00001066,-0.00000367,0.00000709,-0.00000522,-0.0000044
 3,0.00000102,0.11831775,0.10940238,-0.00010881,0.00023536,-0.00137018,
 -0.00007457,-0.00001245,0.00001974,0.00004357,-0.00003258,-0.00001381,
 -0.00000018,0.00007731,-0.00002233,-0.00004256,-0.00009019,0.00004582,
 0.00039419,-0.00067483,-0.00056920,-0.00506996,-0.00061803,0.00140888,
 0.01135608,-0.00080480,-0.03715095,0.00521973,0.00340124,0.00270960,0.
 00173576,-0.00200656,0.00665888,0.00000515,-0.00000324,-0.00000368,-0.
 00000122,-0.00000009,-0.00001406,-0.00002723,0.00001837,0.00006735,-0.
 00048899,0.00081991,-0.00301790,-0.00067825,0.00088719,-0.00349322,0.0
 0034367,0.00016741,0.00021053,0.00007617,0.00007898,0.00008491,-0.0000
 4718,-0.00262027,0.00795410,-0.00018864,0.00025394,-0.00050651,0.00000
 252,0.00005159,-0.00005332,0.00009656,0.00002706,-0.00003967,-0.000008
 17,-0.00001729,-0.00002381,-0.00008649,-0.00006932,0.00004980,0.000000
 90,-0.00005413,0.00008006,0.00003111,0.00003039,0.00002490,-0.00002233
 ,-0.00000604,-0.00002600,0.00000538,0.00001594,-0.00006207,-0.00001095
 ,-0.00001960,0.00002894,-0.00000568,-0.00001846,0.00003745,0.00000436,
 0.00000307,0.00001830,0.00000317,0.00000684,0.00001498,-0.00000116,-0.
 00002233,0.00002745,-0.00000932,-0.00001526,0.00002098,0.00004524,0.00
 002084,-0.00004797,-0.00000081,0.00000397,-0.00001059,0.00000294,0.000
 00502,-0.00000041,-0.00000182,-0.00000135,-0.00000051,-0.00000011,-0.0
 0000251,0.00000179,-0.00001797,-0.00000091,-0.00000167,0.00001204,-0.0
 0000610,-0.00000758,-0.00000702,0.00000055,-0.00000085,0.00000445,0.00
 000618,0.00000061,0.00000523,0.00000302,-0.00000544,-0.00000230,0.0000
 0006,0.00000131,-0.00000129,-0.00000109,-0.00000353,0.00000435,0.00000
 168,0.00000164,0.00000237,-0.00000449,-0.00001377,-0.00000059,-0.00000
 805,0.00000889,0.00000028,-0.00000072,-0.00000723,0.00000046,0.0000054
 6,0.00000336,-0.00000844,-0.00003678,-0.00001689,0.00000738,0.00002541
 ,-0.00000864,0.00000739,0.00000294,0.00003103,0.,0.00000678,-0.0000004
 4,-0.00001509,-0.00003063,-0.00000256,-0.00000089,0.00001134,-0.000002
 85,0.00001772,0.00001092,-0.00000184,0.00000028,-0.00000143,-0.0000063
 6,0.00000517,0.00000266,-0.00000036,0.00000293,-0.00000217,-0.00000029
 ,-0.00000026,0.00000313,0.00000002,-0.00000247,-0.00000148,-0.00000267
 ,0.00000050,0.00000143,-0.00000133,0.00000032,0.00000354,-0.00000147,0
 .00000304,-0.00000335,-0.00000207,-0.00000407,-0.00000141,-0.00000021,
 0.00000008,-0.00000112,-0.00000311,0.00000052,0.00000162,-0.00000091,-
 0.00000078,-0.00000136,-0.00000060,-0.00000045,0.00000022,0.00000083,-
 0.00000118,0.00000023,-0.00000332,-0.00000146,0.00000106,0.00000067,-0
 .00000086,-0.00000089,-0.00000122,0.00000097,-0.00000033,0.00000325,0.
 00000126,0.00000183,-0.00000524,-0.00000039,-0.00000031,0.00000087,-0.
 00000047,-0.00000183,0.00000683,-0.00000085,-0.00000295,-0.00000336,-0
 .00000026,0.00000015,-0.00000208,-0.00000066,-0.00000115,-0.00000135,0
 .00000082,0.00000060,0.00000006,-0.00000018,-0.00000002,0.00000093,0.0
 0008488,-0.00010542,0.00020431,0.00003413,-0.00000001,0.00000077,-0.00
 001044,-0.00000450,-0.00002510,-0.00000642,0.00001353,-0.00000073,-0.0
 0000208,-0.00001491,0.00000530,-0.00000196,-0.00000518,0.00000055,0.00
 000749,-0.00000737,-0.00000310,0.00000279,-0.00000031,0.00000077,-0.00
 000221,-0.00000044,0.00000238,-0.00002303,-0.00001988,0.00000139,-0.00
 000717,0.00000737,0.00000313,0.00000223,-0.00000039,0.00000016,-0.0000
 0162,-0.00000186,0.00000059,-0.00000025,0.00000197,-0.00000207,-0.0000
 2460,-0.00003864,-0.00000117,0.00002349,0.00001420,-0.00002773,0.00001
 977,0.00003121,0.00001994,-0.00001612,-0.00002228,0.00005349,0.0000125
 8,0.00000562,-0.00000346,-0.00000287,0.00000122,-0.00000578,0.00000293
 ,0.00001184,-0.00000823,-0.01257055,0.00110955,0.02681570,0.00001967,-
 0.00001894,0.00001539,0.00000940,0.00000476,0.00000891,-0.00000292,-0.
 00001181,-0.00000174,0.00000120,0.00001780,0.00000159,-0.00001555,-0.0
 0000684,-0.00000219,0.00005683,-0.00005140,0.00000803,-0.00008958,0.00
 001984,0.00000918,-0.00001746,-0.00008203,0.00000081,-0.00004154,0.000
 00638,0.00001218,0.00002929,0.00003367,0.00000375,0.00000916,-0.000002
 83,0.00000904,-0.00000247,0.00000123,0.00000041,-0.00000003,0.00000435
 ,0.00000141,-0.00004395,-0.00001281,0.00001472,-0.00000572,0.00001068,
 -0.00000156,-0.00000144,0.00000133,0.00000201,0.00002706,0.00000758,-0
 .00001721,0.00002150,-0.00001297,-0.00001469,0.00011563,-0.00004464,0.
 00008450,-0.00001949,0.00005100,-0.00016296,0.00034231,0.00004146,-0.0
 0006552,-0.00000617,-0.00010216,-0.00016857,-0.00039149,-0.00003596,0.
 00017420,-0.00005145,-0.00002094,0.00026487,0.00002806,0.00012154,0.00
 029719,-0.00007338,-0.00006267,-0.00016834,0.00002655,-0.00002196,-0.0
 0017764,-0.00001440,-0.00002937,0.00005962,0.00001315,0.00001665,0.000
 05839,0.00001812,0.00002310,0.00009335,0.00001343,0.00005911,0.0000557
 7,-0.00026648,-0.00001347,-0.00007254,-0.00016549,-0.00001455,0.000080
 63,0.00021388,0.00000468,-0.00012700,-0.00000147,-0.00000463,-0.000007
 18,0.00000353,0.00000456,0.00000023,-0.00000435,-0.00000186,-0.0000076
 7,0.00000306,-0.00000223,0.00000213,-0.00000443,-0.00000237,-0.0000083
 5,0.00000271,0.00000155,0.00000236,-0.00000007,0.00000110,0.00000240,-
 0.00000077,0.00000160,-0.00000840,0.00000372,0.00000369,-0.00000817,0.
 00000012,-0.00000530,0.00000147,-0.00000220,0.00000095,-0.00000747,0.0
 0000364,0.00000122,0.00000369,0.00000266,0.00000618,-0.00000972,-0.000
 00736,0.00000403,0.00000493,0.00000534,0.00000352,-0.00000699,0.000000
 66,-0.00000872,-0.00000257,0.00001229,0.00007633,0.00030578,0.00003359
 ,-0.00009566,-0.00037099,0.00001900,0.00000371,-0.00006471,0.00000838,
 0.00000527,0.00001121,0.00005903,0.00002554,0.00004806,0.00001015,-0.0
 0000546,-0.00001081,-0.00000215,0.00001031,-0.00001509,-0.00000785,0.0
 0000290,0.00003442,0.00001868,-0.00001668,-0.00003761,0.00001661,-0.00
 000378,-0.00000559,-0.00000127,0.00002388,0.00001878,-0.00000892,-0.00
 003583,-0.00000162,0.00003767,0.00000973,-0.00001745,-0.00000321,0.000
 01558,0.00000819,0.00000834,-0.00000715,-0.00001477,-0.00000327,-0.000
 00060,0.00001401,-0.00000090,-0.00000799,-0.00000791,0.00000292,0.0000
 0423,0.00000183,-0.00000386,-0.00000722,-0.00000663,0.00000053,0.00000
 351,0.00000241,-0.00000257,-0.00000753,-0.00001009,-0.00000062,0.00000
 375,0.00000209,-0.00000158,-0.00000401,-0.00000981,-0.00000023,0.00000
 202,0.00000533,-0.00000347,0.00000065,-0.00001750,0.00000257,-0.000005
 64,0.00000727,-0.00000447,0.00000295,0.00001058,-0.00000043,-0.0000003
 0,-0.00001210,-0.00000122,-0.00000124,-0.00001151,-0.00000343,-0.00000
 507,-0.00000732,-0.00000005,0.00000208,0.00000300,0.00000413,-0.000001
 11,0.00000371,-0.00000617,0.00001493,-0.00000113,0.00064728,0.00044040
 ,0.00003377,-0.00028526,-0.00151019,-0.00048230,-0.00563400,0.00117037
 ,-0.00120518,0.00027055,-0.00020811,-0.00007862,0.00007434,-0.00016846
 ,0.00031018,0.00015892,-0.00016011,-0.00004412,0.00005197,0.00001550,0
 .00001091,-0.00006983,-0.00004447,-0.00000960,-0.00061119,-0.00053502,
 -0.00010159,-0.00019634,0.00017990,-0.00002508,0.00004045,-0.00003546,
 -0.00000207,-0.00000273,-0.00004828,0.00000116,0.00001982,0.00000443,0
 .00000662,-0.29492177,-0.02441650,-0.06194445,-0.01466570,-0.00223314,
 -0.00564768,-0.00305705,-0.00019651,0.00033600,0.00009517,0.00001508,0
 .00002379,-0.00003662,0.00000170,-0.00002478,-0.00003270,-0.00000520,0
 .00000861,-0.00001939,-0.00000374,-0.00000514,0.00001303,0.00003161,-0
 .00002265,0.31824180,-0.00001764,-0.00000840,0.00000279,0.00000403,-0.
 00002235,-0.00000626,0.00000454,0.00002462,0.00000513,-0.00000635,-0.0
 0001178,-0.00000209,0.00001511,0.00000846,0.00000723,-0.00013535,0.000
 05179,0.00000822,0.00008370,0.00009540,-0.00005255,0.00004638,0.000033
 49,-0.00000767,0.00000666,0.00001692,-0.00000606,0.00000718,-0.0000246
 1,-0.00001447,0.00000501,-0.00002170,0.00000741,0.00000112,0.00000039,
 -0.00000023,-0.00000346,0.00000130,-0.00000015,0.00002263,0.00003772,-
 0.00002678,0.00000608,-0.00000711,0.00000108,-0.00000119,-0.00000356,-
 0.00000343,0.00000676,-0.00000376,-0.00002814,-0.00001291,-0.00007961,
 0.00005224,0.00000258,-0.00004691,0.00020517,-0.00000049,-0.00000157,0
 .00001359,0.00004702,0.00002060,0.00000443,-0.00000025,-0.00006174,-0.
 00014960,-0.00004148,-0.00011248,0.00002417,0.00004899,0.00001216,-0.0
 0007241,-0.00004559,0.00004891,0.00037683,-0.00005669,-0.00000832,-0.0
 0018767,0.00000229,0.00001765,0.00001408,-0.00000781,-0.00000185,-0.00
 000336,-0.00000499,-0.00000122,-0.00001468,0.00001015,0.00000729,0.000
 07740,0.00000587,0.00003867,0.00003422,-0.00001131,-0.00004437,0.00000
 718,-0.00009565,0.00002447,-0.00000047,0.00006572,0.00002586,-0.000040
 55,0.00000152,-0.00000156,0.00000204,-0.00000044,-0.00000112,-0.000000
 65,0.00000062,0.00000039,0.00000155,-0.00000049,0.00000105,-0.00000068
 ,0.00000097,-0.00000034,0.00000130,0.00000077,0.00000083,-0.00000080,-
 0.00000036,0.00000007,-0.00000077,0.00000004,0.00000031,0.00000122,-0.
 00000131,0.00000063,-0.00000061,-0.00000156,-0.00000009,0.00000091,0.0
 0000048,0.00000056,-0.00000002,0.00000215,-0.00000065,0.00000082,0.000
 00006,0.00000059,0.00000137,0.00000015,0.00000296,0.00000036,0.0000009
 0,-0.00000053,0.00000134,-0.00000043,-0.00000166,-0.00000191,0.0000799
 9,-0.00001840,-0.00012261,-0.00002594,0.00014100,-0.00016051,-0.000020
 05,-0.00005122,0.00010298,0.00001560,-0.00000742,-0.00002023,0.0000167
 4,0.00001398,0.00001629,0.00000127,-0.00000023,-0.00000328,0.00000108,
 -0.00000197,-0.00000239,-0.00000262,0.00000014,0.00001073,-0.00001053,
 -0.00003965,-0.00006318,0.00000595,0.00000641,0.00001227,-0.00000160,0
 .00001337,0.00001688,0.00000905,-0.00000182,0.00001816,0.00002324,-0.0
 0001823,0.00000272,-0.00000458,0.00000554,-0.00000056,0.00000100,-0.00
 000029,-0.00000552,0.00000289,0.00000048,0.00000971,0.00000187,-0.0000
 0634,-0.00000712,0.00000232,0.00000546,-0.00000057,-0.00000314,-0.0000
 0416,-0.00000354,-0.00000104,0.00000162,0.00000170,-0.00000412,-0.0000
 1091,-0.00000691,-0.00000349,0.00000186,-0.00000047,-0.00000099,0.0000
 0254,-0.00000786,0.00000008,-0.00000037,0.00000115,-0.00000432,-0.0000
 0352,-0.00001109,0.00000059,-0.00000154,0.00000408,-0.00000223,-0.0000
 0403,0.00000311,0.00000213,0.00000190,-0.00000866,-0.00000106,0.000000
 92,-0.00001278,-0.00000200,-0.00000512,-0.00000494,0.00000188,0.000003
 52,0.00000121,0.00000159,-0.00000096,0.00000277,0.00002511,0.00006774,
 -0.00001593,0.00190984,-0.00801892,0.00055906,0.00050816,0.00174537,0.
 00003701,-0.03301804,-0.00308483,-0.00844984,0.00057416,0.00144385,-0.
 00022053,0.00038096,0.00138978,0.00050593,0.00011562,-0.00051613,-0.00
 003490,0.00000469,0.00000731,0.00001867,-0.00016469,-0.00006441,-0.000
 04226,-0.00252510,0.00000935,-0.00054239,-0.00025225,0.00043630,-0.000
 06355,0.00002968,-0.00002929,-0.00002082,0.00002645,-0.00005390,0.0000
 1807,0.00004933,0.00001979,0.00007008,-0.02342964,-0.04892964,-0.00611
 418,0.01406439,0.00111182,0.00559607,0.01385683,0.00079502,0.00153271,
 -0.00002002,-0.00004924,0.00000003,0.00000571,0.00000853,0.00000008,0.
 00000904,0.00000924,-0.00000358,0.00000167,0.00002564,0.00000183,-0.00
 000620,-0.00002523,0.00002736,0.02782098,0.05367350,-0.00001246,-0.000
 00675,-0.00001125,-0.00000868,0.00000757,0.00000322,0.00000537,-0.0000
 1948,-0.00001038,-0.00000340,0.00002304,0.00000491,-0.00001691,-0.0000
 0135,-0.00000869,0.00012121,-0.00005846,-0.00002903,-0.00010888,-0.000
 04646,0.00004571,-0.00001655,-0.00007197,-0.00001212,-0.00003392,0.000
 01147,0.00001462,0.00000471,0.00005932,0.00002282,0.00000596,0.0000077
 5,0.00000198,-0.00000177,0.00000093,0.00000052,-0.00000060,0.00000433,
 -0.00000277,-0.00007280,-0.00004365,0.00006545,-0.00000349,0.00000657,
 0.00000030,-0.00000023,0.00000587,0.00000607,0.00004529,0.00003060,0.0
 0007915,0.00003727,0.00002258,-0.00004796,0.00018399,-0.00010694,-0.00
 049677,0.00000455,0.00004559,-0.00013232,0.00051822,0.00000884,-0.0000
 5256,0.00001102,-0.00004390,-0.00004746,-0.00066972,0.00011297,0.00025
 079,-0.00018264,-0.00004345,0.00033763,-0.00000548,0.00007199,0.000045
 56,-0.00001807,-0.00004536,-0.00003285,0.00005443,-0.00004120,-0.00015
 970,-0.00001590,-0.00002558,0.00004879,0.00000919,0.00002094,0.0000523
 4,0.00000056,0.00000742,0.00003567,0.00000222,0.00002768,0.00002167,-0
 .00058827,-0.00006661,-0.00011863,-0.00014474,-0.00007875,0.00008130,0
 .00031039,-0.00001719,-0.00003100,-0.00000008,-0.00000839,-0.00000895,
 0.00000285,0.00000404,0.00000168,-0.00000386,-0.00000059,-0.00000517,0
 .00000355,-0.00000144,0.00000078,-0.00000479,-0.00000391,-0.00000806,0
 .00000170,0.00000338,0.00000170,0.00000249,-0.00000078,0.00000116,-0.0
 0000104,0.00000229,-0.00000616,0.00000605,0.00000488,-0.00000759,0.000
 00004,-0.00000579,-0.00000140,-0.00000190,-0.00000106,-0.00000409,0.00
 000418,0.00000302,0.00000259,0.00000248,0.00000782,-0.00001236,-0.0000
 1036,0.00001177,0.00000338,0.00000873,0.00000198,-0.00000198,0.0000002
 1,-0.00001478,-0.00000904,0.00026110,0.00027865,0.00007267,-0.00009035
 ,-0.00036627,-0.00034829,0.00001064,0.00003889,-0.00006495,-0.00002341
 ,0.00001283,0.00006815,0.00015174,0.00005760,0.00010416,0.00000949,-0.
 00000370,-0.00002007,-0.00000471,0.00000861,-0.00002860,-0.00001777,0.
 00000359,0.00007751,0.00000640,-0.00000660,-0.00007132,0.00001578,-0.0
 0000923,0.00000691,0.00001008,0.00003606,0.00002559,0.00001032,-0.0000
 4508,0.00004697,0.00004717,0.00003303,-0.00002941,0.00000239,0.0000255
 1,0.00001201,0.00000307,-0.00000995,-0.00001012,-0.00000525,-0.0000027
 3,0.00001684,0.00000117,-0.00000436,-0.00000271,0.00000013,0.00000076,
 0.00000107,-0.00000185,-0.00000256,-0.00000233,0.00000209,0.00000089,0
 .00000048,0.00000304,-0.00000075,-0.00000606,0.00000239,0.00000069,0.0
 0000109,-0.00000232,-0.00000419,-0.00000337,-0.00000078,0.00000392,0.0
 0000676,0.00000182,0.00000827,-0.00001173,0.00000261,-0.00001360,0.000
 00414,-0.00001180,0.00000760,0.00000651,0.00000022,-0.00000149,-0.0000
 0350,0.00000007,0.00000035,-0.00000378,-0.00000146,-0.00000148,-0.0000
 0180,0.00000081,0.00000148,0.00000006,0.00000210,-0.00000253,0.0000016
 7,-0.00002891,-0.00002733,0.00001996,0.00009488,0.00025771,0.00050631,
 -0.00009243,-0.00029517,0.00042742,-0.00027020,0.00047026,-0.00128653,
 -0.00025663,0.00010384,-0.00011882,0.00033258,-0.00022421,0.00017390,0
 .00003913,-0.00003608,-0.00000960,0.00001698,0.00000615,-0.00000668,-0
 .00001351,-0.00001705,0.00000340,-0.00015541,-0.00011061,0.00009806,-0
 .00003187,0.00004401,0.00000948,-0.00000179,-0.00001763,-0.00001517,0.
 00000220,-0.00000915,-0.00001061,-0.00000223,0.00002180,0.00000094,-0.
 06250503,-0.00666910,-0.06389257,0.02154423,0.00351088,0.00645700,-0.0
 2726830,-0.00400832,-0.00508676,0.00005161,0.00002633,0.00000837,-0.00
 001754,-0.00000301,-0.00001122,-0.00001887,-0.00000614,0.00000804,-0.0
 0001040,-0.00001143,-0.00000253,0.00000493,0.00003972,-0.00002043,0.06
 878152,0.00714954,0.06303199\\-0.00001012,-0.00001665,0.00000067,-0.00
 002229,0.00000329,-0.00000050,0.00001430,-0.00001279,0.00000340,-0.000
 00258,0.00001855,0.00000198,-0.00000909,-0.00000615,-0.00000043,0.0000
 1834,-0.00001063,-0.00000140,-0.00001202,0.00000067,0.00000346,-0.0000
 0581,0.00000145,0.00000108,0.00000321,-0.00000715,0.00000258,-0.000008
 82,0.00000956,0.00000198,-0.00000317,-0.00000332,-0.00000294,-0.000000
 11,-0.00000342,-0.00000268,0.00000008,0.00000111,-0.00000313,0.0000003
 3,-0.00000019,-0.00000031,-0.00000184,-0.00000062,0.00000047,0.0000027
 5,-0.00000238,0.00000016,0.00001548,0.00000687,-0.00000441,0.00000243,
 0.00001692,0.00000376,-0.00000344,0.00000910,0.00000314,-0.00000190,-0
 .00000701,0.00000170,-0.00000726,-0.00000602,0.00000807,-0.00000262,0.
 00000117,-0.00000782,0.00000591,0.00000911,0.00000011,0.00000354,-0.00
 000273,0.00000942,0.00000277,-0.00000952,-0.00000271,0.00000057,0.0000
 1570,0.00000083,-0.00000467,-0.00000170,-0.00000855,0.00000391,-0.0000
 0225,0.,0.00000632,0.00000626,0.00000159,0.00000787,-0.00000496,0.0000
 0244,-0.00001007,-0.00000363,-0.00000576,-0.00000237,0.00000498,-0.000
 00272,-0.00000482,-0.00000094,0.00000517,-0.00000120,-0.00000542,0.000
 00440,-0.00000359,-0.00000611,-0.00000197,0.00000190,0.00000552,-0.000
 00440,0.00000271,0.00000145,-0.00000108,0.00000045,0.00000069,0.000001
 07,0.00000745,0.00000508,0.00000619,-0.00000416,-0.00000102,-0.0000002
 6,0.00000240,-0.00000084,-0.00000021,0.00000037,-0.00000082,-0.0000036
 8,-0.00000224,0.00000505,-0.00000739,0.00000386,0.00000004,0.00000379,
 0.00000280,-0.00000191,0.00000193,0.00000373,0.00000074,-0.00000276,-0
 .00000506,-0.00000534,0.00000492,0.00000424,0.00000278,0.00000238,0.00
 000219,0.00000526,-0.00000414,0.00000075,0.00000239,0.00000171,-0.0000
 0378,-0.00000360,0.00000241,-0.00000225,-0.00000011,0.00000308,0.00000
 032,0.00000431,0.00000143,0.00000318,-0.00000004,0.00000276,0.00000525
 ,-0.00000422,0.00000376,-0.00000261,0.00000225,0.00000403,0.00000205,0
 .00000350,0.00000236,-0.00000117,-0.00000072,0.00000132,0.00000414,0.0
 0000105,0.00000109,0.00000082,-0.00000073,0.00000176,-0.00000188,0.000
 00066,0.00000188,-0.00000118,-0.00000041,0.00000053,0.00000564,0.00000
 603,-0.00000048,-0.00000049,-0.00000018,0.00000219,0.00000261,0.000000
 27,-0.00000007,-0.00000061,-0.00000045,-0.00000099,0.00000306,0.000000
 02,0.00000435,-0.00000033,0.00000020,-0.00000534,0.00000032,-0.0000016
 1,-0.00000358,0.00000330,-0.00000416,-0.00000357,0.00001089,-0.0000057
 2,0.00000953,-0.00000793,0.00000357,-0.00000285,0.00000083,0.00000282,
 -0.00000487,0.00000197,-0.00000352,0.00000139,-0.00000282,-0.00000009,
 0.00001166,0.00000032,-0.00000094,-0.00000091,0.00000305,0.00000477,-0
 .00000926,0.00000350,0.00000072,-0.00000268,0.00000340,-0.00000055,-0.
 00001042,0.00000264,0.00000164,0.00000121,-0.00000112,-0.00000167,0.00
 000012,-0.00000173,0.00000205,0.00000034,0.00000067,-0.00000158,-0.000
 00486,0.00000132,-0.00000033,-0.00000358,-0.00000504,-0.00000489,-0.00
 000730,-0.00000699,-0.00001276,-0.00001159,-0.00000116,0.00000570,0.00
 000615,-0.00000291,-0.00000005,0.00000727,-0.00000257,-0.00000099,-0.0
 0000146,-0.00000005,-0.00000013,-0.00000160,-0.00000237,-0.00000122,-0
 .00000298,-0.00000325,0.00000841,0.00001328,-0.00000395,-0.00000630,-0
 .00000111,0.00000720,0.00000097,-0.00001040,0.00000169,0.00000240,-0.0
 0000067,-0.00000047,0.00000098,0.00000188,0.00000394,0.00001149,0.0000
 0428,0.00000349,-0.00000599,-0.00000759,0.00000095,-0.00000559,0.00001
 024,0.00000841,-0.00001200,-0.00001273,-0.00000204,-0.00000073,-0.0000
 0406,-0.00000704,0.00000130,0.00000637,-0.00000073,0.00000709,-0.00000
 354,0.00000110,0.00000136,0.00000317,-0.00001103,-0.00000254,-0.000000
 50\\\@
 The archive entry for this job was punched.


      TO SUSPECT YOUR OWN MORTALITY IS TO KNOW THE BEGINNING OF TERROR.
      TO LEARN IRREFUTABLY THAT YOU ARE MORTAL IS TO KNOW THE END
      OF TERROR.

                                                  -- JESSICA
                                                     CHILDREN OF DUNE
                                                     BY FRANK HERBERT
 Job cpu time:       1 days 12 hours 40 minutes 15.7 seconds.
 Elapsed time:       0 days  2 hours 20 minutes 18.0 seconds.
 File lengths (MBytes):  RWF=   8253 Int=      0 D2E=      0 Chk=     49 Scr=      1
 Normal termination of Gaussian 16 at Sat Dec  7 22:40:12 2024.
