/mnt/lustre/scratch/nvme/SLURM/9663522/usccqdma.NURc8E1WFX
OMP_STACKSIZE=0m
GAUSS_PDEF=16
GAUSS_MDEF=65536MB
GAUSS_RDEF=SCF=Direct
 Entering Gaussian System, Link 0=g16.exe
 Initial command:
 /opt/cesga/2020/software/Core/g16/c1/l1.exe "/mnt/lustre/scratch/nvme/SLURM/9663522/usccqdma.NURc8E1WFX/Gau-599197.inp" -scrdir="/mnt/lustre/scratch/nvme/SLURM/9663522/usccqdma.NURc8E1WFX/"
 Default is to use a total of  16 processors:
                               16 via shared-memory
                                1 via Linda
 Entering Link 1 = /opt/cesga/2020/software/Core/g16/c1/l1.exe PID=    599225.
  
 Copyright (c) 1988-2019, Gaussian, Inc.  All Rights Reserved.
  
 This is part of the Gaussian(R) 16 program.  It is based on
 the Gaussian(R) 09 system (copyright 2009, Gaussian, Inc.),
 the Gaussian(R) 03 system (copyright 2003, Gaussian, Inc.),
 the Gaussian(R) 98 system (copyright 1998, Gaussian, Inc.),
 the Gaussian(R) 94 system (copyright 1995, Gaussian, Inc.),
 the Gaussian 92(TM) system (copyright 1992, Gaussian, Inc.),
 the Gaussian 90(TM) system (copyright 1990, Gaussian, Inc.),
 the Gaussian 88(TM) system (copyright 1988, Gaussian, Inc.),
 the Gaussian 86(TM) system (copyright 1986, Carnegie Mellon
 University), and the Gaussian 82(TM) system (copyright 1983,
 Carnegie Mellon University). Gaussian is a federally registered
 trademark of Gaussian, Inc.
  
 This software contains proprietary and confidential information,
 including trade secrets, belonging to Gaussian, Inc.
  
 This software is provided under written license and may be
 used, copied, transmitted, or stored only in accord with that
 written license.
  
 The following legend is applicable only to US Government
 contracts under FAR:
  
                    RESTRICTED RIGHTS LEGEND
  
 Use, reproduction and disclosure by the US Government is
 subject to restrictions as set forth in subparagraphs (a)
 and (c) of the Commercial Computer Software - Restricted
 Rights clause in FAR 52.227-19.
  
 Gaussian, Inc.
 340 Quinnipiac St., Bldg. 40, Wallingford CT 06492
  
  
 ---------------------------------------------------------------
 Warning -- This program may not be used in any manner that
 competes with the business of Gaussian, Inc. or will provide
 assistance to any competitor of Gaussian, Inc.  The licensee
 of this program is prohibited from giving any competitor of
 Gaussian, Inc. access to this program.  By using this program,
 the user acknowledges that Gaussian, Inc. is engaged in the
 business of creating and licensing software in the field of
 computational chemistry and represents and warrants to the
 licensee that it is not a competitor of Gaussian, Inc. and that
 it will not use this program in any manner prohibited above.
 ---------------------------------------------------------------
  

 Cite this work as:
 Gaussian 16, Revision C.01,
 M. J. Frisch, G. W. Trucks, H. B. Schlegel, G. E. Scuseria, 
 M. A. Robb, J. R. Cheeseman, G. Scalmani, V. Barone, 
 G. A. Petersson, H. Nakatsuji, X. Li, M. Caricato, A. V. Marenich, 
 J. Bloino, B. G. Janesko, R. Gomperts, B. Mennucci, H. P. Hratchian, 
 J. V. Ortiz, A. F. Izmaylov, J. L. Sonnenberg, D. Williams-Young, 
 F. Ding, F. Lipparini, F. Egidi, J. Goings, B. Peng, A. Petrone, 
 T. Henderson, D. Ranasinghe, V. G. Zakrzewski, J. Gao, N. Rega, 
 G. Zheng, W. Liang, M. Hada, M. Ehara, K. Toyota, R. Fukuda, 
 J. Hasegawa, M. Ishida, T. Nakajima, Y. Honda, O. Kitao, H. Nakai, 
 T. Vreven, K. Throssell, J. A. Montgomery, Jr., J. E. Peralta, 
 F. Ogliaro, M. J. Bearpark, J. J. Heyd, E. N. Brothers, K. N. Kudin, 
 V. N. Staroverov, T. A. Keith, R. Kobayashi, J. Normand, 
 K. Raghavachari, A. P. Rendell, J. C. Burant, S. S. Iyengar, 
 J. Tomasi, M. Cossi, J. M. Millam, M. Klene, C. Adamo, R. Cammi, 
 J. W. Ochterski, R. L. Martin, K. Morokuma, O. Farkas, 
 J. B. Foresman, and D. J. Fox, Gaussian, Inc., Wallingford CT, 2019.
 
 ******************************************
 Gaussian 16:  ES64L-G16RevC.01  3-Jul-2019
                 7-Dec-2024 
 ******************************************
 Default route: SCF=Direct
 ----------------------------------------------------
 # m06/genecp scf=tight int=ultrafine 5d freq=noraman
 ----------------------------------------------------
 1/10=4,30=1,38=1/1,3;
 2/12=2,17=6,18=5,40=1/2;
 3/5=7,8=1,11=2,16=1,17=8,25=1,30=1,71=2,74=-54,75=-5,140=1/1,2,3;
 4//1;
 5/5=2,32=2,38=5,98=1/2;
 8/6=4,10=90,11=11/1;
 11/6=1,8=1,9=11,15=111,16=1/1,2,10;
 10/6=1/2;
 6/7=2,8=2,9=2,10=2,28=1/1;
 7/8=1,10=1,25=1/1,2,3,16;
 1/10=4,30=1/3;
 99//99;
 ------
 OPT-TS
 ------
 Symbolic Z-matrix:
 Charge =  0 Multiplicity = 1
 C                     1.57837   1.984     0.68764 
 C                     0.10078   3.37932  -0.38468 
 C                     0.79241   4.5135    0.03102 
 C                     1.93686   4.3557    0.79704 
 C                     2.33926   3.06982   1.12626 
 C                     1.93434   0.58747   1.01166 
 C                     1.45356  -1.67599   0.7834 
 C                     2.52933  -2.0347    1.57896 
 C                     3.33566  -1.03912   2.11687 
 C                     3.02651   0.27789   1.82811 
 H                    -0.81143   3.45602  -0.97625 
 H                     2.50419   5.2206    1.13219 
 H                     3.2412    2.93199   1.71642 
 H                     0.79625  -2.42842   0.34276 
 H                     4.18654  -1.28877   2.74726 
 H                     3.64119   1.0707    2.24384 
 N                     0.47646   2.15105  -0.05573 
 N                     1.16384  -0.39735   0.49188 
 Ir                   -0.57956  -0.01206  -0.75193 
 O                    -1.47448   0.3007    2.17492 
 O                    -0.20087  -2.98951  -1.24706 
 O                    -2.55273   2.25122  -0.78616 
 B                    -0.65768  -1.78225  -1.82299 
 B                    -1.42885  -0.51309   1.05086 
 B                    -2.42358   0.89335  -0.5154 
 O                    -3.62123   0.38276  -0.03023 
 O                    -1.71893  -1.82269   1.38404 
 C                    -2.2368   -1.84657   2.72484 
 C                    -1.65255  -0.53366   3.33226 
 C                    -3.72651   2.71409  -0.10079 
 C                    -4.6066    1.43183  -0.08989 
 C                    -1.02275  -4.06865  -1.70645 
 C                    -2.24078  -3.33164  -2.35433 
 O                    -1.67169  -2.08823  -2.75695 
 C                    -2.56661   0.17916   4.30856 
 H                    -2.08243   1.09741   4.66603 
 H                    -3.51611   0.46016   3.83733 
 H                    -2.78382  -0.45367   5.18107 
 C                    -0.27658  -0.72101   3.95899 
 H                    -0.32856  -1.27112   4.90798 
 H                     0.40298  -1.26392   3.28716 
 H                     0.15747   0.26817   4.1558 
 C                    -3.75351  -1.84302   2.60724 
 H                    -4.24376  -1.90179   3.58838 
 H                    -4.10184  -0.9493    2.0754 
 H                    -4.05724  -2.71733   2.01572 
 C                    -1.77331  -3.12167   3.40191 
 H                    -2.05433  -3.12657   4.46502 
 H                    -2.25141  -3.98692   2.92485 
 H                    -0.68817  -3.2559    3.32336 
 C                    -0.20459  -4.86659  -2.71204 
 H                     0.03959  -4.25743  -3.59332 
 H                     0.73591  -5.17885  -2.23785 
 H                    -0.73262  -5.76817  -3.05092 
 C                    -1.3656   -4.93573  -0.50892 
 H                    -1.81265  -4.33211   0.29061 
 H                    -2.05935  -5.74325  -0.78465 
 H                    -0.44785  -5.39377  -0.11425 
 C                    -2.8211   -4.02527  -3.57309 
 H                    -3.19501  -5.02677  -3.31468 
 H                    -3.66505  -3.4388   -3.95808 
 H                    -2.08575  -4.12161  -4.37953 
 C                    -3.3628   -3.03448  -1.36339 
 H                    -3.90242  -3.94666  -1.07057 
 H                    -2.98587  -2.53709  -0.46129 
 H                    -4.07432  -2.35101  -1.84553 
 C                    -5.53015   1.31134   1.10448 
 H                    -6.10845   0.38048   1.03818 
 H                    -4.9691    1.29843   2.04705 
 H                    -6.23978   2.15066   1.13351 
 C                    -5.38809   1.23202  -1.38017 
 H                    -4.73435   1.32328  -2.25722 
 H                    -5.81334   0.22082  -1.38126 
 H                    -6.21073   1.95327  -1.47642 
 C                    -4.30098   3.88993  -0.86377 
 H                    -3.59015   4.72698  -0.83206 
 H                    -4.48549   3.64304  -1.91487 
 H                    -5.24319   4.22871  -0.40982 
 C                    -3.28572   3.15919   1.28924 
 H                    -2.52652   3.94597   1.17929 
 H                    -4.12045   3.57451   1.87009 
 H                    -2.83174   2.32942   1.84933 
 H                    -1.86165   0.15238  -1.76954 
 C                     2.92874  -0.07514  -2.01656 
 O                     2.57409   1.10207  -1.99217 
 C                     4.32623  -0.47389  -1.56454 
 H                     4.24942  -1.28748  -0.82141 
 H                     4.89385  -0.90421  -2.40599 
 C                     0.68892  -0.75667  -2.65804 
 H                     0.64261   0.32345  -2.86572 
 H                     0.38407  -1.22993  -3.60129 
 N                     2.08332  -1.07886  -2.38573 
 C                     2.5062   -2.45985  -2.50441 
 H                     3.547    -2.5214   -2.83896 
 H                     2.39454  -3.0266   -1.56827 
 H                     1.88502  -2.9558   -3.25827 
 C                     5.08927   0.69914  -0.97362 
 H                     5.27076   1.44524  -1.75977 
 H                     4.44867   1.21156  -0.23738 
 C                     6.38863   0.2777   -0.30477 
 H                     6.18464  -0.56654   0.37675 
 H                     7.09184  -0.11189  -1.06116 
 C                     7.05576   1.40031   0.48171 
 H                     6.36107   1.74358   1.26924 
 H                     7.93565   1.00148   1.00838 
 C                     7.47239   2.58388  -0.37801 
 H                     6.60574   3.09043  -0.82222 
 H                     8.02658   3.33031   0.20447 
 H                     8.12114   2.2581   -1.20367 
 C                     0.25646   5.85203  -0.36681 
 F                     0.96237   6.85311   0.16611 
 F                     0.26356   6.00616  -1.6927 
 F                    -1.01662   5.99439   0.03363 
 C                     2.72836  -3.4776    1.92034 
 F                     4.01114  -3.74433   2.18501 
 F                     2.02197  -3.80931   3.00995 
 F                     2.33393  -4.28135   0.93019 
 

 GradGradGradGradGradGradGradGradGradGradGradGradGradGradGradGradGradGrad
 Berny optimization.
 Initialization pass.
 Trust Radius=3.00D-01 FncErr=1.00D-07 GrdErr=1.00D-07 EigMax=2.50D+02 EigMin=1.00D-04
 Number of steps in this run=      2 maximum allowed number of steps=      2.
 GradGradGradGradGradGradGradGradGradGradGradGradGradGradGradGradGradGrad

 Stoichiometry    C38H59B3F6IrN3O7
 Framework group  C1[X(C38H59B3F6IrN3O7)]
 Deg. of freedom   345
 Full point group                 C1      NOp   1
 Largest Abelian subgroup         C1      NOp   1
 Largest concise Abelian subgroup C1      NOp   1
                         Standard orientation:                         
 ---------------------------------------------------------------------
 Center     Atomic      Atomic             Coordinates (Angstroms)
 Number     Number       Type             X           Y           Z
 ---------------------------------------------------------------------
      1          6           0        1.578370    1.983999    0.687639
      2          6           0        0.100780    3.379319   -0.384681
      3          6           0        0.792409    4.513499    0.031019
      4          6           0        1.936859    4.355699    0.797039
      5          6           0        2.339260    3.069819    1.126259
      6          6           0        1.934340    0.587469    1.011659
      7          6           0        1.453560   -1.675991    0.783399
      8          6           0        2.529330   -2.034701    1.578959
      9          6           0        3.335660   -1.039121    2.116869
     10          6           0        3.026510    0.277889    1.828109
     11          1           0       -0.811431    3.456019   -0.976251
     12          1           0        2.504189    5.220599    1.132189
     13          1           0        3.241200    2.931989    1.716419
     14          1           0        0.796250   -2.428421    0.342759
     15          1           0        4.186540   -1.288771    2.747259
     16          1           0        3.641190    1.070699    2.243839
     17          7           0        0.476460    2.151049   -0.055731
     18          7           0        1.163840   -0.397351    0.491879
     19         77           0       -0.579560   -0.012061   -0.751931
     20          8           0       -1.474480    0.300699    2.174919
     21          8           0       -0.200870   -2.989511   -1.247061
     22          8           0       -2.552730    2.251219   -0.786161
     23          5           0       -0.657680   -1.782251   -1.822991
     24          5           0       -1.428850   -0.513091    1.050859
     25          5           0       -2.423580    0.893349   -0.515401
     26          8           0       -3.621230    0.382759   -0.030231
     27          8           0       -1.718930   -1.822691    1.384039
     28          6           0       -2.236800   -1.846571    2.724839
     29          6           0       -1.652550   -0.533661    3.332259
     30          6           0       -3.726510    2.714089   -0.100791
     31          6           0       -4.606600    1.431829   -0.089891
     32          6           0       -1.022750   -4.068651   -1.706451
     33          6           0       -2.240780   -3.331641   -2.354331
     34          8           0       -1.671690   -2.088231   -2.756951
     35          6           0       -2.566610    0.179159    4.308559
     36          1           0       -2.082430    1.097409    4.666029
     37          1           0       -3.516110    0.460159    3.837329
     38          1           0       -2.783820   -0.453671    5.181069
     39          6           0       -0.276580   -0.721011    3.958989
     40          1           0       -0.328560   -1.271121    4.907979
     41          1           0        0.402980   -1.263921    3.287159
     42          1           0        0.157470    0.268169    4.155799
     43          6           0       -3.753510   -1.843021    2.607239
     44          1           0       -4.243760   -1.901791    3.588379
     45          1           0       -4.101840   -0.949301    2.075399
     46          1           0       -4.057240   -2.717331    2.015719
     47          6           0       -1.773310   -3.121671    3.401909
     48          1           0       -2.054330   -3.126571    4.465019
     49          1           0       -2.251410   -3.986921    2.924849
     50          1           0       -0.688170   -3.255901    3.323359
     51          6           0       -0.204590   -4.866591   -2.712041
     52          1           0        0.039590   -4.257431   -3.593321
     53          1           0        0.735910   -5.178851   -2.237851
     54          1           0       -0.732620   -5.768171   -3.050921
     55          6           0       -1.365600   -4.935731   -0.508921
     56          1           0       -1.812650   -4.332111    0.290609
     57          1           0       -2.059350   -5.743251   -0.784651
     58          1           0       -0.447850   -5.393771   -0.114251
     59          6           0       -2.821100   -4.025271   -3.573091
     60          1           0       -3.195010   -5.026771   -3.314681
     61          1           0       -3.665050   -3.438801   -3.958081
     62          1           0       -2.085750   -4.121611   -4.379531
     63          6           0       -3.362800   -3.034481   -1.363391
     64          1           0       -3.902420   -3.946661   -1.070571
     65          1           0       -2.985870   -2.537091   -0.461291
     66          1           0       -4.074320   -2.351011   -1.845531
     67          6           0       -5.530150    1.311339    1.104479
     68          1           0       -6.108450    0.380479    1.038179
     69          1           0       -4.969100    1.298429    2.047049
     70          1           0       -6.239780    2.150659    1.133509
     71          6           0       -5.388090    1.232019   -1.380171
     72          1           0       -4.734350    1.323279   -2.257221
     73          1           0       -5.813340    0.220819   -1.381261
     74          1           0       -6.210730    1.953269   -1.476421
     75          6           0       -4.300981    3.889929   -0.863771
     76          1           0       -3.590151    4.726979   -0.832061
     77          1           0       -4.485491    3.643039   -1.914871
     78          1           0       -5.243191    4.228709   -0.409821
     79          6           0       -3.285720    3.159189    1.289239
     80          1           0       -2.526521    3.945969    1.179289
     81          1           0       -4.120451    3.574509    1.870089
     82          1           0       -2.831740    2.329419    1.849329
     83          1           0       -1.861650    0.152379   -1.769541
     84          6           0        2.928740   -0.075141   -2.016561
     85          8           0        2.574090    1.102069   -1.992171
     86          6           0        4.326230   -0.473891   -1.564541
     87          1           0        4.249420   -1.287481   -0.821411
     88          1           0        4.893850   -0.904210   -2.405991
     89          6           0        0.688920   -0.756671   -2.658041
     90          1           0        0.642610    0.323449   -2.865721
     91          1           0        0.384070   -1.229931   -3.601291
     92          7           0        2.083320   -1.078861   -2.385731
     93          6           0        2.506200   -2.459851   -2.504411
     94          1           0        3.547000   -2.521401   -2.838961
     95          1           0        2.394540   -3.026601   -1.568271
     96          1           0        1.885020   -2.955801   -3.258271
     97          6           0        5.089270    0.699140   -0.973621
     98          1           0        5.270760    1.445240   -1.759771
     99          1           0        4.448670    1.211560   -0.237381
    100          6           0        6.388630    0.277700   -0.304771
    101          1           0        6.184640   -0.566540    0.376749
    102          1           0        7.091840   -0.111890   -1.061161
    103          6           0        7.055760    1.400310    0.481709
    104          1           0        6.361070    1.743580    1.269239
    105          1           0        7.935650    1.001480    1.008379
    106          6           0        7.472390    2.583880   -0.378011
    107          1           0        6.605740    3.090430   -0.822221
    108          1           0        8.026580    3.330310    0.204469
    109          1           0        8.121140    2.258100   -1.203671
    110          6           0        0.256459    5.852029   -0.366811
    111          9           0        0.962369    6.853109    0.166109
    112          9           0        0.263559    6.006159   -1.692701
    113          9           0       -1.016621    5.994389    0.033629
    114          6           0        2.728360   -3.477601    1.920339
    115          9           0        4.011140   -3.744331    2.185009
    116          9           0        2.021970   -3.809311    3.009949
    117          9           0        2.333930   -4.281351    0.930189
 ---------------------------------------------------------------------
 Rotational constants (GHZ):           0.0479227           0.0469020           0.0331055
 General basis read from cards:  (5D, 7F)
 ======================================================================================================
                                       Pseudopotential Parameters
 ======================================================================================================
  Center     Atomic      Valence      Angular      Power
  Number     Number     Electrons     Momentum     of R      Exponent        Coefficient   SO-Coeffient
 ======================================================================================================
    1          6
                                   No pseudopotential on this center.
    2          6
                                   No pseudopotential on this center.
    3          6
                                   No pseudopotential on this center.
    4          6
                                   No pseudopotential on this center.
    5          6
                                   No pseudopotential on this center.
    6          6
                                   No pseudopotential on this center.
    7          6
                                   No pseudopotential on this center.
    8          6
                                   No pseudopotential on this center.
    9          6
                                   No pseudopotential on this center.
   10          6
                                   No pseudopotential on this center.
   11          1
                                   No pseudopotential on this center.
   12          1
                                   No pseudopotential on this center.
   13          1
                                   No pseudopotential on this center.
   14          1
                                   No pseudopotential on this center.
   15          1
                                   No pseudopotential on this center.
   16          1
                                   No pseudopotential on this center.
   17          7
                                   No pseudopotential on this center.
   18          7
                                   No pseudopotential on this center.
   19         77           17
                                      G and up 
                                                     1      823.5880147       -0.15780140    0.00000000
                                                     2      364.6613336    -1517.52704460    0.00000000
                                                     2       55.7082801     -316.53065290    0.00000000
                                                     2       12.0464544      -91.88809410    0.00000000
                                                     2        3.5120610       -9.22417730    0.00000000
                                      S - G
                                                     0      188.0490770        3.15780140    0.00000000
                                                     1      340.4194712       26.83225770    0.00000000
                                                     2      128.2373673      800.42500070    0.00000000
                                                     2       33.8644961      369.40506830    0.00000000
                                                     2        4.7560005      242.41718990    0.00000000
                                                     2        3.9649974     -118.21732820    0.00000000
                                      P - G
                                                     0      289.7291139        2.15780140    0.00000000
                                                     1       87.4633789       61.96786100    0.00000000
                                                     2       30.4363766      269.05819860    0.00000000
                                                     2        4.0553412      231.16547930    0.00000000
                                                     2        3.5525341     -133.69526670    0.00000000
                                      D - G
                                                     0      136.4017106        3.15780140    0.00000000
                                                     1       95.0776925       45.93498030    0.00000000
                                                     2       49.2258410      359.03446680    0.00000000
                                                     2       15.0874145      176.47401190    0.00000000
                                                     2        4.0405764       54.51552860    0.00000000
                                      F - G
                                                     0      127.3507908        3.95461970    0.00000000
                                                     1       66.2364374       52.97736550    0.00000000
                                                     2       34.4299229      274.86433830    0.00000000
                                                     2       10.1995721      137.20473380    0.00000000
                                                     2        2.5409702       14.86333050    0.00000000
   20          8
                                   No pseudopotential on this center.
   21          8
                                   No pseudopotential on this center.
   22          8
                                   No pseudopotential on this center.
   23          5
                                   No pseudopotential on this center.
   24          5
                                   No pseudopotential on this center.
   25          5
                                   No pseudopotential on this center.
   26          8
                                   No pseudopotential on this center.
   27          8
                                   No pseudopotential on this center.
   28          6
                                   No pseudopotential on this center.
   29          6
                                   No pseudopotential on this center.
   30          6
                                   No pseudopotential on this center.
   31          6
                                   No pseudopotential on this center.
   32          6
                                   No pseudopotential on this center.
   33          6
                                   No pseudopotential on this center.
   34          8
                                   No pseudopotential on this center.
   35          6
                                   No pseudopotential on this center.
   36          1
                                   No pseudopotential on this center.
   37          1
                                   No pseudopotential on this center.
   38          1
                                   No pseudopotential on this center.
   39          6
                                   No pseudopotential on this center.
   40          1
                                   No pseudopotential on this center.
   41          1
                                   No pseudopotential on this center.
   42          1
                                   No pseudopotential on this center.
   43          6
                                   No pseudopotential on this center.
   44          1
                                   No pseudopotential on this center.
   45          1
                                   No pseudopotential on this center.
   46          1
                                   No pseudopotential on this center.
   47          6
                                   No pseudopotential on this center.
   48          1
                                   No pseudopotential on this center.
   49          1
                                   No pseudopotential on this center.
   50          1
                                   No pseudopotential on this center.
   51          6
                                   No pseudopotential on this center.
   52          1
                                   No pseudopotential on this center.
   53          1
                                   No pseudopotential on this center.
   54          1
                                   No pseudopotential on this center.
   55          6
                                   No pseudopotential on this center.
   56          1
                                   No pseudopotential on this center.
   57          1
                                   No pseudopotential on this center.
   58          1
                                   No pseudopotential on this center.
   59          6
                                   No pseudopotential on this center.
   60          1
                                   No pseudopotential on this center.
   61          1
                                   No pseudopotential on this center.
   62          1
                                   No pseudopotential on this center.
   63          6
                                   No pseudopotential on this center.
   64          1
                                   No pseudopotential on this center.
   65          1
                                   No pseudopotential on this center.
   66          1
                                   No pseudopotential on this center.
   67          6
                                   No pseudopotential on this center.
   68          1
                                   No pseudopotential on this center.
   69          1
                                   No pseudopotential on this center.
   70          1
                                   No pseudopotential on this center.
   71          6
                                   No pseudopotential on this center.
   72          1
                                   No pseudopotential on this center.
   73          1
                                   No pseudopotential on this center.
   74          1
                                   No pseudopotential on this center.
   75          6
                                   No pseudopotential on this center.
   76          1
                                   No pseudopotential on this center.
   77          1
                                   No pseudopotential on this center.
   78          1
                                   No pseudopotential on this center.
   79          6
                                   No pseudopotential on this center.
   80          1
                                   No pseudopotential on this center.
   81          1
                                   No pseudopotential on this center.
   82          1
                                   No pseudopotential on this center.
   83          1
                                   No pseudopotential on this center.
   84          6
                                   No pseudopotential on this center.
   85          8
                                   No pseudopotential on this center.
   86          6
                                   No pseudopotential on this center.
   87          1
                                   No pseudopotential on this center.
   88          1
                                   No pseudopotential on this center.
   89          6
                                   No pseudopotential on this center.
   90          1
                                   No pseudopotential on this center.
   91          1
                                   No pseudopotential on this center.
   92          7
                                   No pseudopotential on this center.
   93          6
                                   No pseudopotential on this center.
   94          1
                                   No pseudopotential on this center.
   95          1
                                   No pseudopotential on this center.
   96          1
                                   No pseudopotential on this center.
   97          6
                                   No pseudopotential on this center.
   98          1
                                   No pseudopotential on this center.
   99          1
                                   No pseudopotential on this center.
  100          6
                                   No pseudopotential on this center.
  101          1
                                   No pseudopotential on this center.
  102          1
                                   No pseudopotential on this center.
  103          6
                                   No pseudopotential on this center.
  104          1
                                   No pseudopotential on this center.
  105          1
                                   No pseudopotential on this center.
  106          6
                                   No pseudopotential on this center.
  107          1
                                   No pseudopotential on this center.
  108          1
                                   No pseudopotential on this center.
  109          1
                                   No pseudopotential on this center.
  110          6
                                   No pseudopotential on this center.
  111          9
                                   No pseudopotential on this center.
  112          9
                                   No pseudopotential on this center.
  113          9
                                   No pseudopotential on this center.
  114          6
                                   No pseudopotential on this center.
  115          9
                                   No pseudopotential on this center.
  116          9
                                   No pseudopotential on this center.
  117          9
                                   No pseudopotential on this center.
 ======================================================================================================
 There are   997 symmetry adapted cartesian basis functions of A   symmetry.
 There are   938 symmetry adapted basis functions of A   symmetry.
   938 basis functions,  1875 primitive gaussians,   997 cartesian basis functions
   225 alpha electrons      225 beta electrons
       nuclear repulsion energy     10621.1395038718 Hartrees.
 NAtoms=  117 NActive=  117 NUniq=  117 SFac= 1.00D+00 NAtFMM=   60 NAOKFM=T Big=T
 Integral buffers will be    131072 words long.
 Raffenetti 2 integral format.
 Two-electron integral symmetry is turned on.
 One-electron integrals computed using PRISM.
   1 Symmetry operations used in ECPInt.
 ECPInt:  NShTT=   62835 NPrTT=  387974 LenC2=   45962 LenP2D=  140587.
 LDataN:  DoStor=T MaxTD1= 6 Len=  172
 NBasis=   938 RedAO= T EigKep=  4.43D-04  NBF=   938
 NBsUse=   938 1.00D-06 EigRej= -1.00D+00 NBFU=   938
 Defaulting to unpruned grid for atomic number  77.
 ExpMin= 2.90D-02 ExpMax= 7.00D+03 ExpMxC= 1.05D+03 IAcc=3 IRadAn=         5 AccDes= 0.00D+00
 Harris functional with IExCor= 1009 and IRadAn=       5 diagonalized for initial guess.
 HarFok:  IExCor= 1009 AccDes= 0.00D+00 IRadAn=         5 IDoV= 1 UseB2=F ITyADJ=14
 ICtDFT=  3500011 ScaDFX=  1.000000  1.000000  1.000000  1.000000
 Defaulting to unpruned grid for atomic number  77.
 FoFCou: FMM=F IPFlag=           0 FMFlag=      100000 FMFlg1=        2001
         NFxFlg=           0 DoJE=T BraDBF=F KetDBF=T FulRan=T
         wScrn=  0.000000 ICntrl=       500 IOpCl=  0 I1Cent=   200000004 NGrid=           0
         NMat0=    1 NMatS0=      1 NMatT0=    0 NMatD0=    1 NMtDS0=    0 NMtDT0=    0
 Petite list used in FoFCou.
 Requested convergence on RMS density matrix=1.00D-08 within 128 cycles.
 Requested convergence on MAX density matrix=1.00D-06.
 Requested convergence on             energy=1.00D-06.
 No special actions if energy rises.
 Defaulting to unpruned grid for atomic number  77.
 Defaulting to unpruned grid for atomic number  77.
 Defaulting to unpruned grid for atomic number  77.
 Defaulting to unpruned grid for atomic number  77.
 Defaulting to unpruned grid for atomic number  77.
 Defaulting to unpruned grid for atomic number  77.
 Defaulting to unpruned grid for atomic number  77.
 Defaulting to unpruned grid for atomic number  77.
 Defaulting to unpruned grid for atomic number  77.
 Defaulting to unpruned grid for atomic number  77.
 Defaulting to unpruned grid for atomic number  77.
 Defaulting to unpruned grid for atomic number  77.
 Defaulting to unpruned grid for atomic number  77.
 Defaulting to unpruned grid for atomic number  77.
 Defaulting to unpruned grid for atomic number  77.
 Defaulting to unpruned grid for atomic number  77.
 SCF Done:  E(RM06) =  -2951.36951958     A.U. after   16 cycles
            NFock= 16  Conv=0.81D-08     -V/T= 2.0310
 DoSCS=F DFT=T ScalE2(SS,OS)=  1.000000  1.000000
 Range of M.O.s used for correlation:     1   938
 NBasis=   938 NAE=   225 NBE=   225 NFC=     0 NFV=     0
 NROrb=    938 NOA=   225 NOB=   225 NVA=   713 NVB=   713

 **** Warning!!: The smallest alpha delta epsilon is  0.94241826D-01

   1 Symmetry operations used in ECPInt.
 ECPInt:  NShTT=   62835 NPrTT=  387974 LenC2=   45962 LenP2D=  140587.
 LDataN:  DoStor=T MaxTD1= 7 Len=  274
 Number of processors reduced to   6 by ecpmxn.
 Symmetrizing basis deriv contribution to polar:
 IMax=3 JMax=2 DiffMx= 0.00D+00
 G2DrvN: will do   118 centers at a time, making    1 passes.
 Calling FoFCou, ICntrl=  3107 FMM=T I1Cent=   0 AccDes= 0.00D+00.
 Defaulting to unpruned grid for atomic number  77.
 Defaulting to unpruned grid for atomic number  77.
 Defaulting to unpruned grid for atomic number  77.
 Defaulting to unpruned grid for atomic number  77.
 Defaulting to unpruned grid for atomic number  77.
 Defaulting to unpruned grid for atomic number  77.
 Defaulting to unpruned grid for atomic number  77.
 Defaulting to unpruned grid for atomic number  77.
 Defaulting to unpruned grid for atomic number  77.
 Defaulting to unpruned grid for atomic number  77.
 Defaulting to unpruned grid for atomic number  77.
 Defaulting to unpruned grid for atomic number  77.
 Defaulting to unpruned grid for atomic number  77.
 Defaulting to unpruned grid for atomic number  77.
 Defaulting to unpruned grid for atomic number  77.
 Defaulting to unpruned grid for atomic number  77.
 End of G2Drv F.D. properties file   721 does not exist.
 End of G2Drv F.D. properties file   722 does not exist.
 End of G2Drv F.D. properties file   788 does not exist.
          IDoAtm=11111111111111111111111111111111111111111111111111
          IDoAtm=11111111111111111111111111111111111111111111111111
          IDoAtm=11111111111111111
          Differentiating once with respect to electric field.
                with respect to dipole field.
          Differentiating once with respect to nuclear coordinates.
 Defaulting to unpruned grid for atomic number  77.
 CalDSu exits because no D1Ps are significant.
 Defaulting to unpruned grid for atomic number  77.
 Defaulting to unpruned grid for atomic number  77.
 Defaulting to unpruned grid for atomic number  77.
 Defaulting to unpruned grid for atomic number  77.
 Defaulting to unpruned grid for atomic number  77.
 Defaulting to unpruned grid for atomic number  77.
 Defaulting to unpruned grid for atomic number  77.
 Defaulting to unpruned grid for atomic number  77.
 Defaulting to unpruned grid for atomic number  77.
 Defaulting to unpruned grid for atomic number  77.
 Defaulting to unpruned grid for atomic number  77.
 Defaulting to unpruned grid for atomic number  77.
 Defaulting to unpruned grid for atomic number  77.
 Defaulting to unpruned grid for atomic number  77.
 Defaulting to unpruned grid for atomic number  77.
 Defaulting to unpruned grid for atomic number  77.
          There are   354 degrees of freedom in the 1st order CPHF.  IDoFFX=6 NUNeed=     3.
    351 vectors produced by pass  0 Test12= 1.60D-13 1.00D-09 XBig12= 5.55D+02 1.01D+01.
 AX will form    72 AO Fock derivatives at one time.
    351 vectors produced by pass  1 Test12= 1.60D-13 1.00D-09 XBig12= 1.10D+02 8.81D-01.
    351 vectors produced by pass  2 Test12= 1.60D-13 1.00D-09 XBig12= 1.18D+00 9.92D-02.
    351 vectors produced by pass  3 Test12= 1.60D-13 1.00D-09 XBig12= 9.21D-03 5.33D-03.
    351 vectors produced by pass  4 Test12= 1.60D-13 1.00D-09 XBig12= 3.60D-05 2.98D-04.
    311 vectors produced by pass  5 Test12= 1.60D-13 1.00D-09 XBig12= 7.05D-08 1.10D-05.
     83 vectors produced by pass  6 Test12= 1.60D-13 1.00D-09 XBig12= 1.01D-10 4.63D-07.
      3 vectors produced by pass  7 Test12= 1.60D-13 1.00D-09 XBig12= 1.28D-13 2.16D-08.
 InvSVY:  IOpt=1 It=  1 EMax= 1.42D-14
 Solved reduced A of dimension  2152 with   354 vectors.
 Isotropic polarizability for W=    0.000000      518.29 Bohr**3.
 End of Minotr F.D. properties file   721 does not exist.
 End of Minotr F.D. properties file   722 does not exist.
 End of Minotr F.D. properties file   788 does not exist.
 Hyperfine terms turned off by default for NAtoms > 100.

 **********************************************************************

            Population analysis using the SCF Density.

 **********************************************************************

 Orbital symmetries:
       Occupied  (A) (A) (A) (A) (A) (A) (A) (A) (A) (A) (A) (A)
                 (A) (A) (A) (A) (A) (A) (A) (A) (A) (A) (A) (A)
                 (A) (A) (A) (A) (A) (A) (A) (A) (A) (A) (A) (A)
                 (A) (A) (A) (A) (A) (A) (A) (A) (A) (A) (A) (A)
                 (A) (A) (A) (A) (A) (A) (A) (A) (A) (A) (A) (A)
                 (A) (A) (A) (A) (A) (A) (A) (A) (A) (A) (A) (A)
                 (A) (A) (A) (A) (A) (A) (A) (A) (A) (A) (A) (A)
                 (A) (A) (A) (A) (A) (A) (A) (A) (A) (A) (A) (A)
                 (A) (A) (A) (A) (A) (A) (A) (A) (A) (A) (A) (A)
                 (A) (A) (A) (A) (A) (A) (A) (A) (A) (A) (A) (A)
                 (A) (A) (A) (A) (A) (A) (A) (A) (A) (A) (A) (A)
                 (A) (A) (A) (A) (A) (A) (A) (A) (A) (A) (A) (A)
                 (A) (A) (A) (A) (A) (A) (A) (A) (A) (A) (A) (A)
                 (A) (A) (A) (A) (A) (A) (A) (A) (A) (A) (A) (A)
                 (A) (A) (A) (A) (A) (A) (A) (A) (A) (A) (A) (A)
                 (A) (A) (A) (A) (A) (A) (A) (A) (A) (A) (A) (A)
                 (A) (A) (A) (A) (A) (A) (A) (A) (A) (A) (A) (A)
                 (A) (A) (A) (A) (A) (A) (A) (A) (A) (A) (A) (A)
                 (A) (A) (A) (A) (A) (A) (A) (A) (A)
       Virtual   (A) (A) (A) (A) (A) (A) (A) (A) (A) (A) (A) (A)
                 (A) (A) (A) (A) (A) (A) (A) (A) (A) (A) (A) (A)
                 (A) (A) (A) (A) (A) (A) (A) (A) (A) (A) (A) (A)
                 (A) (A) (A) (A) (A) (A) (A) (A) (A) (A) (A) (A)
                 (A) (A) (A) (A) (A) (A) (A) (A) (A) (A) (A) (A)
                 (A) (A) (A) (A) (A) (A) (A) (A) (A) (A) (A) (A)
                 (A) (A) (A) (A) (A) (A) (A) (A) (A) (A) (A) (A)
                 (A) (A) (A) (A) (A) (A) (A) (A) (A) (A) (A) (A)
                 (A) (A) (A) (A) (A) (A) (A) (A) (A) (A) (A) (A)
                 (A) (A) (A) (A) (A) (A) (A) (A) (A) (A) (A) (A)
                 (A) (A) (A) (A) (A) (A) (A) (A) (A) (A) (A) (A)
                 (A) (A) (A) (A) (A) (A) (A) (A) (A) (A) (A) (A)
                 (A) (A) (A) (A) (A) (A) (A) (A) (A) (A) (A) (A)
                 (A) (A) (A) (A) (A) (A) (A) (A) (A) (A) (A) (A)
                 (A) (A) (A) (A) (A) (A) (A) (A) (A) (A) (A) (A)
                 (A) (A) (A) (A) (A) (A) (A) (A) (A) (A) (A) (A)
                 (A) (A) (A) (A) (A) (A) (A) (A) (A) (A) (A) (A)
                 (A) (A) (A) (A) (A) (A) (A) (A) (A) (A) (A) (A)
                 (A) (A) (A) (A) (A) (A) (A) (A) (A) (A) (A) (A)
                 (A) (A) (A) (A) (A) (A) (A) (A) (A) (A) (A) (A)
                 (A) (A) (A) (A) (A) (A) (A) (A) (A) (A) (A) (A)
                 (A) (A) (A) (A) (A) (A) (A) (A) (A) (A) (A) (A)
                 (A) (A) (A) (A) (A) (A) (A) (A) (A) (A) (A) (A)
                 (A) (A) (A) (A) (A) (A) (A) (A) (A) (A) (A) (A)
                 (A) (A) (A) (A) (A) (A) (A) (A) (A) (A) (A) (A)
                 (A) (A) (A) (A) (A) (A) (A) (A) (A) (A) (A) (A)
                 (A) (A) (A) (A) (A) (A) (A) (A) (A) (A) (A) (A)
                 (A) (A) (A) (A) (A) (A) (A) (A) (A) (A) (A) (A)
                 (A) (A) (A) (A) (A) (A) (A) (A) (A) (A) (A) (A)
                 (A) (A) (A) (A) (A) (A) (A) (A) (A) (A) (A) (A)
                 (A) (A) (A) (A) (A) (A) (A) (A) (A) (A) (A) (A)
                 (A) (A) (A) (A) (A) (A) (A) (A) (A) (A) (A) (A)
                 (A) (A) (A) (A) (A) (A) (A) (A) (A) (A) (A) (A)
                 (A) (A) (A) (A) (A) (A) (A) (A) (A) (A) (A) (A)
                 (A) (A) (A) (A) (A) (A) (A) (A) (A) (A) (A) (A)
                 (A) (A) (A) (A) (A) (A) (A) (A) (A) (A) (A) (A)
                 (A) (A) (A) (A) (A) (A) (A) (A) (A) (A) (A) (A)
                 (A) (A) (A) (A) (A) (A) (A) (A) (A) (A) (A) (A)
                 (A) (A) (A) (A) (A) (A) (A) (A) (A) (A) (A) (A)
                 (A) (A) (A) (A) (A) (A) (A) (A) (A) (A) (A) (A)
                 (A) (A) (A) (A) (A) (A) (A) (A) (A) (A) (A) (A)
                 (A) (A) (A) (A) (A) (A) (A) (A) (A) (A) (A) (A)
                 (A) (A) (A) (A) (A) (A) (A) (A) (A) (A) (A) (A)
                 (A) (A) (A) (A) (A) (A) (A) (A) (A) (A) (A) (A)
                 (A) (A) (A) (A) (A) (A) (A) (A) (A) (A) (A) (A)
                 (A) (A) (A) (A) (A) (A) (A) (A) (A) (A) (A) (A)
                 (A) (A) (A) (A) (A) (A) (A) (A) (A) (A) (A) (A)
                 (A) (A) (A) (A) (A) (A) (A) (A) (A) (A) (A) (A)
                 (A) (A) (A) (A) (A) (A) (A) (A) (A) (A) (A) (A)
                 (A) (A) (A) (A) (A) (A) (A) (A) (A) (A) (A) (A)
                 (A) (A) (A) (A) (A) (A) (A) (A) (A) (A) (A) (A)
                 (A) (A) (A) (A) (A) (A) (A) (A) (A) (A) (A) (A)
                 (A) (A) (A) (A) (A) (A) (A) (A) (A) (A) (A) (A)
                 (A) (A) (A) (A) (A) (A) (A) (A) (A) (A) (A) (A)
                 (A) (A) (A) (A) (A) (A) (A) (A) (A) (A) (A) (A)
                 (A) (A) (A) (A) (A) (A) (A) (A) (A) (A) (A) (A)
                 (A) (A) (A) (A) (A) (A) (A) (A) (A) (A) (A) (A)
                 (A) (A) (A) (A) (A) (A) (A) (A) (A) (A) (A) (A)
                 (A) (A) (A) (A) (A) (A) (A) (A) (A) (A) (A) (A)
                 (A) (A) (A) (A) (A)
 The electronic state is 1-A.
 Alpha  occ. eigenvalues --  -24.83895 -24.83787 -24.83360 -24.83178 -24.82629
 Alpha  occ. eigenvalues --  -24.82405 -19.21425 -19.21314 -19.21257 -19.21191
 Alpha  occ. eigenvalues --  -19.19381 -19.18204 -19.17977 -14.47579 -14.43603
 Alpha  occ. eigenvalues --  -14.42040 -10.52215 -10.51226 -10.34047 -10.33495
 Alpha  occ. eigenvalues --  -10.32602 -10.31751 -10.30992 -10.30471 -10.30367
 Alpha  occ. eigenvalues --  -10.30280 -10.30106 -10.30051 -10.30019 -10.29907
 Alpha  occ. eigenvalues --  -10.29672 -10.29098 -10.28852 -10.28721 -10.28205
 Alpha  occ. eigenvalues --  -10.26884 -10.25125 -10.25115 -10.24798 -10.24505
 Alpha  occ. eigenvalues --  -10.24090 -10.23674 -10.23640 -10.23628 -10.23476
 Alpha  occ. eigenvalues --  -10.23271 -10.23135 -10.22756 -10.22445 -10.22405
 Alpha  occ. eigenvalues --  -10.22262 -10.21863 -10.21772 -10.20341  -6.82835
 Alpha  occ. eigenvalues --   -6.81731  -6.80407  -3.63557  -2.07035  -2.06082
 Alpha  occ. eigenvalues --   -2.03661  -1.36528  -1.35606  -1.28032  -1.27544
 Alpha  occ. eigenvalues --   -1.27153  -1.26552  -1.07427  -1.07127  -1.04922
 Alpha  occ. eigenvalues --   -1.03867  -1.01309  -1.00408  -1.00368  -0.98366
 Alpha  occ. eigenvalues --   -0.98139  -0.93366  -0.87453  -0.85807  -0.84557
 Alpha  occ. eigenvalues --   -0.82249  -0.81304  -0.81055  -0.80698  -0.79411
 Alpha  occ. eigenvalues --   -0.77563  -0.75998  -0.75645  -0.75456  -0.73810
 Alpha  occ. eigenvalues --   -0.72733  -0.71899  -0.71225  -0.70854  -0.70793
 Alpha  occ. eigenvalues --   -0.69680  -0.69499  -0.69075  -0.68296  -0.68043
 Alpha  occ. eigenvalues --   -0.67382  -0.66508  -0.66459  -0.65570  -0.62834
 Alpha  occ. eigenvalues --   -0.62567  -0.62548  -0.62515  -0.62088  -0.61678
 Alpha  occ. eigenvalues --   -0.61567  -0.61412  -0.60373  -0.60060  -0.57822
 Alpha  occ. eigenvalues --   -0.57014  -0.55866  -0.55576  -0.55111  -0.54836
 Alpha  occ. eigenvalues --   -0.54221  -0.54067  -0.53439  -0.52563  -0.51592
 Alpha  occ. eigenvalues --   -0.50415  -0.50237  -0.49976  -0.49737  -0.49661
 Alpha  occ. eigenvalues --   -0.49228  -0.49056  -0.49018  -0.48371  -0.48050
 Alpha  occ. eigenvalues --   -0.47761  -0.47743  -0.47421  -0.47084  -0.47073
 Alpha  occ. eigenvalues --   -0.46875  -0.46330  -0.46155  -0.45821  -0.45586
 Alpha  occ. eigenvalues --   -0.45526  -0.45398  -0.45242  -0.45193  -0.45115
 Alpha  occ. eigenvalues --   -0.44893  -0.44445  -0.44170  -0.43925  -0.43810
 Alpha  occ. eigenvalues --   -0.43669  -0.43548  -0.43373  -0.43215  -0.42901
 Alpha  occ. eigenvalues --   -0.42885  -0.42288  -0.41646  -0.40961  -0.40834
 Alpha  occ. eigenvalues --   -0.40688  -0.40600  -0.40442  -0.40274  -0.40165
 Alpha  occ. eigenvalues --   -0.39993  -0.39957  -0.39885  -0.39747  -0.39526
 Alpha  occ. eigenvalues --   -0.39165  -0.39048  -0.38699  -0.38607  -0.38552
 Alpha  occ. eigenvalues --   -0.38297  -0.38074  -0.38025  -0.37733  -0.37267
 Alpha  occ. eigenvalues --   -0.37167  -0.36982  -0.36816  -0.36552  -0.36474
 Alpha  occ. eigenvalues --   -0.35750  -0.35639  -0.35517  -0.35431  -0.35285
 Alpha  occ. eigenvalues --   -0.35206  -0.35122  -0.34523  -0.33965  -0.33850
 Alpha  occ. eigenvalues --   -0.33822  -0.33630  -0.33382  -0.33031  -0.32848
 Alpha  occ. eigenvalues --   -0.32677  -0.32490  -0.32156  -0.31775  -0.31143
 Alpha  occ. eigenvalues --   -0.30888  -0.30757  -0.30712  -0.29450  -0.28976
 Alpha  occ. eigenvalues --   -0.28073  -0.27649  -0.27221  -0.26660  -0.25668
 Alpha  occ. eigenvalues --   -0.25250  -0.24508  -0.22803  -0.20342  -0.18271
 Alpha virt. eigenvalues --   -0.08847  -0.05511  -0.03499  -0.00639   0.01086
 Alpha virt. eigenvalues --    0.03504   0.04854   0.05036   0.05056   0.06419
 Alpha virt. eigenvalues --    0.06792   0.07245   0.08331   0.09115   0.09339
 Alpha virt. eigenvalues --    0.09751   0.10359   0.10599   0.10867   0.11284
 Alpha virt. eigenvalues --    0.11699   0.11900   0.12012   0.12302   0.12400
 Alpha virt. eigenvalues --    0.12795   0.12982   0.13216   0.13511   0.13972
 Alpha virt. eigenvalues --    0.14228   0.14491   0.14678   0.14702   0.14978
 Alpha virt. eigenvalues --    0.15154   0.15244   0.15312   0.15683   0.15757
 Alpha virt. eigenvalues --    0.15874   0.16188   0.16534   0.16568   0.16855
 Alpha virt. eigenvalues --    0.16981   0.17073   0.17211   0.17466   0.17739
 Alpha virt. eigenvalues --    0.17884   0.18033   0.18215   0.18380   0.18598
 Alpha virt. eigenvalues --    0.18832   0.18895   0.19005   0.19153   0.19343
 Alpha virt. eigenvalues --    0.19441   0.19803   0.19983   0.20154   0.20561
 Alpha virt. eigenvalues --    0.20707   0.20723   0.21022   0.21293   0.21353
 Alpha virt. eigenvalues --    0.21613   0.21754   0.22049   0.22260   0.22367
 Alpha virt. eigenvalues --    0.22515   0.22672   0.22979   0.23078   0.23093
 Alpha virt. eigenvalues --    0.23336   0.23631   0.23840   0.23854   0.23924
 Alpha virt. eigenvalues --    0.24143   0.24378   0.24457   0.24905   0.25086
 Alpha virt. eigenvalues --    0.25423   0.25653   0.25990   0.26036   0.26117
 Alpha virt. eigenvalues --    0.26549   0.26738   0.26875   0.27247   0.27398
 Alpha virt. eigenvalues --    0.27579   0.27690   0.28002   0.28465   0.28616
 Alpha virt. eigenvalues --    0.29438   0.29873   0.30180   0.31038   0.31162
 Alpha virt. eigenvalues --    0.31801   0.32711   0.33258   0.33352   0.34038
 Alpha virt. eigenvalues --    0.34434   0.34896   0.35201   0.35376   0.36543
 Alpha virt. eigenvalues --    0.36900   0.37184   0.37684   0.38763   0.39113
 Alpha virt. eigenvalues --    0.39817   0.40021   0.41405   0.41934   0.42488
 Alpha virt. eigenvalues --    0.43936   0.45016   0.45956   0.46332   0.47213
 Alpha virt. eigenvalues --    0.47399   0.48262   0.48436   0.48499   0.48693
 Alpha virt. eigenvalues --    0.48942   0.49769   0.50431   0.50742   0.50854
 Alpha virt. eigenvalues --    0.51122   0.51514   0.51916   0.52025   0.52480
 Alpha virt. eigenvalues --    0.52824   0.53039   0.53573   0.53991   0.54384
 Alpha virt. eigenvalues --    0.54561   0.54833   0.55704   0.55927   0.55948
 Alpha virt. eigenvalues --    0.56030   0.56694   0.56855   0.57139   0.57290
 Alpha virt. eigenvalues --    0.57680   0.57947   0.58020   0.58132   0.58333
 Alpha virt. eigenvalues --    0.59063   0.59470   0.59695   0.59900   0.60181
 Alpha virt. eigenvalues --    0.60269   0.60693   0.60849   0.61377   0.61526
 Alpha virt. eigenvalues --    0.61756   0.62385   0.62581   0.62876   0.63541
 Alpha virt. eigenvalues --    0.63694   0.63842   0.64071   0.64477   0.65173
 Alpha virt. eigenvalues --    0.65618   0.65758   0.66016   0.66345   0.66461
 Alpha virt. eigenvalues --    0.66610   0.66866   0.67502   0.67680   0.68341
 Alpha virt. eigenvalues --    0.68770   0.68988   0.69067   0.69591   0.69893
 Alpha virt. eigenvalues --    0.69970   0.70593   0.70839   0.71095   0.71269
 Alpha virt. eigenvalues --    0.71506   0.71795   0.71973   0.72369   0.72642
 Alpha virt. eigenvalues --    0.72745   0.73236   0.73441   0.73725   0.74079
 Alpha virt. eigenvalues --    0.74257   0.74830   0.75075   0.75532   0.75792
 Alpha virt. eigenvalues --    0.76389   0.77075   0.77142   0.77717   0.77986
 Alpha virt. eigenvalues --    0.77995   0.78372   0.78640   0.79055   0.80262
 Alpha virt. eigenvalues --    0.80408   0.80942   0.81222   0.81379   0.81711
 Alpha virt. eigenvalues --    0.81907   0.82355   0.82750   0.82980   0.83354
 Alpha virt. eigenvalues --    0.83434   0.83774   0.83831   0.84338   0.84516
 Alpha virt. eigenvalues --    0.84703   0.84875   0.85022   0.85349   0.85472
 Alpha virt. eigenvalues --    0.85798   0.86134   0.86332   0.86502   0.86736
 Alpha virt. eigenvalues --    0.86896   0.87299   0.87624   0.88072   0.88312
 Alpha virt. eigenvalues --    0.88595   0.88856   0.88941   0.89142   0.89324
 Alpha virt. eigenvalues --    0.89618   0.89761   0.90170   0.90372   0.90460
 Alpha virt. eigenvalues --    0.90643   0.90996   0.91296   0.91568   0.91847
 Alpha virt. eigenvalues --    0.92077   0.92410   0.92625   0.93229   0.93553
 Alpha virt. eigenvalues --    0.93629   0.93833   0.94091   0.94881   0.95048
 Alpha virt. eigenvalues --    0.95217   0.95404   0.95546   0.95988   0.96200
 Alpha virt. eigenvalues --    0.96495   0.96661   0.96823   0.97106   0.97335
 Alpha virt. eigenvalues --    0.97790   0.98358   0.98460   0.98932   0.99507
 Alpha virt. eigenvalues --    1.00037   1.00264   1.00451   1.01064   1.01494
 Alpha virt. eigenvalues --    1.01735   1.02188   1.02455   1.03080   1.03382
 Alpha virt. eigenvalues --    1.03963   1.04528   1.04979   1.05727   1.06528
 Alpha virt. eigenvalues --    1.07057   1.07686   1.07844   1.08427   1.08820
 Alpha virt. eigenvalues --    1.09832   1.09864   1.10433   1.10907   1.11858
 Alpha virt. eigenvalues --    1.12482   1.12953   1.13204   1.13598   1.14539
 Alpha virt. eigenvalues --    1.14868   1.15242   1.16364   1.17001   1.17154
 Alpha virt. eigenvalues --    1.17478   1.18431   1.18460   1.19011   1.19291
 Alpha virt. eigenvalues --    1.19981   1.20281   1.20796   1.21149   1.21662
 Alpha virt. eigenvalues --    1.21995   1.22205   1.22697   1.23023   1.23582
 Alpha virt. eigenvalues --    1.23850   1.24743   1.25180   1.25377   1.25892
 Alpha virt. eigenvalues --    1.26320   1.27597   1.28162   1.28480   1.28758
 Alpha virt. eigenvalues --    1.29190   1.29394   1.29591   1.30483   1.31209
 Alpha virt. eigenvalues --    1.31443   1.32154   1.33235   1.33750   1.33930
 Alpha virt. eigenvalues --    1.34219   1.34582   1.34849   1.35066   1.35737
 Alpha virt. eigenvalues --    1.35856   1.36264   1.37084   1.37288   1.37463
 Alpha virt. eigenvalues --    1.38009   1.38500   1.39200   1.39679   1.39745
 Alpha virt. eigenvalues --    1.40901   1.41177   1.41477   1.41880   1.42308
 Alpha virt. eigenvalues --    1.42829   1.43375   1.43658   1.44022   1.44214
 Alpha virt. eigenvalues --    1.44548   1.44957   1.45370   1.45567   1.46208
 Alpha virt. eigenvalues --    1.46763   1.47383   1.47810   1.48057   1.48479
 Alpha virt. eigenvalues --    1.49338   1.50615   1.50865   1.51257   1.51861
 Alpha virt. eigenvalues --    1.52480   1.52882   1.54453   1.55046   1.55424
 Alpha virt. eigenvalues --    1.56344   1.57013   1.57930   1.58503   1.59434
 Alpha virt. eigenvalues --    1.60313   1.61090   1.61137   1.62086   1.62868
 Alpha virt. eigenvalues --    1.63223   1.64061   1.64480   1.64555   1.64701
 Alpha virt. eigenvalues --    1.65457   1.65957   1.66510   1.67159   1.67862
 Alpha virt. eigenvalues --    1.68036   1.68321   1.68635   1.69205   1.69696
 Alpha virt. eigenvalues --    1.70305   1.70966   1.71462   1.72005   1.72418
 Alpha virt. eigenvalues --    1.72691   1.73144   1.73548   1.73959   1.75131
 Alpha virt. eigenvalues --    1.75367   1.75700   1.76158   1.76777   1.77442
 Alpha virt. eigenvalues --    1.77472   1.78417   1.78705   1.79018   1.79201
 Alpha virt. eigenvalues --    1.79777   1.79955   1.80665   1.81356   1.81666
 Alpha virt. eigenvalues --    1.81986   1.82619   1.83077   1.83317   1.83481
 Alpha virt. eigenvalues --    1.84240   1.84803   1.84962   1.85110   1.85637
 Alpha virt. eigenvalues --    1.86029   1.86362   1.86944   1.87466   1.87893
 Alpha virt. eigenvalues --    1.88119   1.88229   1.88476   1.89060   1.89377
 Alpha virt. eigenvalues --    1.90085   1.90263   1.90591   1.90858   1.91030
 Alpha virt. eigenvalues --    1.91418   1.91543   1.91742   1.92164   1.92442
 Alpha virt. eigenvalues --    1.92519   1.93080   1.93488   1.93575   1.93950
 Alpha virt. eigenvalues --    1.94160   1.94268   1.95015   1.95227   1.95579
 Alpha virt. eigenvalues --    1.95867   1.96130   1.96350   1.97012   1.97592
 Alpha virt. eigenvalues --    1.98555   1.98742   1.99315   1.99743   2.00369
 Alpha virt. eigenvalues --    2.01006   2.01262   2.01640   2.02016   2.02238
 Alpha virt. eigenvalues --    2.02639   2.02790   2.02862   2.03105   2.03235
 Alpha virt. eigenvalues --    2.03504   2.04223   2.04800   2.05031   2.05175
 Alpha virt. eigenvalues --    2.05967   2.06134   2.06319   2.06626   2.07004
 Alpha virt. eigenvalues --    2.07656   2.07887   2.08384   2.08763   2.08811
 Alpha virt. eigenvalues --    2.09158   2.09526   2.09920   2.10101   2.10280
 Alpha virt. eigenvalues --    2.10409   2.10744   2.11103   2.11549   2.11817
 Alpha virt. eigenvalues --    2.12670   2.13056   2.13371   2.13637   2.13914
 Alpha virt. eigenvalues --    2.14309   2.14623   2.15017   2.15282   2.15809
 Alpha virt. eigenvalues --    2.16144   2.16427   2.17084   2.17415   2.17998
 Alpha virt. eigenvalues --    2.18450   2.18525   2.18617   2.18859   2.19056
 Alpha virt. eigenvalues --    2.19674   2.19965   2.20190   2.21102   2.21195
 Alpha virt. eigenvalues --    2.21867   2.22255   2.22725   2.23177   2.23660
 Alpha virt. eigenvalues --    2.23992   2.24355   2.24569   2.24880   2.25096
 Alpha virt. eigenvalues --    2.25516   2.26034   2.26200   2.26410   2.26750
 Alpha virt. eigenvalues --    2.27584   2.28119   2.28177   2.28515   2.28843
 Alpha virt. eigenvalues --    2.29174   2.30129   2.30652   2.30990   2.31273
 Alpha virt. eigenvalues --    2.32354   2.32579   2.32640   2.33151   2.33574
 Alpha virt. eigenvalues --    2.33761   2.34232   2.35735   2.37090   2.37680
 Alpha virt. eigenvalues --    2.38320   2.38849   2.38919   2.39535   2.39747
 Alpha virt. eigenvalues --    2.41678   2.42279   2.42998   2.43711   2.44342
 Alpha virt. eigenvalues --    2.45483   2.46197   2.47203   2.47993   2.48312
 Alpha virt. eigenvalues --    2.48462   2.48795   2.49429   2.49687   2.50093
 Alpha virt. eigenvalues --    2.51197   2.51490   2.52085   2.52907   2.53952
 Alpha virt. eigenvalues --    2.55439   2.58702   2.59095   2.59312   2.59942
 Alpha virt. eigenvalues --    2.61115   2.61642   2.61953   2.62763   2.62975
 Alpha virt. eigenvalues --    2.63684   2.63842   2.64835   2.66324   2.66642
 Alpha virt. eigenvalues --    2.68072   2.68349   2.68777   2.69952   2.70908
 Alpha virt. eigenvalues --    2.71981   2.75790   2.76698   2.76871   2.76998
 Alpha virt. eigenvalues --    2.77383   2.77967   2.78238   2.78484   2.79014
 Alpha virt. eigenvalues --    2.79743   2.80382   2.80752   2.81006   2.81390
 Alpha virt. eigenvalues --    2.81850   2.82133   2.82687   2.83210   2.83367
 Alpha virt. eigenvalues --    2.85398   2.87755   2.88081   2.90048   2.91296
 Alpha virt. eigenvalues --    2.91531   2.93570   2.94072   2.94374   2.94800
 Alpha virt. eigenvalues --    2.96338   2.97046   3.00331   3.03019   3.03801
 Alpha virt. eigenvalues --    3.04635   3.06003   3.07030   3.07317   3.07469
 Alpha virt. eigenvalues --    3.08221   3.09597   3.11036   3.11299   3.12252
 Alpha virt. eigenvalues --    3.12648   3.14581   3.16082   3.21391   3.28370
 Alpha virt. eigenvalues --    3.31795   3.45362  12.49786
          Condensed to atoms (all electrons):
 Mulliken charges:
               1
     1  C    0.322666
     2  C    0.027189
     3  C   -0.068284
     4  C   -0.154504
     5  C   -0.184936
     6  C    0.318068
     7  C    0.020098
     8  C   -0.074817
     9  C   -0.155086
    10  C   -0.189187
    11  H    0.223046
    12  H    0.197201
    13  H    0.167507
    14  H    0.273746
    15  H    0.203942
    16  H    0.178279
    17  N   -0.418170
    18  N   -0.560635
    19  Ir  -0.019004
    20  O   -0.514205
    21  O   -0.563559
    22  O   -0.505882
    23  B    0.604904
    24  B    0.467298
    25  B    0.321615
    26  O   -0.517698
    27  O   -0.501253
    28  C    0.281526
    29  C    0.290003
    30  C    0.289395
    31  C    0.297277
    32  C    0.317148
    33  C    0.290325
    34  O   -0.540401
    35  C   -0.506599
    36  H    0.169825
    37  H    0.166619
    38  H    0.154266
    39  C   -0.489634
    40  H    0.157894
    41  H    0.136647
    42  H    0.165248
    43  C   -0.501573
    44  H    0.147402
    45  H    0.180678
    46  H    0.166173
    47  C   -0.505065
    48  H    0.151349
    49  H    0.171734
    50  H    0.162390
    51  C   -0.499897
    52  H    0.156438
    53  H    0.154952
    54  H    0.153309
    55  C   -0.501595
    56  H    0.173613
    57  H    0.144820
    58  H    0.156251
    59  C   -0.509369
    60  H    0.143997
    61  H    0.169506
    62  H    0.161998
    63  C   -0.510736
    64  H    0.133021
    65  H    0.204654
    66  H    0.163293
    67  C   -0.510990
    68  H    0.172909
    69  H    0.163248
    70  H    0.156683
    71  C   -0.514799
    72  H    0.184184
    73  H    0.177266
    74  H    0.152708
    75  C   -0.514162
    76  H    0.171707
    77  H    0.176096
    78  H    0.153107
    79  C   -0.514267
    80  H    0.157451
    81  H    0.149380
    82  H    0.195720
    83  H    0.166406
    84  C    0.584479
    85  O   -0.519212
    86  C   -0.406860
    87  H    0.145520
    88  H    0.177752
    89  C   -0.448644
    90  H    0.266825
    91  H    0.213596
    92  N   -0.358924
    93  C   -0.340179
    94  H    0.165160
    95  H    0.165720
    96  H    0.174050
    97  C   -0.248622
    98  H    0.170921
    99  H    0.118930
   100  C   -0.284866
   101  H    0.129772
   102  H    0.146495
   103  C   -0.277316
   104  H    0.121131
   105  H    0.154652
   106  C   -0.500631
   107  H    0.168979
   108  H    0.165454
   109  H    0.162436
   110  C    0.968501
   111  F   -0.318259
   112  F   -0.304222
   113  F   -0.311803
   114  C    0.970205
   115  F   -0.315602
   116  F   -0.301128
   117  F   -0.302179
 Sum of Mulliken charges =  -0.00000
 Mulliken charges with hydrogens summed into heavy atoms:
               1
     1  C    0.322666
     2  C    0.250235
     3  C   -0.068284
     4  C    0.042697
     5  C   -0.017429
     6  C    0.318068
     7  C    0.293845
     8  C   -0.074817
     9  C    0.048855
    10  C   -0.010908
    17  N   -0.418170
    18  N   -0.560635
    19  Ir  -0.019004
    20  O   -0.514205
    21  O   -0.563559
    22  O   -0.505882
    23  B    0.604904
    24  B    0.467298
    25  B    0.488021
    26  O   -0.517698
    27  O   -0.501253
    28  C    0.281526
    29  C    0.290003
    30  C    0.289395
    31  C    0.297277
    32  C    0.317148
    33  C    0.290325
    34  O   -0.540401
    35  C   -0.015888
    39  C   -0.029844
    43  C   -0.007320
    47  C   -0.019593
    51  C   -0.035198
    55  C   -0.026910
    59  C   -0.033869
    63  C   -0.009769
    67  C   -0.018150
    71  C   -0.000641
    75  C   -0.013252
    79  C   -0.011716
    84  C    0.584479
    85  O   -0.519212
    86  C   -0.083588
    89  C    0.031777
    92  N   -0.358924
    93  C    0.164751
    97  C    0.041230
   100  C   -0.008599
   103  C   -0.001534
   106  C   -0.003762
   110  C    0.968501
   111  F   -0.318259
   112  F   -0.304222
   113  F   -0.311803
   114  C    0.970205
   115  F   -0.315602
   116  F   -0.301128
   117  F   -0.302179
 APT charges:
               1
     1  C    0.179957
     2  C    0.073589
     3  C   -0.211228
     4  C    0.107057
     5  C   -0.190043
     6  C    0.272118
     7  C    0.026324
     8  C   -0.215746
     9  C    0.110639
    10  C   -0.204437
    11  H    0.123376
    12  H    0.064114
    13  H    0.043186
    14  H    0.199670
    15  H    0.068823
    16  H    0.049569
    17  N   -0.237821
    18  N   -0.129155
    19  Ir  -0.600892
    20  O   -0.903228
    21  O   -1.078390
    22  O   -1.012361
    23  B    1.498628
    24  B    1.191400
    25  B    1.361825
    26  O   -1.039205
    27  O   -0.914147
    28  C    0.461987
    29  C    0.434269
    30  C    0.509414
    31  C    0.526700
    32  C    0.551621
    33  C    0.507651
    34  O   -1.038732
    35  C    0.010891
    36  H   -0.000321
    37  H   -0.005024
    38  H   -0.016151
    39  C   -0.023349
    40  H   -0.011234
    41  H   -0.011769
    42  H    0.000647
    43  C   -0.031767
    44  H   -0.024377
    45  H    0.028264
    46  H    0.005658
    47  C   -0.009952
    48  H   -0.012924
    49  H    0.007786
    50  H    0.001453
    51  C   -0.051227
    52  H    0.005140
    53  H    0.000735
    54  H   -0.029969
    55  C   -0.022573
    56  H    0.014438
    57  H   -0.021370
    58  H   -0.003068
    59  C   -0.002119
    60  H   -0.021127
    61  H   -0.003043
    62  H   -0.006081
    63  C   -0.046645
    64  H   -0.028049
    65  H    0.038283
    66  H   -0.003458
    67  C   -0.008315
    68  H    0.004793
    69  H   -0.002405
    70  H   -0.014888
    71  C   -0.043710
    72  H    0.012759
    73  H    0.005847
    74  H   -0.022038
    75  C   -0.006477
    76  H    0.003271
    77  H    0.004319
    78  H   -0.014510
    79  C   -0.043916
    80  H   -0.001950
    81  H   -0.018562
    82  H    0.030977
    83  H   -0.038000
    84  C    0.817624
    85  O   -0.680930
    86  C   -0.000695
    87  H   -0.026688
    88  H   -0.017846
    89  C   -0.118640
    90  H    0.084895
    91  H   -0.016658
    92  N   -0.683362
    93  C    0.278626
    94  H   -0.018847
    95  H   -0.007665
    96  H    0.013007
    97  C    0.087304
    98  H   -0.014033
    99  H   -0.032551
   100  C    0.110755
   101  H   -0.055249
   102  H   -0.053368
   103  C    0.145650
   104  H   -0.067311
   105  H   -0.065947
   106  C    0.041240
   107  H   -0.006472
   108  H   -0.026181
   109  H   -0.014583
   110  C    1.846969
   111  F   -0.598051
   112  F   -0.578268
   113  F   -0.585749
   114  C    1.739617
   115  F   -0.573157
   116  F   -0.578210
   117  F   -0.506652
 Sum of APT charges =  -0.00000
 APT charges with hydrogens summed into heavy atoms:
               1
     1  C    0.179957
     2  C    0.196965
     3  C   -0.211228
     4  C    0.171171
     5  C   -0.146857
     6  C    0.272118
     7  C    0.225994
     8  C   -0.215746
     9  C    0.179462
    10  C   -0.154868
    17  N   -0.237821
    18  N   -0.129155
    19  Ir  -0.600892
    20  O   -0.903228
    21  O   -1.078390
    22  O   -1.012361
    23  B    1.498628
    24  B    1.191400
    25  B    1.323825
    26  O   -1.039205
    27  O   -0.914147
    28  C    0.461987
    29  C    0.434269
    30  C    0.509414
    31  C    0.526700
    32  C    0.551621
    33  C    0.507651
    34  O   -1.038732
    35  C   -0.010605
    39  C   -0.045706
    43  C   -0.022222
    47  C   -0.013638
    51  C   -0.075321
    55  C   -0.032573
    59  C   -0.032370
    63  C   -0.039868
    67  C   -0.020815
    71  C   -0.047142
    75  C   -0.013397
    79  C   -0.033450
    84  C    0.817624
    85  O   -0.680930
    86  C   -0.045229
    89  C   -0.050402
    92  N   -0.683362
    93  C    0.265121
    97  C    0.040719
   100  C    0.002138
   103  C    0.012393
   106  C   -0.005995
   110  C    1.846969
   111  F   -0.598051
   112  F   -0.578268
   113  F   -0.585749
   114  C    1.739617
   115  F   -0.573157
   116  F   -0.578210
   117  F   -0.506652
 Electronic spatial extent (au):  <R**2>=          36068.1389
 Charge=             -0.0000 electrons
 Dipole moment (field-independent basis, Debye):
    X=              2.9911    Y=              0.1056    Z=              4.8576  Tot=              5.7056
 Quadrupole moment (field-independent basis, Debye-Ang):
   XX=           -329.2194   YY=           -362.7647   ZZ=           -352.8754
   XY=              0.6393   XZ=              2.3006   YZ=             11.4161
 Traceless Quadrupole moment (field-independent basis, Debye-Ang):
   XX=             19.0671   YY=            -14.4782   ZZ=             -4.5889
   XY=              0.6393   XZ=              2.3006   YZ=             11.4161
 Octapole moment (field-independent basis, Debye-Ang**2):
  XXX=            -28.9685  YYY=            -13.4832  ZZZ=            -28.1529  XYY=            -25.2060
  XXY=             55.3686  XXZ=              3.7352  XZZ=             -0.8283  YZZ=             -7.0137
  YYZ=            -18.9823  XYZ=             44.4129
 Hexadecapole moment (field-independent basis, Debye-Ang**3):
 XXXX=         -19827.2687 YYYY=         -18016.9743 ZZZZ=          -7932.9915 XXXY=           -326.6252
 XXXZ=            152.9677 YYYX=             19.6826 YYYZ=             34.7120 ZZZX=             47.8240
 ZZZY=           -215.8178 XXYY=          -6205.3854 XXZZ=          -4642.1262 YYZZ=          -4279.5431
 XXYZ=             24.3758 YYXZ=             80.6688 ZZXY=            -63.4331
 N-N= 1.062113950387D+04 E-N=-2.812092540671D+04  KE= 2.862764941988D+03
  Exact polarizability:     554.606       6.378     568.267      31.214      15.493     431.991
 Approx polarizability:     746.982      -6.450     850.541      72.750       5.993     669.048
   1 Symmetry operations used in ECPInt.
 ECPInt:  NShTT=   62835 NPrTT=  387974 LenC2=   45962 LenP2D=  140587.
 LDataN:  DoStor=T MaxTD1= 8 Len=  415
 Calling FoFJK, ICntrl=    100127 FMM=F ISym2X=0 I1Cent= 0 IOpClX= 0 NMat=1 NMatS=1 NMatT=0.
 Defaulting to unpruned grid for atomic number  77.
 Defaulting to unpruned grid for atomic number  77.
 Defaulting to unpruned grid for atomic number  77.
 Defaulting to unpruned grid for atomic number  77.
 Defaulting to unpruned grid for atomic number  77.
 Defaulting to unpruned grid for atomic number  77.
 Defaulting to unpruned grid for atomic number  77.
 Defaulting to unpruned grid for atomic number  77.
 Defaulting to unpruned grid for atomic number  77.
 Defaulting to unpruned grid for atomic number  77.
 Defaulting to unpruned grid for atomic number  77.
 Defaulting to unpruned grid for atomic number  77.
 Defaulting to unpruned grid for atomic number  77.
 Defaulting to unpruned grid for atomic number  77.
 Defaulting to unpruned grid for atomic number  77.
 Defaulting to unpruned grid for atomic number  77.
 Full mass-weighted force constant matrix:
 Low frequencies --- -135.9200   -6.9662   -2.6759   -0.0005    0.0002    0.0005
 Low frequencies ---    3.7740   15.5283   18.3015
 ******    1 imaginary frequencies (negative Signs) ****** 
 Diagonal vibrational polarizability:
      112.7909370     106.6196401      84.3857132
 Harmonic frequencies (cm**-1), IR intensities (KM/Mole), Raman scattering
 activities (A**4/AMU), depolarization ratios for plane and unpolarized
 incident light, reduced masses (AMU), force constants (mDyne/A),
 and normal coordinates:
                      1                      2                      3
                      A                      A                      A
 Frequencies --   -135.9164                15.3112                18.1281
 Red. masses --      5.7384                 4.9183                 4.2170
 Frc consts  --      0.0625                 0.0007                 0.0008
 IR Inten    --     21.6130                 0.1059                 0.0207
  Atom AN      X      Y      Z        X      Y      Z        X      Y      Z
     1   6     0.02   0.03   0.02     0.02  -0.03   0.00    -0.01   0.02  -0.02
     2   6     0.00   0.03   0.04     0.04  -0.02  -0.01    -0.01   0.01  -0.03
     3   6     0.02   0.03   0.02     0.06  -0.03  -0.03    -0.00   0.01  -0.05
     4   6     0.03   0.03  -0.00     0.06  -0.04  -0.03     0.01   0.02  -0.07
     5   6     0.04   0.03  -0.00     0.04  -0.04  -0.01     0.00   0.02  -0.05
     6   6     0.01   0.02   0.01     0.01  -0.03   0.01    -0.01   0.02   0.00
     7   6     0.01   0.02  -0.02    -0.01  -0.03   0.00     0.02   0.02  -0.03
     8   6     0.00   0.01  -0.00    -0.01  -0.04   0.00     0.01   0.02  -0.01
     9   6    -0.01   0.01   0.01    -0.00  -0.04   0.01    -0.02   0.03   0.02
    10   6     0.00   0.01   0.03     0.00  -0.04   0.01    -0.03   0.03   0.03
    11   1    -0.01   0.03   0.06     0.04  -0.02  -0.01    -0.02   0.00  -0.02
    12   1     0.04   0.03  -0.02     0.07  -0.04  -0.04     0.02   0.02  -0.09
    13   1     0.06   0.03  -0.03     0.04  -0.04  -0.02     0.01   0.02  -0.06
    14   1     0.02   0.03  -0.04    -0.01  -0.03   0.00     0.03   0.01  -0.04
    15   1    -0.02   0.00   0.03    -0.01  -0.05   0.01    -0.03   0.04   0.04
    16   1    -0.01   0.01   0.05     0.00  -0.05   0.02    -0.06   0.03   0.06
    17   7     0.01   0.04   0.06     0.02  -0.02   0.01    -0.02   0.01  -0.01
    18   7     0.02   0.03  -0.01     0.00  -0.03   0.00     0.00   0.01  -0.02
    19  77    -0.04   0.00   0.04    -0.00  -0.02   0.01    -0.00   0.01  -0.00
    20   8    -0.00  -0.02  -0.02     0.01  -0.02   0.01     0.02  -0.01   0.01
    21   8     0.11  -0.01  -0.06    -0.00  -0.01  -0.00    -0.00   0.01  -0.02
    22   8    -0.02   0.01  -0.04     0.02   0.00   0.00    -0.01  -0.00   0.01
    23   5     0.26  -0.00  -0.23    -0.00  -0.01  -0.00    -0.01   0.01  -0.01
    24   5     0.02  -0.05  -0.00    -0.00  -0.01   0.01     0.01  -0.00   0.00
    25   5    -0.02   0.02  -0.06     0.01   0.00   0.01    -0.00   0.00   0.02
    26   8     0.00   0.02  -0.00     0.01   0.02   0.02     0.00  -0.00   0.04
    27   8     0.02  -0.04   0.02    -0.02  -0.01   0.00     0.02  -0.00  -0.00
    28   6     0.00  -0.02   0.01    -0.02  -0.01   0.00     0.03  -0.01   0.00
    29   6     0.00  -0.01  -0.01     0.00  -0.02   0.01     0.03  -0.01   0.00
    30   6    -0.00   0.01  -0.01     0.03   0.02   0.01    -0.00  -0.00   0.03
    31   6    -0.00   0.01   0.00     0.02   0.03   0.02    -0.00  -0.01   0.05
    32   6     0.04   0.02  -0.01    -0.00  -0.01  -0.00    -0.00   0.01  -0.01
    33   6     0.07   0.05  -0.02    -0.00  -0.01   0.00    -0.01   0.01  -0.00
    34   8     0.14  -0.02  -0.12    -0.01  -0.01   0.00    -0.01   0.01  -0.00
    35   6    -0.00   0.00  -0.01     0.01  -0.01   0.01     0.04  -0.02   0.01
    36   1    -0.00   0.01  -0.02     0.03  -0.01   0.01     0.04  -0.02   0.01
    37   1    -0.00  -0.00  -0.02     0.02   0.01   0.01     0.03  -0.02   0.02
    38   1    -0.00   0.01  -0.01     0.00  -0.00   0.01     0.04  -0.03   0.01
    39   6     0.00   0.00  -0.00    -0.00  -0.04   0.01     0.03  -0.01  -0.00
    40   1    -0.00   0.01   0.00    -0.01  -0.05   0.00     0.04  -0.02  -0.01
    41   1     0.00  -0.01   0.00    -0.01  -0.05   0.00     0.03  -0.01  -0.01
    42   1    -0.00   0.00  -0.01     0.01  -0.05   0.01     0.03  -0.01   0.00
    43   6     0.00  -0.01  -0.01    -0.02   0.02   0.00     0.03  -0.02   0.02
    44   1    -0.01  -0.00  -0.01    -0.02   0.02   0.01     0.04  -0.03   0.02
    45   1     0.02  -0.01  -0.02    -0.01   0.03   0.01     0.02  -0.02   0.03
    46   1     0.01  -0.01  -0.01    -0.03   0.03   0.00     0.03  -0.02   0.02
    47   6    -0.01  -0.01   0.03    -0.04  -0.02  -0.00     0.04  -0.02  -0.01
    48   1    -0.01   0.01   0.03    -0.04  -0.01  -0.00     0.06  -0.02  -0.01
    49   1    -0.00  -0.01   0.04    -0.06  -0.01  -0.00     0.04  -0.02  -0.01
    50   1    -0.01  -0.01   0.04    -0.04  -0.03  -0.00     0.04  -0.01  -0.02
    51   6    -0.00  -0.04  -0.01    -0.00  -0.01  -0.01    -0.01   0.01  -0.02
    52   1     0.01  -0.07  -0.02    -0.00  -0.00  -0.00    -0.02   0.02  -0.02
    53   1    -0.01  -0.07  -0.01    -0.00  -0.01  -0.01    -0.01   0.01  -0.03
    54   1    -0.04  -0.03   0.02     0.00  -0.00  -0.01    -0.01   0.01  -0.02
    55   6     0.02   0.05   0.00     0.00  -0.01  -0.00     0.00   0.01  -0.01
    56   1     0.04   0.08  -0.00     0.00  -0.02  -0.00     0.01   0.01  -0.01
    57   1    -0.01   0.07   0.02     0.00  -0.01  -0.00     0.01   0.01  -0.01
    58   1     0.01   0.02   0.01     0.00  -0.01  -0.01     0.01   0.01  -0.02
    59   6     0.02   0.01   0.02    -0.01  -0.01   0.00    -0.01   0.01  -0.00
    60   1    -0.01   0.03   0.07    -0.01  -0.01   0.00    -0.01   0.01  -0.01
    61   1     0.03   0.02   0.01    -0.01  -0.01   0.00    -0.02   0.01   0.00
    62   1    -0.00  -0.05   0.00    -0.01  -0.01   0.00    -0.02   0.02  -0.01
    63   6     0.09   0.12  -0.03    -0.00  -0.01   0.00    -0.00   0.01   0.00
    64   1     0.05   0.15  -0.02    -0.00  -0.01   0.01     0.00   0.00   0.00
    65   1     0.11   0.11  -0.03    -0.00  -0.01   0.00    -0.00   0.01   0.00
    66   1     0.11   0.14  -0.03    -0.01  -0.01   0.01    -0.01   0.00   0.01
    67   6     0.01   0.01   0.01     0.03   0.05   0.03     0.02  -0.00   0.07
    68   1     0.01   0.01   0.01     0.01   0.05   0.04     0.02  -0.01   0.08
    69   1     0.01   0.01   0.01     0.03   0.05   0.02     0.04   0.00   0.06
    70   1     0.01   0.01   0.01     0.04   0.06   0.03     0.02  -0.01   0.08
    71   6    -0.01   0.01   0.01     0.01   0.03   0.03    -0.02  -0.01   0.06
    72   1    -0.02   0.01   0.00     0.00   0.02   0.02    -0.04  -0.02   0.05
    73   1    -0.01   0.01   0.02     0.00   0.03   0.04    -0.02  -0.02   0.08
    74   1    -0.01   0.00   0.01     0.01   0.03   0.03    -0.03  -0.02   0.08
    75   6    -0.01   0.01   0.00     0.04   0.02   0.00    -0.02  -0.01   0.03
    76   1    -0.01   0.01  -0.00     0.05   0.01  -0.01    -0.03  -0.01   0.02
    77   1    -0.03   0.02   0.00     0.03   0.02   0.01    -0.04  -0.02   0.04
    78   1    -0.01   0.01   0.02     0.05   0.03   0.01    -0.02  -0.01   0.05
    79   6     0.02   0.00  -0.02     0.05   0.02   0.00     0.02   0.01   0.02
    80   1     0.02   0.01  -0.02     0.05   0.02  -0.01     0.01   0.01  -0.00
    81   1     0.03  -0.00  -0.00     0.06   0.04   0.00     0.03   0.01   0.03
    82   1     0.03  -0.00  -0.03     0.04   0.02   0.00     0.03   0.01   0.01
    83   1    -0.16  -0.23   0.14    -0.01  -0.02   0.02    -0.01   0.01   0.01
    84   6    -0.05  -0.07  -0.02    -0.03   0.04  -0.02    -0.00  -0.01  -0.00
    85   8    -0.09  -0.08  -0.01    -0.06   0.04  -0.03     0.01  -0.01   0.01
    86   6    -0.04  -0.03  -0.01    -0.02   0.09  -0.00    -0.01  -0.03  -0.01
    87   1    -0.02  -0.03  -0.02    -0.00   0.08  -0.01    -0.02  -0.06  -0.04
[...]
 0003553,0.00000601,-0.00002832,0.00011553,-0.00003372,-0.00001837,-0.0
 0006055,-0.00000032,0.00008538,-0.00003812,0.00008664,0.00065943,-0.00
 027501,0.00014727,0.00039024,0.00011077,0.00060433,-0.00093351,0.00014
 855,-0.00025763,-0.00012830,-0.00001772,-0.00027715,0.00030501,-0.0000
 8857,0.00002162,0.00003697,0.00016096,-0.00004666,-0.00001599,0.000007
 80,0.00004359,-0.00005220,-0.00083019,-0.00032483,0.00031278,0.0000139
 9,-0.00003831,0.00006139,0.00017561,-0.00001074,-0.00002753,0.00012974
 ,0.00038083,-0.00044796,0.00007343,-0.00013980,0.00006750,-0.00001659,
 0.00001573,0.00004700,-0.00002534,0.00011258,0.00003394,-0.00006420,-0
 .00003886,-0.00004084,0.00011611,-0.00022435,0.00012071,-0.00009992,0.
 00008380,-0.00002298,-0.00008569,-0.00001505,-0.00001351,0.00008772,0.
 00013339,-0.00010014,-0.00005452,0.00002329,0.00000180,-0.00000176,-0.
 00002932,-0.00000344,-0.00002331,0.00001320,-0.00002081,0.00000442,0.0
 0000499,0.00003617,-0.00005816,0.00001734,0.00000986,-0.00003476,-0.00
 004912,-0.00000124,0.00001279,0.00001334,-0.00006581,-0.00001173,0.000
 01701,0.00001129,-0.00003089,-0.00000828,-0.00004124,-0.00002894,-0.00
 001710,-0.00001229,0.00002008,0.00003431,0.00002376,-0.00000516,-0.000
 00503,0.00002411,-0.00002613,0.00001942,0.00000794,0.00000581,-0.00000
 691,0.00002950,0.00000289,-0.00001211,-0.00000830,-0.00001297,0.000011
 61,-0.00000780,-0.00001613,0.00002764,0.00003031,0.00000691,-0.0000171
 4,-0.00000703,0.00001274,-0.00000619,0.00000704,-0.00002624,0.00001493
 ,0.00000294,-0.00001500,0.00005457,0.00001507,0.00000762,-0.00003681,-
 0.00000010,-0.00003011,0.00001579,0.00001988,0.00001255,0.00001455,-0.
 00002827,-0.00016508,0.00004847,-0.00015888,-0.00008533,-0.00029514,0.
 00007218,-0.00006700,0.00030489,-0.00009302,-0.00002545,-0.00015959,0.
 00011020,-0.00005006,0.00006107,-0.00007564,-0.00000182,0.00000697,-0.
 00003468,0.00025126,0.00001225,0.00019333,0.00000508,0.00004689,-0.000
 01231,-0.00003036,-0.00001376,-0.00000546,-0.00010567,0.00039069,-0.00
 014101,-0.00007473,-0.00060890,0.00053650,0.00000277,0.00004700,-0.000
 04606,0.00011805,0.00007672,-0.00006720,-0.00000283,0.00007371,-0.0001
 5076,-0.00005864,0.00005367,-0.00002430,0.00003462,0.00003955,-0.00002
 529,-0.00000288,-0.00004370,0.00000674,-0.00005681,-0.00007175,0.00007
 096,-0.00000701,0.00005431,-0.00006085,0.00003128,0.00000503,-0.000016
 26,-0.00003637,-0.00001912,-0.00004165,-0.00001483,0.00000384,-0.00001
 750,0.00005347,0.00000068,0.00001500,0.00000290,0.00001868,0.00002955,
 -0.00000357,-0.00002554,0.00000338,0.00002503,0.00003854,0.00001190,-0
 .00000152,-0.00001119,-0.00001384,0.00035926,-0.00072580,0.00011537,0.
 00000020,0.00022845,0.00002431,-0.00009418,0.00018602,-0.00013303,-0.0
 0026498,0.00019513,0.00000563,0.08512428,0.06038061,-0.21350166,0.0297
 9857,-0.00130207,0.00494353,-0.14886686,-0.06764765,0.30592861,0.00012
 780,0.00005695,0.00001637,-0.00001486,-0.00006545,-0.00001059,0.000045
 20,-0.00003465,0.00002736,0.00002959,0.00005035,0.00000223,0.00000872,
 -0.00000268,0.00001212,0.00005226,0.00031163,-0.00004051,-0.00275006,0
 .00054090,-0.00113374,0.00846164,-0.00413137,-0.00408961,0.00030508,0.
 00026444,-0.00053557,0.00020762,0.00012510,0.00063132,-0.00002316,-0.0
 0002068,-0.00000289,-0.00000259,0.00000088,-0.00000118,0.00000382,0.00
 001403,0.00002044,0.00291277,0.00017875,0.00169091,0.00030984,0.000594
 85,0.00006687,-0.00005060,-0.00001575,0.00006606,0.00004936,-0.0000151
 9,0.00003675,0.00040806,0.00016516,0.00090051,0.00009044,0.00008007,-0
 .00016363,0.00006982,0.00019201,0.00005926,-0.00044556,0.00095890,-0.0
 0038260,-0.00001247,0.00012122,-0.00000134,-0.00001088,-0.00119924,0.0
 0013447,-0.00014627,-0.00046260,0.00011590,0.00002858,-0.00013797,0.00
 001890,-0.00002545,0.00008799,-0.00001684,-0.00002941,0.00038621,-0.00
 007334,0.00005944,-0.00013656,-0.00000815,-0.00005743,-0.00006853,-0.0
 0004252,0.00000569,-0.00001909,-0.00001491,0.00002957,-0.00004428,0.00
 000041,0.00012755,-0.00004977,0.00028185,0.00008213,-0.00013959,0.0000
 5968,-0.00006588,0.00035130,-0.00010240,0.00002027,0.00001447,0.000005
 53,0.00000136,0.00002111,0.00000983,0.00000029,-0.00000660,-0.00000331
 ,-0.00000152,-0.00000662,-0.00000771,0.00003793,0.00002467,0.00000146,
 -0.00000164,-0.00001562,-0.00001664,-0.00005806,-0.00007361,-0.0000003
 7,-0.00000784,0.00005057,0.00001728,-0.00001190,0.00004802,-0.00003071
 ,0.,-0.00000404,0.00001169,-0.00002285,0.00000699,-0.00000325,0.000022
 52,0.00000729,0.00000701,0.00011392,0.00000785,0.00003338,-0.00007170,
 0.00004181,0.00003855,0.00008122,0.00003002,-0.00001122,-0.00006558,-0
 .00008144,-0.00015192,0.00011202,-0.00001938,0.00000878,-0.00001216,0.
 00002345,-0.00006798,0.00019829,0.00014720,0.00030043,-0.00003235,-0.0
 0000324,-0.00001454,0.00004693,0.00024693,0.00004514,0.00012334,-0.000
 02755,0.00001208,-0.00004062,-0.00006752,-0.00004395,-0.00205734,-0.00
 064103,-0.00109348,-0.00003186,0.00004203,-0.00001356,0.00001705,0.000
 00511,0.00001051,-0.00002797,0.00000827,-0.00001823,0.00001070,-0.0000
 0845,0.00000729,-0.00001938,0.00003367,-0.00003042,0.00002284,0.000006
 46,0.00000765,0.00001797,-0.00003178,0.00000248,-0.00003012,0.00001718
 ,-0.00002133,-0.00000371,0.00000382,0.00000487,0.00000972,0.00000095,0
 .00000213,-0.00000029,-0.00000884,-0.00000227,-0.00000515,0.00000723,-
 0.00000283,-0.00000491,0.00000172,-0.00000200,0.00000033,-0.00000645,0
 .00000053,0.00000943,0.00000402,-0.00000029,-0.00000619,0.00000600,0.0
 0000031,-0.00000128,-0.00000041,0.00000064,0.00000339,0.00000734,-0.00
 000014,-0.00000075,-0.00000253,0.00000084,-0.00000199,0.00000065,-0.00
 000016,-0.00000163,-0.00000563,0.00000570,0.00000343,0.00001011,-0.000
 00292,-0.00000085,0.00000134,0.00000260,-0.00000212,-0.00000776,-0.000
 00183,-0.00000113,-0.00001775,0.00001816,-0.00041585,-0.00040514,-0.00
 017600,0.00010153,0.00023218,0.00011913,0.00008340,0.00004222,-0.00004
 068,-0.00002165,0.00003456,-0.00000576,-0.00000390,-0.00000200,0.00000
 253,0.00001503,0.00022202,0.00000632,0.00001607,-0.00000277,-0.0000324
 6,-0.00002083,-0.00004166,0.00006441,0.00023172,0.00031867,0.00008754,
 0.00003423,-0.00031957,0.00028967,0.00003987,0.00005869,-0.00011101,-0
 .00023121,-0.00023300,0.00038247,0.00000861,-0.00000541,0.00004236,-0.
 00003304,-0.00003563,0.00002306,0.00000842,-0.00001938,0.00001413,0.00
 000716,0.00000663,-0.00001036,0.00001892,0.00012391,-0.00009631,-0.000
 02544,-0.00004464,0.00005287,0.00000313,-0.00001101,0.00000511,0.00000
 698,-0.00000584,0.00003244,-0.00000681,0.00000237,-0.00000402,0.000024
 28,0.00000636,0.00000611,-0.00000388,-0.00000324,-0.00001544,0.0000074
 8,-0.00000861,0.00000862,-0.00000607,-0.00001227,0.00000026,-0.0000028
 5,0.00000208,0.00000433,-0.00009096,0.00007552,-0.00002617,0.00001515,
 -0.00000536,0.00000585,0.00002209,-0.00002385,0.00002875,0.00005558,-0
 .00002286,0.00000033,-0.09303807,-0.04019636,-0.04359178,-0.04121272,-
 0.03008867,-0.04949797,0.01424037,0.00999560,0.01834840,0.11206284,0.0
 0000357,0.00045921,-0.00007430,-0.00015501,-0.00020996,-0.00007312,0.0
 0026739,-0.00028525,0.00018352,0.00001717,0.00026563,-0.00005175,0.000
 08519,-0.00047619,0.00014531,-0.00044431,0.00037336,-0.00075670,-0.001
 26460,-0.00055623,-0.00105745,-0.01731574,-0.03508016,-0.03768950,0.00
 632433,-0.00452307,0.00307192,-0.00151154,-0.00219039,0.00060867,-0.00
 004771,-0.00005321,-0.00000834,-0.00000633,-0.00002922,-0.00001038,0.0
 0006174,0.00011923,0.00005351,0.00013649,-0.00286398,-0.00080685,0.000
 22816,0.00045135,-0.00038927,0.00007688,-0.00075668,0.00027283,0.00016
 498,-0.00024367,0.00006739,-0.00084582,-0.00020526,0.00021545,0.000646
 61,0.00017764,-0.00054713,0.00033722,0.00026831,-0.00010377,-0.0001506
 7,0.00260617,0.00007015,0.00034628,-0.00009050,-0.00006010,-0.00030624
 ,-0.00274428,-0.00057902,-0.00083115,-0.00070413,0.00035414,-0.0007095
 5,0.00013001,0.00022112,0.00043365,0.00002663,-0.00009463,0.00039846,0
 .00064461,-0.00025949,-0.00006191,-0.00021010,0.00018795,-0.00023633,-
 0.00014391,-0.00003666,-0.00018336,0.00003939,0.00005181,-0.00013067,0
 .00006918,-0.00002588,-0.00022438,-0.00084942,0.00012434,0.00007315,-0
 .00051212,0.00021333,0.00027661,0.00112382,0.00022824,0.00007693,0.000
 00849,0.00004492,-0.00001157,0.00002669,0.00002247,0.00004011,-0.00002
 992,-0.00000498,0.00000063,0.00000739,-0.00003135,-0.00001052,0.000126
 58,0.00010098,0.00004233,-0.00000542,-0.00006860,-0.00006757,-0.000133
 10,-0.00000083,-0.00000110,0.00007543,0.00004923,0.00000192,0.00003879
 ,-0.00005243,0.00002793,-0.00000483,-0.00001109,-0.00003167,0.00000433
 ,-0.00000131,0.00004026,0.00003148,0.00002207,-0.00001743,0.00002785,0
 .00001423,-0.00004219,0.00003930,0.00001356,0.00016431,0.00005422,0.00
 000893,-0.00008973,-0.00012703,-0.00010013,0.00033125,0.00001961,0.000
 13063,-0.00003303,0.00003454,-0.00012253,-0.00002870,0.00011353,0.0001
 9801,-0.00006801,0.00006013,0.00002825,0.00042267,-0.00026806,0.000129
 85,-0.00001128,-0.00005098,-0.00000575,-0.00012425,0.00006082,-0.00011
 816,-0.00073749,0.00002542,-0.00036404,-0.00002674,0.00007173,-0.00001
 876,0.00005532,0.00004370,0.00001847,-0.00005177,0.00001506,-0.0000201
 4,0.00000582,-0.00002071,0.00004425,-0.00004973,0.00008525,-0.00009279
 ,0.00007391,0.00004879,0.00000407,-0.00000712,-0.00007072,-0.00000077,
 -0.00006767,0.00002805,-0.00003420,0.00000978,-0.00000572,0.00000262,0
 .00001544,0.00001897,-0.00000103,-0.00000857,-0.00000502,0.00001020,0.
 00000743,-0.00000787,-0.00000587,0.00001319,-0.00001609,0.00000763,-0.
 00001472,-0.00000960,-0.00001093,0.00001373,0.00002089,-0.00000615,0.0
 0001390,-0.00000718,0.00001005,0.00000691,-0.00001907,-0.00000621,-0.0
 0000686,0.00001760,0.00000044,-0.00000318,0.00000187,0.00001279,0.0000
 1963,-0.00000883,-0.00000679,0.00001466,-0.00001685,-0.00000841,-0.000
 00629,0.00003561,0.00000270,0.00002688,-0.00000847,-0.00001243,-0.0000
 2167,-0.00000468,0.00001475,0.00014783,-0.00012067,0.00018200,-0.00038
 527,-0.00105996,-0.00051304,-0.00020557,0.00081765,0.00047476,-0.00002
 434,0.00007877,-0.00001878,0.00009546,-0.00011945,-0.00016136,-0.00006
 064,-0.00004086,0.00013237,0.00029606,0.00064371,0.00007260,0.00001484
 ,0.00002514,-0.00012515,-0.00014974,-0.00010140,0.00021808,0.00001291,
 0.00103306,0.00045605,0.00010624,-0.00145798,0.00088194,-0.00006076,0.
 00007287,-0.00011802,0.00009729,-0.00121757,0.00155271,0.00005483,0.00
 007286,-0.00003077,0.00007729,-0.00012669,-0.00013446,-0.00003409,0.00
 002507,0.00006063,-0.00002485,0.00016134,0.00006012,0.00002839,0.00010
 741,-0.00003422,0.00003897,-0.00009155,-0.00000787,-0.00007724,-0.0000
 1437,0.00006837,0.00009157,-0.00004456,-0.00006839,-0.00003075,0.00006
 012,0.00007242,-0.00002346,0.00000766,-0.00000073,-0.00000284,0.000018
 04,0.00001062,0.00000326,0.00000383,-0.00001291,-0.00000126,-0.0000153
 9,-0.00000808,-0.00002045,0.00000065,0.00003066,-0.00036043,0.00084721
 ,-0.00028577,-0.00000193,-0.00025059,0.00000460,0.00010454,-0.00023412
 ,0.00025217,0.00025668,-0.00021943,0.00003370,-0.03702535,-0.19011730,
 -0.10170046,-0.01664549,0.01359875,-0.00674604,0.00573052,0.01518754,-
 0.01414856,0.06263912,0.20812143,0.00011880,0.00014887,-0.00000601,-0.
 00001275,-0.00004439,0.00000093,0.00003183,-0.00006405,0.00003406,0.00
 003900,0.00005457,0.00003214,-0.00002577,-0.00005562,0.00003933,0.0005
 4206,0.00064995,0.00011417,-0.00342925,0.00128300,-0.00194333,-0.00470
 013,-0.00915110,-0.00125776,0.00090584,-0.00199212,0.00139558,-0.00045
 021,0.00022844,-0.00053034,-0.00000988,-0.00002191,-0.00001238,0.00000
 133,-0.00000169,-0.00000951,0.00004715,0.00003688,-0.00000507,0.002663
 42,-0.00051845,0.00072105,0.00028254,0.00048928,0.00011240,0.00008007,
 -0.00020580,-0.00000327,0.00014246,-0.00004619,0.00005242,0.00040993,-
 0.00055081,0.00097990,0.00009443,0.00001653,0.00007289,0.00008954,-0.0
 0004191,0.00069659,-0.00095272,0.00181232,-0.00032454,-0.00008647,0.00
 014507,0.00004086,0.00022795,-0.00226777,-0.00014680,-0.00004016,-0.00
 012778,-0.00074755,0.00017866,-0.00011266,-0.00004120,-0.00010054,0.00
 005751,0.00010145,-0.00001380,0.00002396,0.00054960,0.00012703,0.00013
 100,-0.00045877,-0.00022246,0.00013507,-0.00037919,0.00003011,-0.00003
 578,-0.00006897,0.00001783,-0.00003367,-0.00003745,0.00030216,-0.00008
 869,0.00017947,0.00018271,-0.00024184,0.00008565,-0.00019896,0.0006062
 1,-0.00002292,0.00008994,-0.00001159,0.00008695,-0.00001845,0.00002316
 ,0.00000120,0.00006524,-0.00002888,-0.00001039,-0.00002675,-0.00000069
 ,0.00002190,0.00002674,0.00008159,0.00025640,-0.00008061,0.00002968,0.
 00012381,0.00000770,0.00015165,-0.00030665,0.00004821,-0.00004701,-0.0
 0002263,-0.00001029,-0.00009481,0.00010058,-0.00002746,0.00000725,0.00
 001959,0.00004901,-0.00001727,-0.00000992,0.00003089,0.00003831,-0.000
 01449,-0.00034193,-0.00010376,0.00010913,-0.00001715,0.00001050,0.0000
 4728,0.00015713,0.00002821,-0.00002088,-0.00012697,0.00003990,-0.00012
 588,0.00028087,-0.00012552,0.00011931,-0.00002365,0.00003422,-0.000047
 58,0.00024449,0.00031533,0.00030552,-0.00011159,0.00000054,-0.00002468
 ,0.00030280,-0.00024566,0.00022858,-0.00006692,0.00001650,-0.00001924,
 -0.00014805,0.00000359,-0.00007536,-0.00107467,-0.00009667,-0.00075098
 ,-0.00006193,0.00007603,-0.00002125,0.00003451,0.00000602,0.00001250,-
 0.00005614,0.00001947,-0.00003178,0.00001139,-0.00001280,0.00005019,-0
 .00006432,0.00006925,-0.00005984,0.00002473,-0.00000120,0.00000675,0.0
 0001138,-0.00004242,-0.00003294,-0.00005788,0.00003192,-0.00001942,-0.
 00001190,-0.00000421,-0.00001489,-0.00000135,0.00000066,-0.00000559,0.
 00000596,0.00000889,0.00001530,-0.00000258,-0.00000140,0.00000724,-0.0
 0000989,0.00000403,0.00000581,-0.00000419,-0.00001209,0.00001035,0.000
 01386,0.00000615,-0.00000730,-0.00000429,0.00000654,0.00000094,-0.0000
 0656,0.00000404,0.00001215,0.00000238,0.00000441,-0.00000343,0.0000044
 3,-0.00000360,0.00001007,-0.00000545,0.00000397,-0.00000150,-0.0000017
 2,0.00001378,0.00000759,0.00000238,0.00000559,-0.00000091,-0.00000293,
 0.00000491,0.00000604,-0.00000558,-0.00000030,-0.00000795,0.00003000,-
 0.00004872,0.00001500,-0.00057415,-0.00119671,-0.00038561,-0.00012517,
 0.00093382,0.00029865,0.00001957,-0.00003219,0.00007369,-0.00005567,-0
 .00013557,-0.00015218,-0.00004574,-0.00003122,0.00007020,0.00048692,0.
 00050642,0.00019042,0.00000355,0.00004779,-0.00008437,-0.00012377,-0.0
 0010050,0.00016456,0.00002429,0.00114865,0.00013996,-0.00001741,-0.001
 31363,0.00066629,-0.00001819,0.00009172,-0.00009535,0.00038467,0.00187
 700,-0.00361106,0.00000777,0.00011121,-0.00010998,-0.00003188,-0.00006
 098,-0.00010353,0.00001800,0.00003525,0.00003618,-0.00000274,0.0000770
 3,0.00003248,-0.00000473,0.00013728,-0.00006281,-0.00000391,-0.0000609
 1,-0.00000108,-0.00002428,-0.00001904,0.00003480,0.00003226,-0.0000422
 8,-0.00003407,-0.00003123,0.00003851,0.00002612,0.00004305,0.00001232,
 0.00001629,-0.00000231,0.00001949,0.00001294,0.00000564,-0.00002282,0.
 00000192,0.00001074,0.00000555,0.00000428,-0.00001479,-0.00000546,0.00
 001073,-0.00004680,0.00010404,-0.00012326,0.00000780,-0.00001220,0.000
 02078,0.00001689,-0.00003468,0.00007797,0.00003407,-0.00002898,0.00002
 203,-0.04077594,-0.10518424,-0.18051631,-0.04051254,-0.01398579,-0.018
 03158,0.00842360,-0.02956283,-0.07885578,0.07754789,0.15632005,0.28110
 856\\0.00000009,0.00000129,0.00000187,-0.00000105,0.00000634,0.0000007
 8,0.00000106,-0.00000181,0.00000221,-0.00000452,0.00000169,-0.00000239
 ,-0.00000258,-0.00000596,-0.00000216,0.00000267,-0.00000023,0.00000250
 ,0.00000232,0.00001046,-0.00000070,-0.00000470,-0.00000575,-0.00000131
 ,0.00000010,-0.00000441,0.00000196,-0.00000019,0.00000705,-0.00000159,
 -0.00000185,-0.00000046,-0.00000108,0.00000139,0.00000264,0.00000123,0
 .00000088,-0.00000023,0.00000136,-0.00000380,-0.00000214,-0.00000289,0
 .00000119,0.00000029,0.00000105,-0.00000043,-0.00000006,0.00000057,0.0
 0000530,-0.00000415,0.00000269,-0.00000271,-0.00000737,-0.00000104,0.0
 0000361,0.00000131,0.00000037,-0.00000169,0.00000181,0.00000179,0.0000
 0083,-0.00000206,-0.00000197,0.00000475,-0.00000451,-0.00000189,0.0000
 0217,0.00000246,0.00000358,-0.00000113,-0.00000396,-0.00000473,-0.0000
 0276,0.00000361,0.00000105,-0.00000152,0.00000267,-0.00000095,0.000001
 21,0.00000182,-0.00000176,-0.00000359,-0.00000057,0.00000063,0.0000042
 6,0.00000181,0.00000418,-0.00000393,0.00000177,-0.00000057,0.00000252,
 -0.00000073,-0.00000332,-0.00000055,0.00000257,0.00000513,0.00000243,0
 .00000420,-0.00000158,-0.00000413,-0.00000475,-0.00000246,-0.00000841,
 -0.00000596,-0.00000463,0.00000284,0.00000480,0.00000182,0.00000118,-0
 .00000003,0.00000083,0.00000025,-0.00000013,0.00000004,0.00000072,-0.0
 0000670,-0.00000560,-0.00000078,-0.00000007,0.00000077,-0.00000229,0.0
 0000157,0.00000243,0.00000006,0.00000309,0.00000030,-0.00000147,-0.000
 00119,-0.00000421,-0.00000037,-0.00000007,0.00000197,0.00000035,0.0000
 0064,0.00000011,0.00000077,0.00000034,0.00000025,-0.00000086,-0.000004
 35,0.00000036,-0.00000021,0.00000044,-0.00000229,0.00000070,0.00000194
 ,0.00000087,-0.00000029,-0.00000004,-0.00000046,0.00000203,-0.00000563
 ,-0.00000020,0.00000023,0.00000169,-0.00000268,0.00000007,0.00000045,-
 0.00000001,0.00000079,0.00000230,0.00000006,-0.00000060,0.00000485,-0.
 00000009,-0.00000002,-0.00000007,0.00000014,-0.00000079,-0.00000231,-0
 .00000095,-0.00000003,-0.00000034,-0.00000055,-0.00000385,0.00000381,-
 0.00000107,0.00000009,-0.00000072,-0.00000051,0.00000249,-0.00000161,0
 .00000017,0.00000117,0.00000005,-0.00000129,-0.00000320,0.00000015,-0.
 00000462,0.00000098,-0.00000016,-0.00000018,0.00000121,0.00000031,0.00
 000206,0.00000181,-0.00000104,0.00000087,-0.00000017,-0.00000495,-0.00
 000399,0.00000072,0.00000272,0.00000022,-0.00000103,0.00000044,0.00000
 125,-0.00000013,0.00000038,0.00000054,-0.00000348,0.00000516,-0.000000
 06,0.00000086,-0.00000031,0.00000024,-0.00000013,-0.00000240,-0.000000
 66,0.00000268,-0.00000191,-0.00000003,0.00000411,-0.00000073,0.0000052
 6,-0.00000068,-0.00000082,-0.00000039,-0.00000073,-0.00000045,-0.00000
 478,-0.00000191,0.00000057,0.00000036,0.00000490,-0.00000142,0.0000005
 7,-0.00000127,-0.00000085,0.00000022,-0.00000162,0.00000133,0.00000084
 ,-0.00000045,0.00000191,-0.00000147,-0.00000113,-0.00000030,-0.0000014
 9,0.00000062,0.00000165,-0.00000208,0.00000188,-0.00000168,0.00000141,
 0.00000003,0.00000126,0.00000564,-0.00000039,0.00000130,-0.00000197,0.
 00000064,-0.00000045,-0.00000065,-0.00000236,-0.00000166,-0.00000301,-
 0.00000073,0.00000072,-0.00000025,0.00000030,0.00000175,0.00000170,0.0
 0000667,-0.00000523,0.00000095,-0.00000634,0.00001083,0.00000171,0.000
 00717,0.00000086,-0.00000185,-0.00000088,-0.00000322,0.00000699,-0.000
 00287,-0.00000417,-0.00000435,0.00000121,-0.00000361,0.00000051,-0.000
 00043,0.00000195,-0.00000038,0.00000002,-0.00000025,0.00000076,-0.0000
 0169,0.00000188,0.00000598,0.00000088,0.00000159,-0.00000109,0.0000005
 7,-0.00000136,-0.00000098,-0.00000067,-0.00000430,0.00000102,-0.000000
 70,0.00000034,0.00000044,0.00000053,-0.00000002,0.00000069,-0.00000113
 ,-0.00000198,-0.00000335,0.00000119,0.00000011,0.00000113,0.00000178,0
 .00000281,0.00000239,-0.00000092,0.00000042,0.00000274,-0.00000395,-0.
 00000845,-0.00000273,0.00000360,0.00000683,0.00000515,-0.00000018,0.00
 000070,-0.00000059,0.00000394,0.00000228,0.00000078,0.00000379,-0.0000
 0111,-0.00000484,0.00000317,0.00000044,0.00000164,-0.00000540,-0.00000
 024,0.00000504,-0.00000009,0.00000095,0.00000054\\\@
 The archive entry for this job was punched.


 ... UNTIL SCIENCE IS MIXED WITH EMOTION AND APPEALS TO THE HEART AND
 IMAGINATION , IT IS LIKE DEAD INORGANIC MATTER; AND WHEN IT IS SO MIXED
 AND SO TRANSFORMED IT IS LITERATURE.

                                  -- JOHN BURROUGHS
 Job cpu time:       2 days  1 hours 46 minutes 12.2 seconds.
 Elapsed time:       0 days  3 hours 10 minutes 29.0 seconds.
 File lengths (MBytes):  RWF=  11754 Int=      0 D2E=      0 Chk=     62 Scr=      1
 Normal termination of Gaussian 16 at Sat Dec  7 21:58:07 2024.
