/mnt/lustre/scratch/nvme/SLURM/9663804/usccqdma.Y8NbLgnTqk
OMP_STACKSIZE=0m
GAUSS_PDEF=16
GAUSS_MDEF=65536MB
GAUSS_RDEF=SCF=Direct
 Entering Gaussian System, Link 0=g16.exe
 Initial command:
 /opt/cesga/2020/software/Core/g16/c1/l1.exe "/mnt/lustre/scratch/nvme/SLURM/9663804/usccqdma.Y8NbLgnTqk/Gau-1009760.inp" -scrdir="/mnt/lustre/scratch/nvme/SLURM/9663804/usccqdma.Y8NbLgnTqk/"
 Default is to use a total of  16 processors:
                               16 via shared-memory
                                1 via Linda
 Entering Link 1 = /opt/cesga/2020/software/Core/g16/c1/l1.exe PID=   1009786.
  
 Copyright (c) 1988-2019, Gaussian, Inc.  All Rights Reserved.
  
 This is part of the Gaussian(R) 16 program.  It is based on
 the Gaussian(R) 09 system (copyright 2009, Gaussian, Inc.),
 the Gaussian(R) 03 system (copyright 2003, Gaussian, Inc.),
 the Gaussian(R) 98 system (copyright 1998, Gaussian, Inc.),
 the Gaussian(R) 94 system (copyright 1995, Gaussian, Inc.),
 the Gaussian 92(TM) system (copyright 1992, Gaussian, Inc.),
 the Gaussian 90(TM) system (copyright 1990, Gaussian, Inc.),
 the Gaussian 88(TM) system (copyright 1988, Gaussian, Inc.),
 the Gaussian 86(TM) system (copyright 1986, Carnegie Mellon
 University), and the Gaussian 82(TM) system (copyright 1983,
 Carnegie Mellon University). Gaussian is a federally registered
 trademark of Gaussian, Inc.
  
 This software contains proprietary and confidential information,
 including trade secrets, belonging to Gaussian, Inc.
  
 This software is provided under written license and may be
 used, copied, transmitted, or stored only in accord with that
 written license.
  
 The following legend is applicable only to US Government
 contracts under FAR:
  
                    RESTRICTED RIGHTS LEGEND
  
 Use, reproduction and disclosure by the US Government is
 subject to restrictions as set forth in subparagraphs (a)
 and (c) of the Commercial Computer Software - Restricted
 Rights clause in FAR 52.227-19.
  
 Gaussian, Inc.
 340 Quinnipiac St., Bldg. 40, Wallingford CT 06492
  
  
 ---------------------------------------------------------------
 Warning -- This program may not be used in any manner that
 competes with the business of Gaussian, Inc. or will provide
 assistance to any competitor of Gaussian, Inc.  The licensee
 of this program is prohibited from giving any competitor of
 Gaussian, Inc. access to this program.  By using this program,
 the user acknowledges that Gaussian, Inc. is engaged in the
 business of creating and licensing software in the field of
 computational chemistry and represents and warrants to the
 licensee that it is not a competitor of Gaussian, Inc. and that
 it will not use this program in any manner prohibited above.
 ---------------------------------------------------------------
  

 Cite this work as:
 Gaussian 16, Revision C.01,
 M. J. Frisch, G. W. Trucks, H. B. Schlegel, G. E. Scuseria, 
 M. A. Robb, J. R. Cheeseman, G. Scalmani, V. Barone, 
 G. A. Petersson, H. Nakatsuji, X. Li, M. Caricato, A. V. Marenich, 
 J. Bloino, B. G. Janesko, R. Gomperts, B. Mennucci, H. P. Hratchian, 
 J. V. Ortiz, A. F. Izmaylov, J. L. Sonnenberg, D. Williams-Young, 
 F. Ding, F. Lipparini, F. Egidi, J. Goings, B. Peng, A. Petrone, 
 T. Henderson, D. Ranasinghe, V. G. Zakrzewski, J. Gao, N. Rega, 
 G. Zheng, W. Liang, M. Hada, M. Ehara, K. Toyota, R. Fukuda, 
 J. Hasegawa, M. Ishida, T. Nakajima, Y. Honda, O. Kitao, H. Nakai, 
 T. Vreven, K. Throssell, J. A. Montgomery, Jr., J. E. Peralta, 
 F. Ogliaro, M. J. Bearpark, J. J. Heyd, E. N. Brothers, K. N. Kudin, 
 V. N. Staroverov, T. A. Keith, R. Kobayashi, J. Normand, 
 K. Raghavachari, A. P. Rendell, J. C. Burant, S. S. Iyengar, 
 J. Tomasi, M. Cossi, J. M. Millam, M. Klene, C. Adamo, R. Cammi, 
 J. W. Ochterski, R. L. Martin, K. Morokuma, O. Farkas, 
 J. B. Foresman, and D. J. Fox, Gaussian, Inc., Wallingford CT, 2019.
 
 ******************************************
 Gaussian 16:  ES64L-G16RevC.01  3-Jul-2019
                 7-Dec-2024 
 ******************************************
 Default route: SCF=Direct
 ----------------------------------------------------
 # m06/genecp scf=tight int=ultrafine 5d freq=noraman
 ----------------------------------------------------
 1/10=4,30=1,38=1/1,3;
 2/12=2,17=6,18=5,40=1/2;
 3/5=7,8=1,11=2,16=1,17=8,25=1,30=1,71=2,74=-54,75=-5,140=1/1,2,3;
 4//1;
 5/5=2,32=2,38=5,98=1/2;
 8/6=4,10=90,11=11/1;
 11/6=1,8=1,9=11,15=111,16=1/1,2,10;
 10/6=1/2;
 6/7=2,8=2,9=2,10=2,28=1/1;
 7/8=1,10=1,25=1/1,2,3,16;
 1/10=4,30=1/3;
 99//99;
 ------
 OPT-TS
 ------
 Symbolic Z-matrix:
 Charge =  0 Multiplicity = 1
 C                     1.99305   3.26212  -0.5003 
 C                     1.16096   3.15778   1.66694 
 C                     1.5195    4.47478   1.92194 
 C                     2.12392   5.20538   0.90644 
 C                     2.36632   4.59297  -0.31502 
 C                     2.24385   2.52773  -1.76015 
 C                     1.89778   0.56692  -2.95149 
 C                     2.69066   1.00736  -4.00239 
 C                     3.27493   2.26469  -3.91239 
 C                     3.05545   3.03109  -2.77669 
 H                     0.69456   2.52333   2.4228 
 H                     2.40619   6.24492   1.0611 
 H                     2.82958   5.15549  -1.12152 
 H                     1.42839  -0.41906  -2.95158 
 H                     3.90638   2.64373  -4.71347 
 H                     3.53087   4.00372  -2.67839 
 N                     1.3841    2.56884   0.48575 
 N                     1.67119   1.3123   -1.86463 
 Ir                    0.52701   0.53815  -0.0726 
 O                     0.30474   0.3193    2.91246 
 O                     3.06276  -0.95073  -0.22659 
 O                    -1.8125   -1.13857  -1.05042 
 B                     1.7877   -0.94288   0.3341 
 B                    -0.32272   0.02342   1.68906 
 B                    -0.42898  -1.00682  -0.94003 
 O                     0.19122  -2.00442  -1.71279 
 O                    -1.58078  -0.52981   1.94747 
 C                    -1.87727  -0.34888   3.33667 
 C                    -0.46202  -0.26993   3.97006 
 C                    -2.09394  -2.07979  -2.09459 
 C                    -0.81392  -2.95678  -2.08766 
 C                     3.63834  -2.24227   0.0197 
 C                     2.8695   -2.70522   1.29226 
 O                     1.59608  -2.06279   1.13464 
 C                    -0.36099   0.60651   5.20366 
 H                     0.67224   0.60486   5.57423 
 H                    -0.63987   1.64521   4.9894 
 H                    -1.00936   0.23107   6.00877 
 C                     0.13605  -1.63952   4.2614 
 H                     1.18517  -1.50108   4.55236 
 H                    -0.3837   -2.14845   5.08467 
 H                     0.11892  -2.2762    3.36665 
 C                    -2.65081   0.95821   3.46875 
 H                    -2.97255   1.14749   4.50182 
 H                    -2.04466   1.80972   3.12658 
 H                    -3.54623   0.91084   2.83506 
 C                    -2.73148  -1.50589   3.8155 
 H                    -2.89568  -1.45211   4.90167 
 H                    -3.71352  -1.47364   3.3245 
 H                    -2.26792  -2.4691    3.57614 
 C                     3.35106  -3.10474  -1.20234 
 H                     2.27027  -3.21132  -1.35872 
 H                     3.76663  -2.60346  -2.08704 
 H                     3.81277  -4.09854  -1.12189 
 C                     5.13557  -2.08814   0.20093 
 H                     5.37709  -1.34257   0.96634 
 H                     5.5968   -3.04575   0.48347 
 H                     5.58941  -1.76067  -0.74342 
 C                     2.65373  -4.20093   1.4022 
 H                     3.61403  -4.73374   1.46088 
 H                     2.08509  -4.42424   2.31479 
 H                     2.08753  -4.59151   0.54941 
 C                     3.48948  -2.17687   2.57951 
 H                     2.8153   -2.40272   3.41439 
 H                     4.46188  -2.6425    2.78953 
 H                     3.6176   -1.08702   2.53705 
 C                    -0.83633  -4.02843  -1.0044 
 H                    -1.08376  -3.59383  -0.02608 
 H                    -1.55106  -4.83095  -1.23243 
 H                     0.16452  -4.47421  -0.92721 
 C                    -0.44506  -3.56854  -3.42365 
 H                    -1.24045  -4.23756  -3.78268 
 H                    -0.26802  -2.79952  -4.18464 
 H                     0.47395  -4.16129  -3.32167 
 C                    -2.27098  -1.2908   -3.38668 
 H                    -3.05334  -0.53186  -3.24646 
 H                    -1.34311  -0.76678  -3.65903 
 H                    -2.56369  -1.93773  -4.22518 
 C                    -3.37359  -2.82066  -1.76418 
 H                    -3.55849  -3.6294   -2.48612 
 H                    -3.34054  -3.24723  -0.75492 
 H                    -4.21823  -2.12041  -1.81223 
 C                    -4.09423   1.19455  -1.3397 
 O                    -4.30294   1.63968  -2.46366 
 N                    -4.93067   0.26294  -0.77234 
 C                    -1.85113   2.2732   -1.39841 
 C                    -2.9468    1.72743  -0.49696 
 C                    -3.48863   2.83427   0.40768 
 H                     2.8459    0.37045  -4.86948 
 H                     1.32018   4.91378   2.89616 
 C                    -4.74347  -0.36047   0.52028 
 C                    -6.16313  -0.06865  -1.4532 
 H                    -1.45384   1.49318  -2.06144 
 H                    -1.02659   2.6732   -0.78319 
 H                    -2.22704   3.08742  -2.03146 
 H                    -6.21648  -1.1482   -1.66302 
 H                    -6.20049   0.48455  -2.39415 
 H                    -7.03257   0.19904  -0.83303 
 H                    -5.29087   0.17108   1.31884 
 H                    -3.68401  -0.4403    0.78619 
 H                    -5.1415   -1.38422   0.47567 
 H                    -3.92427   3.6424   -0.19792 
 H                    -2.67558   3.26274   1.01246 
 H                    -4.26391   2.47271   1.09716 
 H                    -2.51877   0.9291    0.1219 
 

 GradGradGradGradGradGradGradGradGradGradGradGradGradGradGradGradGradGrad
 Berny optimization.
 Initialization pass.
 Trust Radius=3.00D-01 FncErr=1.00D-07 GrdErr=1.00D-07 EigMax=2.50D+02 EigMin=1.00D-04
 Number of steps in this run=      2 maximum allowed number of steps=      2.
 GradGradGradGradGradGradGradGradGradGradGradGradGradGradGradGradGradGrad

 Stoichiometry    C34H57B3IrN3O7
 Framework group  C1[X(C34H57B3IrN3O7)]
 Deg. of freedom   309
 Full point group                 C1      NOp   1
 Largest Abelian subgroup         C1      NOp   1
 Largest concise Abelian subgroup C1      NOp   1
                         Standard orientation:                         
 ---------------------------------------------------------------------
 Center     Atomic      Atomic             Coordinates (Angstroms)
 Number     Number       Type             X           Y           Z
 ---------------------------------------------------------------------
      1          6           0        1.993051    3.262120   -0.500299
      2          6           0        1.160961    3.157780    1.666941
      3          6           0        1.519501    4.474780    1.921941
      4          6           0        2.123921    5.205380    0.906441
      5          6           0        2.366321    4.592970   -0.315019
      6          6           0        2.243850    2.527730   -1.760149
      7          6           0        1.897780    0.566920   -2.951489
      8          6           0        2.690660    1.007360   -4.002389
      9          6           0        3.274930    2.264690   -3.912389
     10          6           0        3.055451    3.031090   -2.776689
     11          1           0        0.694560    2.523330    2.422801
     12          1           0        2.406192    6.244920    1.061101
     13          1           0        2.829581    5.155490   -1.121519
     14          1           0        1.428390   -0.419060   -2.951579
     15          1           0        3.906381    2.643729   -4.713469
     16          1           0        3.530871    4.003720   -2.678389
     17          7           0        1.384101    2.568840    0.485751
     18          7           0        1.671190    1.312300   -1.864629
     19         77           0        0.527010    0.538150   -0.072599
     20          8           0        0.304740    0.319301    2.912461
     21          8           0        3.062759   -0.950730   -0.226589
     22          8           0       -1.812501   -1.138569   -1.050419
     23          5           0        1.787699   -0.942880    0.334101
     24          5           0       -0.322720    0.023421    1.689061
     25          5           0       -0.428981   -1.006819   -0.940029
     26          8           0        0.191219   -2.004419   -1.712789
     27          8           0       -1.580780   -0.529809    1.947471
     28          6           0       -1.877270   -0.348879    3.336671
     29          6           0       -0.462020   -0.269929    3.970061
     30          6           0       -2.093941   -2.079789   -2.094589
     31          6           0       -0.813921   -2.956779   -2.087659
     32          6           0        3.638339   -2.242270    0.019701
     33          6           0        2.869499   -2.705220    1.292261
     34          8           0        1.596079   -2.062790    1.134641
     35          6           0       -0.360990    0.606511    5.203661
     36          1           0        0.672240    0.604860    5.574231
     37          1           0       -0.639870    1.645211    4.989401
     38          1           0       -1.009360    0.231071    6.008771
     39          6           0        0.136049   -1.639519    4.261401
     40          1           0        1.185169   -1.501080    4.552361
     41          1           0       -0.383701   -2.148449    5.084671
     42          1           0        0.118919   -2.276199    3.366651
     43          6           0       -2.650810    0.958211    3.468751
     44          1           0       -2.972550    1.147492    4.501821
     45          1           0       -2.044660    1.809721    3.126581
     46          1           0       -3.546230    0.910842    2.835061
     47          6           0       -2.731481   -1.505889    3.815501
     48          1           0       -2.895681   -1.452108    4.901671
     49          1           0       -3.713521   -1.473638    3.324501
     50          1           0       -2.267921   -2.469099    3.576141
     51          6           0        3.351059   -3.104740   -1.202339
     52          1           0        2.270269   -3.211320   -1.358719
     53          1           0        3.766629   -2.603461   -2.087039
     54          1           0        3.812768   -4.098541   -1.121889
     55          6           0        5.135569   -2.088141    0.200931
     56          1           0        5.377089   -1.342571    0.966341
     57          1           0        5.596799   -3.045751    0.483471
     58          1           0        5.589409   -1.760671   -0.743419
     59          6           0        2.653728   -4.200930    1.402201
     60          1           0        3.614028   -4.733740    1.460881
     61          1           0        2.085088   -4.424240    2.314791
     62          1           0        2.087528   -4.591510    0.549411
     63          6           0        3.489479   -2.176870    2.579511
     64          1           0        2.815299   -2.402720    3.414391
     65          1           0        4.461879   -2.642501    2.789531
     66          1           0        3.617599   -1.087020    2.537051
     67          6           0       -0.836332   -4.028429   -1.004399
     68          1           0       -1.083761   -3.593829   -0.026079
     69          1           0       -1.551062   -4.830949   -1.232429
     70          1           0        0.164518   -4.474209   -0.927209
     71          6           0       -0.445061   -3.568539   -3.423649
     72          1           0       -1.240452   -4.237559   -3.782679
     73          1           0       -0.268021   -2.799519   -4.184639
     74          1           0        0.473948   -4.161290   -3.321669
     75          6           0       -2.270981   -1.290799   -3.386679
     76          1           0       -3.053340   -0.531858   -3.246459
     77          1           0       -1.343111   -0.766779   -3.659029
     78          1           0       -2.563691   -1.937729   -4.225179
     79          6           0       -3.373591   -2.820658   -1.764179
     80          1           0       -3.558491   -3.629398   -2.486119
     81          1           0       -3.340541   -3.247228   -0.754919
     82          1           0       -4.218231   -2.120408   -1.812229
     83          6           0       -4.094230    1.194552   -1.339699
     84          8           0       -4.302940    1.639682   -2.463659
     85          7           0       -4.930670    0.262942   -0.772339
     86          6           0       -1.851130    2.273201   -1.398409
     87          6           0       -2.946800    1.727432   -0.496959
     88          6           0       -3.488629    2.834272    0.407681
     89          1           0        2.845900    0.370450   -4.869479
     90          1           0        1.320181    4.913780    2.896161
     91          6           0       -4.743470   -0.360468    0.520281
     92          6           0       -6.163130   -0.068647   -1.453199
     93          1           0       -1.453840    1.493181   -2.061439
     94          1           0       -1.026589    2.673201   -0.783189
     95          1           0       -2.227039    3.087421   -2.031459
     96          1           0       -6.216481   -1.148197   -1.663019
     97          1           0       -6.200490    0.484553   -2.394149
     98          1           0       -7.032570    0.199043   -0.833029
     99          1           0       -5.290870    0.171082    1.318841
    100          1           0       -3.684010   -0.440298    0.786191
    101          1           0       -5.141501   -1.384218    0.475671
    102          1           0       -3.924269    3.642402   -0.197919
    103          1           0       -2.675579    3.262741    1.012461
    104          1           0       -4.263910    2.472712    1.097161
    105          1           0       -2.518770    0.929101    0.121901
 ---------------------------------------------------------------------
 Rotational constants (GHZ):           0.0702055           0.0595380           0.0581711
 General basis read from cards:  (5D, 7F)
 ======================================================================================================
                                       Pseudopotential Parameters
 ======================================================================================================
  Center     Atomic      Valence      Angular      Power
  Number     Number     Electrons     Momentum     of R      Exponent        Coefficient   SO-Coeffient
 ======================================================================================================
    1          6
                                   No pseudopotential on this center.
    2          6
                                   No pseudopotential on this center.
    3          6
                                   No pseudopotential on this center.
    4          6
                                   No pseudopotential on this center.
    5          6
                                   No pseudopotential on this center.
    6          6
                                   No pseudopotential on this center.
    7          6
                                   No pseudopotential on this center.
    8          6
                                   No pseudopotential on this center.
    9          6
                                   No pseudopotential on this center.
   10          6
                                   No pseudopotential on this center.
   11          1
                                   No pseudopotential on this center.
   12          1
                                   No pseudopotential on this center.
   13          1
                                   No pseudopotential on this center.
   14          1
                                   No pseudopotential on this center.
   15          1
                                   No pseudopotential on this center.
   16          1
                                   No pseudopotential on this center.
   17          7
                                   No pseudopotential on this center.
   18          7
                                   No pseudopotential on this center.
   19         77           17
                                      G and up 
                                                     1      823.5880147       -0.15780140    0.00000000
                                                     2      364.6613336    -1517.52704460    0.00000000
                                                     2       55.7082801     -316.53065290    0.00000000
                                                     2       12.0464544      -91.88809410    0.00000000
                                                     2        3.5120610       -9.22417730    0.00000000
                                      S - G
                                                     0      188.0490770        3.15780140    0.00000000
                                                     1      340.4194712       26.83225770    0.00000000
                                                     2      128.2373673      800.42500070    0.00000000
                                                     2       33.8644961      369.40506830    0.00000000
                                                     2        4.7560005      242.41718990    0.00000000
                                                     2        3.9649974     -118.21732820    0.00000000
                                      P - G
                                                     0      289.7291139        2.15780140    0.00000000
                                                     1       87.4633789       61.96786100    0.00000000
                                                     2       30.4363766      269.05819860    0.00000000
                                                     2        4.0553412      231.16547930    0.00000000
                                                     2        3.5525341     -133.69526670    0.00000000
                                      D - G
                                                     0      136.4017106        3.15780140    0.00000000
                                                     1       95.0776925       45.93498030    0.00000000
                                                     2       49.2258410      359.03446680    0.00000000
                                                     2       15.0874145      176.47401190    0.00000000
                                                     2        4.0405764       54.51552860    0.00000000
                                      F - G
                                                     0      127.3507908        3.95461970    0.00000000
                                                     1       66.2364374       52.97736550    0.00000000
                                                     2       34.4299229      274.86433830    0.00000000
                                                     2       10.1995721      137.20473380    0.00000000
                                                     2        2.5409702       14.86333050    0.00000000
   20          8
                                   No pseudopotential on this center.
   21          8
                                   No pseudopotential on this center.
   22          8
                                   No pseudopotential on this center.
   23          5
                                   No pseudopotential on this center.
   24          5
                                   No pseudopotential on this center.
   25          5
                                   No pseudopotential on this center.
   26          8
                                   No pseudopotential on this center.
   27          8
                                   No pseudopotential on this center.
   28          6
                                   No pseudopotential on this center.
   29          6
                                   No pseudopotential on this center.
   30          6
                                   No pseudopotential on this center.
   31          6
                                   No pseudopotential on this center.
   32          6
                                   No pseudopotential on this center.
   33          6
                                   No pseudopotential on this center.
   34          8
                                   No pseudopotential on this center.
   35          6
                                   No pseudopotential on this center.
   36          1
                                   No pseudopotential on this center.
   37          1
                                   No pseudopotential on this center.
   38          1
                                   No pseudopotential on this center.
   39          6
                                   No pseudopotential on this center.
   40          1
                                   No pseudopotential on this center.
   41          1
                                   No pseudopotential on this center.
   42          1
                                   No pseudopotential on this center.
   43          6
                                   No pseudopotential on this center.
   44          1
                                   No pseudopotential on this center.
   45          1
                                   No pseudopotential on this center.
   46          1
                                   No pseudopotential on this center.
   47          6
                                   No pseudopotential on this center.
   48          1
                                   No pseudopotential on this center.
   49          1
                                   No pseudopotential on this center.
   50          1
                                   No pseudopotential on this center.
   51          6
                                   No pseudopotential on this center.
   52          1
                                   No pseudopotential on this center.
   53          1
                                   No pseudopotential on this center.
   54          1
                                   No pseudopotential on this center.
   55          6
                                   No pseudopotential on this center.
   56          1
                                   No pseudopotential on this center.
   57          1
                                   No pseudopotential on this center.
   58          1
                                   No pseudopotential on this center.
   59          6
                                   No pseudopotential on this center.
   60          1
                                   No pseudopotential on this center.
   61          1
                                   No pseudopotential on this center.
   62          1
                                   No pseudopotential on this center.
   63          6
                                   No pseudopotential on this center.
   64          1
                                   No pseudopotential on this center.
   65          1
                                   No pseudopotential on this center.
   66          1
                                   No pseudopotential on this center.
   67          6
                                   No pseudopotential on this center.
   68          1
                                   No pseudopotential on this center.
   69          1
                                   No pseudopotential on this center.
   70          1
                                   No pseudopotential on this center.
   71          6
                                   No pseudopotential on this center.
   72          1
                                   No pseudopotential on this center.
   73          1
                                   No pseudopotential on this center.
   74          1
                                   No pseudopotential on this center.
   75          6
                                   No pseudopotential on this center.
   76          1
                                   No pseudopotential on this center.
   77          1
                                   No pseudopotential on this center.
   78          1
                                   No pseudopotential on this center.
   79          6
                                   No pseudopotential on this center.
   80          1
                                   No pseudopotential on this center.
   81          1
                                   No pseudopotential on this center.
   82          1
                                   No pseudopotential on this center.
   83          6
                                   No pseudopotential on this center.
   84          8
                                   No pseudopotential on this center.
   85          7
                                   No pseudopotential on this center.
   86          6
                                   No pseudopotential on this center.
   87          6
                                   No pseudopotential on this center.
   88          6
                                   No pseudopotential on this center.
   89          1
                                   No pseudopotential on this center.
   90          1
                                   No pseudopotential on this center.
   91          6
                                   No pseudopotential on this center.
   92          6
                                   No pseudopotential on this center.
   93          1
                                   No pseudopotential on this center.
   94          1
                                   No pseudopotential on this center.
   95          1
                                   No pseudopotential on this center.
   96          1
                                   No pseudopotential on this center.
   97          1
                                   No pseudopotential on this center.
   98          1
                                   No pseudopotential on this center.
   99          1
                                   No pseudopotential on this center.
  100          1
                                   No pseudopotential on this center.
  101          1
                                   No pseudopotential on this center.
  102          1
                                   No pseudopotential on this center.
  103          1
                                   No pseudopotential on this center.
  104          1
                                   No pseudopotential on this center.
  105          1
                                   No pseudopotential on this center.
 ======================================================================================================
 There are   843 symmetry adapted cartesian basis functions of A   symmetry.
 There are   794 symmetry adapted basis functions of A   symmetry.
   794 basis functions,  1587 primitive gaussians,   843 cartesian basis functions
   185 alpha electrons      185 beta electrons
       nuclear repulsion energy      7650.9549181550 Hartrees.
 NAtoms=  105 NActive=  105 NUniq=  105 SFac= 1.00D+00 NAtFMM=   60 NAOKFM=T Big=T
 Integral buffers will be    131072 words long.
 Raffenetti 2 integral format.
 Two-electron integral symmetry is turned on.
 One-electron integrals computed using PRISM.
   1 Symmetry operations used in ECPInt.
 ECPInt:  NShTT=   48205 NPrTT=  290969 LenC2=   38108 LenP2D=  118093.
 LDataN:  DoStor=T MaxTD1= 6 Len=  172
 NBasis=   794 RedAO= T EigKep=  5.45D-04  NBF=   794
 NBsUse=   794 1.00D-06 EigRej= -1.00D+00 NBFU=   794
 Defaulting to unpruned grid for atomic number  77.
 ExpMin= 2.90D-02 ExpMax= 5.48D+03 ExpMxC= 8.25D+02 IAcc=3 IRadAn=         5 AccDes= 0.00D+00
 Harris functional with IExCor= 1009 and IRadAn=       5 diagonalized for initial guess.
 HarFok:  IExCor= 1009 AccDes= 0.00D+00 IRadAn=         5 IDoV= 1 UseB2=F ITyADJ=14
 ICtDFT=  3500011 ScaDFX=  1.000000  1.000000  1.000000  1.000000
 Defaulting to unpruned grid for atomic number  77.
 FoFCou: FMM=F IPFlag=           0 FMFlag=      100000 FMFlg1=        2001
         NFxFlg=           0 DoJE=T BraDBF=F KetDBF=T FulRan=T
         wScrn=  0.000000 ICntrl=       500 IOpCl=  0 I1Cent=   200000004 NGrid=           0
         NMat0=    1 NMatS0=      1 NMatT0=    0 NMatD0=    1 NMtDS0=    0 NMtDT0=    0
 Petite list used in FoFCou.
 Requested convergence on RMS density matrix=1.00D-08 within 128 cycles.
 Requested convergence on MAX density matrix=1.00D-06.
 Requested convergence on             energy=1.00D-06.
 No special actions if energy rises.
 Defaulting to unpruned grid for atomic number  77.
 Defaulting to unpruned grid for atomic number  77.
 Defaulting to unpruned grid for atomic number  77.
 Defaulting to unpruned grid for atomic number  77.
 Defaulting to unpruned grid for atomic number  77.
 Defaulting to unpruned grid for atomic number  77.
 Defaulting to unpruned grid for atomic number  77.
 Defaulting to unpruned grid for atomic number  77.
 Defaulting to unpruned grid for atomic number  77.
 Defaulting to unpruned grid for atomic number  77.
 Defaulting to unpruned grid for atomic number  77.
 Defaulting to unpruned grid for atomic number  77.
 Defaulting to unpruned grid for atomic number  77.
 Defaulting to unpruned grid for atomic number  77.
 Defaulting to unpruned grid for atomic number  77.
 Defaulting to unpruned grid for atomic number  77.
 SCF Done:  E(RM06) =  -2198.98491555     A.U. after   16 cycles
            NFock= 16  Conv=0.35D-08     -V/T= 2.0402
 DoSCS=F DFT=T ScalE2(SS,OS)=  1.000000  1.000000
 Range of M.O.s used for correlation:     1   794
 NBasis=   794 NAE=   185 NBE=   185 NFC=     0 NFV=     0
 NROrb=    794 NOA=   185 NOB=   185 NVA=   609 NVB=   609
   1 Symmetry operations used in ECPInt.
 ECPInt:  NShTT=   48205 NPrTT=  290969 LenC2=   38108 LenP2D=  118093.
 LDataN:  DoStor=T MaxTD1= 7 Len=  274
 Number of processors reduced to   8 by ecpmxn.
 Symmetrizing basis deriv contribution to polar:
 IMax=3 JMax=2 DiffMx= 0.00D+00
 G2DrvN: will do   106 centers at a time, making    1 passes.
 Calling FoFCou, ICntrl=  3107 FMM=T I1Cent=   0 AccDes= 0.00D+00.
 Defaulting to unpruned grid for atomic number  77.
 Defaulting to unpruned grid for atomic number  77.
 Defaulting to unpruned grid for atomic number  77.
 Defaulting to unpruned grid for atomic number  77.
 Defaulting to unpruned grid for atomic number  77.
 Defaulting to unpruned grid for atomic number  77.
 Defaulting to unpruned grid for atomic number  77.
 Defaulting to unpruned grid for atomic number  77.
 Defaulting to unpruned grid for atomic number  77.
 Defaulting to unpruned grid for atomic number  77.
 Defaulting to unpruned grid for atomic number  77.
 Defaulting to unpruned grid for atomic number  77.
 Defaulting to unpruned grid for atomic number  77.
 Defaulting to unpruned grid for atomic number  77.
 Defaulting to unpruned grid for atomic number  77.
 Defaulting to unpruned grid for atomic number  77.
 End of G2Drv F.D. properties file   721 does not exist.
 End of G2Drv F.D. properties file   722 does not exist.
 End of G2Drv F.D. properties file   788 does not exist.
          IDoAtm=11111111111111111111111111111111111111111111111111
          IDoAtm=11111111111111111111111111111111111111111111111111
          IDoAtm=11111
          Differentiating once with respect to electric field.
                with respect to dipole field.
          Differentiating once with respect to nuclear coordinates.
 Defaulting to unpruned grid for atomic number  77.
 CalDSu exits because no D1Ps are significant.
 Defaulting to unpruned grid for atomic number  77.
 Defaulting to unpruned grid for atomic number  77.
 Defaulting to unpruned grid for atomic number  77.
 Defaulting to unpruned grid for atomic number  77.
 Defaulting to unpruned grid for atomic number  77.
 Defaulting to unpruned grid for atomic number  77.
 Defaulting to unpruned grid for atomic number  77.
 Defaulting to unpruned grid for atomic number  77.
 Defaulting to unpruned grid for atomic number  77.
 Defaulting to unpruned grid for atomic number  77.
 Defaulting to unpruned grid for atomic number  77.
 Defaulting to unpruned grid for atomic number  77.
 Defaulting to unpruned grid for atomic number  77.
 Defaulting to unpruned grid for atomic number  77.
 Defaulting to unpruned grid for atomic number  77.
 Defaulting to unpruned grid for atomic number  77.
          There are   318 degrees of freedom in the 1st order CPHF.  IDoFFX=6 NUNeed=     3.
    315 vectors produced by pass  0 Test12= 1.13D-13 1.00D-09 XBig12= 4.43D+02 8.75D+00.
 AX will form    72 AO Fock derivatives at one time.
    315 vectors produced by pass  1 Test12= 1.13D-13 1.00D-09 XBig12= 6.77D+01 1.16D+00.
    315 vectors produced by pass  2 Test12= 1.13D-13 1.00D-09 XBig12= 1.04D+00 9.74D-02.
    315 vectors produced by pass  3 Test12= 1.13D-13 1.00D-09 XBig12= 6.86D-03 1.07D-02.
    315 vectors produced by pass  4 Test12= 1.13D-13 1.00D-09 XBig12= 2.07D-05 4.46D-04.
    276 vectors produced by pass  5 Test12= 1.13D-13 1.00D-09 XBig12= 3.90D-08 1.42D-05.
     70 vectors produced by pass  6 Test12= 1.13D-13 1.00D-09 XBig12= 5.70D-11 5.75D-07.
      3 vectors produced by pass  7 Test12= 1.13D-13 1.00D-09 XBig12= 7.82D-14 2.09D-08.
 InvSVY:  IOpt=1 It=  1 EMax= 3.20D-14
 Solved reduced A of dimension  1924 with   318 vectors.
 Isotropic polarizability for W=    0.000000      477.08 Bohr**3.
 End of Minotr F.D. properties file   721 does not exist.
 End of Minotr F.D. properties file   722 does not exist.
 End of Minotr F.D. properties file   788 does not exist.
 Hyperfine terms turned off by default for NAtoms > 100.

 **********************************************************************

            Population analysis using the SCF Density.

 **********************************************************************

 Orbital symmetries:
       Occupied  (A) (A) (A) (A) (A) (A) (A) (A) (A) (A) (A) (A)
                 (A) (A) (A) (A) (A) (A) (A) (A) (A) (A) (A) (A)
                 (A) (A) (A) (A) (A) (A) (A) (A) (A) (A) (A) (A)
                 (A) (A) (A) (A) (A) (A) (A) (A) (A) (A) (A) (A)
                 (A) (A) (A) (A) (A) (A) (A) (A) (A) (A) (A) (A)
                 (A) (A) (A) (A) (A) (A) (A) (A) (A) (A) (A) (A)
                 (A) (A) (A) (A) (A) (A) (A) (A) (A) (A) (A) (A)
                 (A) (A) (A) (A) (A) (A) (A) (A) (A) (A) (A) (A)
                 (A) (A) (A) (A) (A) (A) (A) (A) (A) (A) (A) (A)
                 (A) (A) (A) (A) (A) (A) (A) (A) (A) (A) (A) (A)
                 (A) (A) (A) (A) (A) (A) (A) (A) (A) (A) (A) (A)
                 (A) (A) (A) (A) (A) (A) (A) (A) (A) (A) (A) (A)
                 (A) (A) (A) (A) (A) (A) (A) (A) (A) (A) (A) (A)
                 (A) (A) (A) (A) (A) (A) (A) (A) (A) (A) (A) (A)
                 (A) (A) (A) (A) (A) (A) (A) (A) (A) (A) (A) (A)
                 (A) (A) (A) (A) (A)
       Virtual   (A) (A) (A) (A) (A) (A) (A) (A) (A) (A) (A) (A)
                 (A) (A) (A) (A) (A) (A) (A) (A) (A) (A) (A) (A)
                 (A) (A) (A) (A) (A) (A) (A) (A) (A) (A) (A) (A)
                 (A) (A) (A) (A) (A) (A) (A) (A) (A) (A) (A) (A)
                 (A) (A) (A) (A) (A) (A) (A) (A) (A) (A) (A) (A)
                 (A) (A) (A) (A) (A) (A) (A) (A) (A) (A) (A) (A)
                 (A) (A) (A) (A) (A) (A) (A) (A) (A) (A) (A) (A)
                 (A) (A) (A) (A) (A) (A) (A) (A) (A) (A) (A) (A)
                 (A) (A) (A) (A) (A) (A) (A) (A) (A) (A) (A) (A)
                 (A) (A) (A) (A) (A) (A) (A) (A) (A) (A) (A) (A)
                 (A) (A) (A) (A) (A) (A) (A) (A) (A) (A) (A) (A)
                 (A) (A) (A) (A) (A) (A) (A) (A) (A) (A) (A) (A)
                 (A) (A) (A) (A) (A) (A) (A) (A) (A) (A) (A) (A)
                 (A) (A) (A) (A) (A) (A) (A) (A) (A) (A) (A) (A)
                 (A) (A) (A) (A) (A) (A) (A) (A) (A) (A) (A) (A)
                 (A) (A) (A) (A) (A) (A) (A) (A) (A) (A) (A) (A)
                 (A) (A) (A) (A) (A) (A) (A) (A) (A) (A) (A) (A)
                 (A) (A) (A) (A) (A) (A) (A) (A) (A) (A) (A) (A)
                 (A) (A) (A) (A) (A) (A) (A) (A) (A) (A) (A) (A)
                 (A) (A) (A) (A) (A) (A) (A) (A) (A) (A) (A) (A)
                 (A) (A) (A) (A) (A) (A) (A) (A) (A) (A) (A) (A)
                 (A) (A) (A) (A) (A) (A) (A) (A) (A) (A) (A) (A)
                 (A) (A) (A) (A) (A) (A) (A) (A) (A) (A) (A) (A)
                 (A) (A) (A) (A) (A) (A) (A) (A) (A) (A) (A) (A)
                 (A) (A) (A) (A) (A) (A) (A) (A) (A) (A) (A) (A)
                 (A) (A) (A) (A) (A) (A) (A) (A) (A) (A) (A) (A)
                 (A) (A) (A) (A) (A) (A) (A) (A) (A) (A) (A) (A)
                 (A) (A) (A) (A) (A) (A) (A) (A) (A) (A) (A) (A)
                 (A) (A) (A) (A) (A) (A) (A) (A) (A) (A) (A) (A)
                 (A) (A) (A) (A) (A) (A) (A) (A) (A) (A) (A) (A)
                 (A) (A) (A) (A) (A) (A) (A) (A) (A) (A) (A) (A)
                 (A) (A) (A) (A) (A) (A) (A) (A) (A) (A) (A) (A)
                 (A) (A) (A) (A) (A) (A) (A) (A) (A) (A) (A) (A)
                 (A) (A) (A) (A) (A) (A) (A) (A) (A) (A) (A) (A)
                 (A) (A) (A) (A) (A) (A) (A) (A) (A) (A) (A) (A)
                 (A) (A) (A) (A) (A) (A) (A) (A) (A) (A) (A) (A)
                 (A) (A) (A) (A) (A) (A) (A) (A) (A) (A) (A) (A)
                 (A) (A) (A) (A) (A) (A) (A) (A) (A) (A) (A) (A)
                 (A) (A) (A) (A) (A) (A) (A) (A) (A) (A) (A) (A)
                 (A) (A) (A) (A) (A) (A) (A) (A) (A) (A) (A) (A)
                 (A) (A) (A) (A) (A) (A) (A) (A) (A) (A) (A) (A)
                 (A) (A) (A) (A) (A) (A) (A) (A) (A) (A) (A) (A)
                 (A) (A) (A) (A) (A) (A) (A) (A) (A) (A) (A) (A)
                 (A) (A) (A) (A) (A) (A) (A) (A) (A) (A) (A) (A)
                 (A) (A) (A) (A) (A) (A) (A) (A) (A) (A) (A) (A)
                 (A) (A) (A) (A) (A) (A) (A) (A) (A) (A) (A) (A)
                 (A) (A) (A) (A) (A) (A) (A) (A) (A) (A) (A) (A)
                 (A) (A) (A) (A) (A) (A) (A) (A) (A) (A) (A) (A)
                 (A) (A) (A) (A) (A) (A) (A) (A) (A) (A) (A) (A)
                 (A) (A) (A) (A) (A) (A) (A) (A) (A) (A) (A) (A)
                 (A) (A) (A) (A) (A) (A) (A) (A) (A)
 The electronic state is 1-A.
 Alpha  occ. eigenvalues --  -19.19629 -19.19483 -19.19422 -19.19419 -19.19413
 Alpha  occ. eigenvalues --  -19.19170 -19.16570 -14.44864 -14.44381 -14.40733
 Alpha  occ. eigenvalues --  -10.32391 -10.32173 -10.31968 -10.30565 -10.30055
 Alpha  occ. eigenvalues --  -10.29347 -10.28820 -10.28810 -10.28682 -10.28676
 Alpha  occ. eigenvalues --  -10.28628 -10.28619 -10.28612 -10.28413 -10.28279
 Alpha  occ. eigenvalues --  -10.28068 -10.27603 -10.25474 -10.25222 -10.22834
 Alpha  occ. eigenvalues --  -10.22682 -10.22513 -10.22504 -10.22449 -10.22428
 Alpha  occ. eigenvalues --  -10.22259 -10.22216 -10.22018 -10.21699 -10.21682
 Alpha  occ. eigenvalues --  -10.21506 -10.21476 -10.21348 -10.21326  -6.79660
 Alpha  occ. eigenvalues --   -6.78207  -6.77969  -3.59972  -2.02820  -2.01812
 Alpha  occ. eigenvalues --   -2.01506  -1.05456  -1.05262  -1.05247  -1.02547
 Alpha  occ. eigenvalues --   -0.99971  -0.98521  -0.98364  -0.98269  -0.97443
 Alpha  occ. eigenvalues --   -0.92345  -0.84482  -0.83560  -0.82868  -0.79943
 Alpha  occ. eigenvalues --   -0.79730  -0.79626  -0.79034  -0.77503  -0.74430
 Alpha  occ. eigenvalues --   -0.74202  -0.74102  -0.70836  -0.70088  -0.69748
 Alpha  occ. eigenvalues --   -0.69660  -0.68989  -0.68415  -0.67974  -0.67505
 Alpha  occ. eigenvalues --   -0.67255  -0.66985  -0.66921  -0.64642  -0.63589
 Alpha  occ. eigenvalues --   -0.61317  -0.60845  -0.60611  -0.59549  -0.57601
 Alpha  occ. eigenvalues --   -0.54056  -0.53924  -0.53746  -0.53404  -0.53298
 Alpha  occ. eigenvalues --   -0.53023  -0.52563  -0.52399  -0.51840  -0.50946
 Alpha  occ. eigenvalues --   -0.49886  -0.49215  -0.47253  -0.46893  -0.46737
 Alpha  occ. eigenvalues --   -0.46519  -0.46389  -0.46289  -0.46182  -0.45971
 Alpha  occ. eigenvalues --   -0.45850  -0.45568  -0.45404  -0.45149  -0.44126
 Alpha  occ. eigenvalues --   -0.44030  -0.43738  -0.43542  -0.43253  -0.43129
 Alpha  occ. eigenvalues --   -0.42912  -0.42799  -0.42465  -0.41470  -0.40559
 Alpha  occ. eigenvalues --   -0.40412  -0.40214  -0.39841  -0.39600  -0.39517
 Alpha  occ. eigenvalues --   -0.39493  -0.39385  -0.39283  -0.39173  -0.39113
 Alpha  occ. eigenvalues --   -0.38932  -0.38653  -0.38616  -0.38283  -0.38111
 Alpha  occ. eigenvalues --   -0.37894  -0.37773  -0.37157  -0.36990  -0.36852
 Alpha  occ. eigenvalues --   -0.36653  -0.36413  -0.36086  -0.35829  -0.35563
 Alpha  occ. eigenvalues --   -0.35520  -0.35319  -0.35217  -0.34992  -0.34690
 Alpha  occ. eigenvalues --   -0.34580  -0.34404  -0.34291  -0.34147  -0.33228
 Alpha  occ. eigenvalues --   -0.32828  -0.32606  -0.32169  -0.32001  -0.31813
 Alpha  occ. eigenvalues --   -0.31712  -0.31140  -0.30820  -0.30597  -0.30381
 Alpha  occ. eigenvalues --   -0.29733  -0.29495  -0.29320  -0.28768  -0.26890
 Alpha  occ. eigenvalues --   -0.26085  -0.25829  -0.25255  -0.24954  -0.23985
 Alpha  occ. eigenvalues --   -0.23574  -0.23084  -0.21200  -0.20382  -0.19585
 Alpha virt. eigenvalues --   -0.07392  -0.04134  -0.03061   0.01353   0.01733
 Alpha virt. eigenvalues --    0.03260   0.04652   0.06044   0.06561   0.06867
 Alpha virt. eigenvalues --    0.07459   0.08043   0.09640   0.09704   0.10030
 Alpha virt. eigenvalues --    0.10287   0.10716   0.11549   0.11825   0.11946
 Alpha virt. eigenvalues --    0.12411   0.12549   0.13026   0.13506   0.13667
 Alpha virt. eigenvalues --    0.14064   0.14555   0.14837   0.14965   0.15034
 Alpha virt. eigenvalues --    0.15411   0.15578   0.15626   0.15733   0.16055
 Alpha virt. eigenvalues --    0.16263   0.16379   0.16522   0.16625   0.16830
 Alpha virt. eigenvalues --    0.17093   0.17225   0.17256   0.17751   0.18221
 Alpha virt. eigenvalues --    0.18369   0.18609   0.18811   0.19008   0.19127
 Alpha virt. eigenvalues --    0.19355   0.19376   0.19698   0.19845   0.19918
 Alpha virt. eigenvalues --    0.20181   0.20434   0.20585   0.20626   0.20810
 Alpha virt. eigenvalues --    0.21032   0.21201   0.21337   0.21440   0.21622
 Alpha virt. eigenvalues --    0.21852   0.22508   0.22651   0.23043   0.23109
 Alpha virt. eigenvalues --    0.23181   0.23696   0.24032   0.24170   0.24405
 Alpha virt. eigenvalues --    0.24911   0.25020   0.25298   0.25842   0.25929
 Alpha virt. eigenvalues --    0.26133   0.26468   0.26978   0.27068   0.27210
 Alpha virt. eigenvalues --    0.27498   0.27772   0.27889   0.28168   0.28275
 Alpha virt. eigenvalues --    0.28502   0.29073   0.29102   0.29592   0.29887
 Alpha virt. eigenvalues --    0.29930   0.30185   0.30456   0.30712   0.31573
 Alpha virt. eigenvalues --    0.31911   0.32493   0.32585   0.33668   0.34506
 Alpha virt. eigenvalues --    0.34867   0.35656   0.36496   0.36764   0.37688
 Alpha virt. eigenvalues --    0.38230   0.38850   0.40343   0.40603   0.41439
 Alpha virt. eigenvalues --    0.43007   0.43783   0.44706   0.46021   0.47375
 Alpha virt. eigenvalues --    0.47782   0.48837   0.48877   0.49612   0.50537
 Alpha virt. eigenvalues --    0.50868   0.50954   0.51043   0.51243   0.51632
 Alpha virt. eigenvalues --    0.51981   0.52069   0.52608   0.52625   0.53091
 Alpha virt. eigenvalues --    0.53785   0.54300   0.55000   0.55314   0.55615
 Alpha virt. eigenvalues --    0.56064   0.56180   0.56432   0.56844   0.57107
 Alpha virt. eigenvalues --    0.57618   0.57851   0.58252   0.58422   0.58564
 Alpha virt. eigenvalues --    0.58769   0.58934   0.58998   0.59283   0.59414
 Alpha virt. eigenvalues --    0.59852   0.60237   0.60394   0.60492   0.60670
 Alpha virt. eigenvalues --    0.61197   0.61412   0.61986   0.62138   0.62395
 Alpha virt. eigenvalues --    0.62940   0.63268   0.63647   0.63983   0.64285
 Alpha virt. eigenvalues --    0.64715   0.65063   0.65588   0.66121   0.66302
 Alpha virt. eigenvalues --    0.66959   0.67267   0.67584   0.67855   0.67945
 Alpha virt. eigenvalues --    0.68725   0.69164   0.69487   0.69594   0.69941
 Alpha virt. eigenvalues --    0.70267   0.70581   0.70952   0.71319   0.71770
 Alpha virt. eigenvalues --    0.71931   0.72472   0.73113   0.73383   0.73693
 Alpha virt. eigenvalues --    0.73818   0.74073   0.74671   0.74935   0.75046
 Alpha virt. eigenvalues --    0.75593   0.76133   0.76654   0.77003   0.77325
 Alpha virt. eigenvalues --    0.77555   0.78043   0.78214   0.78525   0.78969
 Alpha virt. eigenvalues --    0.79545   0.80092   0.80746   0.80856   0.81588
 Alpha virt. eigenvalues --    0.81729   0.82127   0.82670   0.82766   0.83146
 Alpha virt. eigenvalues --    0.83461   0.83899   0.84059   0.84186   0.84481
 Alpha virt. eigenvalues --    0.84638   0.84816   0.85125   0.85434   0.85565
 Alpha virt. eigenvalues --    0.85816   0.86041   0.86500   0.86788   0.86898
 Alpha virt. eigenvalues --    0.87181   0.87302   0.87786   0.88038   0.88242
 Alpha virt. eigenvalues --    0.88736   0.88829   0.89096   0.89439   0.89491
 Alpha virt. eigenvalues --    0.89832   0.90060   0.90116   0.90653   0.90725
 Alpha virt. eigenvalues --    0.90856   0.91030   0.91126   0.91475   0.91759
 Alpha virt. eigenvalues --    0.92052   0.92071   0.92429   0.92612   0.93374
 Alpha virt. eigenvalues --    0.93398   0.93922   0.94047   0.94365   0.94816
 Alpha virt. eigenvalues --    0.95103   0.95591   0.95716   0.95995   0.96433
 Alpha virt. eigenvalues --    0.96630   0.96700   0.97332   0.97752   0.98128
 Alpha virt. eigenvalues --    0.98481   0.98662   0.98831   0.99514   0.99791
 Alpha virt. eigenvalues --    0.99949   1.00356   1.01071   1.01143   1.02069
 Alpha virt. eigenvalues --    1.02717   1.02887   1.03227   1.03440   1.04133
 Alpha virt. eigenvalues --    1.04469   1.04988   1.05644   1.06109   1.06798
 Alpha virt. eigenvalues --    1.07282   1.07834   1.09098   1.09192   1.09941
 Alpha virt. eigenvalues --    1.10715   1.11197   1.11456   1.11917   1.12809
 Alpha virt. eigenvalues --    1.13455   1.13986   1.14412   1.15052   1.15697
 Alpha virt. eigenvalues --    1.16236   1.17258   1.18005   1.18322   1.18763
 Alpha virt. eigenvalues --    1.19668   1.20138   1.20328   1.20835   1.21217
 Alpha virt. eigenvalues --    1.22035   1.23558   1.23916   1.24348   1.24904
 Alpha virt. eigenvalues --    1.25575   1.25852   1.26781   1.27396   1.27883
 Alpha virt. eigenvalues --    1.28443   1.29022   1.30271   1.30968   1.31340
 Alpha virt. eigenvalues --    1.32959   1.33861   1.34820   1.35364   1.35587
 Alpha virt. eigenvalues --    1.36573   1.37202   1.37924   1.38189   1.38693
 Alpha virt. eigenvalues --    1.39758   1.40066   1.41408   1.41884   1.42253
 Alpha virt. eigenvalues --    1.42809   1.43444   1.43787   1.44235   1.44883
 Alpha virt. eigenvalues --    1.45316   1.45493   1.45780   1.46084   1.46693
 Alpha virt. eigenvalues --    1.47017   1.47604   1.48091   1.48441   1.49014
 Alpha virt. eigenvalues --    1.49464   1.50501   1.51214   1.52617   1.53451
 Alpha virt. eigenvalues --    1.54618   1.54914   1.55930   1.56311   1.57945
 Alpha virt. eigenvalues --    1.58311   1.59795   1.60022   1.61331   1.62327
 Alpha virt. eigenvalues --    1.62975   1.63708   1.64363   1.64474   1.66520
 Alpha virt. eigenvalues --    1.66750   1.67260   1.67540   1.68073   1.68525
 Alpha virt. eigenvalues --    1.68817   1.69420   1.70062   1.71017   1.71484
 Alpha virt. eigenvalues --    1.72457   1.73153   1.73586   1.75059   1.76352
 Alpha virt. eigenvalues --    1.77287   1.77496   1.77892   1.77950   1.78428
 Alpha virt. eigenvalues --    1.79366   1.79999   1.80459   1.81133   1.81270
 Alpha virt. eigenvalues --    1.81943   1.82399   1.83214   1.83607   1.83907
 Alpha virt. eigenvalues --    1.84842   1.85170   1.85622   1.85910   1.86794
 Alpha virt. eigenvalues --    1.86942   1.86988   1.88144   1.88272   1.88525
 Alpha virt. eigenvalues --    1.89475   1.90106   1.90741   1.91124   1.91756
 Alpha virt. eigenvalues --    1.91791   1.92097   1.92298   1.92986   1.93188
 Alpha virt. eigenvalues --    1.93361   1.93453   1.93734   1.93817   1.94077
 Alpha virt. eigenvalues --    1.94424   1.94956   1.95270   1.96213   1.96871
 Alpha virt. eigenvalues --    1.97243   1.97463   1.98311   1.98712   1.98996
 Alpha virt. eigenvalues --    2.00229   2.00817   2.01941   2.02584   2.03037
 Alpha virt. eigenvalues --    2.03168   2.03604   2.04018   2.04350   2.04751
 Alpha virt. eigenvalues --    2.05329   2.06207   2.07154   2.07430   2.07685
 Alpha virt. eigenvalues --    2.07836   2.08112   2.08220   2.08921   2.09171
 Alpha virt. eigenvalues --    2.09934   2.10182   2.10623   2.10990   2.11203
 Alpha virt. eigenvalues --    2.11552   2.11907   2.12236   2.12806   2.12891
 Alpha virt. eigenvalues --    2.13530   2.14455   2.14836   2.15363   2.16116
 Alpha virt. eigenvalues --    2.16309   2.16838   2.17215   2.17304   2.17902
 Alpha virt. eigenvalues --    2.18403   2.18630   2.19178   2.19483   2.19780
 Alpha virt. eigenvalues --    2.20437   2.20711   2.20849   2.21082   2.21405
 Alpha virt. eigenvalues --    2.21705   2.22313   2.22601   2.22830   2.23143
 Alpha virt. eigenvalues --    2.23632   2.24319   2.24455   2.25177   2.25743
 Alpha virt. eigenvalues --    2.26132   2.26306   2.26980   2.27069   2.27293
 Alpha virt. eigenvalues --    2.27859   2.28455   2.28890   2.30299   2.30985
 Alpha virt. eigenvalues --    2.31614   2.31746   2.32414   2.33206   2.33978
 Alpha virt. eigenvalues --    2.34447   2.34689   2.35068   2.35536   2.36207
 Alpha virt. eigenvalues --    2.37209   2.39068   2.39697   2.39844   2.40101
 Alpha virt. eigenvalues --    2.40552   2.41417   2.42504   2.45078   2.45264
 Alpha virt. eigenvalues --    2.45658   2.46875   2.47694   2.48499   2.49393
 Alpha virt. eigenvalues --    2.49464   2.49900   2.50881   2.51196   2.51207
 Alpha virt. eigenvalues --    2.52989   2.55866   2.57122   2.59042   2.59355
 Alpha virt. eigenvalues --    2.60058   2.60304   2.60918   2.61754   2.62956
 Alpha virt. eigenvalues --    2.64559   2.65055   2.65490   2.65766   2.66779
 Alpha virt. eigenvalues --    2.66951   2.68201   2.68981   2.69566   2.71222
 Alpha virt. eigenvalues --    2.75319   2.77572   2.78489   2.78741   2.78912
 Alpha virt. eigenvalues --    2.79456   2.80538   2.80652   2.81361   2.81664
 Alpha virt. eigenvalues --    2.81856   2.82322   2.82946   2.83950   2.84447
 Alpha virt. eigenvalues --    2.85261   2.86264   2.87695   2.91727   2.93298
 Alpha virt. eigenvalues --    2.93722   2.95186   2.96492   2.97501   2.98127
 Alpha virt. eigenvalues --    2.98376   2.98884   3.03782   3.06129   3.06537
 Alpha virt. eigenvalues --    3.07349   3.12353   3.13439   3.14683   3.21144
 Alpha virt. eigenvalues --    3.24059   3.29829   3.43824  12.02809
          Condensed to atoms (all electrons):
 Mulliken charges:
               1
     1  C    0.291178
     2  C    0.050741
     3  C   -0.169717
     4  C   -0.138481
     5  C   -0.184271
     6  C    0.300462
     7  C    0.066516
     8  C   -0.173595
     9  C   -0.139161
    10  C   -0.183613
    11  H    0.212856
    12  H    0.184399
    13  H    0.173329
    14  H    0.208063
    15  H    0.181775
    16  H    0.169314
    17  N   -0.501325
    18  N   -0.484347
    19  Ir  -0.048540
    20  O   -0.538712
    21  O   -0.518950
    22  O   -0.523072
    23  B    0.536467
    24  B    0.447275
    25  B    0.443892
    26  O   -0.540005
    27  O   -0.510169
    28  C    0.304139
    29  C    0.298666
    30  C    0.302567
    31  C    0.298027
    32  C    0.296440
    33  C    0.294370
    34  O   -0.529090
    35  C   -0.511191
    36  H    0.169513
    37  H    0.155791
    38  H    0.150508
    39  C   -0.503153
    40  H    0.159268
    41  H    0.143503
    42  H    0.187553
    43  C   -0.486300
    44  H    0.150853
    45  H    0.152967
    46  H    0.148886
    47  C   -0.509953
    48  H    0.147643
    49  H    0.160782
    50  H    0.176996
    51  C   -0.508322
    52  H    0.184382
    53  H    0.157609
    54  H    0.142129
    55  C   -0.510069
    56  H    0.170857
    57  H    0.147201
    58  H    0.165321
    59  C   -0.505484
    60  H    0.147719
    61  H    0.165357
    62  H    0.167940
    63  C   -0.502053
    64  H    0.158389
    65  H    0.146231
    66  H    0.181542
    67  C   -0.502455
    68  H    0.189420
    69  H    0.147128
    70  H    0.155083
    71  C   -0.510514
    72  H    0.152523
    73  H    0.162106
    74  H    0.164224
    75  C   -0.507962
    76  H    0.189479
    77  H    0.151463
    78  H    0.145941
    79  C   -0.503625
    80  H    0.147088
    81  H    0.168599
    82  H    0.158174
    83  C    0.595347
    84  O   -0.531550
    85  N   -0.389691
    86  C   -0.478259
    87  C   -0.189513
    88  C   -0.495236
    89  H    0.183775
    90  H    0.184778
    91  C   -0.376081
    92  C   -0.377392
    93  H    0.182170
    94  H    0.156104
    95  H    0.177930
    96  H    0.155390
    97  H    0.217847
    98  H    0.163282
    99  H    0.149773
   100  H    0.233135
   101  H    0.160969
   102  H    0.169954
   103  H    0.161531
   104  H    0.155758
   105  H    0.203468
 Sum of Mulliken charges =  -0.00000
 Mulliken charges with hydrogens summed into heavy atoms:
               1
     1  C    0.291178
     2  C    0.263597
     3  C    0.015061
     4  C    0.045918
     5  C   -0.010943
     6  C    0.300462
     7  C    0.274579
     8  C    0.010180
     9  C    0.042614
    10  C   -0.014299
    17  N   -0.501325
    18  N   -0.484347
    19  Ir  -0.048540
    20  O   -0.538712
    21  O   -0.518950
    22  O   -0.523072
    23  B    0.536467
    24  B    0.447275
    25  B    0.443892
    26  O   -0.540005
    27  O   -0.510169
    28  C    0.304139
    29  C    0.298666
    30  C    0.302567
    31  C    0.298027
    32  C    0.296440
    33  C    0.294370
    34  O   -0.529090
    35  C   -0.035379
    39  C   -0.012829
    43  C   -0.033594
    47  C   -0.024532
    51  C   -0.024202
    55  C   -0.026689
    59  C   -0.024469
    63  C   -0.015891
    67  C   -0.010823
    71  C   -0.031662
    75  C   -0.021078
    79  C   -0.029764
    83  C    0.595347
    84  O   -0.531550
    85  N   -0.389691
    86  C    0.037944
    87  C    0.013954
    88  C   -0.007993
    91  C    0.167795
    92  C    0.159127
 APT charges:
               1
     1  C    0.201645
     2  C    0.055377
     3  C   -0.053912
     4  C    0.108439
     5  C   -0.177524
     6  C    0.147870
     7  C    0.055640
     8  C   -0.031325
     9  C    0.081426
    10  C   -0.155122
    11  H    0.107958
    12  H    0.030236
    13  H    0.040514
    14  H    0.091320
    15  H    0.028665
    16  H    0.036662
    17  N   -0.181241
    18  N   -0.135143
    19  Ir  -0.581924
    20  O   -0.988443
    21  O   -0.966096
    22  O   -0.999376
    23  B    1.286330
    24  B    1.227494
    25  B    1.236334
    26  O   -1.003437
    27  O   -1.009615
    28  C    0.472212
    29  C    0.498494
    30  C    0.459704
    31  C    0.494463
    32  C    0.496946
    33  C    0.491999
    34  O   -0.977308
    35  C   -0.007033
    36  H   -0.004809
    37  H   -0.005104
    38  H   -0.017008
    39  C   -0.052101
    40  H   -0.003443
    41  H   -0.029329
    42  H    0.034848
    43  C   -0.023298
    44  H   -0.026651
    45  H   -0.001917
    46  H   -0.000462
    47  C   -0.003136
    48  H   -0.022672
    49  H   -0.010477
    50  H    0.008373
    51  C   -0.041804
    52  H    0.034575
    53  H   -0.004170
    54  H   -0.026254
    55  C   -0.011692
    56  H   -0.000006
    57  H   -0.017941
    58  H   -0.004488
    59  C   -0.001170
    60  H   -0.021683
    61  H   -0.004054
    62  H    0.002398
    63  C   -0.034278
    64  H    0.006422
    65  H   -0.026473
    66  H    0.009989
    67  C   -0.021688
    68  H    0.016857
    69  H   -0.028543
    70  H   -0.013257
    71  C   -0.008115
    72  H   -0.015254
    73  H    0.001870
    74  H   -0.007652
    75  C   -0.028851
    76  H    0.025350
    77  H   -0.010121
    78  H   -0.024717
    79  C   -0.005756
    80  H   -0.022273
    81  H    0.005598
    82  H    0.000626
    83  C    0.937781
    84  O   -0.764564
    85  N   -0.753441
    86  C    0.004138
    87  C   -0.031961
    88  C    0.039002
    89  H    0.039496
    90  H    0.039611
    91  C    0.247453
    92  C    0.300404
    93  H    0.017750
    94  H   -0.045747
    95  H   -0.001923
    96  H   -0.036965
    97  H    0.076370
    98  H   -0.050015
    99  H   -0.052288
   100  H    0.085932
   101  H   -0.008485
   102  H   -0.009292
   103  H   -0.020159
   104  H   -0.010757
   105  H    0.049169
 Sum of APT charges =   0.00000
 APT charges with hydrogens summed into heavy atoms:
               1
     1  C    0.201645
     2  C    0.163336
     3  C   -0.014301
     4  C    0.138675
     5  C   -0.137010
     6  C    0.147870
     7  C    0.146960
     8  C    0.008171
     9  C    0.110091
    10  C   -0.118460
    17  N   -0.181241
    18  N   -0.135143
    19  Ir  -0.581924
    20  O   -0.988443
    21  O   -0.966096
    22  O   -0.999376
    23  B    1.286330
    24  B    1.227494
    25  B    1.236334
    26  O   -1.003437
    27  O   -1.009615
    28  C    0.472212
    29  C    0.498494
    30  C    0.459704
    31  C    0.494463
    32  C    0.496946
    33  C    0.491999
    34  O   -0.977308
    35  C   -0.033955
    39  C   -0.050025
    43  C   -0.052329
    47  C   -0.027913
    51  C   -0.037653
    55  C   -0.034128
    59  C   -0.024510
    63  C   -0.044340
    67  C   -0.046630
    71  C   -0.029150
    75  C   -0.038339
    79  C   -0.021804
    83  C    0.937781
    84  O   -0.764564
    85  N   -0.753441
    86  C   -0.025781
    87  C    0.017208
    88  C   -0.001206
    91  C    0.272612
    92  C    0.289794
 Electronic spatial extent (au):  <R**2>=          24978.0796
 Charge=             -0.0000 electrons
 Dipole moment (field-independent basis, Debye):
    X=              4.2844    Y=              3.4727    Z=              0.4265  Tot=              5.5315
 Quadrupole moment (field-independent basis, Debye-Ang):
   XX=           -296.0130   YY=           -270.8719   ZZ=           -288.0052
   XY=             24.3289   XZ=            -23.4960   YZ=              6.2506
 Traceless Quadrupole moment (field-independent basis, Debye-Ang):
   XX=            -11.0497   YY=             14.0915   ZZ=             -3.0418
   XY=             24.3289   XZ=            -23.4960   YZ=              6.2506
 Octapole moment (field-independent basis, Debye-Ang**2):
  XXX=             54.9203  YYY=            187.5106  ZZZ=            -21.2284  XYY=            120.6878
  XXY=             -0.8191  XXZ=              8.0865  XZZ=             93.9576  YZZ=             25.5045
  YYZ=              9.8867  XYZ=            -60.5371
 Hexadecapole moment (field-independent basis, Debye-Ang**3):
 XXXX=         -13288.0252 YYYY=          -9392.3839 ZZZZ=          -9472.0091 XXXY=            238.5035
 XXXZ=           -244.1681 YYYX=            476.9669 YYYZ=            124.4416 ZZZX=           -385.8147
 ZZZY=             -8.8919 XXYY=          -3762.8201 XXZZ=          -3841.2641 YYZZ=          -3230.2551
 XXYZ=            -12.3619 YYXZ=            -43.0864 ZZXY=            240.1508
 N-N= 7.650954918155D+03 E-N=-2.039914568057D+04  KE= 2.114076054587D+03
  Exact polarizability:     452.716      38.844     491.374     -38.397      12.665     487.139
 Approx polarizability:     616.516      63.712     714.318     -67.463      24.232     732.577
   1 Symmetry operations used in ECPInt.
 ECPInt:  NShTT=   48205 NPrTT=  290969 LenC2=   38108 LenP2D=  118093.
 LDataN:  DoStor=T MaxTD1= 8 Len=  415
 Calling FoFJK, ICntrl=    100127 FMM=F ISym2X=0 I1Cent= 0 IOpClX= 0 NMat=1 NMatS=1 NMatT=0.
 Defaulting to unpruned grid for atomic number  77.
 Defaulting to unpruned grid for atomic number  77.
 Defaulting to unpruned grid for atomic number  77.
 Defaulting to unpruned grid for atomic number  77.
 Defaulting to unpruned grid for atomic number  77.
 Defaulting to unpruned grid for atomic number  77.
 Defaulting to unpruned grid for atomic number  77.
 Defaulting to unpruned grid for atomic number  77.
 Defaulting to unpruned grid for atomic number  77.
 Defaulting to unpruned grid for atomic number  77.
 Defaulting to unpruned grid for atomic number  77.
 Defaulting to unpruned grid for atomic number  77.
 Defaulting to unpruned grid for atomic number  77.
 Defaulting to unpruned grid for atomic number  77.
 Defaulting to unpruned grid for atomic number  77.
 Defaulting to unpruned grid for atomic number  77.
 Full mass-weighted force constant matrix:
 Low frequencies ---  -10.9099   -3.7591   -0.0004   -0.0001    0.0006    7.6562
 Low frequencies ---   17.3128   21.1451   25.3036
 Diagonal vibrational polarizability:
      164.7356035     115.3441217      87.5073604
 Harmonic frequencies (cm**-1), IR intensities (KM/Mole), Raman scattering
 activities (A**4/AMU), depolarization ratios for plane and unpolarized
 incident light, reduced masses (AMU), force constants (mDyne/A),
 and normal coordinates:
                      1                      2                      3
                      A                      A                      A
 Frequencies --     17.2113                21.0381                25.2338
 Red. masses --      4.9718                 5.0033                 3.9540
 Frc consts  --      0.0009                 0.0013                 0.0015
 IR Inten    --      0.3268                 1.0358                 0.1801
  Atom AN      X      Y      Z        X      Y      Z        X      Y      Z
     1   6     0.07  -0.03   0.03     0.05  -0.03  -0.00     0.00  -0.01  -0.02
     2   6     0.09  -0.04   0.04    -0.03   0.03  -0.03     0.05  -0.01  -0.00
     3   6     0.19  -0.08   0.08    -0.01   0.03  -0.05     0.08  -0.02   0.00
     4   6     0.22  -0.09   0.10     0.03  -0.00  -0.04     0.08  -0.03  -0.01
     5   6     0.16  -0.06   0.07     0.07  -0.03  -0.02     0.04  -0.02  -0.02
     6   6     0.01  -0.01   0.01     0.09  -0.06   0.02    -0.03  -0.01  -0.03
     7   6    -0.07   0.02  -0.02     0.04  -0.05   0.02    -0.05  -0.02  -0.01
     8   6    -0.09   0.02  -0.03     0.14  -0.12   0.07    -0.09  -0.01  -0.04
     9   6    -0.07   0.01  -0.03     0.22  -0.15   0.10    -0.11   0.00  -0.07
    10   6    -0.01  -0.01  -0.01     0.19  -0.13   0.07    -0.08   0.00  -0.06
    11   1     0.06  -0.04   0.02    -0.06   0.05  -0.03     0.05  -0.01   0.00
    12   1     0.30  -0.11   0.13     0.04  -0.00  -0.05     0.11  -0.04  -0.00
    13   1     0.19  -0.07   0.09     0.10  -0.06  -0.02     0.04  -0.03  -0.02
    14   1    -0.09   0.03  -0.02    -0.02  -0.02   0.00    -0.03  -0.02   0.01
    15   1    -0.08   0.01  -0.04     0.31  -0.21   0.14    -0.14   0.01  -0.09
    16   1     0.01  -0.02  -0.01     0.26  -0.16   0.10    -0.09   0.01  -0.08
    17   7     0.03  -0.02   0.02     0.00  -0.00  -0.01     0.01  -0.01  -0.01
    18   7    -0.03   0.01  -0.00     0.01  -0.02  -0.00    -0.02  -0.02  -0.01
    19  77    -0.03   0.01  -0.00    -0.03   0.01  -0.01    -0.00  -0.01   0.01
    20   8    -0.02  -0.03  -0.00    -0.01   0.02  -0.01     0.01   0.02   0.01
    21   8     0.01   0.08   0.01     0.01   0.09   0.04     0.01   0.02   0.09
    22   8    -0.02  -0.02   0.02    -0.03  -0.00   0.00     0.01  -0.03   0.00
    23   5     0.01   0.04   0.00    -0.00   0.04   0.00    -0.01  -0.00   0.03
    24   5    -0.03   0.00  -0.01    -0.02   0.01  -0.01     0.00   0.01   0.01
    25   5    -0.02  -0.00   0.01    -0.03   0.01  -0.00     0.01  -0.01   0.00
    26   8    -0.01  -0.01   0.02    -0.02   0.01  -0.01     0.02   0.02  -0.02
    27   8    -0.04   0.02  -0.01    -0.01  -0.01   0.01    -0.00   0.02   0.03
    28   6    -0.03   0.00  -0.01     0.00  -0.01   0.01     0.00   0.05   0.02
    29   6    -0.03  -0.03  -0.01     0.01   0.01  -0.01     0.01   0.05   0.02
    30   6    -0.02  -0.05   0.04    -0.02   0.00  -0.01     0.03   0.01  -0.04
    31   6    -0.00  -0.03   0.05    -0.02   0.01  -0.02     0.04   0.03  -0.08
    32   6     0.03   0.08  -0.01     0.02   0.08  -0.01     0.01   0.02   0.06
    33   6     0.04   0.06  -0.02     0.00   0.02  -0.04    -0.05  -0.04   0.01
    34   8     0.03   0.03  -0.01    -0.00   0.01  -0.04    -0.04  -0.03  -0.02
    35   6    -0.01  -0.06   0.00     0.01   0.02  -0.01     0.02   0.07   0.00
    36   1    -0.01  -0.09   0.00     0.01   0.03  -0.02     0.02   0.06   0.00
    37   1     0.01  -0.05   0.02    -0.01   0.01  -0.01     0.03   0.07  -0.02
    38   1    -0.02  -0.06  -0.00     0.02   0.01  -0.00     0.02   0.09   0.01
    39   6    -0.06  -0.05  -0.04     0.04   0.02  -0.01    -0.01   0.05   0.04
    40   1    -0.05  -0.08  -0.04     0.04   0.04  -0.02    -0.01   0.04   0.04
    41   1    -0.06  -0.06  -0.05     0.05   0.02  -0.00    -0.01   0.06   0.05
    42   1    -0.07  -0.03  -0.05     0.04   0.02  -0.01    -0.01   0.03   0.05
    43   6    -0.01   0.02   0.01    -0.02  -0.03   0.02     0.02   0.06   0.00
    44   1    -0.01   0.00   0.02    -0.01  -0.03   0.02     0.02   0.08   0.00
    45   1     0.01   0.01   0.03    -0.04  -0.02   0.01     0.02   0.05  -0.01
    46   1    -0.01   0.04   0.01    -0.02  -0.04   0.03     0.02   0.05   0.01
    47   6    -0.05   0.01  -0.03     0.03  -0.03   0.02    -0.00   0.06   0.05
    48   1    -0.05  -0.01  -0.03     0.04  -0.03   0.02     0.00   0.08   0.04
    49   1    -0.06   0.04  -0.02     0.02  -0.05   0.03    -0.01   0.06   0.05
    50   1    -0.07   0.01  -0.05     0.04  -0.02   0.01    -0.01   0.06   0.06
    51   6     0.04   0.09  -0.02     0.06   0.14  -0.05     0.07   0.07   0.01
    52   1     0.05   0.08  -0.02     0.06   0.14  -0.08     0.08   0.08  -0.05
    53   1     0.04   0.11  -0.01     0.07   0.19  -0.02     0.12   0.10   0.06
    54   1     0.06   0.10  -0.03     0.07   0.14  -0.09     0.06   0.06  -0.00
    55   6     0.03   0.11  -0.01     0.02   0.10   0.03    -0.00   0.02   0.14
    56   1     0.02   0.10  -0.00    -0.01   0.06   0.07    -0.04  -0.01   0.18
    57   1     0.05   0.11  -0.02     0.03   0.09  -0.01    -0.01   0.01   0.12
    58   1     0.02   0.13  -0.01     0.03   0.14   0.05     0.04   0.06   0.18
    59   6     0.07   0.05  -0.03     0.02   0.01  -0.12    -0.05  -0.05  -0.07
    60   1     0.09   0.07  -0.03     0.03   0.02  -0.11    -0.06  -0.05  -0.04
    61   1     0.08   0.03  -0.03    -0.00  -0.04  -0.14    -0.10  -0.08  -0.11
    62   1     0.08   0.05  -0.03     0.05   0.04  -0.15    -0.01  -0.01  -0.12
    63   6     0.03   0.06  -0.01    -0.03  -0.03  -0.01    -0.11  -0.10   0.06
    64   1     0.03   0.04  -0.01    -0.03  -0.09  -0.03    -0.13  -0.17   0.03
    65   1     0.03   0.07  -0.01    -0.02  -0.02  -0.02    -0.10  -0.09   0.07
    66   1     0.01   0.06  -0.00    -0.06  -0.03   0.05    -0.13  -0.10   0.13
    67   6     0.02  -0.01   0.07    -0.01  -0.00  -0.03     0.05  -0.04  -0.14
    68   1     0.04   0.01   0.07    -0.00  -0.01  -0.02     0.03  -0.10  -0.12
    69   1     0.03  -0.02   0.10    -0.00  -0.00  -0.03     0.07  -0.04  -0.19
    70   1     0.03   0.00   0.07    -0.00   0.00  -0.04     0.06  -0.02  -0.15
    71   6    -0.01  -0.05   0.06    -0.01   0.03  -0.02     0.06   0.10  -0.11
    72   1    -0.00  -0.08   0.08    -0.01   0.02  -0.03     0.08   0.11  -0.15
    73   1    -0.03  -0.07   0.04    -0.02   0.04  -0.02     0.06   0.15  -0.07
    74   1     0.00  -0.04   0.06    -0.01   0.04  -0.03     0.07   0.11  -0.13
    75   6    -0.04  -0.08   0.03    -0.03   0.01   0.00     0.01   0.06  -0.01
    76   1    -0.05  -0.09   0.02    -0.04   0.00   0.01     0.00   0.04   0.02
    77   1    -0.05  -0.08   0.00    -0.04   0.02   0.00     0.01   0.08   0.01
    78   1    -0.05  -0.11   0.05    -0.03   0.01  -0.00     0.03   0.08  -0.03
    79   6    -0.00  -0.06   0.08    -0.02  -0.01  -0.01     0.04  -0.03  -0.07
    80   1    -0.00  -0.08   0.10    -0.01  -0.01  -0.01     0.05   0.00  -0.11
    81   1     0.02  -0.03   0.09    -0.01  -0.02  -0.01     0.04  -0.07  -0.09
    82   1    -0.01  -0.07   0.07    -0.02  -0.02   0.00     0.03  -0.04  -0.04
    83   6     0.00  -0.01  -0.04    -0.04  -0.01   0.04    -0.01  -0.02   0.02
    84   8     0.02  -0.02  -0.05    -0.05  -0.00   0.05    -0.03  -0.01   0.03
    85   7    -0.01   0.01  -0.04    -0.03  -0.03   0.04     0.01  -0.04   0.02
    86   6     0.01  -0.02  -0.05    -0.04  -0.02   0.04    -0.01  -0.01  -0.00
    87   6     0.01  -0.01  -0.04    -0.04  -0.02   0.04    -0.00  -0.01   0.00
    88   6     0.02  -0.01  -0.04    -0.04  -0.02   0.04    -0.01  -0.01   0.00
    89   1    -0.13   0.03  -0.05     0.16  -0.14   0.09    -0.11  -0.01  -0.05
    90   1     0.23  -0.10   0.10    -0.04   0.05  -0.06     0.12  -0.03   0.01
    91   6    -0.05   0.04  -0.02    -0.02  -0.04   0.03     0.04  -0.05   0.01
    92   6    -0.00   0.00  -0.06    -0.03  -0.02   0.04     0.01  -0.05   0.03
    93   1    -0.03  -0.02  -0.07    -0.04  -0.02   0.04    -0.01  -0.01  -0.01
    94   1     0.03  -0.06  -0.05    -0.03  -0.03   0.05    -0.01  -0.00  -0.01
    95   1     0.02   0.00  -0.02    -0.03  -0.02   0.05    -0.02  -0.01  -0.00
    96   1    -0.00  -0.01  -0.03    -0.03  -0.02   0.02     0.02  -0.05   0.02
    97   1     0.02  -0.02  -0.07    -0.05  -0.00   0.05    -0.01  -0.04   0.04
    98   1    -0.01   0.02  -0.08    -0.03  -0.04   0.06     0.01  -0.07   0.05
    99   1    -0.10   0.04  -0.06     0.01  -0.04   0.04     0.06  -0.05   0.03
   100   1    -0.05   0.08   0.02    -0.01  -0.06   0.01     0.05  -0.05  -0.01
   101   1    -0.01   0.03  -0.02    -0.03  -0.04   0.02     0.04  -0.05   0.01
   102   1     0.03  -0.00  -0.03    -0.04  -0.02   0.04    -0.01  -0.01  -0.00
   103   1     0.03  -0.03  -0.04    -0.04  -0.01   0.04    -0.01  -0.00  -0.00
   104   1     0.02  -0.00  -0.03    -0.04  -0.02   0.04    -0.00  -0.01   0.00
   105   1    -0.00  -0.02  -0.05    -0.04  -0.02   0.04     0.01  -0.01   0.01
                      4                      5                      6
                      A                      A                      A
 Frequencies --     29.4868                35.7431                42.0815
 Red. masses --      4.0221                 4.6406                 4.1662
 Frc consts  --      0.0021                 0.0035                 0.0043
 IR Inten    --      0.6964                 1.8885                 0.5197
  Atom AN      X      Y      Z        X      Y      Z        X      Y      Z
     1   6     0.06  -0.01   0.01    -0.01  -0.02  -0.05     0.02   0.02  -0.03
     2   6     0.03   0.00   0.00     0.00   0.02  -0.04     0.04   0.02  -0.02
     3   6     0.10  -0.02   0.03     0.00   0.03  -0.07     0.04   0.02  -0.02
     4   6     0.15  -0.04   0.05    -0.00   0.01  -0.09     0.03   0.02  -0.03
     5   6     0.13  -0.03   0.04    -0.01  -0.01  -0.08     0.02   0.02  -0.03
     6   6     0.03  -0.00   0.01    -0.03  -0.04  -0.04     0.00   0.02  -0.03
     7   6    -0.01   0.01  -0.01    -0.05  -0.05  -0.01     0.02   0.00  -0.01
     8   6    -0.01   0.01  -0.01    -0.07  -0.07  -0.03    -0.02   0.02  -0.03
     9   6     0.01   0.00  -0.00    -0.07  -0.07  -0.06    -0.05   0.03  -0.06
    10   6     0.03  -0.01   0.00    -0.05  -0.05  -0.06    -0.04   0.04  -0.06
    11   1    -0.02   0.02  -0.01     0.00   0.04  -0.03     0.04   0.02  -0.02
    12   1     0.21  -0.06   0.07    -0.00   0.01  -0.11     0.04   0.02  -0.03
    13   1     0.17  -0.04   0.06    -0.02  -0.03  -0.09     0.02   0.02  -0.03
    14   1    -0.02   0.02  -0.01    -0.05  -0.05   0.02     0.04  -0.01   0.01
    15   1     0.01  -0.00  -0.01    -0.09  -0.08  -0.07    -0.09   0.05  -0.08
    16   1     0.05  -0.01   0.01    -0.05  -0.05  -0.09    -0.06   0.05  -0.08
    17   7     0.01   0.01  -0.00     0.00  -0.00  -0.03     0.03   0.02  -0.02
    18   7     0.01   0.01  -0.00    -0.03  -0.04  -0.01     0.03   0.01  -0.01
    19  77    -0.00   0.02  -0.01    -0.01  -0.01   0.02     0.03   0.01  -0.01
    20   8    -0.03   0.07  -0.01    -0.03   0.02   0.03    -0.02   0.01  -0.01
    21   8    -0.04  -0.05  -0.06     0.00   0.02   0.02     0.04   0.02   0.07
    22   8     0.00   0.01  -0.02    -0.01  -0.03   0.03     0.01   0.08  -0.04
    23   5    -0.02   0.00  -0.01     0.00   0.01   0.02     0.02   0.01   0.02
    24   5    -0.01   0.02  -0.01    -0.01  -0.00   0.02     0.01   0.00  -0.02
    25   5    -0.00   0.02  -0.01    -0.01  -0.01   0.03     0.02   0.02  -0.01
    26   8     0.01   0.02  -0.02    -0.00   0.00   0.02    -0.01  -0.02   0.04
    27   8     0.02  -0.04  -0.01     0.02  -0.05   0.01     0.02  -0.03  -0.05
    28   6     0.00  -0.03  -0.01     0.00  -0.08   0.01    -0.00  -0.06  -0.05
    29   6    -0.01   0.05  -0.00    -0.01  -0.02   0.02    -0.02  -0.03  -0.03
    30   6     0.01   0.02  -0.04    -0.00  -0.01   0.02    -0.00   0.05  -0.01
    31   6     0.02   0.02  -0.03     0.01   0.00   0.00    -0.04  -0.00   0.06
    32   6    -0.05  -0.05  -0.01     0.02   0.03   0.02     0.02   0.01   0.06
    33   6    -0.01   0.03   0.04     0.03   0.02   0.02    -0.03  -0.02   0.01
    34   8    -0.01   0.04   0.05     0.02   0.01   0.03    -0.01  -0.00  -0.01
    35   6    -0.06   0.08  -0.02    -0.06  -0.02   0.02    -0.06  -0.04  -0.02
    36   1    -0.06   0.14  -0.01    -0.06   0.03   0.03    -0.07  -0.01  -0.00
    37   1    -0.11   0.06  -0.04    -0.11  -0.03   0.02    -0.09  -0.04  -0.01
    38   1    -0.05   0.06  -0.01    -0.05  -0.05   0.02    -0.06  -0.07  -0.03
    39   6     0.06   0.08   0.03     0.06   0.01   0.02     0.02  -0.01  -0.03
    40   1     0.05   0.14   0.04     0.05   0.06   0.03     0.01   0.02  -0.01
    41   1     0.08   0.08   0.04     0.08  -0.01   0.01     0.02  -0.04  -0.05
    42   1     0.09   0.06   0.05     0.10   0.01   0.02     0.05  -0.00  -0.04
    43   6    -0.07  -0.07  -0.03    -0.07  -0.13   0.02    -0.05  -0.09  -0.04
    44   1    -0.08  -0.07  -0.04    -0.09  -0.16   0.02    -0.06  -0.12  -0.04
    45   1    -0.10  -0.04  -0.04    -0.11  -0.09   0.03    -0.07  -0.06  -0.01
    46   1    -0.06  -0.12  -0.04    -0.06  -0.17   0.01    -0.04  -0.10  -0.05
    47   6     0.06  -0.07   0.00     0.05  -0.13  -0.02     0.03  -0.10  -0.08
    48   1     0.04  -0.06  -0.00     0.02  -0.15  -0.02     0.02  -0.12  -0.08
    49   1     0.06  -0.13  -0.01     0.07  -0.18  -0.05     0.03  -0.12  -0.08
    50   1     0.11  -0.05   0.02     0.11  -0.11  -0.01     0.06  -0.08  -0.09
    51   6    -0.10  -0.11   0.05     0.02   0.03   0.02     0.06   0.05   0.02
    52   1    -0.10  -0.11   0.09     0.02   0.02   0.02     0.06   0.07  -0.02
    53   1    -0.13  -0.16   0.01     0.01   0.03   0.01     0.10   0.06   0.05
    54   1    -0.10  -0.11   0.09     0.02   0.03   0.01     0.04   0.04   0.01
    55   6    -0.04  -0.06  -0.07     0.01   0.04   0.01     0.02  -0.01   0.11
    56   1    -0.00  -0.02  -0.12     0.01   0.04   0.01    -0.01  -0.03   0.14
    57   1    -0.05  -0.05  -0.03     0.02   0.05   0.00    -0.00  -0.02   0.10
    58   1    -0.07  -0.12  -0.10     0.01   0.05   0.01     0.05   0.01   0.14
    59   6    -0.03   0.04   0.13     0.04   0.02   0.02    -0.05  -0.02  -0.04
[...]
 0.00000809,0.00000324,0.00001636,-0.00000554,0.00001028,-0.00000835,0.
 00000614,0.00000812,0.00000296,-0.00001352,0.00000351,-0.00001061,-0.0
 0000906,-0.00002319,0.00035119,0.00111559,0.00016086,-0.00009430,-0.00
 005077,0.00019100,-0.00001788,-0.00014690,0.00014684,0.00104389,-0.003
 78772,-0.00266818,0.01707757,0.01020327,-0.01454676,-0.06323356,-0.077
 88243,0.05596150,0.00000077,0.00000084,0.00000017,0.00000253,0.0000002
 8,0.00000511,-0.00001293,-0.00107222,-0.00051061,-0.00025268,-0.000101
 26,-0.00005330,0.00110812,0.00060572,-0.00103360,0.00005377,-0.0001331
 7,0.00019992,-0.00006401,0.00004639,-0.00026348,0.00004312,0.00002960,
 -0.00000156,0.00001530,0.00000164,0.00003342,0.00006459,0.00002050,-0.
 00002053,-0.00065804,-0.00100319,0.00010456,0.00007994,-0.00014408,-0.
 00007667,0.00003743,0.00003773,0.00009811,-0.01749066,-0.00731533,0.01
 247660,-0.00688125,-0.00466974,0.00794759,0.06900305,0.08386155,-0.000
 00864,-0.00003288,-0.00000707,0.00004331,0.00001365,-0.00003622,-0.000
 02256,-0.00002279,0.00001107,0.00001282,0.00000493,-0.00002783,-0.0000
 0010,0.00001663,0.00002093,-0.00003513,-0.00003804,-0.00000767,-0.0000
 1945,0.00003171,0.00003517,-0.00000345,0.00000835,0.00000333,-0.000001
 93,0.,0.00000591,-0.00000108,-0.00000048,-0.00000452,0.00001350,-0.000
 00960,0.00001083,0.00000128,0.00000247,0.00000034,-0.00000337,-0.00000
 128,-0.00000159,-0.00000221,0.00001080,-0.00000140,0.00000162,0.000001
 56,-0.00000164,-0.00000018,0.00000387,-0.00000186,0.00002320,-0.000011
 09,0.00001856,0.00006595,-0.00002770,0.00001677,-0.00015741,-0.0000626
 6,-0.00009309,-0.00003975,-0.00002897,0.00007911,0.00008187,-0.0000897
 5,0.00000096,-0.00010758,-0.00016653,-0.00000440,-0.00005780,0.0002168
 7,0.00002080,0.00007050,0.00005232,-0.00014267,0.00000210,0.00015006,0
 .00002102,-0.00004163,-0.00008605,-0.00003672,-0.00012048,-0.00007053,
 0.00006668,0.00000545,0.00006828,0.00003621,0.00000139,-0.00000011,-0.
 00001848,0.00006916,0.00010031,0.00002670,0.00003522,0.00002403,0.0000
 0161,-0.00001831,0.00004295,-0.00000961,-0.00003509,0.00001622,-0.0000
 1432,0.00004279,-0.00009961,0.00003563,-0.00000191,0.00000375,0.000003
 60,0.00000304,-0.00000209,-0.00000085,-0.00000205,-0.00000536,-0.00000
 227,-0.00000183,0.00000032,0.00000548,0.00000438,0.00000228,0.00000243
 ,0.00000003,-0.00000440,-0.00000166,-0.00000185,-0.00000399,0.00000795
 ,0.00000392,0.00000260,-0.00000418,-0.00003591,0.00013834,-0.00039956,
 -0.00002560,0.00000180,-0.00003000,-0.00012407,-0.00002335,-0.00005198
 ,-0.00006741,0.00066503,-0.00036146,0.00005006,-0.00002085,0.00000512,
 -0.00000940,-0.00000060,-0.00000155,-0.00001945,-0.00000525,0.00000239
 ,-0.00000588,-0.00001119,0.00000013,0.00000515,-0.00000711,0.00000068,
 -0.00000077,0.00000398,0.00000072,-0.00000249,0.00000225,0.00000089,0.
 00000239,-0.00000683,-0.00000139,0.00000225,-0.00000591,-0.00000065,-0
 .00000141,0.00000142,-0.00000042,0.00000427,-0.00000365,0.00000140,-0.
 00000054,0.00000196,-0.00000062,0.00000553,-0.00000192,0.00000263,0.00
 000235,-0.00000417,0.00000012,-0.00000191,-0.00000045,0.00000307,-0.00
 000002,0.00000093,-0.00000210,0.00000448,-0.00000017,0.00000092,-0.000
 00195,0.00000005,0.00000131,0.00000454,-0.00000170,0.00000200,-0.00000
 335,-0.00000124,-0.00000291,-0.00000099,-0.00000335,-0.00000002,0.0000
 0617,0.00000414,0.00000080,-0.00000375,-0.00001176,-0.00000264,-0.0000
 0301,0.00000081,0.00000245,0.00000103,-0.00000229,-0.00000222,-0.00000
 307,-0.00000553,-0.00000429,-0.00000153,0.00000075,0.00000587,0.000001
 56,-0.00000019,0.00000022,0.00001322,-0.00002115,-0.00001994,0.0000365
 2,0.00001990,0.00000016,-0.00004645,0.00000852,0.00002336,-0.00000652,
 -0.00002472,-0.00000575,0.00002842,-0.00002058,0.00002012,-0.00001738,
 0.00000229,0.00000491,0.00000539,-0.00001690,0.00000916,-0.00001761,0.
 00000178,-0.00003021,0.00247945,0.00178936,-0.00080479,-0.00059394,-0.
 00053855,0.00013980,-0.00103948,0.00007287,0.00015475,0.00065308,-0.00
 426292,-0.00184495,0.01125579,0.00751576,-0.01164814,0.11524934,0.0563
 2129,-0.14872154,0.00000046,-0.00000021,-0.00000308,0.00000355,0.00000
 387,0.00000775,0.00014536,-0.00046986,0.00034716,-0.00023014,-0.000110
 99,-0.00004537,0.00119951,0.00042086,-0.00050308,0.00014971,0.00016654
 ,0.00027156,-0.00025429,-0.00012253,0.00037694,0.00002696,0.00004540,0
 .00003463,0.00006696,0.00001476,-0.00000763,-0.00006868,-0.00007732,-0
 .00001624,-0.00013239,-0.00037802,0.00032508,0.00013608,-0.00003072,-0
 .00000313,-0.00004043,0.00011792,0.00013821,0.01285387,0.00472405,-0.0
 1016643,-0.01271847,-0.00606220,0.01181921,-0.12830424,-0.05993009,0.1
 6029204,0.00005723,-0.00003890,-0.00012639,0.00003813,0.00008785,0.000
 06506,-0.00002935,-0.00008832,0.00002326,0.00004513,0.00005468,-0.0000
 7235,0.00000067,0.00007552,0.00006262,0.00001119,0.00008609,0.00007371
 ,0.00009778,-0.00000909,-0.00011422,-0.00005165,-0.00007888,0.00006332
 ,0.00004847,0.00011335,0.00000576,0.00004660,-0.00002009,-0.00009392,0
 .00000123,-0.00001251,-0.00001601,0.00000428,0.00000619,0.00000062,0.0
 0001140,0.00000592,-0.00000567,0.00000628,0.00000096,0.00000826,0.0000
 0466,0.00000300,-0.00000297,0.00001457,0.00000798,0.00000191,-0.000132
 66,-0.00017152,-0.00006144,-0.00024956,0.00003519,0.00017551,-0.000645
 69,-0.00091561,0.00012866,-0.00013435,-0.00009006,0.00035968,0.0003277
 0,-0.00038673,0.00000100,-0.00279759,0.00250401,0.00090321,0.00003482,
 0.00088530,-0.00023654,-0.00041095,0.00056517,-0.00136918,0.00059203,0
 .00093262,0.00065946,-0.00029278,-0.00015819,-0.00008387,-0.00133816,0
 .00065315,-0.00084721,0.00017629,-0.00010929,-0.00018031,0.00009338,0.
 00011489,-0.00008360,-0.00010865,0.00004512,-0.00011717,0.00007467,0.0
 0009031,0.00008252,-0.00003796,0.00015395,-0.00003122,-0.00007386,0.00
 004312,-0.00004086,0.00006824,-0.00025579,0.00010927,-0.00002531,-0.00
 002671,0.00001233,-0.00000728,0.00000912,-0.00000679,0.00001261,0.0000
 1504,-0.00000190,-0.00000290,-0.00000154,0.00002610,-0.00003748,-0.000
 01785,0.00001459,-0.00001130,0.00000587,-0.00001247,-0.00000150,-0.000
 01609,0.00001905,0.00000356,0.00001742,-0.00001198,0.00025856,-0.00001
 772,0.00014931,-0.00011228,0.00005511,-0.00004904,0.00001140,-0.000021
 35,0.00003168,-0.00018993,-0.00006020,0.00013425,0.00005168,0.00002551
 ,0.00007010,-0.00003052,-0.00002194,0.00000420,-0.00005369,-0.00001851
 ,0.00000299,-0.00000066,0.00001537,-0.00000910,0.00001782,-0.00002802,
 0.00000901,0.00000072,0.00000471,0.00000651,-0.00000144,0.00000630,-0.
 00000047,0.00000378,-0.00001958,-0.00000978,0.00000558,-0.00003187,0.0
 0000168,-0.00000461,0.00000298,-0.00000070,0.00001776,-0.00000820,0.00
 000360,0.00000040,0.00000497,-0.00000340,0.00001152,-0.00000072,0.0000
 0970,0.00000395,-0.00001022,0.00000018,-0.00000494,-0.00000428,0.00000
 774,0.00000041,0.00000014,-0.00000501,0.00001487,-0.00000060,0.0000000
 7,-0.00000336,-0.00000306,0.00000460,0.00000998,-0.00000457,0.00000696
 ,-0.00000808,-0.00000386,-0.00001003,-0.00001878,-0.00001746,0.0000028
 5,0.00001879,0.00000880,0.00000202,-0.00000656,-0.00001737,-0.00000137
 ,-0.00000968,0.00001131,0.00000192,-0.00003991,0.00000085,-0.00000850,
 -0.00000196,-0.00001114,-0.00001208,0.00000477,-0.00000081,0.00000295,
 -0.00000641,0.00001238,0.00001189,-0.00003861,-0.00001314,-0.00002504,
 -0.00005396,0.00003034,-0.00000019,0.00002059,-0.00002219,0.00001123,0
 .00000591,0.00000394,-0.00000919,0.00000442,-0.00001090,-0.00001458,-0
 .00002095,0.00000711,0.00002018,0.00002294,-0.00004148,0.00001098,-0.0
 0003944,0.00001487,-0.00003558,-0.00613496,0.02252603,-0.01182798,-0.0
 0300268,-0.00305519,-0.00394398,0.00032965,-0.00142075,0.00065963,0.00
 842926,-0.01990821,0.01641249,-0.09012062,0.07353806,-0.06162752,-0.00
 454564,0.00870235,-0.00474754,0.00000335,-0.00000435,-0.00001032,0.000
 00231,0.00000635,0.00000890,-0.00205595,-0.00052892,-0.00024085,0.0000
 0168,-0.00022622,-0.00005483,0.00068197,0.00054711,-0.00051798,0.00105
 571,0.00034168,-0.00087566,-0.00361237,-0.00237731,0.00356250,-0.00001
 365,-0.00003475,-0.00003273,0.00024623,0.00007226,0.00004457,0.0000734
 6,0.00002601,0.00005183,0.00026137,-0.00003302,0.00019678,-0.00139175,
 -0.00318378,0.00161854,0.00030907,-0.00008779,0.00023893,0.00013577,0.
 00115668,0.00154904,0.00043135,-0.00058520,0.00026953,0.00000199,-0.00
 028945,-0.00040871,0.10369246,-0.00002692,-0.00001781,-0.00001973,-0.0
 0004358,-0.00005576,0.00000158,-0.00000477,0.00000171,-0.00002378,-0.0
 0000216,-0.00000534,0.00000104,-0.00000783,0.00001064,-0.00000263,-0.0
 0000112,0.00001848,0.00002793,0.00001714,0.00001519,-0.00002199,-0.000
 02208,-0.00003199,0.00001998,0.00001018,0.00003323,0.00000577,0.000013
 70,-0.00001413,-0.00002622,-0.00003184,0.00002308,-0.00002743,0.000004
 37,0.00000293,0.00000016,0.00000192,0.00000082,-0.00000192,0.00001591,
 0.00001056,-0.00000874,0.00000112,-0.00000029,-0.00000083,0.00000275,0
 .00000040,0.00000223,0.00008537,-0.00013476,0.00001666,-0.00007779,0.0
 0003305,0.00008266,-0.00051919,-0.00069647,0.00069651,-0.00013799,-0.0
 0017486,-0.00018905,0.00014219,-0.00022222,0.00002078,0.00185826,-0.00
 346630,-0.00152236,0.00023498,0.00044912,-0.00030619,0.00078544,0.0002
 4438,0.00048466,0.00113375,-0.00005960,-0.00020367,-0.00024548,0.00008
 826,0.00006250,0.00059622,-0.00120093,0.00079464,-0.00033585,0.0001817
 1,0.00031016,0.00003252,-0.00002771,-0.00007602,-0.00008077,-0.0004936
 6,-0.00041420,0.00007342,-0.00002552,0.00002155,-0.00000527,0.00007734
 ,0.00000270,0.00001252,0.00000229,-0.00001081,-0.00005339,-0.00005673,
 0.00002430,-0.00003884,0.00002296,0.00000297,0.00000364,-0.00001688,-0
 .00001131,-0.00000783,-0.00002013,-0.00000696,0.00000138,0.00000247,-0
 .00000526,0.00001327,-0.00000588,0.00000366,-0.00000203,-0.00000333,-0
 .00000265,-0.00000063,0.00000109,-0.00000132,0.00000329,-0.00000516,0.
 00000030,0.00000364,0.00023284,-0.00008787,0.00003708,-0.00015766,0.00
 006378,-0.00018285,-0.00015574,-0.00010943,0.00012485,0.00013835,0.000
 01619,0.00004370,-0.00005639,-0.00003363,0.00000868,0.00001513,-0.0000
 2094,-0.00001240,0.00001186,0.00001461,-0.00000117,-0.00003247,0.00001
 438,0.00001272,-0.00000649,0.00000048,0.00000270,-0.00000346,0.0000021
 8,-0.00000337,0.00000265,0.00000146,-0.00000166,-0.00000671,-0.0000051
 8,0.00000369,-0.00002198,0.00000134,-0.00000262,0.00000012,-0.00000171
 ,0.00000957,-0.00000243,0.00000118,-0.00000119,0.00000224,0.00000052,-
 0.00000171,0.00000353,0.00000944,-0.00000147,-0.00000100,-0.00000120,-
 0.00000057,-0.00000354,0.00000288,0.00000212,-0.00000351,-0.00000358,-
 0.00000089,-0.00000110,0.00000066,-0.00000017,-0.00000058,0.00000254,0
 .00000023,-0.00000073,0.,-0.00000152,-0.00000251,-0.00000353,-0.000008
 93,-0.00000198,-0.00001888,0.00001332,-0.00001658,0.00001988,0.0000014
 7,0.00000394,0.00000356,-0.00001156,0.00001655,0.00000557,-0.00002386,
 0.00000215,-0.00002123,0.00000270,0.00000081,0.00000079,0.00000066,-0.
 00000309,0.00000783,-0.00000899,0.00000840,0.00001028,0.00002978,0.000
 02373,0.00006906,-0.00004744,0.00007579,-0.00000999,-0.00000426,-0.000
 00543,-0.00000069,0.00000138,0.00000270,0.00004813,0.00000295,0.000040
 91,0.00002691,0.00001092,0.00003053,0.00002103,-0.00000865,-0.00003556
 ,0.00000371,-0.00002818,0.00000453,-0.00001566,-0.00137620,0.01256045,
 -0.00506611,-0.00219888,-0.00194450,-0.00460629,0.00103632,-0.00127949
 ,0.00107965,0.00219423,-0.00785690,0.00696990,0.07385232,-0.18547754,0
 .11192131,0.00987039,-0.01845235,0.01134008,0.00000070,-0.00000023,-0.
 00000371,0.00000140,-0.00000441,0.00000081,-0.00278124,-0.00226415,0.0
 0033659,0.00015111,-0.00023746,-0.00017113,0.00007772,0.00059254,-0.00
 045813,0.00010400,0.00006646,-0.00023319,-0.00166040,0.00011817,0.0005
 2209,-0.00005554,-0.00004690,-0.00001662,0.00014402,0.00004537,0.00004
 693,0.00006853,-0.00000674,0.00002104,0.00058016,0.00005886,0.00014338
 ,-0.00420165,-0.00177463,0.00171315,-0.00062118,-0.00009740,-0.0000177
 6,0.00132307,-0.00221532,-0.00303310,-0.00063553,0.00089340,0.00067867
 ,-0.00011831,0.00105671,0.00012763,-0.07911175,0.21168401,-0.00002668,
 0.00001811,0.00006066,-0.00002439,-0.00010795,0.00001211,0.00002616,0.
 00007279,-0.00004702,-0.00003474,-0.00003234,0.00005699,-0.00000004,-0
 .00004326,-0.00004837,0.00000370,-0.00007394,-0.00007203,-0.00000788,0
 .00006530,0.00006935,0.00001409,0.00001094,-0.00002221,-0.00001740,-0.
 00003308,0.00000179,-0.00000663,0.00000614,0.00002468,-0.00004389,-0.0
 0004138,-0.00000066,0.00000376,0.00000075,-0.00000095,-0.00000522,-0.0
 0000302,0.00000058,0.00001890,0.00001285,-0.00001505,-0.00000254,-0.00
 000166,0.00000079,-0.00000288,-0.00000198,-0.00000205,0.00011269,0.000
 06345,0.00010358,0.00015434,0.00010782,-0.00019527,0.00027477,0.000338
 40,-0.00077292,0.00049006,0.00021069,0.00003358,-0.00014295,0.00020994
 ,-0.00003363,-0.00084555,0.00046152,0.00011818,-0.00019923,-0.00052396
 ,0.00019918,-0.00268802,-0.00008627,0.00021981,0.00178121,0.00023331,0
 .00039406,-0.00042249,0.00021060,0.00019395,0.00075077,0.00032885,-0.0
 0051299,0.00020685,0.00012368,-0.00080018,-0.00018066,0.00002975,-0.00
 002757,-0.00061083,-0.00039401,-0.00079349,0.00007120,0.00001119,0.000
 19502,0.00000908,-0.00004632,0.00006829,0.00001688,0.00001014,0.000029
 06,0.00001995,0.00008674,-0.00012086,0.00007775,-0.00001005,-0.0000026
 3,0.00003112,0.00001217,0.00003156,-0.00002050,-0.00001310,-0.00000991
 ,-0.00001049,0.00000009,-0.00000613,0.00006968,0.00001227,-0.00000791,
 0.00003096,-0.00001003,0.00002401,-0.00000761,-0.00000132,0.00000201,-
 0.00003931,0.00001257,0.00000903,-0.00006302,0.00008638,-0.00012731,-0
 .00000451,0.00000159,0.00010408,-0.00012822,-0.00014113,-0.00009011,0.
 00024915,0.00013166,-0.00043992,0.00004783,0.00000077,0.00003677,-0.00
 003027,-0.00002112,0.00003351,-0.00000378,0.00002604,-0.00001295,0.000
 00527,-0.00003008,-0.00000128,0.00000376,0.00002516,-0.00001947,0.0000
 0689,-0.00001384,0.00000744,-0.00000077,-0.00000110,-0.00000339,-0.000
 00543,0.00000882,0.00000437,0.00000018,0.00001104,-0.00001287,-0.00000
 274,-0.00000689,-0.00000023,-0.00000794,0.00000395,-0.00000027,0.00000
 341,0.00000007,-0.00000063,-0.00000248,0.00000208,0.00000774,-0.000000
 81,0.00000065,-0.00000232,0.00000289,0.00000757,-0.00000794,0.00000051
 ,-0.00000779,-0.00000273,-0.00000679,-0.00001172,0.00000618,-0.0000038
 5,0.00001677,-0.00001088,0.00000181,-0.00000171,-0.00000702,-0.0000055
 1,-0.00000319,0.00000919,-0.00002541,0.00000796,0.00001885,0.00001273,
 -0.00001878,0.00002147,0.00000651,0.00001014,0.00000053,-0.00001760,0.
 00002114,-0.00000518,-0.00008643,0.00005008,-0.00005435,0.00001064,0.0
 0000251,0.00000191,0.00000369,-0.00000787,0.00000059,-0.00002730,0.000
 02590,0.00003827,0.00004405,0.00002382,0.00003687,-0.00005313,0.000043
 51,-0.00004056,-0.00000970,-0.00000430,-0.00001919,0.00000260,0.000012
 35,0.00006568,-0.00001208,0.00002326,0.00007965,0.00003398,0.00004536,
 0.00001264,-0.00000130,-0.00000908,-0.00000855,-0.00001378,-0.00000886
 ,-0.00002457,-0.00454024,0.01321266,-0.01202751,-0.00356275,-0.0021766
 9,-0.00223998,0.00030287,-0.00025789,-0.00019193,-0.00559106,0.0134533
 6,-0.01129690,-0.06190769,0.11119990,-0.13045886,0.00945985,-0.0168811
 0,0.01220658,0.00000300,0.00000336,-0.00000242,0.00000258,-0.00001063,
 -0.00000046,0.00137550,0.00142483,-0.00000443,0.00003940,-0.00007750,-
 0.00013983,-0.00055254,-0.00019093,0.00026214,-0.00008559,-0.00029615,
 0.00062551,0.00257203,0.00102327,-0.00150175,-0.00003676,-0.00002129,-
 0.00003589,0.00015103,0.00006452,-0.00003808,0.00005238,-0.00000605,0.
 00011722,-0.00000139,-0.00002778,-0.00001156,0.00193197,0.00146480,0.0
 0074869,0.00041181,-0.00003085,0.00006207,0.00194233,-0.00402154,-0.00
 217743,-0.00060876,0.00076966,0.00078304,-0.00018797,0.00086421,0.0006
 7346,0.06008298,-0.12100970,0.14669782\\0.00002776,0.00001116,0.000000
 42,0.00000130,0.00000525,0.00000559,0.00000121,-0.00000422,-0.00000099
 ,0.00000581,-0.00000855,-0.00000810,-0.00000448,0.00000735,0.00001146,
 -0.00001784,-0.00001587,0.00000710,-0.00000280,-0.00000368,0.00000534,
 0.00000108,0.00000316,-0.00000620,0.00000069,0.00000592,0.00000540,0.0
 0000395,-0.00000479,-0.00000858,0.00000022,-0.00000634,-0.00000205,0.0
 0000232,0.00000005,0.00000053,-0.00000088,0.00000155,-0.00000183,-0.00
 001394,0.00000553,-0.00000998,-0.00000544,-0.00000014,-0.00000083,0.00
 000016,0.00000512,-0.00000019,-0.00000232,-0.00000841,-0.00001280,-0.0
 0000228,0.00000730,-0.00000463,0.00000158,0.00000661,0.00000524,0.0000
 1400,-0.00001290,-0.00000648,0.00000168,0.00000394,-0.00000623,0.00002
 607,-0.00001788,-0.00001504,-0.00000020,-0.00000736,-0.00000660,-0.000
 02548,0.00001192,-0.00001081,-0.00002468,-0.00000536,0.00000962,0.0000
 0905,0.00000715,-0.00000924,0.00000068,-0.00000412,-0.00000039,0.00000
 717,-0.00000076,-0.00000257,-0.00000076,0.00001112,0.00000825,-0.00001
 641,0.00000768,0.00001740,-0.00000832,-0.00000096,-0.00000775,0.000010
 82,-0.00001166,-0.00000130,-0.00000174,-0.00000351,-0.00000385,-0.0000
 0855,0.00000248,-0.00000366,-0.00000273,0.00000275,-0.00000995,0.00000
 691,-0.00000545,0.00000266,0.00000133,-0.00000141,-0.00000328,0.000003
 23,-0.00000166,-0.00000043,-0.00000970,-0.00000218,0.00000412,0.000000
 61,-0.00000414,-0.00000040,0.00000035,-0.00000949,0.00000237,0.0000008
 8,0.00000269,-0.00000063,0.00002662,-0.00001810,0.00000219,0.00000263,
 0.00000140,0.00000510,0.00000003,-0.00000254,0.00000620,-0.00002171,0.
 00001015,0.00002437,-0.00000032,-0.00000181,-0.00000729,0.00000478,0.0
 0000065,0.00000568,0.00000256,0.00000485,0.00000274,0.00000719,-0.0000
 0450,0.00000227,-0.00000274,0.00000232,0.00000148,-0.00000064,-0.00000
 294,-0.00000170,-0.00000007,0.00000120,-0.00000437,-0.00000368,-0.0000
 0027,-0.00000543,-0.00001054,-0.00000264,-0.00000612,-0.00000104,-0.00
 000094,0.00000088,0.00000003,-0.00000308,-0.00000499,-0.00000075,-0.00
 000114,-0.00000636,-0.00000016,0.00000373,-0.00000017,0.00000106,-0.00
 000259,-0.00000474,-0.00000176,-0.00000157,-0.00000346,-0.00000027,-0.
 00000094,-0.00000083,0.00001388,-0.00001128,-0.00000530,0.00000580,-0.
 00000359,-0.00000612,0.00000304,-0.00000266,-0.00000347,-0.00000195,0.
 00000240,-0.00000487,0.00000112,-0.00000509,-0.00000132,-0.00000166,0.
 00000214,0.00000050,-0.00000091,0.00000047,0.,-0.00000270,-0.00000127,
 -0.00000258,-0.00000361,-0.00000671,0.00000327,-0.00000253,0.00000328,
 -0.00000261,-0.00000076,0.00000426,-0.00000289,-0.00000737,0.00000329,
 -0.00000102,-0.00000047,0.00001118,0.00001443,-0.00001020,0.00000013,-
 0.00000515,0.00000102,-0.00000275,-0.00000290,-0.00000414,0.00000253,-
 0.00000143,0.00001143,0.00000955,-0.00001177,-0.00000324,0.00000068,0.
 00000498,-0.00000186,-0.00000397,0.00000672,-0.00001744,0.00001539,0.0
 0001952,-0.00000992,0.00001620,-0.00000416,0.00000137,0.00000794,0.000
 00634,0.00004870,-0.00003881,0.00000190,-0.00000932,0.00001580,0.00001
 963,-0.00000754,0.00001933,0.00001197,0.00001690,-0.00000830,0.0000030
 3,-0.00000302,0.00000047,-0.00000027,0.00000544,-0.00000285,-0.0000005
 6,-0.00002844,0.00004859,0.00002187,-0.00001398,0.00000968,0.00000070,
 0.00001308,-0.00001292,-0.00001161,-0.00000502,0.00000452,0.00000114,-
 0.00000665,0.00000061,0.00000020,0.00000796,-0.00000025,-0.00000695,-0
 .00000355,0.00000129,0.00000971,0.00000037,0.00000032,0.00000850,-0.00
 000493,0.00000604,0.00000076,0.00003616,-0.00001808,-0.00001655,0.0000
 1581,-0.00001020,-0.00000101,-0.00000007,0.00000191,-0.00000141,-0.000
 00105,0.00000038,0.00000159,-0.00000427,0.00000011,0.00000504,-0.00000
 707,-0.00000889,0.00000599\\\@
 The archive entry for this job was punched.


 WE LEARN WISDOM FROM FAILURE MUCH MORE THAN FROM SUCCESS.
 WE DISCOVER WHAT WILL DO BY FINDING OUT WHAT WILL NOT DO...
 AND HE WHO NEVER MADE A MISTAKE NEVER MADE A DISCOVERY
 Job cpu time:       1 days 16 hours 10 minutes 41.2 seconds.
 Elapsed time:       0 days  2 hours 33 minutes 25.5 seconds.
 File lengths (MBytes):  RWF=   7470 Int=      0 D2E=      0 Chk=     45 Scr=      1
 Normal termination of Gaussian 16 at Sun Dec  8 00:44:34 2024.
