/mnt/lustre/scratch/nvme/SLURM/9663526/usccqdma.DCmuavHhSx
OMP_STACKSIZE=0m
GAUSS_PDEF=16
GAUSS_MDEF=65536MB
GAUSS_RDEF=SCF=Direct
 Entering Gaussian System, Link 0=g16.exe
 Initial command:
 /opt/cesga/2020/software/Core/g16/c1/l1.exe "/mnt/lustre/scratch/nvme/SLURM/9663526/usccqdma.DCmuavHhSx/Gau-89814.inp" -scrdir="/mnt/lustre/scratch/nvme/SLURM/9663526/usccqdma.DCmuavHhSx/"
 Default is to use a total of  16 processors:
                               16 via shared-memory
                                1 via Linda
 Entering Link 1 = /opt/cesga/2020/software/Core/g16/c1/l1.exe PID=     89842.
  
 Copyright (c) 1988-2019, Gaussian, Inc.  All Rights Reserved.
  
 This is part of the Gaussian(R) 16 program.  It is based on
 the Gaussian(R) 09 system (copyright 2009, Gaussian, Inc.),
 the Gaussian(R) 03 system (copyright 2003, Gaussian, Inc.),
 the Gaussian(R) 98 system (copyright 1998, Gaussian, Inc.),
 the Gaussian(R) 94 system (copyright 1995, Gaussian, Inc.),
 the Gaussian 92(TM) system (copyright 1992, Gaussian, Inc.),
 the Gaussian 90(TM) system (copyright 1990, Gaussian, Inc.),
 the Gaussian 88(TM) system (copyright 1988, Gaussian, Inc.),
 the Gaussian 86(TM) system (copyright 1986, Carnegie Mellon
 University), and the Gaussian 82(TM) system (copyright 1983,
 Carnegie Mellon University). Gaussian is a federally registered
 trademark of Gaussian, Inc.
  
 This software contains proprietary and confidential information,
 including trade secrets, belonging to Gaussian, Inc.
  
 This software is provided under written license and may be
 used, copied, transmitted, or stored only in accord with that
 written license.
  
 The following legend is applicable only to US Government
 contracts under FAR:
  
                    RESTRICTED RIGHTS LEGEND
  
 Use, reproduction and disclosure by the US Government is
 subject to restrictions as set forth in subparagraphs (a)
 and (c) of the Commercial Computer Software - Restricted
 Rights clause in FAR 52.227-19.
  
 Gaussian, Inc.
 340 Quinnipiac St., Bldg. 40, Wallingford CT 06492
  
  
 ---------------------------------------------------------------
 Warning -- This program may not be used in any manner that
 competes with the business of Gaussian, Inc. or will provide
 assistance to any competitor of Gaussian, Inc.  The licensee
 of this program is prohibited from giving any competitor of
 Gaussian, Inc. access to this program.  By using this program,
 the user acknowledges that Gaussian, Inc. is engaged in the
 business of creating and licensing software in the field of
 computational chemistry and represents and warrants to the
 licensee that it is not a competitor of Gaussian, Inc. and that
 it will not use this program in any manner prohibited above.
 ---------------------------------------------------------------
  

 Cite this work as:
 Gaussian 16, Revision C.01,
 M. J. Frisch, G. W. Trucks, H. B. Schlegel, G. E. Scuseria, 
 M. A. Robb, J. R. Cheeseman, G. Scalmani, V. Barone, 
 G. A. Petersson, H. Nakatsuji, X. Li, M. Caricato, A. V. Marenich, 
 J. Bloino, B. G. Janesko, R. Gomperts, B. Mennucci, H. P. Hratchian, 
 J. V. Ortiz, A. F. Izmaylov, J. L. Sonnenberg, D. Williams-Young, 
 F. Ding, F. Lipparini, F. Egidi, J. Goings, B. Peng, A. Petrone, 
 T. Henderson, D. Ranasinghe, V. G. Zakrzewski, J. Gao, N. Rega, 
 G. Zheng, W. Liang, M. Hada, M. Ehara, K. Toyota, R. Fukuda, 
 J. Hasegawa, M. Ishida, T. Nakajima, Y. Honda, O. Kitao, H. Nakai, 
 T. Vreven, K. Throssell, J. A. Montgomery, Jr., J. E. Peralta, 
 F. Ogliaro, M. J. Bearpark, J. J. Heyd, E. N. Brothers, K. N. Kudin, 
 V. N. Staroverov, T. A. Keith, R. Kobayashi, J. Normand, 
 K. Raghavachari, A. P. Rendell, J. C. Burant, S. S. Iyengar, 
 J. Tomasi, M. Cossi, J. M. Millam, M. Klene, C. Adamo, R. Cammi, 
 J. W. Ochterski, R. L. Martin, K. Morokuma, O. Farkas, 
 J. B. Foresman, and D. J. Fox, Gaussian, Inc., Wallingford CT, 2019.
 
 ******************************************
 Gaussian 16:  ES64L-G16RevC.01  3-Jul-2019
                 7-Dec-2024 
 ******************************************
 Default route: SCF=Direct
 ----------------------------------------------------
 # m06/genecp scf=tight int=ultrafine 5d freq=noraman
 ----------------------------------------------------
 1/10=4,30=1,38=1/1,3;
 2/12=2,17=6,18=5,40=1/2;
 3/5=7,8=1,11=2,16=1,17=8,25=1,30=1,71=2,74=-54,75=-5,140=1/1,2,3;
 4//1;
 5/5=2,32=2,38=5,98=1/2;
 8/6=4,10=90,11=11/1;
 11/6=1,8=1,9=11,15=111,16=1/1,2,10;
 10/6=1/2;
 6/7=2,8=2,9=2,10=2,28=1/1;
 7/8=1,10=1,25=1/1,2,3,16;
 1/10=4,30=1/3;
 99//99;
 ------
 OPT-TS
 ------
 Symbolic Z-matrix:
 Charge =  0 Multiplicity = 1
 C                     1.17167  -2.50221   1.54726 
 C                     3.05623  -1.72847   0.43704 
 C                     3.78316  -2.8581    0.79044 
 C                     3.16517  -3.84386   1.55044 
 C                     1.84508  -3.66439   1.92948 
 C                    -0.23155  -2.22669   1.90061 
 C                    -2.06975  -0.83481   1.62697 
 C                    -2.84096  -1.6077    2.48038 
 C                    -2.27277  -2.73276   3.06173 
 C                    -0.95405  -3.04097   2.76936 
 H                     3.48215  -0.94399  -0.18946 
 H                     3.70747  -4.7434    1.83099 
 H                     1.34     -4.43799   2.50073 
 H                    -2.46645   0.04933   1.13185 
 H                    -2.84597  -3.3636    3.7378 
 H                    -0.48789  -3.91124   3.22278 
 N                     1.7897   -1.55537   0.81041 
 N                    -0.79575  -1.13186   1.3423 
 Ir                    0.4496    0.13364   0.10376 
 O                     1.68891   1.97654   2.30972 
 O                    -0.56421   2.96778  -0.41488 
 O                     2.59146   0.04808  -2.07761 
 B                    -0.85767   1.60943  -0.36018 
 B                     0.56264   1.3592    1.79746 
 B                     1.31139   0.49578  -1.74267 
 O                     0.82596   1.34358  -2.73397 
 O                    -0.55032   1.64592   2.58557 
 C                    -0.08004   2.26549   3.79192 
 C                     1.25991   2.89752   3.32696 
 C                     2.89068   0.50638  -3.40685 
 C                     1.94178   1.73238  -3.54774 
 C                    -1.71076   3.65485  -0.92789 
 C                    -2.87208   2.68928  -0.55488 
 O                    -2.2221    1.40721  -0.5921 
 C                     1.0741    4.24705   2.64617 
 H                     0.31463   4.18275   1.85451 
 H                     0.79324   5.03475   3.35863 
 H                     2.02139   4.5325    2.17206 
 C                     2.32594   2.99113   4.39879 
 H                     2.59217   2.0047    4.79429 
 H                     3.23457   3.44108   3.97922 
 H                     1.98744   3.62454   5.23172 
 C                    -1.11844   3.25216   4.28484 
 H                    -2.036     2.71751   4.56454 
 H                    -0.75609   3.79218   5.1715 
 H                    -1.37795   3.98672   3.51326 
 C                     0.10281   1.14591   4.80993 
 H                     0.37428   1.52537   5.80433 
 H                    -0.84326   0.59428   4.89404 
 H                     0.87665   0.43861   4.48105 
 C                    -1.79493   5.02538  -0.28528 
 H                    -1.80533   4.96088   0.80949 
 H                    -0.922     5.62303  -0.57809 
 H                    -2.69885   5.55963  -0.61247 
 C                    -1.51481   3.79883  -2.43209 
 H                    -2.3319    4.36201  -2.90331 
 H                    -0.57619   4.34029  -2.60976 
 H                    -1.42183   2.81674  -2.91406 
 C                    -3.38197   2.88678   0.86707 
 H                    -4.07945   2.07242   1.10808 
 H                    -2.55392   2.84531   1.58816 
 H                    -3.92081   3.83654   0.98523 
 C                    -4.03629   2.68402  -1.5252 
 H                    -4.78907   1.95367  -1.19854 
 H                    -4.51946   3.67124  -1.5609 
 H                    -3.72222   2.41612  -2.54043 
 C                     2.51862   3.00474  -2.93943 
 H                     3.33769   3.41527  -3.54523 
 H                     1.72202   3.75688  -2.8763 
 H                     2.8875    2.83041  -1.9201 
 C                     1.44896   2.00824  -4.95372 
 H                     0.77953   2.87861  -4.94367 
 H                     2.2877    2.23344  -5.62791 
 H                     0.88969   1.15878  -5.36286 
 C                     2.56144  -0.61675  -4.38136 
 H                     1.48563  -0.83478  -4.40804 
 H                     2.88596  -0.37378  -5.40218 
 H                     3.08401  -1.52703  -4.06058 
 C                     4.36935   0.8299   -3.48615 
 H                     4.95621  -0.09144  -3.37662 
 H                     4.62072   1.27833  -4.45802 
 H                     4.67493   1.51961  -2.69203 
 H                     1.56507   1.25983  -0.21932 
 C                    -2.27723  -2.1644   -1.35698 
 O                    -1.89699  -2.99805  -0.53543 
 C                    -3.75249  -1.99105  -1.67068 
 H                    -4.03142  -0.94545  -1.44931 
 H                    -3.93127  -2.11495  -2.75194 
 C                    -0.01607  -1.32531  -1.64523 
 H                     0.18623  -2.26577  -1.12378 
 H                     0.56962  -1.3743   -2.57302 
 N                    -1.42187  -1.32542  -2.00548 
 C                    -1.86194  -0.44738  -3.0718 
 H                    -1.02284   0.19091  -3.36509 
 H                    -2.19828  -1.01636  -3.95258 
 H                    -2.67112   0.21556  -2.74196 
 C                    -4.63145  -2.94456  -0.88322 
 H                    -4.31823  -3.98055  -1.08255 
 H                    -4.45481  -2.79352   0.19415 
 C                    -6.10782  -2.77175  -1.2001 
 H                    -6.41164  -1.72781  -1.00414 
 H                    -6.27748  -2.93044  -2.27985 
 C                    -7.00411  -3.71248  -0.4089 
 H                    -6.69815  -4.7528   -0.60546 
 H                    -6.83634  -3.55038   0.66856 
 C                    -8.47712  -3.53438  -0.73626 
 H                    -8.66889  -3.72118  -1.80223 
 H                    -9.11361  -4.21708  -0.15953 
 H                    -8.80778  -2.50845  -0.52099 
 C                     5.20085  -2.96894   0.32359 
 F                     5.75894  -4.12337   0.70035 
 F                     5.27721  -2.8942   -1.0092 
 F                     5.94946  -1.97564   0.81325 
 H                    -3.87222  -1.32497   2.67676 
 

 GradGradGradGradGradGradGradGradGradGradGradGradGradGradGradGradGradGrad
 Berny optimization.
 Initialization pass.
 Trust Radius=3.00D-01 FncErr=1.00D-07 GrdErr=1.00D-07 EigMax=2.50D+02 EigMin=1.00D-04
 Number of steps in this run=      2 maximum allowed number of steps=      2.
 GradGradGradGradGradGradGradGradGradGradGradGradGradGradGradGradGradGrad

 Stoichiometry    C37H60B3F3IrN3O7
 Framework group  C1[X(C37H60B3F3IrN3O7)]
 Deg. of freedom   336
 Full point group                 C1      NOp   1
 Largest Abelian subgroup         C1      NOp   1
 Largest concise Abelian subgroup C1      NOp   1
                         Standard orientation:                         
 ---------------------------------------------------------------------
 Center     Atomic      Atomic             Coordinates (Angstroms)
 Number     Number       Type             X           Y           Z
 ---------------------------------------------------------------------
      1          6           0        1.171671   -2.502210    1.547260
      2          6           0        3.056231   -1.728469    0.437040
      3          6           0        3.783161   -2.858099    0.790440
      4          6           0        3.165172   -3.843859    1.550440
      5          6           0        1.845082   -3.664390    1.929480
      6          6           0       -0.231549   -2.226691    1.900610
      7          6           0       -2.069750   -0.834812    1.626970
      8          6           0       -2.840960   -1.607703    2.480380
      9          6           0       -2.272769   -2.732762    3.061730
     10          6           0       -0.954049   -3.040971    2.769360
     11          1           0        3.482150   -0.943989   -0.189460
     12          1           0        3.707472   -4.743399    1.830990
     13          1           0        1.340002   -4.437990    2.500730
     14          1           0       -2.466451    0.049328    1.131850
     15          1           0       -2.845968   -3.363603    3.737800
     16          1           0       -0.487888   -3.911241    3.222780
     17          7           0        1.789700   -1.555370    0.810410
     18          7           0       -0.795750   -1.131861    1.342300
     19         77           0        0.449599    0.133639    0.103760
     20          8           0        1.688908    1.976540    2.309720
     21          8           0       -0.564212    2.967779   -0.414880
     22          8           0        2.591459    0.048081   -2.077610
     23          5           0       -0.857671    1.609429   -0.360180
     24          5           0        0.562639    1.359199    1.797460
     25          5           0        1.311389    0.495780   -1.742670
     26          8           0        0.825959    1.343580   -2.733970
     27          8           0       -0.550321    1.645919    2.585570
     28          6           0       -0.080042    2.265489    3.791920
     29          6           0        1.259908    2.897520    3.326960
     30          6           0        2.890679    0.506381   -3.406850
     31          6           0        1.941778    1.732380   -3.547740
     32          6           0       -1.710763    3.654848   -0.927890
     33          6           0       -2.872082    2.689277   -0.554880
     34          8           0       -2.222101    1.407208   -0.592100
     35          6           0        1.074097    4.247050    2.646170
     36          1           0        0.314627    4.182749    1.854510
     37          1           0        0.793236    5.034750    3.358630
     38          1           0        2.021387    4.532500    2.172060
     39          6           0        2.325938    2.991131    4.398790
     40          1           0        2.592168    2.004701    4.794290
     41          1           0        3.234567    3.441081    3.979220
     42          1           0        1.987437    3.624540    5.231720
     43          6           0       -1.118442    3.252158    4.284840
     44          1           0       -2.036002    2.717508    4.564540
     45          1           0       -0.756093    3.792179    5.171500
     46          1           0       -1.377953    3.986718    3.513260
     47          6           0        0.102809    1.145909    4.809930
     48          1           0        0.374279    1.525369    5.804330
     49          1           0       -0.843261    0.594279    4.894040
     50          1           0        0.876649    0.438610    4.481050
     51          6           0       -1.794934    5.025378   -0.285280
     52          1           0       -1.805333    4.960878    0.809490
     53          1           0       -0.922004    5.623029   -0.578090
     54          1           0       -2.698854    5.559627   -0.612470
     55          6           0       -1.514813    3.798828   -2.432090
     56          1           0       -2.331903    4.362008   -2.903310
     57          1           0       -0.576193    4.340289   -2.609760
     58          1           0       -1.421832    2.816738   -2.914060
     59          6           0       -3.381972    2.886777    0.867070
     60          1           0       -4.079452    2.072417    1.108080
     61          1           0       -2.553922    2.845308    1.588160
     62          1           0       -3.920813    3.836537    0.985230
     63          6           0       -4.036292    2.684017   -1.525200
     64          1           0       -4.789072    1.953666   -1.198540
     65          1           0       -4.519463    3.671236   -1.560900
     66          1           0       -3.722222    2.416117   -2.540430
     67          6           0        2.518618    3.004741   -2.939430
     68          1           0        3.337687    3.415271   -3.545230
     69          1           0        1.722017    3.756880   -2.876300
     70          1           0        2.887498    2.830411   -1.920100
     71          6           0        1.448958    2.008240   -4.953720
     72          1           0        0.779528    2.878610   -4.943670
     73          1           0        2.287698    2.233441   -5.627910
     74          1           0        0.889689    1.158780   -5.362860
     75          6           0        2.561440   -0.616749   -4.381360
     76          1           0        1.485630   -0.834780   -4.408040
     77          1           0        2.885960   -0.373779   -5.402180
     78          1           0        3.084010   -1.527029   -4.060580
     79          6           0        4.369349    0.829902   -3.486150
     80          1           0        4.956210   -0.091438   -3.376620
     81          1           0        4.620719    1.278332   -4.458020
     82          1           0        4.674929    1.519612   -2.692030
     83          1           0        1.565069    1.259830   -0.219320
     84          6           0       -2.277229   -2.164402   -1.356980
     85          8           0       -1.896989   -2.998052   -0.535430
     86          6           0       -3.752489   -1.991053   -1.670680
     87          1           0       -4.031420   -0.945453   -1.449310
     88          1           0       -3.931269   -2.114953   -2.751940
     89          6           0       -0.016070   -1.325311   -1.645230
     90          1           0        0.186231   -2.265771   -1.123780
     91          1           0        0.569620   -1.374301   -2.573020
     92          7           0       -1.421870   -1.325422   -2.005480
     93          6           0       -1.861940   -0.447382   -3.071800
     94          1           0       -1.022841    0.190909   -3.365090
     95          1           0       -2.198280   -1.016362   -3.952580
     96          1           0       -2.671121    0.215558   -2.741960
     97          6           0       -4.631449   -2.944564   -0.883220
     98          1           0       -4.318228   -3.980553   -1.082550
     99          1           0       -4.454809   -2.793524    0.194150
    100          6           0       -6.107819   -2.771755   -1.200100
    101          1           0       -6.411639   -1.727815   -1.004140
    102          1           0       -6.277479   -2.930445   -2.279850
    103          6           0       -7.004108   -3.712485   -0.408900
    104          1           0       -6.698148   -4.752805   -0.605460
    105          1           0       -6.836338   -3.550385    0.668560
    106          6           0       -8.477118   -3.534386   -0.736260
    107          1           0       -8.668888   -3.721186   -1.802230
    108          1           0       -9.113608   -4.217086   -0.159530
    109          1           0       -8.807779   -2.508456   -0.520990
    110          6           0        5.200851   -2.968938    0.323590
    111          9           0        5.758942   -4.123367    0.700350
    112          9           0        5.277211   -2.894198   -1.009200
    113          9           0        5.949461   -1.975637    0.813250
    114          1           0       -3.872220   -1.324973    2.676760
 ---------------------------------------------------------------------
 Rotational constants (GHZ):           0.0547779           0.0422773           0.0395108
 General basis read from cards:  (5D, 7F)
 ======================================================================================================
                                       Pseudopotential Parameters
 ======================================================================================================
  Center     Atomic      Valence      Angular      Power
  Number     Number     Electrons     Momentum     of R      Exponent        Coefficient   SO-Coeffient
 ======================================================================================================
    1          6
                                   No pseudopotential on this center.
    2          6
                                   No pseudopotential on this center.
    3          6
                                   No pseudopotential on this center.
    4          6
                                   No pseudopotential on this center.
    5          6
                                   No pseudopotential on this center.
    6          6
                                   No pseudopotential on this center.
    7          6
                                   No pseudopotential on this center.
    8          6
                                   No pseudopotential on this center.
    9          6
                                   No pseudopotential on this center.
   10          6
                                   No pseudopotential on this center.
   11          1
                                   No pseudopotential on this center.
   12          1
                                   No pseudopotential on this center.
   13          1
                                   No pseudopotential on this center.
   14          1
                                   No pseudopotential on this center.
   15          1
                                   No pseudopotential on this center.
   16          1
                                   No pseudopotential on this center.
   17          7
                                   No pseudopotential on this center.
   18          7
                                   No pseudopotential on this center.
   19         77           17
                                      G and up 
                                                     1      823.5880147       -0.15780140    0.00000000
                                                     2      364.6613336    -1517.52704460    0.00000000
                                                     2       55.7082801     -316.53065290    0.00000000
                                                     2       12.0464544      -91.88809410    0.00000000
                                                     2        3.5120610       -9.22417730    0.00000000
                                      S - G
                                                     0      188.0490770        3.15780140    0.00000000
                                                     1      340.4194712       26.83225770    0.00000000
                                                     2      128.2373673      800.42500070    0.00000000
                                                     2       33.8644961      369.40506830    0.00000000
                                                     2        4.7560005      242.41718990    0.00000000
                                                     2        3.9649974     -118.21732820    0.00000000
                                      P - G
                                                     0      289.7291139        2.15780140    0.00000000
                                                     1       87.4633789       61.96786100    0.00000000
                                                     2       30.4363766      269.05819860    0.00000000
                                                     2        4.0553412      231.16547930    0.00000000
                                                     2        3.5525341     -133.69526670    0.00000000
                                      D - G
                                                     0      136.4017106        3.15780140    0.00000000
                                                     1       95.0776925       45.93498030    0.00000000
                                                     2       49.2258410      359.03446680    0.00000000
                                                     2       15.0874145      176.47401190    0.00000000
                                                     2        4.0405764       54.51552860    0.00000000
                                      F - G
                                                     0      127.3507908        3.95461970    0.00000000
                                                     1       66.2364374       52.97736550    0.00000000
                                                     2       34.4299229      274.86433830    0.00000000
                                                     2       10.1995721      137.20473380    0.00000000
                                                     2        2.5409702       14.86333050    0.00000000
   20          8
                                   No pseudopotential on this center.
   21          8
                                   No pseudopotential on this center.
   22          8
                                   No pseudopotential on this center.
   23          5
                                   No pseudopotential on this center.
   24          5
                                   No pseudopotential on this center.
   25          5
                                   No pseudopotential on this center.
   26          8
                                   No pseudopotential on this center.
   27          8
                                   No pseudopotential on this center.
   28          6
                                   No pseudopotential on this center.
   29          6
                                   No pseudopotential on this center.
   30          6
                                   No pseudopotential on this center.
   31          6
                                   No pseudopotential on this center.
   32          6
                                   No pseudopotential on this center.
   33          6
                                   No pseudopotential on this center.
   34          8
                                   No pseudopotential on this center.
   35          6
                                   No pseudopotential on this center.
   36          1
                                   No pseudopotential on this center.
   37          1
                                   No pseudopotential on this center.
   38          1
                                   No pseudopotential on this center.
   39          6
                                   No pseudopotential on this center.
   40          1
                                   No pseudopotential on this center.
   41          1
                                   No pseudopotential on this center.
   42          1
                                   No pseudopotential on this center.
   43          6
                                   No pseudopotential on this center.
   44          1
                                   No pseudopotential on this center.
   45          1
                                   No pseudopotential on this center.
   46          1
                                   No pseudopotential on this center.
   47          6
                                   No pseudopotential on this center.
   48          1
                                   No pseudopotential on this center.
   49          1
                                   No pseudopotential on this center.
   50          1
                                   No pseudopotential on this center.
   51          6
                                   No pseudopotential on this center.
   52          1
                                   No pseudopotential on this center.
   53          1
                                   No pseudopotential on this center.
   54          1
                                   No pseudopotential on this center.
   55          6
                                   No pseudopotential on this center.
   56          1
                                   No pseudopotential on this center.
   57          1
                                   No pseudopotential on this center.
   58          1
                                   No pseudopotential on this center.
   59          6
                                   No pseudopotential on this center.
   60          1
                                   No pseudopotential on this center.
   61          1
                                   No pseudopotential on this center.
   62          1
                                   No pseudopotential on this center.
   63          6
                                   No pseudopotential on this center.
   64          1
                                   No pseudopotential on this center.
   65          1
                                   No pseudopotential on this center.
   66          1
                                   No pseudopotential on this center.
   67          6
                                   No pseudopotential on this center.
   68          1
                                   No pseudopotential on this center.
   69          1
                                   No pseudopotential on this center.
   70          1
                                   No pseudopotential on this center.
   71          6
                                   No pseudopotential on this center.
   72          1
                                   No pseudopotential on this center.
   73          1
                                   No pseudopotential on this center.
   74          1
                                   No pseudopotential on this center.
   75          6
                                   No pseudopotential on this center.
   76          1
                                   No pseudopotential on this center.
   77          1
                                   No pseudopotential on this center.
   78          1
                                   No pseudopotential on this center.
   79          6
                                   No pseudopotential on this center.
   80          1
                                   No pseudopotential on this center.
   81          1
                                   No pseudopotential on this center.
   82          1
                                   No pseudopotential on this center.
   83          1
                                   No pseudopotential on this center.
   84          6
                                   No pseudopotential on this center.
   85          8
                                   No pseudopotential on this center.
   86          6
                                   No pseudopotential on this center.
   87          1
                                   No pseudopotential on this center.
   88          1
                                   No pseudopotential on this center.
   89          6
                                   No pseudopotential on this center.
   90          1
                                   No pseudopotential on this center.
   91          1
                                   No pseudopotential on this center.
   92          7
                                   No pseudopotential on this center.
   93          6
                                   No pseudopotential on this center.
   94          1
                                   No pseudopotential on this center.
   95          1
                                   No pseudopotential on this center.
   96          1
                                   No pseudopotential on this center.
   97          6
                                   No pseudopotential on this center.
   98          1
                                   No pseudopotential on this center.
   99          1
                                   No pseudopotential on this center.
  100          6
                                   No pseudopotential on this center.
  101          1
                                   No pseudopotential on this center.
  102          1
                                   No pseudopotential on this center.
  103          6
                                   No pseudopotential on this center.
  104          1
                                   No pseudopotential on this center.
  105          1
                                   No pseudopotential on this center.
  106          6
                                   No pseudopotential on this center.
  107          1
                                   No pseudopotential on this center.
  108          1
                                   No pseudopotential on this center.
  109          1
                                   No pseudopotential on this center.
  110          6
                                   No pseudopotential on this center.
  111          9
                                   No pseudopotential on this center.
  112          9
                                   No pseudopotential on this center.
  113          9
                                   No pseudopotential on this center.
  114          1
                                   No pseudopotential on this center.
 ======================================================================================================
 There are   939 symmetry adapted cartesian basis functions of A   symmetry.
 There are   884 symmetry adapted basis functions of A   symmetry.
   884 basis functions,  1767 primitive gaussians,   939 cartesian basis functions
   209 alpha electrons      209 beta electrons
       nuclear repulsion energy      9196.1870422202 Hartrees.
 NAtoms=  114 NActive=  114 NUniq=  114 SFac= 1.00D+00 NAtFMM=   60 NAOKFM=T Big=T
 Integral buffers will be    131072 words long.
 Raffenetti 2 integral format.
 Two-electron integral symmetry is turned on.
 One-electron integrals computed using PRISM.
   1 Symmetry operations used in ECPInt.
 ECPInt:  NShTT=   57970 NPrTT=  353525 LenC2=   42443 LenP2D=  129628.
 LDataN:  DoStor=T MaxTD1= 6 Len=  172
 NBasis=   884 RedAO= T EigKep=  4.70D-04  NBF=   884
 NBsUse=   884 1.00D-06 EigRej= -1.00D+00 NBFU=   884
 Defaulting to unpruned grid for atomic number  77.
 ExpMin= 2.90D-02 ExpMax= 7.00D+03 ExpMxC= 1.05D+03 IAcc=3 IRadAn=         5 AccDes= 0.00D+00
 Harris functional with IExCor= 1009 and IRadAn=       5 diagonalized for initial guess.
 HarFok:  IExCor= 1009 AccDes= 0.00D+00 IRadAn=         5 IDoV= 1 UseB2=F ITyADJ=14
 ICtDFT=  3500011 ScaDFX=  1.000000  1.000000  1.000000  1.000000
 Defaulting to unpruned grid for atomic number  77.
 FoFCou: FMM=F IPFlag=           0 FMFlag=      100000 FMFlg1=        2001
         NFxFlg=           0 DoJE=T BraDBF=F KetDBF=T FulRan=T
         wScrn=  0.000000 ICntrl=       500 IOpCl=  0 I1Cent=   200000004 NGrid=           0
         NMat0=    1 NMatS0=      1 NMatT0=    0 NMatD0=    1 NMtDS0=    0 NMtDT0=    0
 Petite list used in FoFCou.
 Requested convergence on RMS density matrix=1.00D-08 within 128 cycles.
 Requested convergence on MAX density matrix=1.00D-06.
 Requested convergence on             energy=1.00D-06.
 No special actions if energy rises.
 Defaulting to unpruned grid for atomic number  77.
 Defaulting to unpruned grid for atomic number  77.
 Defaulting to unpruned grid for atomic number  77.
 Defaulting to unpruned grid for atomic number  77.
 Defaulting to unpruned grid for atomic number  77.
 Defaulting to unpruned grid for atomic number  77.
 Defaulting to unpruned grid for atomic number  77.
 Defaulting to unpruned grid for atomic number  77.
 Defaulting to unpruned grid for atomic number  77.
 Defaulting to unpruned grid for atomic number  77.
 Defaulting to unpruned grid for atomic number  77.
 Defaulting to unpruned grid for atomic number  77.
 Defaulting to unpruned grid for atomic number  77.
 Defaulting to unpruned grid for atomic number  77.
 Defaulting to unpruned grid for atomic number  77.
 Defaulting to unpruned grid for atomic number  77.
 SCF Done:  E(RM06) =  -2614.45037579     A.U. after   14 cycles
            NFock= 14  Conv=0.78D-08     -V/T= 2.0345
 DoSCS=F DFT=T ScalE2(SS,OS)=  1.000000  1.000000
 Range of M.O.s used for correlation:     1   884
 NBasis=   884 NAE=   209 NBE=   209 NFC=     0 NFV=     0
 NROrb=    884 NOA=   209 NOB=   209 NVA=   675 NVB=   675

 **** Warning!!: The largest alpha MO coefficient is  0.11505476D+02

   1 Symmetry operations used in ECPInt.
 ECPInt:  NShTT=   57970 NPrTT=  353525 LenC2=   42443 LenP2D=  129628.
 LDataN:  DoStor=T MaxTD1= 7 Len=  274
 Number of processors reduced to   7 by ecpmxn.
 Symmetrizing basis deriv contribution to polar:
 IMax=3 JMax=2 DiffMx= 0.00D+00
 G2DrvN: will do   115 centers at a time, making    1 passes.
 Calling FoFCou, ICntrl=  3107 FMM=T I1Cent=   0 AccDes= 0.00D+00.
 Defaulting to unpruned grid for atomic number  77.
 Defaulting to unpruned grid for atomic number  77.
 Defaulting to unpruned grid for atomic number  77.
 Defaulting to unpruned grid for atomic number  77.
 Defaulting to unpruned grid for atomic number  77.
 Defaulting to unpruned grid for atomic number  77.
 Defaulting to unpruned grid for atomic number  77.
 Defaulting to unpruned grid for atomic number  77.
 Defaulting to unpruned grid for atomic number  77.
 Defaulting to unpruned grid for atomic number  77.
 Defaulting to unpruned grid for atomic number  77.
 Defaulting to unpruned grid for atomic number  77.
 Defaulting to unpruned grid for atomic number  77.
 Defaulting to unpruned grid for atomic number  77.
 Defaulting to unpruned grid for atomic number  77.
 Defaulting to unpruned grid for atomic number  77.
 End of G2Drv F.D. properties file   721 does not exist.
 End of G2Drv F.D. properties file   722 does not exist.
 End of G2Drv F.D. properties file   788 does not exist.
          IDoAtm=11111111111111111111111111111111111111111111111111
          IDoAtm=11111111111111111111111111111111111111111111111111
          IDoAtm=11111111111111
          Differentiating once with respect to electric field.
                with respect to dipole field.
          Differentiating once with respect to nuclear coordinates.
 Defaulting to unpruned grid for atomic number  77.
 CalDSu exits because no D1Ps are significant.
 Defaulting to unpruned grid for atomic number  77.
 Defaulting to unpruned grid for atomic number  77.
 Defaulting to unpruned grid for atomic number  77.
 Defaulting to unpruned grid for atomic number  77.
 Defaulting to unpruned grid for atomic number  77.
 Defaulting to unpruned grid for atomic number  77.
 Defaulting to unpruned grid for atomic number  77.
 Defaulting to unpruned grid for atomic number  77.
 Defaulting to unpruned grid for atomic number  77.
 Defaulting to unpruned grid for atomic number  77.
 Defaulting to unpruned grid for atomic number  77.
 Defaulting to unpruned grid for atomic number  77.
 Defaulting to unpruned grid for atomic number  77.
 Defaulting to unpruned grid for atomic number  77.
 Defaulting to unpruned grid for atomic number  77.
 Defaulting to unpruned grid for atomic number  77.
          There are   345 degrees of freedom in the 1st order CPHF.  IDoFFX=6 NUNeed=     3.
    342 vectors produced by pass  0 Test12= 1.41D-13 1.00D-09 XBig12= 4.93D+02 1.08D+01.
 AX will form    72 AO Fock derivatives at one time.
    342 vectors produced by pass  1 Test12= 1.41D-13 1.00D-09 XBig12= 8.19D+01 1.09D+00.
    342 vectors produced by pass  2 Test12= 1.41D-13 1.00D-09 XBig12= 9.33D-01 8.80D-02.
    342 vectors produced by pass  3 Test12= 1.41D-13 1.00D-09 XBig12= 6.97D-03 5.85D-03.
    342 vectors produced by pass  4 Test12= 1.41D-13 1.00D-09 XBig12= 2.75D-05 3.70D-04.
    298 vectors produced by pass  5 Test12= 1.41D-13 1.00D-09 XBig12= 5.80D-08 1.04D-05.
     73 vectors produced by pass  6 Test12= 1.41D-13 1.00D-09 XBig12= 8.49D-11 5.28D-07.
      3 vectors produced by pass  7 Test12= 1.41D-13 1.00D-09 XBig12= 1.09D-13 1.85D-08.
 InvSVY:  IOpt=1 It=  1 EMax= 1.07D-14
 Solved reduced A of dimension  2084 with   345 vectors.
 Isotropic polarizability for W=    0.000000      511.44 Bohr**3.
 End of Minotr F.D. properties file   721 does not exist.
 End of Minotr F.D. properties file   722 does not exist.
 End of Minotr F.D. properties file   788 does not exist.
 Hyperfine terms turned off by default for NAtoms > 100.

 **********************************************************************

            Population analysis using the SCF Density.

 **********************************************************************

 Orbital symmetries:
       Occupied  (A) (A) (A) (A) (A) (A) (A) (A) (A) (A) (A) (A)
                 (A) (A) (A) (A) (A) (A) (A) (A) (A) (A) (A) (A)
                 (A) (A) (A) (A) (A) (A) (A) (A) (A) (A) (A) (A)
                 (A) (A) (A) (A) (A) (A) (A) (A) (A) (A) (A) (A)
                 (A) (A) (A) (A) (A) (A) (A) (A) (A) (A) (A) (A)
                 (A) (A) (A) (A) (A) (A) (A) (A) (A) (A) (A) (A)
                 (A) (A) (A) (A) (A) (A) (A) (A) (A) (A) (A) (A)
                 (A) (A) (A) (A) (A) (A) (A) (A) (A) (A) (A) (A)
                 (A) (A) (A) (A) (A) (A) (A) (A) (A) (A) (A) (A)
                 (A) (A) (A) (A) (A) (A) (A) (A) (A) (A) (A) (A)
                 (A) (A) (A) (A) (A) (A) (A) (A) (A) (A) (A) (A)
                 (A) (A) (A) (A) (A) (A) (A) (A) (A) (A) (A) (A)
                 (A) (A) (A) (A) (A) (A) (A) (A) (A) (A) (A) (A)
                 (A) (A) (A) (A) (A) (A) (A) (A) (A) (A) (A) (A)
                 (A) (A) (A) (A) (A) (A) (A) (A) (A) (A) (A) (A)
                 (A) (A) (A) (A) (A) (A) (A) (A) (A) (A) (A) (A)
                 (A) (A) (A) (A) (A) (A) (A) (A) (A) (A) (A) (A)
                 (A) (A) (A) (A) (A)
       Virtual   (A) (A) (A) (A) (A) (A) (A) (A) (A) (A) (A) (A)
                 (A) (A) (A) (A) (A) (A) (A) (A) (A) (A) (A) (A)
                 (A) (A) (A) (A) (A) (A) (A) (A) (A) (A) (A) (A)
                 (A) (A) (A) (A) (A) (A) (A) (A) (A) (A) (A) (A)
                 (A) (A) (A) (A) (A) (A) (A) (A) (A) (A) (A) (A)
                 (A) (A) (A) (A) (A) (A) (A) (A) (A) (A) (A) (A)
                 (A) (A) (A) (A) (A) (A) (A) (A) (A) (A) (A) (A)
                 (A) (A) (A) (A) (A) (A) (A) (A) (A) (A) (A) (A)
                 (A) (A) (A) (A) (A) (A) (A) (A) (A) (A) (A) (A)
                 (A) (A) (A) (A) (A) (A) (A) (A) (A) (A) (A) (A)
                 (A) (A) (A) (A) (A) (A) (A) (A) (A) (A) (A) (A)
                 (A) (A) (A) (A) (A) (A) (A) (A) (A) (A) (A) (A)
                 (A) (A) (A) (A) (A) (A) (A) (A) (A) (A) (A) (A)
                 (A) (A) (A) (A) (A) (A) (A) (A) (A) (A) (A) (A)
                 (A) (A) (A) (A) (A) (A) (A) (A) (A) (A) (A) (A)
                 (A) (A) (A) (A) (A) (A) (A) (A) (A) (A) (A) (A)
                 (A) (A) (A) (A) (A) (A) (A) (A) (A) (A) (A) (A)
                 (A) (A) (A) (A) (A) (A) (A) (A) (A) (A) (A) (A)
                 (A) (A) (A) (A) (A) (A) (A) (A) (A) (A) (A) (A)
                 (A) (A) (A) (A) (A) (A) (A) (A) (A) (A) (A) (A)
                 (A) (A) (A) (A) (A) (A) (A) (A) (A) (A) (A) (A)
                 (A) (A) (A) (A) (A) (A) (A) (A) (A) (A) (A) (A)
                 (A) (A) (A) (A) (A) (A) (A) (A) (A) (A) (A) (A)
                 (A) (A) (A) (A) (A) (A) (A) (A) (A) (A) (A) (A)
                 (A) (A) (A) (A) (A) (A) (A) (A) (A) (A) (A) (A)
                 (A) (A) (A) (A) (A) (A) (A) (A) (A) (A) (A) (A)
                 (A) (A) (A) (A) (A) (A) (A) (A) (A) (A) (A) (A)
                 (A) (A) (A) (A) (A) (A) (A) (A) (A) (A) (A) (A)
                 (A) (A) (A) (A) (A) (A) (A) (A) (A) (A) (A) (A)
                 (A) (A) (A) (A) (A) (A) (A) (A) (A) (A) (A) (A)
                 (A) (A) (A) (A) (A) (A) (A) (A) (A) (A) (A) (A)
                 (A) (A) (A) (A) (A) (A) (A) (A) (A) (A) (A) (A)
                 (A) (A) (A) (A) (A) (A) (A) (A) (A) (A) (A) (A)
                 (A) (A) (A) (A) (A) (A) (A) (A) (A) (A) (A) (A)
                 (A) (A) (A) (A) (A) (A) (A) (A) (A) (A) (A) (A)
                 (A) (A) (A) (A) (A) (A) (A) (A) (A) (A) (A) (A)
                 (A) (A) (A) (A) (A) (A) (A) (A) (A) (A) (A) (A)
                 (A) (A) (A) (A) (A) (A) (A) (A) (A) (A) (A) (A)
                 (A) (A) (A) (A) (A) (A) (A) (A) (A) (A) (A) (A)
                 (A) (A) (A) (A) (A) (A) (A) (A) (A) (A) (A) (A)
                 (A) (A) (A) (A) (A) (A) (A) (A) (A) (A) (A) (A)
                 (A) (A) (A) (A) (A) (A) (A) (A) (A) (A) (A) (A)
                 (A) (A) (A) (A) (A) (A) (A) (A) (A) (A) (A) (A)
                 (A) (A) (A) (A) (A) (A) (A) (A) (A) (A) (A) (A)
                 (A) (A) (A) (A) (A) (A) (A) (A) (A) (A) (A) (A)
                 (A) (A) (A) (A) (A) (A) (A) (A) (A) (A) (A) (A)
                 (A) (A) (A) (A) (A) (A) (A) (A) (A) (A) (A) (A)
                 (A) (A) (A) (A) (A) (A) (A) (A) (A) (A) (A) (A)
                 (A) (A) (A) (A) (A) (A) (A) (A) (A) (A) (A) (A)
                 (A) (A) (A) (A) (A) (A) (A) (A) (A) (A) (A) (A)
                 (A) (A) (A) (A) (A) (A) (A) (A) (A) (A) (A) (A)
                 (A) (A) (A) (A) (A) (A) (A) (A) (A) (A) (A) (A)
                 (A) (A) (A) (A) (A) (A) (A) (A) (A) (A) (A) (A)
                 (A) (A) (A) (A) (A) (A) (A) (A) (A) (A) (A) (A)
                 (A) (A) (A) (A) (A) (A) (A) (A) (A) (A) (A) (A)
                 (A) (A) (A) (A) (A) (A) (A) (A) (A) (A) (A) (A)
                 (A) (A) (A)
 The electronic state is 1-A.
 Alpha  occ. eigenvalues --  -24.83072 -24.82366 -24.82331 -19.20698 -19.20558
 Alpha  occ. eigenvalues --  -19.20478 -19.20476 -19.20119 -19.19828 -19.16309
 Alpha  occ. eigenvalues --  -14.45313 -14.45046 -14.40273 -10.51160 -10.32612
 Alpha  occ. eigenvalues --  -10.31879 -10.31781 -10.31144 -10.29832 -10.29749
 Alpha  occ. eigenvalues --  -10.29718 -10.29650 -10.29497 -10.29466 -10.29214
 Alpha  occ. eigenvalues --  -10.29180 -10.29169 -10.28780 -10.28377 -10.27853
 Alpha  occ. eigenvalues --  -10.27216 -10.25013 -10.24353 -10.23417 -10.23384
 Alpha  occ. eigenvalues --  -10.23159 -10.23146 -10.23145 -10.23144 -10.22960
 Alpha  occ. eigenvalues --  -10.22864 -10.22849 -10.22791 -10.22764 -10.22711
 Alpha  occ. eigenvalues --  -10.22644 -10.22401 -10.22374 -10.22071 -10.21852
 Alpha  occ. eigenvalues --   -6.82673  -6.79675  -6.79461  -3.64292  -2.07258
 Alpha  occ. eigenvalues --   -2.06134  -2.05050  -1.35523  -1.27048  -1.26458
 Alpha  occ. eigenvalues --   -1.06740  -1.06303  -1.06055  -1.02154  -1.00320
 Alpha  occ. eigenvalues --   -0.99805  -0.99289  -0.99183  -0.97683  -0.91778
 Alpha  occ. eigenvalues --   -0.86080  -0.83745  -0.83228  -0.80841  -0.80802
 Alpha  occ. eigenvalues --   -0.80490  -0.80387  -0.78845  -0.76375  -0.75249
 Alpha  occ. eigenvalues --   -0.74923  -0.74864  -0.73564  -0.70732  -0.70562
 Alpha  occ. eigenvalues --   -0.70452  -0.70364  -0.69317  -0.68570  -0.68516
 Alpha  occ. eigenvalues --   -0.67935  -0.67768  -0.67601  -0.65574  -0.65101
 Alpha  occ. eigenvalues --   -0.64176  -0.62146  -0.61714  -0.61462  -0.61432
 Alpha  occ. eigenvalues --   -0.61353  -0.60328  -0.59951  -0.57518  -0.57093
 Alpha  occ. eigenvalues --   -0.55154  -0.54707  -0.54612  -0.54341  -0.53723
 Alpha  occ. eigenvalues --   -0.53530  -0.53118  -0.52123  -0.51489  -0.50096
 Alpha  occ. eigenvalues --   -0.48951  -0.48862  -0.48804  -0.48646  -0.48332
 Alpha  occ. eigenvalues --   -0.48124  -0.47648  -0.47099  -0.46937  -0.46763
 Alpha  occ. eigenvalues --   -0.46659  -0.46419  -0.46316  -0.46070  -0.45895
 Alpha  occ. eigenvalues --   -0.45340  -0.45248  -0.44920  -0.44673  -0.44591
 Alpha  occ. eigenvalues --   -0.44339  -0.44252  -0.44167  -0.43672  -0.43626
 Alpha  occ. eigenvalues --   -0.43568  -0.42820  -0.42754  -0.42681  -0.42259
 Alpha  occ. eigenvalues --   -0.41809  -0.40615  -0.40443  -0.40374  -0.40266
 Alpha  occ. eigenvalues --   -0.40128  -0.40068  -0.39945  -0.39861  -0.39698
 Alpha  occ. eigenvalues --   -0.39598  -0.39427  -0.39270  -0.39072  -0.39019
 Alpha  occ. eigenvalues --   -0.38780  -0.38466  -0.38336  -0.37825  -0.37710
 Alpha  occ. eigenvalues --   -0.37611  -0.37317  -0.37007  -0.36900  -0.36629
 Alpha  occ. eigenvalues --   -0.36517  -0.36381  -0.36189  -0.36083  -0.35911
 Alpha  occ. eigenvalues --   -0.35777  -0.35261  -0.35097  -0.34988  -0.34855
 Alpha  occ. eigenvalues --   -0.34253  -0.33733  -0.33464  -0.33102  -0.33015
 Alpha  occ. eigenvalues --   -0.32835  -0.32462  -0.32232  -0.32194  -0.32119
 Alpha  occ. eigenvalues --   -0.31782  -0.31747  -0.31545  -0.30932  -0.30631
 Alpha  occ. eigenvalues --   -0.30450  -0.30083  -0.29217  -0.27784  -0.27092
 Alpha  occ. eigenvalues --   -0.26794  -0.26477  -0.26196  -0.26124  -0.25384
 Alpha  occ. eigenvalues --   -0.23725  -0.23540  -0.22044  -0.18241
 Alpha virt. eigenvalues --   -0.07434  -0.04104  -0.02843   0.01100   0.02818
 Alpha virt. eigenvalues --    0.03886   0.05394   0.06132   0.06582   0.07070
 Alpha virt. eigenvalues --    0.07764   0.08417   0.09185   0.09620   0.09805
 Alpha virt. eigenvalues --    0.10231   0.10608   0.10742   0.11134   0.11284
 Alpha virt. eigenvalues --    0.11818   0.12226   0.12525   0.12648   0.13013
 Alpha virt. eigenvalues --    0.13155   0.13378   0.13722   0.13967   0.14285
 Alpha virt. eigenvalues --    0.14674   0.14764   0.15060   0.15189   0.15395
 Alpha virt. eigenvalues --    0.15486   0.15601   0.15772   0.16057   0.16138
 Alpha virt. eigenvalues --    0.16384   0.16577   0.16690   0.16802   0.16888
 Alpha virt. eigenvalues --    0.17195   0.17537   0.17599   0.18016   0.18161
 Alpha virt. eigenvalues --    0.18392   0.18558   0.18698   0.18941   0.19056
 Alpha virt. eigenvalues --    0.19226   0.19302   0.19466   0.19679   0.19941
 Alpha virt. eigenvalues --    0.20022   0.20247   0.20389   0.20542   0.20606
 Alpha virt. eigenvalues --    0.20743   0.20981   0.21185   0.21522   0.21540
 Alpha virt. eigenvalues --    0.21796   0.22214   0.22443   0.22687   0.22714
 Alpha virt. eigenvalues --    0.23027   0.23206   0.23406   0.23724   0.24111
 Alpha virt. eigenvalues --    0.24303   0.24568   0.24707   0.24716   0.24996
 Alpha virt. eigenvalues --    0.25097   0.25291   0.25545   0.25895   0.26055
 Alpha virt. eigenvalues --    0.26275   0.26312   0.26893   0.27003   0.27107
 Alpha virt. eigenvalues --    0.27596   0.27672   0.27999   0.28344   0.28688
 Alpha virt. eigenvalues --    0.28759   0.29497   0.29590   0.30163   0.30568
 Alpha virt. eigenvalues --    0.30751   0.30995   0.31514   0.32089   0.32663
 Alpha virt. eigenvalues --    0.33572   0.34036   0.34475   0.34995   0.35530
 Alpha virt. eigenvalues --    0.36143   0.36470   0.37283   0.37625   0.38481
 Alpha virt. eigenvalues --    0.39362   0.39691   0.39949   0.40168   0.41616
 Alpha virt. eigenvalues --    0.42650   0.43851   0.46295   0.47037   0.48024
 Alpha virt. eigenvalues --    0.48328   0.48601   0.49231   0.49460   0.49803
 Alpha virt. eigenvalues --    0.50052   0.50525   0.50861   0.50936   0.51143
 Alpha virt. eigenvalues --    0.51585   0.51649   0.51899   0.52453   0.52864
 Alpha virt. eigenvalues --    0.53485   0.53799   0.54152   0.54468   0.54799
 Alpha virt. eigenvalues --    0.55150   0.55290   0.56043   0.56211   0.56297
 Alpha virt. eigenvalues --    0.56712   0.56998   0.57152   0.57462   0.57928
 Alpha virt. eigenvalues --    0.58083   0.58251   0.58371   0.58562   0.58988
 Alpha virt. eigenvalues --    0.59075   0.59147   0.59456   0.59922   0.60000
 Alpha virt. eigenvalues --    0.60214   0.60480   0.60949   0.61204   0.61691
 Alpha virt. eigenvalues --    0.61716   0.62521   0.63016   0.63048   0.63427
 Alpha virt. eigenvalues --    0.63747   0.63965   0.64188   0.64881   0.65128
 Alpha virt. eigenvalues --    0.65475   0.65664   0.65951   0.66328   0.66948
 Alpha virt. eigenvalues --    0.67061   0.67425   0.67820   0.68334   0.68512
 Alpha virt. eigenvalues --    0.68963   0.69047   0.69491   0.69715   0.70084
 Alpha virt. eigenvalues --    0.70425   0.70647   0.71050   0.71281   0.71605
 Alpha virt. eigenvalues --    0.71738   0.72130   0.72285   0.72376   0.72961
 Alpha virt. eigenvalues --    0.73101   0.73601   0.74021   0.74484   0.74606
 Alpha virt. eigenvalues --    0.75035   0.75340   0.75600   0.76569   0.76761
 Alpha virt. eigenvalues --    0.77337   0.77832   0.78063   0.78338   0.78616
 Alpha virt. eigenvalues --    0.78651   0.78823   0.79134   0.79665   0.80398
 Alpha virt. eigenvalues --    0.80490   0.80886   0.81521   0.82082   0.82237
 Alpha virt. eigenvalues --    0.82595   0.82851   0.83237   0.83408   0.84016
 Alpha virt. eigenvalues --    0.84037   0.84258   0.84373   0.84620   0.84831
 Alpha virt. eigenvalues --    0.85311   0.85531   0.85706   0.85763   0.85955
 Alpha virt. eigenvalues --    0.86141   0.86515   0.86708   0.87082   0.87274
 Alpha virt. eigenvalues --    0.87622   0.87763   0.88108   0.88363   0.88685
 Alpha virt. eigenvalues --    0.88766   0.88999   0.89228   0.89455   0.89771
 Alpha virt. eigenvalues --    0.90010   0.90337   0.90590   0.90693   0.90872
 Alpha virt. eigenvalues --    0.91253   0.91517   0.91596   0.92033   0.92210
 Alpha virt. eigenvalues --    0.92304   0.92660   0.93100   0.93260   0.93578
 Alpha virt. eigenvalues --    0.93714   0.94031   0.94533   0.94651   0.94785
 Alpha virt. eigenvalues --    0.95188   0.95360   0.95546   0.95721   0.96074
 Alpha virt. eigenvalues --    0.96234   0.96533   0.96804   0.97260   0.97401
 Alpha virt. eigenvalues --    0.97665   0.98248   0.98585   0.99001   0.99397
 Alpha virt. eigenvalues --    0.99725   1.00587   1.01253   1.01472   1.02455
 Alpha virt. eigenvalues --    1.02804   1.03348   1.03783   1.04523   1.04634
 Alpha virt. eigenvalues --    1.04854   1.05665   1.06583   1.07092   1.07770
 Alpha virt. eigenvalues --    1.08010   1.08295   1.08697   1.08983   1.09455
 Alpha virt. eigenvalues --    1.09966   1.10592   1.11156   1.11659   1.12256
 Alpha virt. eigenvalues --    1.12548   1.13258   1.13670   1.14519   1.14814
 Alpha virt. eigenvalues --    1.15642   1.16070   1.17008   1.17422   1.17511
 Alpha virt. eigenvalues --    1.17806   1.18297   1.18748   1.19216   1.19618
 Alpha virt. eigenvalues --    1.19941   1.20269   1.21439   1.22083   1.22210
 Alpha virt. eigenvalues --    1.22708   1.23210   1.23851   1.24425   1.24627
 Alpha virt. eigenvalues --    1.25784   1.26041   1.26988   1.27212   1.27742
 Alpha virt. eigenvalues --    1.28373   1.29377   1.30369   1.30805   1.31525
 Alpha virt. eigenvalues --    1.32095   1.32555   1.32966   1.33329   1.34082
 Alpha virt. eigenvalues --    1.34522   1.34704   1.34844   1.35990   1.36374
 Alpha virt. eigenvalues --    1.36570   1.36973   1.38186   1.38407   1.38957
 Alpha virt. eigenvalues --    1.39436   1.40168   1.40283   1.40781   1.41531
 Alpha virt. eigenvalues --    1.42689   1.42897   1.43675   1.43730   1.44575
 Alpha virt. eigenvalues --    1.45237   1.45728   1.45817   1.46184   1.46519
 Alpha virt. eigenvalues --    1.46643   1.46935   1.47401   1.47866   1.48144
 Alpha virt. eigenvalues --    1.49244   1.49621   1.49814   1.50610   1.51425
 Alpha virt. eigenvalues --    1.52136   1.53080   1.53407   1.54226   1.55535
 Alpha virt. eigenvalues --    1.56026   1.56522   1.58063   1.58936   1.59155
 Alpha virt. eigenvalues --    1.60138   1.62035   1.62435   1.63014   1.63891
 Alpha virt. eigenvalues --    1.64163   1.64873   1.65036   1.65783   1.66581
 Alpha virt. eigenvalues --    1.67280   1.67502   1.67682   1.68060   1.69074
 Alpha virt. eigenvalues --    1.69869   1.70012   1.70414   1.71199   1.71935
 Alpha virt. eigenvalues --    1.72088   1.72519   1.73241   1.73916   1.74848
 Alpha virt. eigenvalues --    1.75311   1.75660   1.76265   1.77096   1.77530
 Alpha virt. eigenvalues --    1.77620   1.77985   1.78384   1.79450   1.80232
 Alpha virt. eigenvalues --    1.80318   1.80748   1.81287   1.81927   1.82160
 Alpha virt. eigenvalues --    1.82512   1.82940   1.83931   1.84203   1.84614
 Alpha virt. eigenvalues --    1.85072   1.85259   1.85791   1.86061   1.86400
 Alpha virt. eigenvalues --    1.86883   1.87419   1.87688   1.88060   1.88798
 Alpha virt. eigenvalues --    1.89041   1.89595   1.90200   1.90366   1.90755
 Alpha virt. eigenvalues --    1.91019   1.91433   1.91541   1.91662   1.91737
 Alpha virt. eigenvalues --    1.91801   1.92422   1.92667   1.92982   1.93293
 Alpha virt. eigenvalues --    1.93509   1.93615   1.93893   1.94349   1.94400
 Alpha virt. eigenvalues --    1.94716   1.95210   1.95783   1.96651   1.96917
 Alpha virt. eigenvalues --    1.97465   1.98275   1.98834   1.99025   2.00000
 Alpha virt. eigenvalues --    2.00038   2.00144   2.01458   2.01601   2.02063
 Alpha virt. eigenvalues --    2.02271   2.02465   2.02681   2.02923   2.03242
 Alpha virt. eigenvalues --    2.03670   2.04172   2.05108   2.05560   2.05931
 Alpha virt. eigenvalues --    2.06157   2.06608   2.06703   2.06999   2.07229
 Alpha virt. eigenvalues --    2.07464   2.08126   2.08353   2.08955   2.09272
 Alpha virt. eigenvalues --    2.09993   2.10103   2.11095   2.11226   2.11604
 Alpha virt. eigenvalues --    2.12022   2.12411   2.12770   2.13355   2.13688
 Alpha virt. eigenvalues --    2.14233   2.14347   2.14572   2.15264   2.15864
 Alpha virt. eigenvalues --    2.16054   2.16295   2.16732   2.17178   2.17402
 Alpha virt. eigenvalues --    2.17946   2.18462   2.18848   2.19174   2.19389
 Alpha virt. eigenvalues --    2.19618   2.19769   2.20063   2.20296   2.20820
 Alpha virt. eigenvalues --    2.21122   2.21498   2.21972   2.22875   2.23127
 Alpha virt. eigenvalues --    2.23290   2.23574   2.23806   2.24198   2.24970
 Alpha virt. eigenvalues --    2.25164   2.25698   2.26195   2.26248   2.26336
 Alpha virt. eigenvalues --    2.26994   2.27277   2.27349   2.28026   2.28699
 Alpha virt. eigenvalues --    2.29451   2.30376   2.31121   2.31539   2.32147
 Alpha virt. eigenvalues --    2.32300   2.32633   2.33016   2.33277   2.33416
 Alpha virt. eigenvalues --    2.34196   2.35125   2.35929   2.36419   2.36906
 Alpha virt. eigenvalues --    2.37507   2.38092   2.38574   2.39206   2.39651
 Alpha virt. eigenvalues --    2.40841   2.41359   2.42051   2.43709   2.44720
 Alpha virt. eigenvalues --    2.45441   2.46169   2.47616   2.48146   2.48364
 Alpha virt. eigenvalues --    2.49040   2.49258   2.49555   2.50102   2.50899
 Alpha virt. eigenvalues --    2.52169   2.53425   2.53723   2.55100   2.56073
 Alpha virt. eigenvalues --    2.58178   2.58976   2.59422   2.60358   2.60814
 Alpha virt. eigenvalues --    2.61729   2.62185   2.63260   2.64124   2.64486
 Alpha virt. eigenvalues --    2.64867   2.65263   2.65569   2.68148   2.68551
 Alpha virt. eigenvalues --    2.69471   2.71383   2.71748   2.73021   2.76899
 Alpha virt. eigenvalues --    2.77497   2.77631   2.77799   2.78192   2.78291
 Alpha virt. eigenvalues --    2.79447   2.79598   2.79958   2.80524   2.80868
 Alpha virt. eigenvalues --    2.81546   2.81747   2.83161   2.83216   2.83828
 Alpha virt. eigenvalues --    2.84449   2.84710   2.86251   2.88680   2.89175
 Alpha virt. eigenvalues --    2.90809   2.92451   2.93334   2.94589   2.95910
 Alpha virt. eigenvalues --    2.96106   2.97069   2.97375   3.02024   3.02459
 Alpha virt. eigenvalues --    3.04362   3.05508   3.06014   3.06841   3.09664
 Alpha virt. eigenvalues --    3.10176   3.11276   3.12170   3.12828   3.15672
 Alpha virt. eigenvalues --    3.23117   3.26790   3.31737   3.45284  13.45266
          Condensed to atoms (all electrons):
 Mulliken charges:
               1
     1  C    0.292981
     2  C    0.040774
     3  C   -0.080044
     4  C   -0.156838
     5  C   -0.191171
     6  C    0.352388
     7  C    0.086605
     8  C   -0.160574
     9  C   -0.133186
    10  C   -0.169670
    11  H    0.242557
    12  H    0.198754
    13  H    0.181211
    14  H    0.211699
    15  H    0.180781
    16  H    0.167129
    17  N   -0.490617
    18  N   -0.543530
    19  Ir  -0.070121
    20  O   -0.500120
    21  O   -0.516596
    22  O   -0.534127
    23  B    0.458227
    24  B    0.475662
    25  B    0.434682
    26  O   -0.524024
    27  O   -0.522609
    28  C    0.299457
    29  C    0.292070
    30  C    0.299601
    31  C    0.289273
    32  C    0.293066
    33  C    0.296444
    34  O   -0.530299
    35  C   -0.506759
    36  H    0.179280
    37  H    0.143192
    38  H    0.174669
    39  C   -0.513681
    40  H    0.169551
    41  H    0.173884
    42  H    0.148242
    43  C   -0.508572
    44  H    0.165576
    45  H    0.153426
    46  H    0.165052
    47  C   -0.511930
    48  H    0.152337
    49  H    0.167272
    50  H    0.174470
    51  C   -0.506227
    52  H    0.160448
    53  H    0.171775
    54  H    0.149119
    55  C   -0.492857
    56  H    0.144402
    57  H    0.160114
    58  H    0.171279
    59  C   -0.513902
    60  H    0.152258
    61  H    0.184783
    62  H    0.150532
    63  C   -0.512541
    64  H    0.161675
    65  H    0.154447
    66  H    0.168878
    67  C   -0.508463
    68  H    0.150095
    69  H    0.170875
    70  H    0.188503
    71  C   -0.511622
    72  H    0.169738
    73  H    0.154055
    74  H    0.165308
    75  C   -0.508002
    76  H    0.162989
    77  H    0.154800
    78  H    0.177685
    79  C   -0.514826
    80  H    0.172406
    81  H    0.150942
    82  H    0.176330
    83  H    0.212268
    84  C    0.586865
    85  O   -0.542168
    86  C   -0.408170
    87  H    0.169114
    88  H    0.161423
    89  C   -0.333061
    90  H    0.198687
    91  H    0.160419
    92  N   -0.346214
    93  C   -0.370323
    94  H    0.196804
    95  H    0.157305
    96  H    0.169948
    97  C   -0.260495
    98  H    0.160577
    99  H    0.137346
   100  C   -0.276763
   101  H    0.133098
   102  H    0.137426
   103  C   -0.281044
   104  H    0.149384
   105  H    0.141766
   106  C   -0.497504
   107  H    0.159373
   108  H    0.162513
   109  H    0.157085
   110  C    0.969360
   111  F   -0.319171
   112  F   -0.307387
   113  F   -0.307744
   114  H    0.178441
 Sum of Mulliken charges =  -0.00000
 Mulliken charges with hydrogens summed into heavy atoms:
               1
     1  C    0.292981
     2  C    0.283331
     3  C   -0.080044
     4  C    0.041915
     5  C   -0.009961
     6  C    0.352388
     7  C    0.298304
     8  C    0.017867
     9  C    0.047596
    10  C   -0.002540
    17  N   -0.490617
    18  N   -0.543530
    19  Ir   0.142147
    20  O   -0.500120
    21  O   -0.516596
    22  O   -0.534127
    23  B    0.458227
    24  B    0.475662
    25  B    0.434682
    26  O   -0.524024
    27  O   -0.522609
    28  C    0.299457
    29  C    0.292070
    30  C    0.299601
    31  C    0.289273
    32  C    0.293066
    33  C    0.296444
    34  O   -0.530299
    35  C   -0.009618
    39  C   -0.022005
    43  C   -0.024517
    47  C   -0.017852
    51  C   -0.024885
    55  C   -0.017061
    59  C   -0.026329
    63  C   -0.027542
    67  C    0.001010
    71  C   -0.022521
    75  C   -0.012528
    79  C   -0.015148
    84  C    0.586865
    85  O   -0.542168
    86  C   -0.077633
    89  C    0.026044
    92  N   -0.346214
    93  C    0.153734
    97  C    0.037428
   100  C   -0.006239
   103  C    0.010106
   106  C   -0.018532
   110  C    0.969360
   111  F   -0.319171
   112  F   -0.307387
   113  F   -0.307744
 APT charges:
               1
     1  C    0.283204
     2  C    0.070010
     3  C   -0.206571
     4  C    0.101575
     5  C   -0.217355
     6  C    0.097601
     7  C    0.032565
     8  C   -0.041166
     9  C    0.088794
    10  C   -0.137167
    11  H    0.114840
    12  H    0.067971
    13  H    0.046884
    14  H    0.111445
    15  H    0.029895
    16  H    0.038888
    17  N   -0.171175
    18  N   -0.045855
    19  Ir  -0.939143
    20  O   -0.951937
    21  O   -0.960645
    22  O   -1.029220
    23  B    1.238493
    24  B    1.273455
    25  B    1.516080
    26  O   -1.034242
    27  O   -0.966569
    28  C    0.470504
    29  C    0.468615
    30  C    0.531590
    31  C    0.518081
    32  C    0.478878
    33  C    0.480575
    34  O   -0.957607
    35  C   -0.032399
    36  H    0.014494
    37  H   -0.026110
    38  H    0.003014
    39  C   -0.004841
    40  H   -0.001343
    41  H   -0.000371
    42  H   -0.017244
    43  C    0.000977
    44  H    0.000709
    45  H   -0.020068
    46  H   -0.000512
    47  C   -0.034682
    48  H   -0.020816
    49  H   -0.002509
    50  H    0.000043
    51  C    0.006304
    52  H   -0.006917
    53  H    0.001561
    54  H   -0.019904
    55  C   -0.032044
    56  H   -0.028558
    57  H   -0.002684
    58  H    0.019215
    59  C   -0.036358
    60  H   -0.009157
    61  H    0.024335
    62  H   -0.021216
    63  C   -0.007896
    64  H   -0.001730
    65  H   -0.017419
    66  H    0.005847
    67  C   -0.039244
    68  H   -0.024974
    69  H    0.011448
    70  H    0.010845
    71  C   -0.007601
    72  H   -0.003843
    73  H   -0.015071
    74  H    0.003901
    75  C   -0.053145
    76  H    0.006112
    77  H   -0.021571
    78  H    0.008937
    79  C   -0.019859
    80  H    0.003120
    81  H   -0.014279
    82  H    0.007647
    83  H    0.040178
    84  C    0.879876
    85  O   -0.699076
    86  C   -0.005545
    87  H   -0.024954
    88  H   -0.024747
    89  C    0.245418
    90  H   -0.016581
    91  H   -0.064595
    92  N   -0.768902
    93  C    0.272077
    94  H    0.069087
    95  H   -0.064723
    96  H   -0.010900
    97  C    0.105560
    98  H   -0.023699
    99  H   -0.027644
   100  C    0.107324
   101  H   -0.050405
   102  H   -0.053756
   103  C    0.115506
   104  H   -0.048211
   105  H   -0.050587
   106  C    0.063487
   107  H   -0.020421
   108  H   -0.042008
   109  H   -0.020334
   110  C    1.824928
   111  F   -0.595050
   112  F   -0.562833
   113  F   -0.576847
   114  H    0.042943
 Sum of APT charges =  -0.00000
 APT charges with hydrogens summed into heavy atoms:
               1
     1  C    0.283204
     2  C    0.184851
     3  C   -0.206571
     4  C    0.169546
     5  C   -0.170471
     6  C    0.097601
     7  C    0.144010
     8  C    0.001777
     9  C    0.118690
    10  C   -0.098279
    17  N   -0.171175
    18  N   -0.045855
    19  Ir  -0.898965
    20  O   -0.951937
    21  O   -0.960645
    22  O   -1.029220
    23  B    1.238493
    24  B    1.273455
    25  B    1.516080
    26  O   -1.034242
    27  O   -0.966569
    28  C    0.470504
    29  C    0.468615
    30  C    0.531590
    31  C    0.518081
    32  C    0.478878
    33  C    0.480575
    34  O   -0.957607
    35  C   -0.041002
    39  C   -0.023799
    43  C   -0.018895
    47  C   -0.057964
    51  C   -0.018956
    55  C   -0.044071
    59  C   -0.042397
    63  C   -0.021198
    67  C   -0.041925
    71  C   -0.022613
    75  C   -0.059667
    79  C   -0.023372
    84  C    0.879876
    85  O   -0.699076
    86  C   -0.055246
    89  C    0.164243
    92  N   -0.768902
    93  C    0.265540
    97  C    0.054217
   100  C    0.003164
   103  C    0.016708
   106  C   -0.019276
   110  C    1.824928
   111  F   -0.595050
   112  F   -0.562833
   113  F   -0.576847
 Electronic spatial extent (au):  <R**2>=          34239.1105
 Charge=             -0.0000 electrons
 Dipole moment (field-independent basis, Debye):
    X=             -2.0024    Y=             -0.7781    Z=              2.4001  Tot=              3.2211
 Quadrupole moment (field-independent basis, Debye-Ang):
   XX=           -336.4166   YY=           -323.9431   ZZ=           -310.3138
   XY=             -5.0085   XZ=             -6.5710   YZ=            -16.0401
 Traceless Quadrupole moment (field-independent basis, Debye-Ang):
   XX=            -12.8587   YY=             -0.3853   ZZ=             13.2440
   XY=             -5.0085   XZ=             -6.5710   YZ=            -16.0401
 Octapole moment (field-independent basis, Debye-Ang**2):
  XXX=             83.0947  YYY=            -32.5267  ZZZ=             14.3882  XYY=             67.1042
  XXY=             24.3082  XXZ=              0.0523  XZZ=             57.4514  YZZ=            -22.6659
  YYZ=             74.7792  XYZ=             -7.5682
 Hexadecapole moment (field-independent basis, Debye-Ang**3):
 XXXX=         -20201.6639 YYYY=         -13096.7480 ZZZZ=         -11414.4868 XXXY=           -169.9245
 XXXZ=           -151.8132 YYYX=           -510.7708 YYYZ=           -260.4039 ZZZX=           -119.8003
 ZZZY=            -24.3320 XXYY=          -5454.6110 XXZZ=          -5060.2401 YYZZ=          -3911.7988
 XXYZ=           -125.5183 YYXZ=             68.5415 ZZXY=             11.1739
 N-N= 9.196187042220D+03 E-N=-2.447103531983D+04  KE= 2.527266259858D+03
  Exact polarizability:     555.415     -16.420     500.992     -25.788     -43.733     477.898
 Approx polarizability:     783.772     -34.058     728.001     -48.623     -79.237     684.642
   1 Symmetry operations used in ECPInt.
 ECPInt:  NShTT=   57970 NPrTT=  353525 LenC2=   42443 LenP2D=  129628.
 LDataN:  DoStor=T MaxTD1= 8 Len=  415
 Calling FoFJK, ICntrl=    100127 FMM=F ISym2X=0 I1Cent= 0 IOpClX= 0 NMat=1 NMatS=1 NMatT=0.
 Defaulting to unpruned grid for atomic number  77.
 Defaulting to unpruned grid for atomic number  77.
 Defaulting to unpruned grid for atomic number  77.
 Defaulting to unpruned grid for atomic number  77.
 Defaulting to unpruned grid for atomic number  77.
 Defaulting to unpruned grid for atomic number  77.
 Defaulting to unpruned grid for atomic number  77.
 Defaulting to unpruned grid for atomic number  77.
 Defaulting to unpruned grid for atomic number  77.
 Defaulting to unpruned grid for atomic number  77.
 Defaulting to unpruned grid for atomic number  77.
 Defaulting to unpruned grid for atomic number  77.
 Defaulting to unpruned grid for atomic number  77.
 Defaulting to unpruned grid for atomic number  77.
 Defaulting to unpruned grid for atomic number  77.
 Defaulting to unpruned grid for atomic number  77.
 Full mass-weighted force constant matrix:
 Low frequencies ---  -69.5107   -5.1176   -3.4372   -0.0007   -0.0004    0.0002
 Low frequencies ---    1.4475   14.2167   17.0312
 ******    1 imaginary frequencies (negative Signs) ****** 
 Diagonal vibrational polarizability:
      101.2054385     114.6793641      90.6119137
 Harmonic frequencies (cm**-1), IR intensities (KM/Mole), Raman scattering
 activities (A**4/AMU), depolarization ratios for plane and unpolarized
 incident light, reduced masses (AMU), force constants (mDyne/A),
 and normal coordinates:
                      1                      2                      3
                      A                      A                      A
 Frequencies --    -69.4998                14.1687                16.9136
 Red. masses --      6.2438                 6.5201                 3.7611
 Frc consts  --      0.0178                 0.0008                 0.0006
 IR Inten    --     10.3969                 0.0559                 0.0390
  Atom AN      X      Y      Z        X      Y      Z        X      Y      Z
     1   6     0.01   0.00  -0.01     0.02  -0.00  -0.01    -0.00  -0.01  -0.02
     2   6     0.01  -0.01  -0.02     0.02   0.02   0.01     0.00  -0.00  -0.00
     3   6     0.01  -0.00  -0.01     0.05   0.06   0.06    -0.00  -0.01  -0.03
     4   6     0.01   0.00  -0.00     0.06   0.06   0.08    -0.01  -0.03  -0.05
     5   6     0.01   0.01  -0.00     0.04   0.03   0.04    -0.01  -0.03  -0.05
     6   6     0.01   0.01  -0.01     0.01  -0.03  -0.03    -0.00  -0.02  -0.02
     7   6     0.01   0.01  -0.01    -0.00  -0.04  -0.03    -0.00  -0.02  -0.01
     8   6     0.01   0.01  -0.01    -0.00  -0.04  -0.04    -0.00  -0.02  -0.02
     9   6     0.01   0.02  -0.00     0.00  -0.05  -0.04    -0.00  -0.03  -0.03
    10   6     0.01   0.01  -0.01     0.00  -0.04  -0.04    -0.00  -0.02  -0.03
    11   1     0.01  -0.01  -0.03     0.01   0.01  -0.01     0.01   0.01   0.02
    12   1     0.01   0.00   0.01     0.08   0.09   0.13    -0.02  -0.04  -0.07
    13   1     0.01   0.01   0.00     0.06   0.03   0.06    -0.01  -0.04  -0.07
    14   1     0.01   0.00  -0.02    -0.00  -0.03  -0.02     0.00  -0.01  -0.01
    15   1     0.01   0.02   0.00     0.00  -0.06  -0.05    -0.00  -0.03  -0.03
    16   1     0.01   0.01  -0.01     0.00  -0.04  -0.05    -0.00  -0.02  -0.03
    17   7     0.01  -0.00  -0.02     0.00  -0.01  -0.02     0.01  -0.00   0.00
    18   7     0.01   0.01  -0.01     0.00  -0.03  -0.03     0.00  -0.01  -0.01
    19  77     0.01  -0.02  -0.03    -0.01  -0.02  -0.03     0.00  -0.00   0.00
    20   8     0.00  -0.00   0.01     0.02  -0.05  -0.02    -0.04   0.01   0.02
    21   8     0.00  -0.02  -0.01    -0.00  -0.02   0.00    -0.01  -0.01  -0.01
    22   8     0.10   0.17   0.07    -0.02  -0.02  -0.04     0.03   0.02   0.03
    23   5    -0.01  -0.02  -0.02    -0.01  -0.02  -0.01    -0.00  -0.01  -0.01
    24   5     0.00  -0.00   0.00     0.01  -0.04  -0.02    -0.03   0.00   0.00
    25   5     0.15   0.23   0.10    -0.02  -0.02  -0.03     0.02   0.01   0.01
    26   8     0.10   0.15   0.07    -0.02  -0.01  -0.02     0.03   0.01   0.01
    27   8     0.00  -0.01  -0.00     0.02  -0.04  -0.01    -0.04  -0.01  -0.01
    28   6    -0.01  -0.00  -0.00     0.03  -0.06  -0.00    -0.07   0.00  -0.01
    29   6    -0.01  -0.00   0.01     0.03  -0.06  -0.01    -0.06   0.01   0.01
    30   6     0.05   0.07   0.02    -0.03  -0.01  -0.04     0.04   0.02   0.03
    31   6     0.06   0.07  -0.02    -0.03  -0.01  -0.03     0.03   0.02   0.02
    32   6     0.00  -0.02  -0.01    -0.00  -0.01   0.02    -0.01  -0.02  -0.03
    33   6     0.00  -0.01  -0.01    -0.00  -0.01   0.01    -0.01  -0.02  -0.03
    34   8    -0.01  -0.02  -0.01    -0.01  -0.01  -0.00     0.00  -0.02  -0.02
    35   6    -0.00  -0.00   0.00     0.03  -0.05   0.01    -0.06   0.01   0.01
    36   1    -0.00  -0.00  -0.00     0.02  -0.04   0.01    -0.05  -0.00  -0.00
    37   1    -0.01  -0.00   0.00     0.04  -0.05   0.01    -0.08   0.01   0.00
    38   1    -0.00  -0.00   0.01     0.02  -0.05   0.00    -0.06   0.01   0.02
    39   6    -0.01   0.00   0.01     0.04  -0.07  -0.02    -0.08   0.02   0.03
    40   1    -0.01   0.00   0.01     0.04  -0.07  -0.03    -0.08   0.02   0.03
    41   1    -0.01   0.00   0.01     0.04  -0.07  -0.02    -0.08   0.02   0.04
    42   1    -0.01   0.00   0.01     0.05  -0.08  -0.01    -0.10   0.02   0.02
    43   6    -0.01  -0.01  -0.01     0.04  -0.06   0.01    -0.08  -0.01  -0.03
    44   1    -0.01  -0.01  -0.01     0.04  -0.06   0.02    -0.08  -0.01  -0.04
    45   1    -0.02  -0.01  -0.00     0.05  -0.07   0.02    -0.10  -0.00  -0.02
    46   1    -0.01  -0.01  -0.01     0.03  -0.05   0.02    -0.07  -0.01  -0.03
    47   6    -0.01  -0.00   0.00     0.04  -0.07  -0.02    -0.07   0.00  -0.00
    48   1    -0.01  -0.00   0.00     0.04  -0.08  -0.02    -0.09   0.01  -0.00
    49   1    -0.01  -0.01  -0.00     0.04  -0.07  -0.02    -0.07   0.00  -0.01
    50   1    -0.00  -0.00   0.00     0.03  -0.06  -0.03    -0.07   0.00   0.01
    51   6     0.01  -0.02  -0.01     0.01  -0.01   0.03    -0.02  -0.01  -0.03
    52   1     0.02  -0.01  -0.01     0.02  -0.02   0.03    -0.04  -0.01  -0.03
    53   1     0.01  -0.02  -0.02     0.01  -0.01   0.03    -0.03  -0.01  -0.02
    54   1     0.01  -0.01  -0.01     0.01  -0.01   0.04    -0.02  -0.02  -0.04
    55   6     0.00  -0.02  -0.01    -0.01   0.01   0.02     0.00  -0.02  -0.02
    56   1     0.01  -0.00  -0.01    -0.01   0.01   0.03     0.00  -0.03  -0.03
    57   1     0.02  -0.05  -0.02    -0.01   0.00   0.02    -0.00  -0.01  -0.02
    58   1    -0.02  -0.02  -0.01    -0.02   0.01   0.01     0.01  -0.02  -0.02
    59   6     0.01  -0.01  -0.00     0.01  -0.02   0.02    -0.02  -0.02  -0.04
    60   1     0.00  -0.01  -0.00     0.01  -0.02   0.02    -0.02  -0.02  -0.04
    61   1     0.01  -0.01  -0.01     0.01  -0.03   0.01    -0.03  -0.01  -0.03
    62   1     0.01  -0.01  -0.00     0.01  -0.02   0.03    -0.03  -0.02  -0.05
    63   6    -0.00  -0.01  -0.00    -0.01   0.01   0.02     0.00  -0.03  -0.04
    64   1    -0.01  -0.00  -0.00    -0.01   0.01   0.02     0.00  -0.04  -0.05
    65   1     0.00  -0.00   0.00    -0.00   0.01   0.03    -0.00  -0.04  -0.05
    66   1    -0.01  -0.01  -0.00    -0.02   0.02   0.02     0.01  -0.04  -0.04
    67   6     0.10   0.10  -0.13    -0.02  -0.01  -0.03     0.02   0.02   0.03
    68   1     0.08   0.05  -0.19    -0.03  -0.01  -0.03     0.02   0.03   0.04
    69   1     0.11   0.12  -0.15    -0.02  -0.01  -0.02     0.01   0.01   0.02
    70   1     0.13   0.17  -0.13    -0.02  -0.02  -0.03     0.01   0.02   0.03
    71   6    -0.01  -0.02  -0.01    -0.04  -0.00  -0.02     0.05   0.01   0.01
    72   1    -0.01  -0.02  -0.03    -0.04  -0.00  -0.01     0.04   0.01   0.01
    73   1    -0.04  -0.07  -0.07    -0.04   0.00  -0.03     0.06   0.02   0.03
    74   1    -0.04  -0.05   0.08    -0.04   0.00  -0.03     0.06   0.01   0.01
    75   6    -0.01   0.00   0.12    -0.04  -0.01  -0.05     0.06   0.02   0.03
    76   1    -0.01   0.01   0.19    -0.04  -0.01  -0.04     0.06   0.01   0.01
    77   1    -0.05  -0.07   0.09    -0.05   0.00  -0.05     0.07   0.03   0.03
    78   1    -0.00   0.02   0.16    -0.04  -0.01  -0.05     0.07   0.02   0.03
    79   6     0.05   0.04  -0.06    -0.03  -0.01  -0.05     0.04   0.03   0.05
    80   1     0.04   0.04  -0.02    -0.03  -0.01  -0.06     0.05   0.04   0.06
    81   1     0.02  -0.02  -0.10    -0.04  -0.00  -0.05     0.05   0.04   0.05
    82   1     0.09   0.09  -0.12    -0.02  -0.02  -0.05     0.02   0.04   0.05
    83   1     0.01   0.04   0.13    -0.01  -0.02  -0.03    -0.00   0.01   0.02
    84   6    -0.09  -0.06   0.05    -0.03   0.00  -0.03     0.04  -0.02  -0.01
    85   8    -0.14  -0.07   0.07    -0.04  -0.01  -0.04     0.04  -0.02  -0.02
    86   6    -0.08  -0.03   0.01    -0.03   0.03  -0.02     0.03  -0.01   0.00
    87   1    -0.07  -0.03   0.01    -0.02   0.03  -0.00     0.04  -0.01   0.00
    88   1    -0.06  -0.03   0.01    -0.04   0.05  -0.02     0.02  -0.02   0.00
    89   6    -0.08  -0.10   0.17    -0.03  -0.01  -0.03     0.03  -0.00  -0.01
    90   1    -0.11  -0.15   0.11    -0.03  -0.01  -0.03     0.04  -0.00  -0.01
    91   1    -0.02   0.01   0.21    -0.03  -0.02  -0.03     0.04   0.01  -0.00
    92   7    -0.05  -0.08   0.09    -0.03   0.00  -0.03     0.03  -0.02  -0.01
    93   6     0.02  -0.05   0.08    -0.02   0.01  -0.02     0.03  -0.02  -0.01
    94   1     0.03  -0.02   0.18    -0.02   0.00  -0.02     0.03  -0.02  -0.02
    95   1     0.11  -0.03   0.03    -0.03   0.02  -0.02     0.03  -0.02  -0.01
    96   1    -0.03  -0.08   0.04    -0.02   0.01  -0.02     0.03  -0.01  -0.01
    97   6    -0.10  -0.02  -0.00    -0.04   0.03  -0.03     0.04  -0.00   0.02
    98   1    -0.11  -0.02   0.00    -0.10   0.02  -0.09    -0.02  -0.01  -0.04
    99   1    -0.11  -0.03   0.00     0.01  -0.03  -0.03     0.11  -0.05   0.01
   100   6    -0.10  -0.01  -0.01    -0.05   0.11   0.04     0.03   0.07   0.11
   101   1    -0.09  -0.01  -0.01     0.00   0.11   0.13     0.08   0.08   0.19
   102   1    -0.09  -0.01  -0.01    -0.10   0.20   0.03    -0.05   0.14   0.11
   103   6    -0.10  -0.01  -0.01    -0.06   0.10   0.01     0.03   0.07   0.11
   104   1    -0.10  -0.01  -0.01    -0.13   0.10  -0.10    -0.05   0.06   0.00
   105   1    -0.09  -0.01  -0.01     0.02  -0.01   0.01     0.14  -0.03   0.11
   106   6    -0.10  -0.01  -0.00    -0.07   0.21   0.11     0.02   0.19   0.25
   107   1    -0.10  -0.01  -0.00    -0.14   0.34   0.10    -0.08   0.30   0.25
   108   1    -0.10  -0.00  -0.00    -0.07   0.19   0.08     0.03   0.17   0.24
   109   1    -0.09  -0.00  -0.01     0.00   0.21   0.24     0.10   0.19   0.38
   110   6     0.01  -0.00  -0.01     0.07   0.10   0.13    -0.01  -0.02  -0.04
   111   9     0.01  -0.00  -0.01     0.07   0.10   0.11    -0.00  -0.01  -0.03
   112   9     0.01   0.00  -0.01     0.13   0.15   0.14    -0.02  -0.03  -0.04
   113   9     0.01  -0.00  -0.00     0.03   0.10   0.21    -0.00  -0.01  -0.06
[...]
 00000201,-0.00000626,-0.00000473,-0.00000917,-0.00002016,-0.00029751,-
 0.00004638,-0.00035493,0.00002826,0.00003042,-0.00007923,-0.00006494,0
 .00002943,0.00021904,0.00017276,0.00003983,0.00013919,0.00000469,0.000
 00624,0.00005055,-0.00043625,0.00021480,0.00033682,0.00000722,-0.00000
 487,-0.00007490,-0.00016789,-0.00011722,-0.00021405,0.00047371,-0.0000
 7064,-0.00048675,-0.00019313,0.00004309,0.00014738,0.00006547,0.000054
 56,0.00011223,-0.00003850,-0.00000619,-0.00005129,-0.00003695,0.000017
 90,-0.00002798,0.00009466,-0.00004169,-0.00011677,0.00010532,-0.000073
 25,-0.00002473,-0.00000548,0.00000259,-0.00003012,0.00000522,-0.000003
 90,-0.00001360,0.00000391,0.00000480,0.00003631,0.00000377,0.00000079,
 0.00001759,0.00001133,-0.00000654,0.00000313,-0.00000033,-0.00000036,-
 0.00000176,-0.00000338,0.00000552,-0.00000810,-0.00000444,0.00001882,-
 0.00000936,-0.00002003,-0.00002027,0.00002994,0.00000501,0.00003056,-0
 .00000506,0.00001771,-0.00001116,0.00000023,0.00000723,0.00000402,0.00
 001018,0.00000455,0.00000326,-0.00000433,-0.00000362,0.00000467,0.0000
 0579,0.00000146,-0.00001122,0.00000328,-0.00001517,0.00001115,0.000018
 80,-0.00000316,0.00000116,0.00001097,0.00001384,-0.00000164,-0.0000027
 4,-0.00000452,-0.00001156,-0.00001008,0.00000281,-0.00000122,-0.000002
 17,-0.00000618,0.00000196,0.00000956,-0.00000090,0.00000005,-0.0000047
 6,0.00000210,0.00000018,0.00000216,-0.00000048,-0.00000175,0.00000394,
 -0.00000258,0.00000041,0.00000357,-0.00000226,-0.00001013,-0.00000268,
 0.00001034,0.00000731,0.00000171,-0.00000528,-0.00000288,0.00000170,-0
 .00000288,0.00000013,-0.00000019,0.00000031,0.00000481,-0.00000089,-0.
 00000098,0.00000019,0.00000131,-0.00000097,0.00000039,-0.00000068,0.00
 000041,-0.00000110,-0.00000134,0.00000049,0.00000116,0.00000013,0.0000
 0082,0.00000005,0.00000711,-0.00004324,0.00003074,-0.00001022,-0.00000
 156,-0.00001482,0.00000586,-0.00001021,0.00002243,-0.00000076,0.000010
 77,-0.00001233,-0.00000451,-0.00001706,0.00001822,0.00001158,-0.000013
 27,0.00002237,-0.00000385,-0.00000081,-0.00001397,0.00001094,0.0000197
 4,-0.00000264,0.00000728,0.00007410,-0.00011674,0.00006546,-0.00003474
 ,0.00001982,-0.00002017,-0.00001002,0.00002681,0.00000078,0.00000126,0
 .00006120,0.00003023,0.00007969,-0.00012952,-0.00002913,-0.00005878,0.
 00001180,0.00007149,-0.00003360,0.00003817,-0.00001940,-0.00000713,0.0
 0002134,0.00000474,-0.00003186,-0.00002973,-0.00002231,0.00001909,0.00
 001408,-0.00003326,-0.00001414,0.00002495,0.00006783,-0.00000245,-0.00
 001034,-0.00000696,-0.00000277,0.00000281,-0.00000350,0.00000251,-0.00
 000037,0.00000618,-0.00005079,-0.00004046,-0.00004082,0.00001413,0.000
 01901,-0.00003876,0.00001395,0.00002789,0.00008342,0.00001880,0.000025
 55,0.00005549,-0.00000634,0.00000859,-0.00002980,0.00000940,-0.0000080
 0,-0.00000355,0.00000912,0.00000313,0.00001100,-0.00000839,-0.00000247
 ,0.00000212,0.00000064,-0.00000349,-0.00001570,0.00000175,0.00000382,0
 .00000131,-0.00000331,-0.00000081,0.00000924,-0.00000015,-0.00000251,0
 .00000119,-0.00000191,0.00000285,-0.00000049,0.00000277,0.00000005,0.0
 0000443,-0.00000030,-0.00000201,-0.00000568,-0.00000032,0.00000220,-0.
 00000003,-0.00000003,0.00000026,0.00000429,-0.00000018,-0.00000090,0.0
 0000039,0.00000096,0.00000014,0.00000184,-0.00000122,-0.00000128,-0.00
 000003,-0.00000053,0.00000188,-0.00000057,-0.04431292,-0.04844392,-0.0
 9774782,0.00394528,-0.00220002,0.01439168,-0.03692365,-0.04665051,-0.0
 5661817,0.07539972,0.09771419,0.12953605,-0.00010285,-0.00021230,-0.00
 034589,0.00003642,-0.00001080,-0.00000860,-0.00003700,0.00001878,-0.00
 000443,-0.00001071,-0.00001589,0.00000111,-0.00002197,0.00003583,0.000
 02016,0.00081605,-0.00066896,0.00000768,-0.01155100,0.00698376,-0.0002
 2818,-0.31138848,0.07330334,0.05449587,-0.00680820,0.00027812,0.003372
 01,0.00154839,0.00277012,0.00016918,-0.00000216,0.00000003,-0.00000161
 ,-0.00000476,0.00000083,-0.00000319,0.00002949,-0.00002780,0.00002311,
 0.00012200,-0.00061065,-0.00093713,0.00021171,-0.00070571,-0.00100381,
 -0.00034524,-0.00005050,0.00024836,-0.00007906,-0.00001230,0.00007672,
 0.00005499,-0.00100630,0.00392422,-0.00000435,0.00026518,-0.00031370,0
 .00003597,-0.00009400,-0.00013707,0.00010349,-0.00012288,0.00001202,-0
 .00007004,-0.00000152,0.00011607,-0.00022514,0.00026062,-0.00007130,-0
 .00006903,0.00024781,0.00029426,0.00002125,-0.00005655,-0.00025748,-0.
 00000402,-0.00005819,0.00014424,0.00015194,-0.00014179,-0.00027515,-0.
 00000884,0.00001016,0.00009387,-0.00005060,0.00003331,0.00004002,0.000
 01561,0.00002600,-0.00005160,0.00004041,0.00002656,-0.00002284,-0.0000
 5886,0.00001040,-0.00002562,-0.00007392,0.00009140,0.00008200,0.000229
 70,-0.00012219,0.00003444,0.00001529,-0.00000392,-0.00001149,-0.000004
 71,0.00000413,0.00000669,-0.00000143,-0.00001165,-0.00000448,0.0000065
 3,0.00000579,-0.00000163,0.00000734,-0.00000375,-0.00000874,-0.0000047
 8,0.00000155,0.00000330,0.00000388,0.00000515,-0.00000090,-0.00000375,
 -0.00000671,-0.00000751,-0.00005091,-0.00002592,0.00001598,0.00002440,
 -0.00001055,-0.00002966,0.00002083,0.00000266,-0.00000475,0.00000289,0
 .00000164,-0.00000187,-0.00004654,-0.00002437,-0.00000044,0.00000761,0
 .00000300,-0.00000936,-0.00004026,-0.00000027,-0.00002782,0.00003272,0
 .00000141,-0.00000023,0.00001053,-0.00000224,0.00000896,-0.00000621,-0
 .00000372,-0.00000792,0.00000254,0.00000307,-0.00000463,0.00000300,-0.
 00000819,0.00000140,0.00001945,0.00000130,0.00000300,0.00000350,-0.000
 00521,0.00000486,0.00000306,0.00000702,-0.00000495,-0.00000733,-0.0000
 0129,-0.00000456,-0.00003506,-0.00003633,-0.00002217,0.00003848,-0.000
 06910,0.00007962,-0.00003199,-0.00002079,0.00001175,0.00001347,0.00001
 488,-0.00001758,0.00000606,-0.00002424,-0.00001320,0.00001220,0.000006
 97,0.00000641,0.00000857,-0.00000127,0.00000405,-0.00000428,0.00000170
 ,-0.00001330,-0.00000912,-0.00000136,-0.00000222,-0.00000326,-0.000003
 68,0.00000362,0.00000230,-0.00000165,0.00000114,0.00000505,0.00000481,
 0.00000322,-0.00000742,-0.00000259,0.00000287,0.00000315,-0.00000396,0
 .00000039,-0.00000100,-0.00000151,0.00000503,-0.00000046,0.00000192,-0
 .00000104,-0.00000289,-0.00000448,0.00001389,-0.00000147,0.00000036,-0
 .00000516,-0.00000219,0.00000048,0.00000786,0.00000174,-0.00000120,-0.
 00000259,-0.00000154,-0.00000036,0.00000573,0.00000027,0.00000066,-0.0
 0000210,-0.00000308,-0.00000220,0.00000451,0.00000139,0.00000106,-0.00
 000182,-0.00008169,-0.00009938,0.00012441,-0.00022820,-0.00005537,0.00
 006270,0.00012869,0.00005236,0.00003869,-0.00000717,-0.00002497,0.0000
 0848,0.00001831,-0.00000739,0.00004172,0.00001946,0.00000477,-0.000025
 28,-0.00008098,0.00000191,-0.00012391,0.00000387,-0.00000461,0.0000199
 0,0.00001481,0.00001052,0.00002254,0.00017604,0.00006924,0.00001760,-0
 .00000883,0.00002981,-0.00003116,-0.00000409,-0.00000138,-0.00000416,0
 .00000494,-0.00000146,0.00001292,0.00000841,-0.00001412,0.00000468,0.0
 0002783,-0.00000341,0.00023938,-0.00001861,-0.00002261,-0.00005478,0.0
 0005876,0.00009738,0.00001760,0.00003592,-0.00000708,-0.00005375,0.000
 00207,0.00000455,0.00000505,-0.00003224,0.00000092,-0.00001332,-0.0000
 0279,0.00001158,-0.00002112,0.00000072,-0.00000005,0.00000796,0.000012
 68,-0.00000017,0.00001301,0.00000012,-0.00000690,0.00000608,0.00000056
 ,0.00000197,-0.00000017,-0.00000553,-0.00000212,0.00000085,-0.00000195
 ,0.00000308,-0.00000316,0.00010337,0.00000111,-0.00001174,-0.00003012,
 0.00001479,0.00000045,-0.00002832,0.00000053,0.00002338,-0.00003159,-0
 .00001311,-0.00000228,0.32745781,-0.00026204,-0.00026778,-0.00064741,0
 .00003330,-0.00000159,-0.00000624,0.00002820,0.00002270,-0.00003025,-0
 .00006028,0.00002781,-0.00002140,0.00006503,-0.00004863,0.00003003,-0.
 00017752,-0.00143446,0.00077312,-0.01753914,0.00815559,0.00155342,0.07
 377164,-0.06987579,-0.00334692,0.02423841,-0.00137761,-0.00645723,0.00
 246098,-0.00159147,0.00532850,0.00000459,-0.00000691,0.00000313,-0.000
 00204,-0.00000417,-0.00000562,-0.00001296,0.00007123,0.00003036,-0.000
 23549,-0.00068012,-0.00175380,-0.00118395,-0.00028619,-0.00198899,0.00
 121537,-0.00010822,-0.00028151,0.00003311,-0.00005791,0.00006906,-0.00
 206483,0.00093047,0.00608168,0.00002559,0.00039047,-0.00034071,0.00003
 654,-0.00000465,-0.00003287,0.00006332,-0.00002990,-0.00000687,-0.0000
 2287,0.00001614,0.00001687,-0.00015653,0.00011609,-0.00004441,-0.00003
 102,0.00001359,0.00009144,-0.00003707,-0.00009107,-0.00006735,0.000003
 89,-0.00001221,0.00003570,0.00006987,-0.00008460,-0.00012515,-0.000030
 09,-0.00000031,0.00003940,-0.00002268,-0.00000146,-0.00000196,0.000003
 34,0.00000971,0.00000064,0.00001163,0.00000869,-0.00000259,-0.00004827
 ,-0.00001063,-0.00001939,-0.00000008,0.00009820,0.00009948,0.00014403,
 -0.00002452,-0.00004586,0.00000411,0.00000018,-0.00000307,-0.00000235,
 0.00000161,0.00000448,-0.00000232,-0.00000317,-0.00000123,0.00000600,0
 .00000179,-0.00000094,0.00000351,-0.00000213,-0.00000137,-0.00000226,-
 0.00000059,0.00000026,0.00000338,0.00000255,-0.00000178,-0.00000286,-0
 .00000135,-0.00000163,-0.00003315,-0.00001372,0.00001443,0.00001258,0.
 00000168,-0.00002759,0.00001923,0.00000471,0.00000087,-0.00000318,-0.0
 0000620,0.00000028,-0.00001185,-0.00001815,-0.00000140,0.00000418,0.00
 000548,-0.00000021,-0.00001474,0.00000209,-0.00001419,0.00000845,-0.00
 000204,0.00000081,0.00001351,0.00000074,0.00000257,-0.00000868,-0.0000
 0684,-0.00000962,0.00000634,0.00000535,-0.00000604,-0.00000119,-0.0000
 0474,0.00000252,0.00002385,0.00000844,0.00000175,-0.00000153,-0.000000
 26,0.00000061,0.00000564,0.00000559,-0.00000913,-0.00000402,-0.0000021
 8,-0.00000087,-0.00013217,-0.00011020,-0.00003714,0.00015088,0.0001150
 8,-0.00000082,-0.00002803,-0.00001428,0.00000002,0.00002731,0.00003332
 ,-0.00002355,0.00001235,-0.00001560,-0.00001890,0.00000450,0.00001006,
 0.00001813,0.00000135,-0.00000125,0.00000193,0.00000075,0.00000430,-0.
 00002238,-0.00000512,0.00000140,-0.00000280,0.00000073,-0.00000160,0.0
 0000053,-0.00000016,-0.00000177,0.00000229,0.00000130,0.00000148,-0.00
 000041,-0.00000394,0.00000358,0.00000111,0.00000096,-0.00000168,0.0000
 0092,0.00000083,-0.00000111,0.00000096,-0.00000029,-0.00000115,-0.0000
 0098,0.00000132,-0.00000384,0.00000285,-0.00000120,0.00000022,0.000000
 14,0.00000014,0.00000133,0.00000062,0.,-0.00000002,0.00000111,0.000001
 28,-0.00000131,-0.00000014,-0.00000035,0.00000046,0.00000128,-0.000000
 76,0.00000068,-0.00000027,-0.00000046,-0.00000108,-0.00000067,-0.00008
 938,-0.00010617,0.00009951,0.00019167,0.00007934,-0.00005633,-0.000146
 87,-0.00007394,-0.00003675,0.00003497,0.00011191,0.00001251,0.00000029
 ,-0.00002925,-0.00000032,-0.00002761,-0.00003747,0.00003593,0.00010367
 ,0.00004328,-0.00003105,0.00000807,-0.00000504,0.00000977,-0.00001750,
 -0.00003795,-0.00000538,-0.00011742,-0.00004460,0.00004299,-0.00002350
 ,0.00001015,-0.00000047,-0.00000562,0.00000281,0.00000495,0.00000808,-
 0.00000907,-0.00000890,0.00001216,0.00000895,0.00000710,-0.00005534,-0
 .00002469,-0.00037306,0.00001799,0.00001278,0.00007331,0.00001746,-0.0
 0008496,0.00000006,-0.00004548,0.00005230,0.00007029,0.00001301,-0.000
 01982,-0.00001615,0.00004224,-0.00001255,0.00004536,-0.00001099,-0.000
 03214,-0.00012327,0.00000119,-0.00000119,0.00001541,-0.00002318,0.0000
 0722,0.00006932,-0.00002170,0.00001922,0.00003245,0.00001799,-0.000003
 18,0.00001805,0.00000675,0.00000152,-0.00000784,0.00000573,-0.00000968
 ,-0.00000439,-0.00005775,0.00002274,0.00005237,0.00001477,-0.00000942,
 -0.00000568,0.00001170,-0.00000048,-0.00002081,0.00003006,0.00000745,-
 0.00000647,-0.08027131,0.06630553,-0.00029576,-0.00066334,-0.00077474,
 0.00001261,-0.00003476,0.00001478,0.00000620,0.00002047,-0.00003544,-0
 .00003699,-0.00006696,0.00001280,0.00009570,0.00006154,-0.00000121,-0.
 00030013,0.00101649,-0.00099751,0.01712394,-0.00816299,0.00016979,0.05
 454486,-0.00302748,-0.05376002,-0.01375254,0.00279304,0.00599236,0.000
 44447,0.00520625,0.00334552,-0.00000215,0.00000054,0.00000010,0.000000
 39,-0.00000586,-0.00000848,0.00002615,-0.00000539,0.00006318,-0.001148
 62,-0.00166626,-0.00167385,-0.00066042,-0.00218799,-0.00189110,-0.0006
 8706,0.00022161,0.00025637,-0.00000236,0.00006135,0.00004105,0.0046695
 6,0.00569452,0.00253583,-0.00014929,-0.00051235,0.00009426,0.00001228,
 -0.00000077,-0.00002182,-0.00009468,0.00004277,-0.00003133,0.00001091,
 -0.00001115,-0.00007850,0.00020259,-0.00013739,0.00009284,-0.00005650,
 -0.00011804,0.00001734,0.00008598,0.00012180,0.00013837,-0.00001718,0.
 00000435,-0.00008124,-0.00002864,0.00000822,-0.00010214,-0.00000451,-0
 .00000496,0.00007748,-0.00002563,-0.00001025,-0.00000719,-0.00000232,-
 0.00001011,0.00002383,-0.00000707,-0.00000676,-0.00000066,0.00004715,0
 .00001412,0.00002375,0.00004220,-0.00002484,-0.00003971,-0.00023852,0.
 00008335,-0.00002634,0.00001110,0.00000444,-0.00000031,-0.00000061,0.0
 0000037,0.00000219,-0.00000185,-0.00000106,-0.00000052,0.00000288,0.00
 000243,-0.00000267,0.00000111,0.00000074,-0.00000061,-0.00000577,0.000
 00245,-0.00000092,0.00000269,0.00000289,-0.00000297,-0.00000163,-0.000
 00290,-0.00000042,-0.00002482,-0.00001976,0.00001076,0.00001296,-0.000
 00802,-0.00000012,0.00000203,0.00000216,-0.00000348,0.00000729,0.00001
 496,-0.00000573,-0.00006129,-0.00003055,-0.00000162,0.00000505,0.00000
 536,-0.00000566,0.00001082,0.00001634,0.00000629,0.00001191,-0.0000005
 0,-0.00000840,-0.00001122,-0.00000054,0.00000392,0.00000685,0.00000210
 ,-0.00000088,-0.00000393,-0.00000446,0.00000407,-0.00000169,0.00000635
 ,-0.00000242,-0.00001491,-0.00000417,-0.00000131,-0.00000151,0.0000058
 6,-0.00000439,-0.00000553,-0.00000583,0.00000384,0.00000728,-0.0000002
 0,-0.00000132,0.00009057,0.00007340,-0.00003927,-0.00005903,-0.0000140
 5,0.00002571,-0.00001069,-0.00001684,0.00000906,-0.00002043,-0.0000264
 5,0.00001765,0.00002747,0.00003004,-0.00000771,-0.00002800,-0.00000503
 ,-0.00000171,-0.00001008,-0.00001110,-0.00000129,-0.00000146,-0.000000
 92,0.00000075,0.00000406,-0.00000204,0.00000417,-0.00000062,0.00000064
 ,-0.00000193,0.00000053,0.00000098,0.00000009,-0.00000395,-0.00000143,
 -0.00000303,0.00000460,0.00000275,0.00000009,-0.00000028,0.00000283,-0
 .00000061,-0.00000153,0.00000048,-0.00000231,0.00000036,-0.00000306,-0
 .00000262,0.00000687,0.00000245,-0.00000500,-0.00000312,0.00000031,-0.
 00000023,-0.00000100,-0.00000200,-0.00000323,0.00000036,0.00000025,0.0
 0000139,-0.00000074,0.00000020,-0.00000422,0.00000007,0.00000027,0.000
 00122,0.00000175,0.00000093,-0.00000148,-0.00000170,-0.00000208,0.0000
 0026,0.00004596,0.00008467,-0.00008418,0.00038101,0.00002149,-0.000007
 28,-0.00025204,-0.00004396,-0.00012801,0.00005003,0.00004945,0.0000099
 2,-0.00001740,0.00005287,-0.00005067,-0.00004479,-0.00000693,0.0000575
 2,0.00005773,-0.00002022,-0.00001007,0.00000023,0.00001499,0.00003095,
 -0.00002652,-0.00000617,-0.00001628,-0.00012967,-0.00006121,0.00001467
 ,-0.00001092,-0.00001190,-0.00000208,0.00000009,0.00000483,0.00000780,
 0.00000543,-0.00000352,-0.00001073,0.00000418,0.00001795,0.00000072,-0
 .00008157,0.00004030,-0.00049341,0.00002883,0.00005152,0.00014876,0.00
 004603,-0.00022178,0.00008614,-0.00006135,-0.00003313,0.00006320,-0.00
 002488,0.00002857,-0.00003777,0.00005821,0.00002064,0.00005011,-0.0000
 2102,-0.00003311,-0.00002687,0.00000518,0.00001988,0.00001363,-0.00002
 092,-0.00002166,0.00003825,-0.00001036,0.00001631,0.00000238,0.0000079
 7,-0.00000200,0.00001063,0.00002498,0.00001408,-0.00000682,-0.00000656
 ,-0.00000655,0.00000105,-0.00000620,0.00002529,0.00005004,0.00000536,-
 0.00000812,-0.00000495,-0.00000459,-0.00000205,-0.00000512,0.00001427,
 -0.00000016,-0.00000690,-0.05977250,0.00130786,0.04696397\\0.00000131,
 0.00000056,-0.00000182,-0.00000741,0.00000233,0.00000498,0.00000452,-0
 .00000363,-0.00000053,-0.00000871,0.00000309,0.00000282,0.00000780,-0.
 00000455,-0.00000105,0.00000287,-0.00000563,0.00000080,-0.00000980,0.0
 0001006,-0.00000450,-0.00000778,0.00000510,-0.00000080,-0.00000282,-0.
 00000733,0.00000432,0.00000109,-0.00000224,0.00000063,0.00000076,0.000
 00151,-0.00000163,0.00000021,-0.00000162,-0.00000010,0.00000019,-0.000
 00025,-0.00000120,0.00000213,-0.00000635,0.00000264,0.00000047,0.00000
 015,-0.00000186,-0.00000191,0.00000082,-0.00000130,0.00000384,0.000000
 27,-0.00000354,0.00000134,0.00000350,-0.00000463,0.00000342,0.00000435
 ,0.00000837,0.00000456,-0.00000105,-0.00000103,0.00000147,0.00000508,-
 0.00000155,-0.00000771,0.00000469,-0.00000023,0.00000107,-0.00000647,-
 0.00000067,-0.00000299,0.00000420,-0.00000423,0.00001312,0.00000305,-0
 .00000566,-0.00000295,-0.00000046,0.00000170,-0.00000566,-0.00000292,-
 0.00000071,0.00000122,-0.00000325,-0.00000176,0.00000260,-0.00000249,0
 .00000852,0.00000297,-0.00000056,0.00000544,0.00000543,0.00000750,0.00
 000241,-0.00000340,-0.00000722,0.00000395,0.00000033,0.00000291,-0.000
 00102,-0.00000121,0.00000144,-0.00000099,0.00000048,0.00000355,-0.0000
 0338,-0.00000032,-0.00000070,0.00000128,-0.00000002,-0.00000250,0.0000
 0094,-0.00000120,-0.00000115,0.00000249,-0.00000385,0.00000336,-0.0000
 0402,0.00000133,-0.00000435,0.00000171,-0.00000050,-0.00000101,0.00000
 220,-0.00000033,-0.00000023,0.00000117,-0.00000190,0.00000497,0.000004
 41,0.00000182,0.00000034,-0.00000104,-0.00000254,-0.00000413,-0.000003
 74,-0.00000022,-0.00000311,0.00000222,-0.00000038,-0.00000035,0.000002
 06,-0.00000074,-0.00000268,0.00000037,-0.00000158,-0.00000245,0.000000
 46,-0.00000162,-0.00000011,0.00000182,0.00000515,0.00000438,0.00000304
 ,0.00000020,-0.00000032,-0.00000185,-0.00000287,-0.00000165,0.00000236
 ,-0.00000155,0.00000069,-0.00000014,0.00000340,0.00000405,-0.00000015,
 -0.00000021,0.00000048,0.00000175,-0.00000086,-0.00000038,-0.00000014,
 0.00000175,-0.00000287,0.00000011,0.00000193,-0.00000421,-0.00000155,0
 .00000130,0.00000200,0.00000036,-0.00000176,-0.00000023,0.00000005,-0.
 00000192,0.00000184,0.00000032,-0.00000107,0.00000448,0.00000292,0.000
 00113,0.00000078,-0.00000099,0.00000183,-0.00000327,-0.00000005,0.0000
 0074,-0.00000027,-0.00000123,-0.00000176,-0.00000202,-0.00000411,0.000
 00099,0.00000119,0.00000049,-0.00000147,0.00000103,0.00000299,0.000000
 60,-0.00000083,0.00000344,0.00000427,0.00000115,0.00000584,-0.00000069
 ,0.00000293,0.00000037,0.00000046,0.00000164,-0.00000011,-0.00000152,-
 0.00000279,-0.00000197,0.00000259,-0.00000039,-0.00000127,0.00000043,0
 .00000093,0.00000041,0.00000065,0.00000042,-0.00000014,-0.00000060,0.0
 0000093,0.00000009,-0.00000333,0.00000328,-0.00000769,0.00000283,-0.00
 000514,0.00000467,0.00000088,-0.00000029,0.00000337,0.00000155,0.00000
 076,0.00000320,-0.00000277,-0.00000281,0.00000049,-0.00000603,0.000004
 69,-0.00000645,0.00000549,-0.00000319,0.00000391,-0.00000176,0.0000007
 6,0.00000079,-0.00000005,-0.00000189,-0.00000088,0.00000081,0.00000015
 ,0.00000008,-0.00000642,-0.00000107,-0.00000737,0.00000314,-0.00000553
 ,0.00000354,0.00000014,-0.00000153,0.00000305,-0.00000197,0.00000468,-
 0.00000305,0.00000424,0.00000329,0.00000576,-0.00000011,-0.00000070,0.
 00000042,-0.00000175,-0.00000164,-0.00000363,0.00000177,-0.00000135,-0
 .00000118,-0.00000150,0.00000134,-0.00000847,-0.00000040,0.00000054,-0
 .00000095,0.00000057,0.00000054,0.00000470,0.00000284,-0.00000480,0.00
 000073,-0.00000112,0.00000263,-0.00000112,0.,0.00000118,-0.00000202,0.
 00000440,-0.00000384,-0.00000661,-0.00000076,0.00000394,-0.00000107,-0
 .00000122,0.00000053,-0.00000035,-0.00000222,0.00000161,0.00000291,0.0
 0000070,-0.00000020,-0.00000295,-0.00000048,-0.00000033,-0.00000312,-0
 .00000051,0.00000098,-0.00000222,-0.00000059,-0.00000417,0.00000494,0.
 00000045,0.00000635,-0.00000047,0.00000175,0.00000541,-0.00000354,-0.0
 0000173,-0.00000639,-0.00000313,0.00000325,-0.00000153,-0.00000185\\\@
 The archive entry for this job was punched.


 BLACK HOLES SUCK.
 Job cpu time:       2 days  1 hours  4 minutes 20.6 seconds.
 Elapsed time:       0 days  3 hours  7 minutes 29.7 seconds.
 File lengths (MBytes):  RWF=  10098 Int=      0 D2E=      0 Chk=     55 Scr=      1
 Normal termination of Gaussian 16 at Sat Dec  7 21:56:33 2024.
