/mnt/lustre/scratch/nvme/SLURM/9663597/usccqdma.7uqdOTmI3G
OMP_STACKSIZE=0m
GAUSS_PDEF=16
GAUSS_MDEF=65536MB
GAUSS_RDEF=SCF=Direct
 Entering Gaussian System, Link 0=g16.exe
 Initial command:
 /opt/cesga/2020/software/Core/g16/c1/l1.exe "/mnt/lustre/scratch/nvme/SLURM/9663597/usccqdma.7uqdOTmI3G/Gau-2853886.inp" -scrdir="/mnt/lustre/scratch/nvme/SLURM/9663597/usccqdma.7uqdOTmI3G/"
 Default is to use a total of  16 processors:
                               16 via shared-memory
                                1 via Linda
 Entering Link 1 = /opt/cesga/2020/software/Core/g16/c1/l1.exe PID=   2853912.
  
 Copyright (c) 1988-2019, Gaussian, Inc.  All Rights Reserved.
  
 This is part of the Gaussian(R) 16 program.  It is based on
 the Gaussian(R) 09 system (copyright 2009, Gaussian, Inc.),
 the Gaussian(R) 03 system (copyright 2003, Gaussian, Inc.),
 the Gaussian(R) 98 system (copyright 1998, Gaussian, Inc.),
 the Gaussian(R) 94 system (copyright 1995, Gaussian, Inc.),
 the Gaussian 92(TM) system (copyright 1992, Gaussian, Inc.),
 the Gaussian 90(TM) system (copyright 1990, Gaussian, Inc.),
 the Gaussian 88(TM) system (copyright 1988, Gaussian, Inc.),
 the Gaussian 86(TM) system (copyright 1986, Carnegie Mellon
 University), and the Gaussian 82(TM) system (copyright 1983,
 Carnegie Mellon University). Gaussian is a federally registered
 trademark of Gaussian, Inc.
  
 This software contains proprietary and confidential information,
 including trade secrets, belonging to Gaussian, Inc.
  
 This software is provided under written license and may be
 used, copied, transmitted, or stored only in accord with that
 written license.
  
 The following legend is applicable only to US Government
 contracts under FAR:
  
                    RESTRICTED RIGHTS LEGEND
  
 Use, reproduction and disclosure by the US Government is
 subject to restrictions as set forth in subparagraphs (a)
 and (c) of the Commercial Computer Software - Restricted
 Rights clause in FAR 52.227-19.
  
 Gaussian, Inc.
 340 Quinnipiac St., Bldg. 40, Wallingford CT 06492
  
  
 ---------------------------------------------------------------
 Warning -- This program may not be used in any manner that
 competes with the business of Gaussian, Inc. or will provide
 assistance to any competitor of Gaussian, Inc.  The licensee
 of this program is prohibited from giving any competitor of
 Gaussian, Inc. access to this program.  By using this program,
 the user acknowledges that Gaussian, Inc. is engaged in the
 business of creating and licensing software in the field of
 computational chemistry and represents and warrants to the
 licensee that it is not a competitor of Gaussian, Inc. and that
 it will not use this program in any manner prohibited above.
 ---------------------------------------------------------------
  

 Cite this work as:
 Gaussian 16, Revision C.01,
 M. J. Frisch, G. W. Trucks, H. B. Schlegel, G. E. Scuseria, 
 M. A. Robb, J. R. Cheeseman, G. Scalmani, V. Barone, 
 G. A. Petersson, H. Nakatsuji, X. Li, M. Caricato, A. V. Marenich, 
 J. Bloino, B. G. Janesko, R. Gomperts, B. Mennucci, H. P. Hratchian, 
 J. V. Ortiz, A. F. Izmaylov, J. L. Sonnenberg, D. Williams-Young, 
 F. Ding, F. Lipparini, F. Egidi, J. Goings, B. Peng, A. Petrone, 
 T. Henderson, D. Ranasinghe, V. G. Zakrzewski, J. Gao, N. Rega, 
 G. Zheng, W. Liang, M. Hada, M. Ehara, K. Toyota, R. Fukuda, 
 J. Hasegawa, M. Ishida, T. Nakajima, Y. Honda, O. Kitao, H. Nakai, 
 T. Vreven, K. Throssell, J. A. Montgomery, Jr., J. E. Peralta, 
 F. Ogliaro, M. J. Bearpark, J. J. Heyd, E. N. Brothers, K. N. Kudin, 
 V. N. Staroverov, T. A. Keith, R. Kobayashi, J. Normand, 
 K. Raghavachari, A. P. Rendell, J. C. Burant, S. S. Iyengar, 
 J. Tomasi, M. Cossi, J. M. Millam, M. Klene, C. Adamo, R. Cammi, 
 J. W. Ochterski, R. L. Martin, K. Morokuma, O. Farkas, 
 J. B. Foresman, and D. J. Fox, Gaussian, Inc., Wallingford CT, 2019.
 
 ******************************************
 Gaussian 16:  ES64L-G16RevC.01  3-Jul-2019
                 7-Dec-2024 
 ******************************************
 Default route: SCF=Direct
 ----------------------------------------------------
 # m06/genecp scf=tight int=ultrafine 5d freq=noraman
 ----------------------------------------------------
 1/10=4,30=1,38=1/1,3;
 2/12=2,17=6,18=5,40=1/2;
 3/5=7,8=1,11=2,16=1,17=8,25=1,30=1,71=2,74=-54,75=-5,140=1/1,2,3;
 4//1;
 5/5=2,32=2,38=5,98=1/2;
 8/6=4,10=90,11=11/1;
 11/6=1,8=1,9=11,15=111,16=1/1,2,10;
 10/6=1/2;
 6/7=2,8=2,9=2,10=2,28=1/1;
 7/8=1,10=1,25=1/1,2,3,16;
 1/10=4,30=1/3;
 99//99;
 ------
 OPT-TS
 ------
 Symbolic Z-matrix:
 Charge =  0 Multiplicity = 1
 C                     2.09724   2.59275  -0.99362 
 C                    -0.12598   3.22513  -0.79148 
 C                     0.23056   4.55693  -0.64157 
 C                     1.57841   4.90537  -0.65255 
 C                     2.52237   3.91173  -0.84386 
 C                     3.07175   1.49742  -1.17149 
 C                     3.56331  -0.79342  -1.68376 
 C                     4.77703  -0.61324  -1.03675 
 C                     5.11452   0.66728  -0.59218 
 H                    -1.16949   2.90768  -0.80117 
 H                     1.87685   5.94464  -0.52913 
 H                     3.58773   4.12198  -0.87109 
 H                     3.2786   -1.76338  -2.08544 
 H                     6.09879   0.85208  -0.15767 
 N                     0.79143   2.25926  -0.9369 
 Ir                    0.11543   0.11593  -0.85449 
 O                     0.72568  -0.97657   2.04049 
 O                     0.88367  -2.80563  -0.45826 
 B                     1.10919  -0.1718    0.97557 
 B                    -0.16814  -1.90376  -0.55126 
 O                    -1.38464  -2.56091  -0.53625 
 C                     0.32423  -4.13074  -0.54576 
 C                    -1.14222  -3.89847  -0.08276 
 C                     1.83402  -1.05491   2.95564 
 C                     2.59796   0.26401   2.65598 
 O                     2.30505   0.46316   1.26226 
 C                     1.29674  -1.18067   4.36602 
 H                     2.11672  -1.19966   5.09825 
 H                     0.62152  -0.35493   4.62096 
 H                     0.73246  -2.11863   4.46221 
 C                     2.62711  -2.29992   2.5833 
 H                     2.98772  -2.24952   1.54683 
 H                     3.48348  -2.45861   3.25231 
 H                     1.96538  -3.1725    2.66229 
 C                     2.03471   1.47061   3.39364 
 H                     2.25419   1.43727   4.46943 
 H                     2.4916    2.37756   2.97632 
 H                     0.94881   1.54926   3.24618 
 C                     4.10063   0.19126   2.83852 
 H                     4.55673  -0.5563    2.17823 
 H                     4.54671   1.16738   2.6053 
 H                     4.35605  -0.05778   3.87875 
 C                    -2.17135  -4.81607  -0.71042 
 H                    -2.17922  -4.73191  -1.80379 
 H                    -1.98474  -5.86532  -0.43995 
 H                    -3.1714   -4.54245  -0.34664 
 C                    -1.30872  -3.87763   1.43156 
 H                    -1.20412  -4.87668   1.87625 
 H                    -0.59133  -3.18716   1.89948 
 H                    -2.31644  -3.49938   1.65326 
 C                     1.12792  -5.07293   0.32482 
 H                     0.69808  -6.08474   0.30087 
 H                     2.16046  -5.13239  -0.04366 
 H                     1.16091  -4.73446   1.36573 
 C                     0.42716  -4.55636  -2.00466 
 H                    -0.15173  -3.88472  -2.654 
 H                     1.47865  -4.50464  -2.31574 
 H                     0.07412  -5.58427  -2.16155 
 H                    -0.6342   -0.81842  -1.95163 
 C                    -3.27176   0.63209  -2.21326 
 O                    -3.01456   1.63729  -1.55103 
 C                    -4.6152   -0.05578  -2.0882 
 H                    -5.25674   0.66537  -1.56402 
 H                    -5.08121  -0.23971  -3.06839 
 C                    -0.96621   0.54244  -2.89188 
 H                    -0.40417   0.26454  -3.79283 
 H                    -0.96989   1.63133  -2.79709 
 N                    -2.33117   0.08415  -3.04145 
 C                    -2.48106  -1.19231  -3.70313 
 H                    -2.07866  -2.01503  -3.08387 
 H                    -3.53008  -1.40443  -3.92205 
 H                    -1.9366   -1.17077  -4.65623 
 C                    -4.51944  -1.35009  -1.26825 
 H                    -4.17434  -2.18792  -1.89536 
 H                    -3.74594  -1.23139  -0.49384 
 C                    -5.83349  -1.73272  -0.60831 
 H                    -6.1752   -0.90021   0.03187 
 H                    -6.62567  -1.8734   -1.36479 
 C                    -5.70172  -2.99038   0.23828 
 H                    -5.44898  -3.8431   -0.41424 
 H                    -4.838    -2.86961   0.91837 
 C                    -6.95603  -3.29833   1.03772 
 H                    -7.18778  -2.47767   1.73195 
 H                    -7.82551  -3.42144   0.37671 
 H                    -6.85438  -4.21661   1.6294 
 C                     2.70421   0.29281  -1.78295 
 N                     4.28724   1.70007  -0.65365 
 H                     1.79646   0.22014  -2.39792 
 C                    -2.30218   1.71787   2.19493 
 C                    -2.92956   0.28606   2.14331 
 C                    -2.49011  -0.61993   3.28454 
 H                    -1.39506  -0.67627   3.33887 
 H                    -2.89083  -0.29033   4.25266 
 H                    -2.86352  -1.63377   3.08604 
 C                    -4.44116   0.27838   2.02887 
 H                    -4.80817  -0.75765   2.00154 
 H                    -4.9003    0.77509   2.89585 
 H                    -4.77545   0.78491   1.11506 
 C                    -1.92785   2.19032   3.58651 
 H                    -1.44592   3.17463   3.52085 
 H                    -2.82277   2.29206   4.21723 
 H                    -1.23132   1.50273   4.08154 
 C                    -3.13675   2.78611   1.50177 
 H                    -4.05411   3.01125   2.06247 
 H                    -2.54512   3.71046   1.44596 
 H                    -3.40336   2.49041   0.47881 
 B                    -1.24793   0.44109   0.60828 
 O                    -2.36994  -0.27558   0.94353 
 O                    -1.09595   1.55652   1.42605 
 C                     5.70153  -1.7586   -0.77906 
 C                    -0.82181   5.59001  -0.38345 
 F                     5.55287  -2.22689   0.47072 
 F                     5.4781   -2.77877  -1.61101 
 F                     6.98302  -1.39799  -0.90693 
 F                    -0.97076   5.80098   0.93246 
 F                    -2.00855   5.22633  -0.86542 
 F                    -0.4918    6.76577  -0.93092 
 

 GradGradGradGradGradGradGradGradGradGradGradGradGradGradGradGradGradGrad
 Berny optimization.
 Initialization pass.
 Trust Radius=3.00D-01 FncErr=1.00D-07 GrdErr=1.00D-07 EigMax=2.50D+02 EigMin=1.00D-04
 Number of steps in this run=      2 maximum allowed number of steps=      2.
 GradGradGradGradGradGradGradGradGradGradGradGradGradGradGradGradGradGrad

 Stoichiometry    C38H59B3F6IrN3O7
 Framework group  C1[X(C38H59B3F6IrN3O7)]
 Deg. of freedom   345
 Full point group                 C1      NOp   1
 Largest Abelian subgroup         C1      NOp   1
 Largest concise Abelian subgroup C1      NOp   1
                         Standard orientation:                         
 ---------------------------------------------------------------------
 Center     Atomic      Atomic             Coordinates (Angstroms)
 Number     Number       Type             X           Y           Z
 ---------------------------------------------------------------------
      1          6           0        2.097244    2.592748   -0.993619
      2          6           0       -0.125976    3.225131   -0.791479
      3          6           0        0.230566    4.556930   -0.641569
      4          6           0        1.578416    4.905368   -0.652549
      5          6           0        2.522375    3.911727   -0.843859
      6          6           0        3.071752    1.497417   -1.171489
      7          6           0        3.563310   -0.793424   -1.683759
      8          6           0        4.777030   -0.613245   -1.036749
      9          6           0        5.114521    0.667274   -0.592179
     10          1           0       -1.169486    2.907682   -0.801169
     11          1           0        1.876858    5.944638   -0.529129
     12          1           0        3.587736    4.121976   -0.871089
     13          1           0        3.278598   -1.763384   -2.085439
     14          1           0        6.098792    0.852073   -0.157669
     15          7           0        0.791433    2.259259   -0.936899
     16         77           0        0.115431    0.115930   -0.854489
     17          8           0        0.725679   -0.976571    2.040491
     18          8           0        0.883667   -2.805631   -0.458259
     19          5           0        1.109190   -0.171801    0.975571
     20          5           0       -0.168142   -1.903759   -0.551259
     21          8           0       -1.384643   -2.560908   -0.536249
     22          6           0        0.324225   -4.130740   -0.545759
     23          6           0       -1.142224   -3.898468   -0.082759
     24          6           0        1.834019   -1.054912    2.955641
     25          6           0        2.597961    0.264007    2.655981
     26          8           0        2.305051    0.463158    1.262261
     27          6           0        1.296739   -1.180671    4.366021
     28          1           0        2.116719   -1.199662    5.098251
     29          1           0        0.621520   -0.354930    4.620961
     30          1           0        0.732458   -2.118631    4.462211
     31          6           0        2.627108   -2.299923    2.583301
     32          1           0        2.987718   -2.249523    1.546831
     33          1           0        3.483478   -2.458614    3.252311
     34          1           0        1.965377   -3.172502    2.662291
     35          6           0        2.034712    1.470608    3.393641
     36          1           0        2.254192    1.437268    4.469431
     37          1           0        2.491603    2.377557    2.976321
     38          1           0        0.948812    1.549259    3.246181
     39          6           0        4.100631    0.191255    2.838521
     40          1           0        4.556730   -0.556305    2.178231
     41          1           0        4.546712    1.167375    2.605301
     42          1           0        4.356050   -0.057785    3.878751
     43          6           0       -2.171355   -4.816067   -0.710419
     44          1           0       -2.179225   -4.731907   -1.803789
     45          1           0       -1.984747   -5.865317   -0.439949
     46          1           0       -3.171405   -4.542446   -0.346639
     47          6           0       -1.308724   -3.877628    1.431561
     48          1           0       -1.204125   -4.876678    1.876251
     49          1           0       -0.591333   -3.187159    1.899481
     50          1           0       -2.316444   -3.499377    1.653261
     51          6           0        1.127914   -5.072931    0.324821
     52          1           0        0.698073   -6.084740    0.300871
     53          1           0        2.160454   -5.132392   -0.043659
     54          1           0        1.160905   -4.734461    1.365731
     55          6           0        0.427155   -4.556360   -2.004659
     56          1           0       -0.151734   -3.884719   -2.653999
     57          1           0        1.478645   -4.504641   -2.315739
     58          1           0        0.074114   -5.584270   -2.161549
     59          1           0       -0.634200   -0.818419   -1.951629
     60          6           0       -3.271759    0.632094   -2.213259
     61          8           0       -3.014558    1.637294   -1.551029
     62          6           0       -4.615200   -0.055774   -2.088199
     63          1           0       -5.256739    0.665377   -1.564019
     64          1           0       -5.081210   -0.239703   -3.068389
     65          6           0       -0.966209    0.542442   -2.891879
     66          1           0       -0.404169    0.264541   -3.792829
     67          1           0       -0.969888    1.631332   -2.797089
     68          7           0       -2.331169    0.084153   -3.041449
     69          6           0       -2.481061   -1.192307   -3.703129
     70          1           0       -2.078662   -2.015027   -3.083869
     71          1           0       -3.530081   -1.404425   -3.922049
     72          1           0       -1.936601   -1.170767   -4.656229
     73          6           0       -4.519441   -1.350084   -1.268249
     74          1           0       -4.174342   -2.187915   -1.895359
     75          1           0       -3.745941   -1.231385   -0.493839
     76          6           0       -5.833492   -1.732713   -0.608309
     77          1           0       -6.175201   -0.900202    0.031871
     78          1           0       -6.625672   -1.873392   -1.364789
     79          6           0       -5.701723   -2.990373    0.238281
     80          1           0       -5.448984   -3.843093   -0.414239
     81          1           0       -4.838003   -2.869604    0.918371
     82          6           0       -6.956033   -3.298321    1.037721
     83          1           0       -7.187782   -2.477661    1.731951
     84          1           0       -7.825514   -3.421430    0.376711
     85          1           0       -6.854385   -4.216601    1.629401
     86          6           0        2.704211    0.292807   -1.782949
     87          7           0        4.287243    1.700065   -0.653649
     88          1           0        1.796461    0.220138   -2.397919
     89          6           0       -2.302177    1.717873    2.194931
     90          6           0       -2.929559    0.286064    2.143311
     91          6           0       -2.490110   -0.619927    3.284541
     92          1           0       -1.395060   -0.676268    3.338871
     93          1           0       -2.890830   -0.290326    4.252661
     94          1           0       -2.863521   -1.633766    3.086041
     95          6           0       -4.441159    0.278386    2.028871
     96          1           0       -4.808170   -0.757644    2.001541
     97          1           0       -4.900299    0.775096    2.895851
     98          1           0       -4.775449    0.784916    1.115061
     99          6           0       -1.927847    2.190323    3.586511
    100          1           0       -1.445916    3.174632    3.520851
    101          1           0       -2.822767    2.292064    4.217231
    102          1           0       -1.231318    1.502732    4.081541
    103          6           0       -3.136746    2.786114    1.501771
    104          1           0       -4.054106    3.011255    2.062471
    105          1           0       -2.545115    3.710463    1.445961
    106          1           0       -3.403356    2.490414    0.478811
    107          5           0       -1.247929    0.441092    0.608281
    108          8           0       -2.369940   -0.275577    0.943531
    109          8           0       -1.095948    1.556522    1.426051
    110          6           0        5.701528   -1.758607   -0.779059
    111          6           0       -0.821803    5.590011   -0.383449
    112          9           0        5.552868   -2.226896    0.470721
    113          9           0        5.478097   -2.778776   -1.611009
    114          9           0        6.983019   -1.397998   -0.906929
    115          9           0       -0.970752    5.800982    0.932461
    116          9           0       -2.008543    5.226333   -0.865419
    117          9           0       -0.491791    6.765771   -0.930919
 ---------------------------------------------------------------------
 Rotational constants (GHZ):           0.0528223           0.0443515           0.0331643
 General basis read from cards:  (5D, 7F)
 ======================================================================================================
                                       Pseudopotential Parameters
 ======================================================================================================
  Center     Atomic      Valence      Angular      Power
  Number     Number     Electrons     Momentum     of R      Exponent        Coefficient   SO-Coeffient
 ======================================================================================================
    1          6
                                   No pseudopotential on this center.
    2          6
                                   No pseudopotential on this center.
    3          6
                                   No pseudopotential on this center.
    4          6
                                   No pseudopotential on this center.
    5          6
                                   No pseudopotential on this center.
    6          6
                                   No pseudopotential on this center.
    7          6
                                   No pseudopotential on this center.
    8          6
                                   No pseudopotential on this center.
    9          6
                                   No pseudopotential on this center.
   10          1
                                   No pseudopotential on this center.
   11          1
                                   No pseudopotential on this center.
   12          1
                                   No pseudopotential on this center.
   13          1
                                   No pseudopotential on this center.
   14          1
                                   No pseudopotential on this center.
   15          7
                                   No pseudopotential on this center.
   16         77           17
                                      G and up 
                                                     1      823.5880147       -0.15780140    0.00000000
                                                     2      364.6613336    -1517.52704460    0.00000000
                                                     2       55.7082801     -316.53065290    0.00000000
                                                     2       12.0464544      -91.88809410    0.00000000
                                                     2        3.5120610       -9.22417730    0.00000000
                                      S - G
                                                     0      188.0490770        3.15780140    0.00000000
                                                     1      340.4194712       26.83225770    0.00000000
                                                     2      128.2373673      800.42500070    0.00000000
                                                     2       33.8644961      369.40506830    0.00000000
                                                     2        4.7560005      242.41718990    0.00000000
                                                     2        3.9649974     -118.21732820    0.00000000
                                      P - G
                                                     0      289.7291139        2.15780140    0.00000000
                                                     1       87.4633789       61.96786100    0.00000000
                                                     2       30.4363766      269.05819860    0.00000000
                                                     2        4.0553412      231.16547930    0.00000000
                                                     2        3.5525341     -133.69526670    0.00000000
                                      D - G
                                                     0      136.4017106        3.15780140    0.00000000
                                                     1       95.0776925       45.93498030    0.00000000
                                                     2       49.2258410      359.03446680    0.00000000
                                                     2       15.0874145      176.47401190    0.00000000
                                                     2        4.0405764       54.51552860    0.00000000
                                      F - G
                                                     0      127.3507908        3.95461970    0.00000000
                                                     1       66.2364374       52.97736550    0.00000000
                                                     2       34.4299229      274.86433830    0.00000000
                                                     2       10.1995721      137.20473380    0.00000000
                                                     2        2.5409702       14.86333050    0.00000000
   17          8
                                   No pseudopotential on this center.
   18          8
                                   No pseudopotential on this center.
   19          5
                                   No pseudopotential on this center.
   20          5
                                   No pseudopotential on this center.
   21          8
                                   No pseudopotential on this center.
   22          6
                                   No pseudopotential on this center.
   23          6
                                   No pseudopotential on this center.
   24          6
                                   No pseudopotential on this center.
   25          6
                                   No pseudopotential on this center.
   26          8
                                   No pseudopotential on this center.
   27          6
                                   No pseudopotential on this center.
   28          1
                                   No pseudopotential on this center.
   29          1
                                   No pseudopotential on this center.
   30          1
                                   No pseudopotential on this center.
   31          6
                                   No pseudopotential on this center.
   32          1
                                   No pseudopotential on this center.
   33          1
                                   No pseudopotential on this center.
   34          1
                                   No pseudopotential on this center.
   35          6
                                   No pseudopotential on this center.
   36          1
                                   No pseudopotential on this center.
   37          1
                                   No pseudopotential on this center.
   38          1
                                   No pseudopotential on this center.
   39          6
                                   No pseudopotential on this center.
   40          1
                                   No pseudopotential on this center.
   41          1
                                   No pseudopotential on this center.
   42          1
                                   No pseudopotential on this center.
   43          6
                                   No pseudopotential on this center.
   44          1
                                   No pseudopotential on this center.
   45          1
                                   No pseudopotential on this center.
   46          1
                                   No pseudopotential on this center.
   47          6
                                   No pseudopotential on this center.
   48          1
                                   No pseudopotential on this center.
   49          1
                                   No pseudopotential on this center.
   50          1
                                   No pseudopotential on this center.
   51          6
                                   No pseudopotential on this center.
   52          1
                                   No pseudopotential on this center.
   53          1
                                   No pseudopotential on this center.
   54          1
                                   No pseudopotential on this center.
   55          6
                                   No pseudopotential on this center.
   56          1
                                   No pseudopotential on this center.
   57          1
                                   No pseudopotential on this center.
   58          1
                                   No pseudopotential on this center.
   59          1
                                   No pseudopotential on this center.
   60          6
                                   No pseudopotential on this center.
   61          8
                                   No pseudopotential on this center.
   62          6
                                   No pseudopotential on this center.
   63          1
                                   No pseudopotential on this center.
   64          1
                                   No pseudopotential on this center.
   65          6
                                   No pseudopotential on this center.
   66          1
                                   No pseudopotential on this center.
   67          1
                                   No pseudopotential on this center.
   68          7
                                   No pseudopotential on this center.
   69          6
                                   No pseudopotential on this center.
   70          1
                                   No pseudopotential on this center.
   71          1
                                   No pseudopotential on this center.
   72          1
                                   No pseudopotential on this center.
   73          6
                                   No pseudopotential on this center.
   74          1
                                   No pseudopotential on this center.
   75          1
                                   No pseudopotential on this center.
   76          6
                                   No pseudopotential on this center.
   77          1
                                   No pseudopotential on this center.
   78          1
                                   No pseudopotential on this center.
   79          6
                                   No pseudopotential on this center.
   80          1
                                   No pseudopotential on this center.
   81          1
                                   No pseudopotential on this center.
   82          6
                                   No pseudopotential on this center.
   83          1
                                   No pseudopotential on this center.
   84          1
                                   No pseudopotential on this center.
   85          1
                                   No pseudopotential on this center.
   86          6
                                   No pseudopotential on this center.
   87          7
                                   No pseudopotential on this center.
   88          1
                                   No pseudopotential on this center.
   89          6
                                   No pseudopotential on this center.
   90          6
                                   No pseudopotential on this center.
   91          6
                                   No pseudopotential on this center.
   92          1
                                   No pseudopotential on this center.
   93          1
                                   No pseudopotential on this center.
   94          1
                                   No pseudopotential on this center.
   95          6
                                   No pseudopotential on this center.
   96          1
                                   No pseudopotential on this center.
   97          1
                                   No pseudopotential on this center.
   98          1
                                   No pseudopotential on this center.
   99          6
                                   No pseudopotential on this center.
  100          1
                                   No pseudopotential on this center.
  101          1
                                   No pseudopotential on this center.
  102          1
                                   No pseudopotential on this center.
  103          6
                                   No pseudopotential on this center.
  104          1
                                   No pseudopotential on this center.
  105          1
                                   No pseudopotential on this center.
  106          1
                                   No pseudopotential on this center.
  107          5
                                   No pseudopotential on this center.
  108          8
                                   No pseudopotential on this center.
  109          8
                                   No pseudopotential on this center.
  110          6
                                   No pseudopotential on this center.
  111          6
                                   No pseudopotential on this center.
  112          9
                                   No pseudopotential on this center.
  113          9
                                   No pseudopotential on this center.
  114          9
                                   No pseudopotential on this center.
  115          9
                                   No pseudopotential on this center.
  116          9
                                   No pseudopotential on this center.
  117          9
                                   No pseudopotential on this center.
 ======================================================================================================
 There are   997 symmetry adapted cartesian basis functions of A   symmetry.
 There are   938 symmetry adapted basis functions of A   symmetry.
   938 basis functions,  1875 primitive gaussians,   997 cartesian basis functions
   225 alpha electrons      225 beta electrons
       nuclear repulsion energy     10666.2346816472 Hartrees.
 NAtoms=  117 NActive=  117 NUniq=  117 SFac= 1.00D+00 NAtFMM=   60 NAOKFM=T Big=T
 Integral buffers will be    131072 words long.
 Raffenetti 2 integral format.
 Two-electron integral symmetry is turned on.
 One-electron integrals computed using PRISM.
   1 Symmetry operations used in ECPInt.
 ECPInt:  NShTT=   62835 NPrTT=  387974 LenC2=   47047 LenP2D=  144373.
 LDataN:  DoStor=T MaxTD1= 6 Len=  172
 NBasis=   938 RedAO= T EigKep=  5.12D-04  NBF=   938
 NBsUse=   938 1.00D-06 EigRej= -1.00D+00 NBFU=   938
 Defaulting to unpruned grid for atomic number  77.
 ExpMin= 2.90D-02 ExpMax= 7.00D+03 ExpMxC= 1.05D+03 IAcc=3 IRadAn=         5 AccDes= 0.00D+00
 Harris functional with IExCor= 1009 and IRadAn=       5 diagonalized for initial guess.
 HarFok:  IExCor= 1009 AccDes= 0.00D+00 IRadAn=         5 IDoV= 1 UseB2=F ITyADJ=14
 ICtDFT=  3500011 ScaDFX=  1.000000  1.000000  1.000000  1.000000
 Defaulting to unpruned grid for atomic number  77.
 FoFCou: FMM=F IPFlag=           0 FMFlag=      100000 FMFlg1=        2001
         NFxFlg=           0 DoJE=T BraDBF=F KetDBF=T FulRan=T
         wScrn=  0.000000 ICntrl=       500 IOpCl=  0 I1Cent=   200000004 NGrid=           0
         NMat0=    1 NMatS0=      1 NMatT0=    0 NMatD0=    1 NMtDS0=    0 NMtDT0=    0
 Petite list used in FoFCou.
 Requested convergence on RMS density matrix=1.00D-08 within 128 cycles.
 Requested convergence on MAX density matrix=1.00D-06.
 Requested convergence on             energy=1.00D-06.
 No special actions if energy rises.
 Defaulting to unpruned grid for atomic number  77.
 Defaulting to unpruned grid for atomic number  77.
 Defaulting to unpruned grid for atomic number  77.
 Defaulting to unpruned grid for atomic number  77.
 Defaulting to unpruned grid for atomic number  77.
 Defaulting to unpruned grid for atomic number  77.
 Defaulting to unpruned grid for atomic number  77.
 Defaulting to unpruned grid for atomic number  77.
 Defaulting to unpruned grid for atomic number  77.
 Defaulting to unpruned grid for atomic number  77.
 Defaulting to unpruned grid for atomic number  77.
 Defaulting to unpruned grid for atomic number  77.
 Defaulting to unpruned grid for atomic number  77.
 Defaulting to unpruned grid for atomic number  77.
 Defaulting to unpruned grid for atomic number  77.
 Defaulting to unpruned grid for atomic number  77.
 SCF Done:  E(RM06) =  -2951.35910299     A.U. after   14 cycles
            NFock= 14  Conv=0.56D-08     -V/T= 2.0310
 DoSCS=F DFT=T ScalE2(SS,OS)=  1.000000  1.000000
 Range of M.O.s used for correlation:     1   938
 NBasis=   938 NAE=   225 NBE=   225 NFC=     0 NFV=     0
 NROrb=    938 NOA=   225 NOB=   225 NVA=   713 NVB=   713

 **** Warning!!: The largest alpha MO coefficient is  0.11756632D+02

   1 Symmetry operations used in ECPInt.
 ECPInt:  NShTT=   62835 NPrTT=  387974 LenC2=   47047 LenP2D=  144373.
 LDataN:  DoStor=T MaxTD1= 7 Len=  274
 Number of processors reduced to   6 by ecpmxn.
 Symmetrizing basis deriv contribution to polar:
 IMax=3 JMax=2 DiffMx= 0.00D+00
 G2DrvN: will do   118 centers at a time, making    1 passes.
 Calling FoFCou, ICntrl=  3107 FMM=T I1Cent=   0 AccDes= 0.00D+00.
 Defaulting to unpruned grid for atomic number  77.
 Defaulting to unpruned grid for atomic number  77.
 Defaulting to unpruned grid for atomic number  77.
 Defaulting to unpruned grid for atomic number  77.
 Defaulting to unpruned grid for atomic number  77.
 Defaulting to unpruned grid for atomic number  77.
 Defaulting to unpruned grid for atomic number  77.
 Defaulting to unpruned grid for atomic number  77.
 Defaulting to unpruned grid for atomic number  77.
 Defaulting to unpruned grid for atomic number  77.
 Defaulting to unpruned grid for atomic number  77.
 Defaulting to unpruned grid for atomic number  77.
 Defaulting to unpruned grid for atomic number  77.
 Defaulting to unpruned grid for atomic number  77.
 Defaulting to unpruned grid for atomic number  77.
 Defaulting to unpruned grid for atomic number  77.
 End of G2Drv F.D. properties file   721 does not exist.
 End of G2Drv F.D. properties file   722 does not exist.
 End of G2Drv F.D. properties file   788 does not exist.
          IDoAtm=11111111111111111111111111111111111111111111111111
          IDoAtm=11111111111111111111111111111111111111111111111111
          IDoAtm=11111111111111111
          Differentiating once with respect to electric field.
                with respect to dipole field.
          Differentiating once with respect to nuclear coordinates.
 Defaulting to unpruned grid for atomic number  77.
 CalDSu exits because no D1Ps are significant.
 Defaulting to unpruned grid for atomic number  77.
 Defaulting to unpruned grid for atomic number  77.
 Defaulting to unpruned grid for atomic number  77.
 Defaulting to unpruned grid for atomic number  77.
 Defaulting to unpruned grid for atomic number  77.
 Defaulting to unpruned grid for atomic number  77.
 Defaulting to unpruned grid for atomic number  77.
 Defaulting to unpruned grid for atomic number  77.
 Defaulting to unpruned grid for atomic number  77.
 Defaulting to unpruned grid for atomic number  77.
 Defaulting to unpruned grid for atomic number  77.
 Defaulting to unpruned grid for atomic number  77.
 Defaulting to unpruned grid for atomic number  77.
 Defaulting to unpruned grid for atomic number  77.
 Defaulting to unpruned grid for atomic number  77.
 Defaulting to unpruned grid for atomic number  77.
          There are   354 degrees of freedom in the 1st order CPHF.  IDoFFX=6 NUNeed=     3.
    351 vectors produced by pass  0 Test12= 1.60D-13 1.00D-09 XBig12= 5.08D+02 7.33D+00.
 AX will form    72 AO Fock derivatives at one time.
    351 vectors produced by pass  1 Test12= 1.60D-13 1.00D-09 XBig12= 8.48D+01 9.81D-01.
    351 vectors produced by pass  2 Test12= 1.60D-13 1.00D-09 XBig12= 1.07D+00 9.78D-02.
    351 vectors produced by pass  3 Test12= 1.60D-13 1.00D-09 XBig12= 8.28D-03 6.97D-03.
    351 vectors produced by pass  4 Test12= 1.60D-13 1.00D-09 XBig12= 3.04D-05 4.49D-04.
    313 vectors produced by pass  5 Test12= 1.60D-13 1.00D-09 XBig12= 6.64D-08 1.97D-05.
     72 vectors produced by pass  6 Test12= 1.60D-13 1.00D-09 XBig12= 1.05D-10 8.95D-07.
      3 vectors produced by pass  7 Test12= 1.60D-13 1.00D-09 XBig12= 1.40D-13 3.18D-08.
      1 vectors produced by pass  8 Test12= 1.60D-13 1.00D-09 XBig12= 1.87D-16 1.01D-09.
 InvSVY:  IOpt=1 It=  1 EMax= 2.13D-14
 Solved reduced A of dimension  2144 with   354 vectors.
 Isotropic polarizability for W=    0.000000      514.50 Bohr**3.
 End of Minotr F.D. properties file   721 does not exist.
 End of Minotr F.D. properties file   722 does not exist.
 End of Minotr F.D. properties file   788 does not exist.
 Hyperfine terms turned off by default for NAtoms > 100.

 **********************************************************************

            Population analysis using the SCF Density.

 **********************************************************************

 Orbital symmetries:
       Occupied  (A) (A) (A) (A) (A) (A) (A) (A) (A) (A) (A) (A)
                 (A) (A) (A) (A) (A) (A) (A) (A) (A) (A) (A) (A)
                 (A) (A) (A) (A) (A) (A) (A) (A) (A) (A) (A) (A)
                 (A) (A) (A) (A) (A) (A) (A) (A) (A) (A) (A) (A)
                 (A) (A) (A) (A) (A) (A) (A) (A) (A) (A) (A) (A)
                 (A) (A) (A) (A) (A) (A) (A) (A) (A) (A) (A) (A)
                 (A) (A) (A) (A) (A) (A) (A) (A) (A) (A) (A) (A)
                 (A) (A) (A) (A) (A) (A) (A) (A) (A) (A) (A) (A)
                 (A) (A) (A) (A) (A) (A) (A) (A) (A) (A) (A) (A)
                 (A) (A) (A) (A) (A) (A) (A) (A) (A) (A) (A) (A)
                 (A) (A) (A) (A) (A) (A) (A) (A) (A) (A) (A) (A)
                 (A) (A) (A) (A) (A) (A) (A) (A) (A) (A) (A) (A)
                 (A) (A) (A) (A) (A) (A) (A) (A) (A) (A) (A) (A)
                 (A) (A) (A) (A) (A) (A) (A) (A) (A) (A) (A) (A)
                 (A) (A) (A) (A) (A) (A) (A) (A) (A) (A) (A) (A)
                 (A) (A) (A) (A) (A) (A) (A) (A) (A) (A) (A) (A)
                 (A) (A) (A) (A) (A) (A) (A) (A) (A) (A) (A) (A)
                 (A) (A) (A) (A) (A) (A) (A) (A) (A) (A) (A) (A)
                 (A) (A) (A) (A) (A) (A) (A) (A) (A)
       Virtual   (A) (A) (A) (A) (A) (A) (A) (A) (A) (A) (A) (A)
                 (A) (A) (A) (A) (A) (A) (A) (A) (A) (A) (A) (A)
                 (A) (A) (A) (A) (A) (A) (A) (A) (A) (A) (A) (A)
                 (A) (A) (A) (A) (A) (A) (A) (A) (A) (A) (A) (A)
                 (A) (A) (A) (A) (A) (A) (A) (A) (A) (A) (A) (A)
                 (A) (A) (A) (A) (A) (A) (A) (A) (A) (A) (A) (A)
                 (A) (A) (A) (A) (A) (A) (A) (A) (A) (A) (A) (A)
                 (A) (A) (A) (A) (A) (A) (A) (A) (A) (A) (A) (A)
                 (A) (A) (A) (A) (A) (A) (A) (A) (A) (A) (A) (A)
                 (A) (A) (A) (A) (A) (A) (A) (A) (A) (A) (A) (A)
                 (A) (A) (A) (A) (A) (A) (A) (A) (A) (A) (A) (A)
                 (A) (A) (A) (A) (A) (A) (A) (A) (A) (A) (A) (A)
                 (A) (A) (A) (A) (A) (A) (A) (A) (A) (A) (A) (A)
                 (A) (A) (A) (A) (A) (A) (A) (A) (A) (A) (A) (A)
                 (A) (A) (A) (A) (A) (A) (A) (A) (A) (A) (A) (A)
                 (A) (A) (A) (A) (A) (A) (A) (A) (A) (A) (A) (A)
                 (A) (A) (A) (A) (A) (A) (A) (A) (A) (A) (A) (A)
                 (A) (A) (A) (A) (A) (A) (A) (A) (A) (A) (A) (A)
                 (A) (A) (A) (A) (A) (A) (A) (A) (A) (A) (A) (A)
                 (A) (A) (A) (A) (A) (A) (A) (A) (A) (A) (A) (A)
                 (A) (A) (A) (A) (A) (A) (A) (A) (A) (A) (A) (A)
                 (A) (A) (A) (A) (A) (A) (A) (A) (A) (A) (A) (A)
                 (A) (A) (A) (A) (A) (A) (A) (A) (A) (A) (A) (A)
                 (A) (A) (A) (A) (A) (A) (A) (A) (A) (A) (A) (A)
                 (A) (A) (A) (A) (A) (A) (A) (A) (A) (A) (A) (A)
                 (A) (A) (A) (A) (A) (A) (A) (A) (A) (A) (A) (A)
                 (A) (A) (A) (A) (A) (A) (A) (A) (A) (A) (A) (A)
                 (A) (A) (A) (A) (A) (A) (A) (A) (A) (A) (A) (A)
                 (A) (A) (A) (A) (A) (A) (A) (A) (A) (A) (A) (A)
                 (A) (A) (A) (A) (A) (A) (A) (A) (A) (A) (A) (A)
                 (A) (A) (A) (A) (A) (A) (A) (A) (A) (A) (A) (A)
                 (A) (A) (A) (A) (A) (A) (A) (A) (A) (A) (A) (A)
                 (A) (A) (A) (A) (A) (A) (A) (A) (A) (A) (A) (A)
                 (A) (A) (A) (A) (A) (A) (A) (A) (A) (A) (A) (A)
                 (A) (A) (A) (A) (A) (A) (A) (A) (A) (A) (A) (A)
                 (A) (A) (A) (A) (A) (A) (A) (A) (A) (A) (A) (A)
                 (A) (A) (A) (A) (A) (A) (A) (A) (A) (A) (A) (A)
                 (A) (A) (A) (A) (A) (A) (A) (A) (A) (A) (A) (A)
                 (A) (A) (A) (A) (A) (A) (A) (A) (A) (A) (A) (A)
                 (A) (A) (A) (A) (A) (A) (A) (A) (A) (A) (A) (A)
                 (A) (A) (A) (A) (A) (A) (A) (A) (A) (A) (A) (A)
                 (A) (A) (A) (A) (A) (A) (A) (A) (A) (A) (A) (A)
                 (A) (A) (A) (A) (A) (A) (A) (A) (A) (A) (A) (A)
                 (A) (A) (A) (A) (A) (A) (A) (A) (A) (A) (A) (A)
                 (A) (A) (A) (A) (A) (A) (A) (A) (A) (A) (A) (A)
                 (A) (A) (A) (A) (A) (A) (A) (A) (A) (A) (A) (A)
                 (A) (A) (A) (A) (A) (A) (A) (A) (A) (A) (A) (A)
                 (A) (A) (A) (A) (A) (A) (A) (A) (A) (A) (A) (A)
                 (A) (A) (A) (A) (A) (A) (A) (A) (A) (A) (A) (A)
                 (A) (A) (A) (A) (A) (A) (A) (A) (A) (A) (A) (A)
                 (A) (A) (A) (A) (A) (A) (A) (A) (A) (A) (A) (A)
                 (A) (A) (A) (A) (A) (A) (A) (A) (A) (A) (A) (A)
                 (A) (A) (A) (A) (A) (A) (A) (A) (A) (A) (A) (A)
                 (A) (A) (A) (A) (A) (A) (A) (A) (A) (A) (A) (A)
                 (A) (A) (A) (A) (A) (A) (A) (A) (A) (A) (A) (A)
                 (A) (A) (A) (A) (A) (A) (A) (A) (A) (A) (A) (A)
                 (A) (A) (A) (A) (A) (A) (A) (A) (A) (A) (A) (A)
                 (A) (A) (A) (A) (A) (A) (A) (A) (A) (A) (A) (A)
                 (A) (A) (A) (A) (A) (A) (A) (A) (A) (A) (A) (A)
                 (A) (A) (A) (A) (A)
 The electronic state is 1-A.
 Alpha  occ. eigenvalues --  -24.83111 -24.82910 -24.82707 -24.82656 -24.82592
 Alpha  occ. eigenvalues --  -24.82218 -19.21256 -19.21140 -19.21079 -19.20857
 Alpha  occ. eigenvalues --  -19.20763 -19.20542 -19.18463 -14.45988 -14.42539
 Alpha  occ. eigenvalues --  -14.42461 -10.51317 -10.51083 -10.33834 -10.32639
 Alpha  occ. eigenvalues --  -10.32093 -10.31315 -10.31156 -10.30122 -10.29881
 Alpha  occ. eigenvalues --  -10.29835 -10.29823 -10.29822 -10.29482 -10.29378
 Alpha  occ. eigenvalues --  -10.29370 -10.29257 -10.28995 -10.28713 -10.28244
 Alpha  occ. eigenvalues --  -10.27671 -10.27402 -10.24037 -10.23562 -10.23491
 Alpha  occ. eigenvalues --  -10.23374 -10.23364 -10.23347 -10.23190 -10.23141
 Alpha  occ. eigenvalues --  -10.22829 -10.22755 -10.22717 -10.22647 -10.22599
 Alpha  occ. eigenvalues --  -10.22473 -10.22297 -10.21988 -10.21258  -6.81655
 Alpha  occ. eigenvalues --   -6.81575  -6.80695  -3.64249  -2.07089  -2.06592
 Alpha  occ. eigenvalues --   -2.05186  -1.35718  -1.35427  -1.27236  -1.26926
 Alpha  occ. eigenvalues --   -1.26687  -1.26397  -1.07182  -1.06999  -1.06471
 Alpha  occ. eigenvalues --   -1.04234  -1.00380  -1.00180  -0.99964  -0.99742
 Alpha  occ. eigenvalues --   -0.97950  -0.94170  -0.86216  -0.85734  -0.83192
 Alpha  occ. eigenvalues --   -0.81072  -0.81009  -0.80923  -0.80401  -0.80331
 Alpha  occ. eigenvalues --   -0.76866  -0.75513  -0.75337  -0.75180  -0.74726
 Alpha  occ. eigenvalues --   -0.72286  -0.71960  -0.70981  -0.70814  -0.70728
 Alpha  occ. eigenvalues --   -0.70099  -0.68686  -0.68386  -0.68216  -0.67990
 Alpha  occ. eigenvalues --   -0.67201  -0.66851  -0.66173  -0.64832  -0.62550
 Alpha  occ. eigenvalues --   -0.61975  -0.61726  -0.61691  -0.61471  -0.61382
 Alpha  occ. eigenvalues --   -0.61203  -0.60764  -0.60243  -0.59930  -0.57727
 Alpha  occ. eigenvalues --   -0.56236  -0.55556  -0.55417  -0.54937  -0.54693
 Alpha  occ. eigenvalues --   -0.54093  -0.54000  -0.53921  -0.53575  -0.51210
 Alpha  occ. eigenvalues --   -0.50483  -0.49582  -0.49169  -0.49022  -0.48939
 Alpha  occ. eigenvalues --   -0.48917  -0.48693  -0.48234  -0.48014  -0.47889
 Alpha  occ. eigenvalues --   -0.47753  -0.47684  -0.47241  -0.46904  -0.46857
 Alpha  occ. eigenvalues --   -0.46549  -0.46395  -0.46189  -0.45598  -0.45483
 Alpha  occ. eigenvalues --   -0.45180  -0.45079  -0.44930  -0.44769  -0.44424
 Alpha  occ. eigenvalues --   -0.44299  -0.44221  -0.44057  -0.43656  -0.43296
 Alpha  occ. eigenvalues --   -0.43244  -0.43148  -0.42954  -0.42844  -0.42692
 Alpha  occ. eigenvalues --   -0.42357  -0.42125  -0.41466  -0.40975  -0.40766
 Alpha  occ. eigenvalues --   -0.40604  -0.40496  -0.40474  -0.40318  -0.40147
 Alpha  occ. eigenvalues --   -0.40030  -0.39884  -0.39840  -0.39735  -0.39633
 Alpha  occ. eigenvalues --   -0.39322  -0.39292  -0.38970  -0.38831  -0.38621
 Alpha  occ. eigenvalues --   -0.38226  -0.37994  -0.37809  -0.37607  -0.37490
 Alpha  occ. eigenvalues --   -0.37097  -0.36962  -0.36525  -0.36438  -0.36338
 Alpha  occ. eigenvalues --   -0.35991  -0.35798  -0.35518  -0.35392  -0.35131
 Alpha  occ. eigenvalues --   -0.34492  -0.34286  -0.34249  -0.33802  -0.33423
 Alpha  occ. eigenvalues --   -0.33284  -0.33092  -0.32634  -0.32502  -0.32405
 Alpha  occ. eigenvalues --   -0.32265  -0.31834  -0.31514  -0.31023  -0.30864
 Alpha  occ. eigenvalues --   -0.30718  -0.30611  -0.29825  -0.29442  -0.29166
 Alpha  occ. eigenvalues --   -0.28273  -0.27821  -0.27573  -0.26957  -0.26403
 Alpha  occ. eigenvalues --   -0.26138  -0.25382  -0.23718  -0.22774  -0.20459
 Alpha virt. eigenvalues --   -0.07675  -0.04451  -0.04163  -0.01346  -0.00278
 Alpha virt. eigenvalues --    0.02563   0.02823   0.04744   0.05239   0.06294
 Alpha virt. eigenvalues --    0.07100   0.07946   0.08087   0.08677   0.08913
 Alpha virt. eigenvalues --    0.09796   0.09972   0.10338   0.10616   0.10911
 Alpha virt. eigenvalues --    0.11260   0.11501   0.11636   0.11906   0.12145
 Alpha virt. eigenvalues --    0.12336   0.12933   0.13323   0.13701   0.13752
 Alpha virt. eigenvalues --    0.14030   0.14239   0.14514   0.14740   0.14930
 Alpha virt. eigenvalues --    0.15031   0.15191   0.15373   0.15675   0.15809
 Alpha virt. eigenvalues --    0.15941   0.16125   0.16306   0.16535   0.16832
 Alpha virt. eigenvalues --    0.16938   0.17271   0.17479   0.17624   0.17882
 Alpha virt. eigenvalues --    0.18105   0.18170   0.18331   0.18543   0.18669
 Alpha virt. eigenvalues --    0.18815   0.19090   0.19355   0.19682   0.19731
 Alpha virt. eigenvalues --    0.19837   0.19930   0.20203   0.20261   0.20366
 Alpha virt. eigenvalues --    0.20404   0.21279   0.21394   0.21642   0.21858
 Alpha virt. eigenvalues --    0.21919   0.22135   0.22293   0.22556   0.22760
 Alpha virt. eigenvalues --    0.22843   0.22855   0.23330   0.23647   0.23764
 Alpha virt. eigenvalues --    0.23991   0.24139   0.24250   0.24418   0.24610
 Alpha virt. eigenvalues --    0.24741   0.25028   0.25488   0.25548   0.25770
 Alpha virt. eigenvalues --    0.25906   0.26097   0.26300   0.26704   0.26815
 Alpha virt. eigenvalues --    0.26841   0.27176   0.27462   0.27563   0.27829
 Alpha virt. eigenvalues --    0.28228   0.28658   0.28953   0.29268   0.29554
 Alpha virt. eigenvalues --    0.29755   0.30336   0.30943   0.31079   0.31248
 Alpha virt. eigenvalues --    0.31790   0.32268   0.32894   0.33186   0.33738
 Alpha virt. eigenvalues --    0.34009   0.34709   0.34758   0.35035   0.35608
 Alpha virt. eigenvalues --    0.35948   0.37530   0.38051   0.38517   0.38752
 Alpha virt. eigenvalues --    0.39437   0.40559   0.41189   0.42783   0.43792
 Alpha virt. eigenvalues --    0.44590   0.45363   0.46112   0.46790   0.47290
 Alpha virt. eigenvalues --    0.47617   0.48198   0.48811   0.48986   0.49431
 Alpha virt. eigenvalues --    0.49804   0.50054   0.50304   0.51055   0.51464
 Alpha virt. eigenvalues --    0.51568   0.51795   0.52203   0.52508   0.52850
 Alpha virt. eigenvalues --    0.53056   0.53588   0.53854   0.54205   0.54714
 Alpha virt. eigenvalues --    0.54911   0.55178   0.55523   0.55730   0.56747
 Alpha virt. eigenvalues --    0.56842   0.56902   0.57289   0.57357   0.57546
 Alpha virt. eigenvalues --    0.57820   0.58009   0.58318   0.58634   0.58768
 Alpha virt. eigenvalues --    0.59044   0.59382   0.60168   0.60280   0.60389
 Alpha virt. eigenvalues --    0.60526   0.60688   0.61152   0.61438   0.61808
 Alpha virt. eigenvalues --    0.62112   0.62356   0.62575   0.63155   0.63549
 Alpha virt. eigenvalues --    0.63753   0.63940   0.64298   0.64597   0.64978
 Alpha virt. eigenvalues --    0.65449   0.65678   0.65779   0.66043   0.66212
 Alpha virt. eigenvalues --    0.66893   0.67048   0.67416   0.67829   0.68308
 Alpha virt. eigenvalues --    0.68492   0.68576   0.69101   0.69461   0.69636
 Alpha virt. eigenvalues --    0.69866   0.70166   0.70300   0.70913   0.71110
 Alpha virt. eigenvalues --    0.71246   0.71640   0.71984   0.72356   0.72721
 Alpha virt. eigenvalues --    0.72991   0.73365   0.73654   0.74236   0.74667
 Alpha virt. eigenvalues --    0.74875   0.75084   0.75665   0.75822   0.76158
 Alpha virt. eigenvalues --    0.76646   0.77286   0.77371   0.77758   0.78135
 Alpha virt. eigenvalues --    0.78706   0.79295   0.79373   0.79653   0.79906
 Alpha virt. eigenvalues --    0.80194   0.80506   0.80708   0.81176   0.81605
 Alpha virt. eigenvalues --    0.82087   0.82206   0.82756   0.82967   0.83161
 Alpha virt. eigenvalues --    0.83552   0.83719   0.83879   0.84202   0.84361
 Alpha virt. eigenvalues --    0.84673   0.84845   0.85003   0.85250   0.85494
 Alpha virt. eigenvalues --    0.85783   0.85895   0.86005   0.86434   0.86620
 Alpha virt. eigenvalues --    0.87302   0.87411   0.87707   0.87888   0.88051
 Alpha virt. eigenvalues --    0.88130   0.88561   0.88787   0.89108   0.89403
 Alpha virt. eigenvalues --    0.89635   0.89813   0.89892   0.90196   0.90246
 Alpha virt. eigenvalues --    0.90636   0.90880   0.90981   0.91585   0.91621
 Alpha virt. eigenvalues --    0.91701   0.92219   0.92729   0.92950   0.93291
 Alpha virt. eigenvalues --    0.93600   0.93918   0.94157   0.94547   0.94937
 Alpha virt. eigenvalues --    0.95283   0.95522   0.95862   0.96051   0.96442
 Alpha virt. eigenvalues --    0.96637   0.96804   0.97176   0.97491   0.97948
 Alpha virt. eigenvalues --    0.98627   0.99376   0.99728   0.99916   1.00358
 Alpha virt. eigenvalues --    1.01125   1.01539   1.01759   1.02024   1.02184
 Alpha virt. eigenvalues --    1.02732   1.03116   1.03464   1.04368   1.04735
 Alpha virt. eigenvalues --    1.04928   1.05193   1.05768   1.06624   1.06979
 Alpha virt. eigenvalues --    1.07434   1.07659   1.07906   1.08533   1.08836
 Alpha virt. eigenvalues --    1.09486   1.09840   1.10358   1.11088   1.11863
 Alpha virt. eigenvalues --    1.12351   1.12896   1.13241   1.13912   1.14865
 Alpha virt. eigenvalues --    1.15354   1.15764   1.16018   1.16261   1.16339
 Alpha virt. eigenvalues --    1.16599   1.17042   1.17248   1.17631   1.18640
 Alpha virt. eigenvalues --    1.19492   1.19599   1.19847   1.20198   1.20666
 Alpha virt. eigenvalues --    1.20866   1.21292   1.21727   1.22831   1.23272
 Alpha virt. eigenvalues --    1.23566   1.24464   1.24701   1.25170   1.26013
 Alpha virt. eigenvalues --    1.26420   1.26559   1.26849   1.27918   1.28429
 Alpha virt. eigenvalues --    1.28803   1.29390   1.30137   1.30601   1.31264
 Alpha virt. eigenvalues --    1.32252   1.32434   1.33269   1.33984   1.34572
 Alpha virt. eigenvalues --    1.34765   1.35116   1.35742   1.35802   1.35874
 Alpha virt. eigenvalues --    1.36730   1.37160   1.37594   1.38053   1.38267
 Alpha virt. eigenvalues --    1.38672   1.38835   1.39570   1.39948   1.40246
 Alpha virt. eigenvalues --    1.40732   1.41781   1.42115   1.42600   1.42811
 Alpha virt. eigenvalues --    1.43197   1.43648   1.43813   1.44526   1.45129
 Alpha virt. eigenvalues --    1.45322   1.45485   1.46021   1.46418   1.46724
 Alpha virt. eigenvalues --    1.47234   1.47850   1.48301   1.48972   1.49177
 Alpha virt. eigenvalues --    1.49864   1.50727   1.51060   1.51342   1.51664
 Alpha virt. eigenvalues --    1.52081   1.52337   1.53262   1.53477   1.55096
 Alpha virt. eigenvalues --    1.55501   1.56261   1.57147   1.57393   1.57908
 Alpha virt. eigenvalues --    1.59478   1.60265   1.60955   1.61571   1.62113
 Alpha virt. eigenvalues --    1.62921   1.63430   1.64248   1.64472   1.65091
 Alpha virt. eigenvalues --    1.65720   1.65913   1.66256   1.66735   1.67038
 Alpha virt. eigenvalues --    1.67985   1.68355   1.68502   1.68959   1.69482
 Alpha virt. eigenvalues --    1.69912   1.70776   1.71722   1.72154   1.72428
 Alpha virt. eigenvalues --    1.72924   1.73157   1.73487   1.74163   1.75021
 Alpha virt. eigenvalues --    1.75615   1.75744   1.76573   1.76796   1.77264
 Alpha virt. eigenvalues --    1.78135   1.78297   1.78852   1.79495   1.79901
 Alpha virt. eigenvalues --    1.80153   1.80505   1.80741   1.81113   1.81557
 Alpha virt. eigenvalues --    1.82216   1.82641   1.83103   1.83493   1.84182
 Alpha virt. eigenvalues --    1.85139   1.85370   1.85618   1.86036   1.86071
 Alpha virt. eigenvalues --    1.86546   1.86823   1.87661   1.88058   1.88242
 Alpha virt. eigenvalues --    1.88454   1.88780   1.89080   1.89744   1.89829
 Alpha virt. eigenvalues --    1.90160   1.90533   1.90634   1.90888   1.91108
 Alpha virt. eigenvalues --    1.91733   1.91998   1.92286   1.92373   1.92674
 Alpha virt. eigenvalues --    1.93059   1.93158   1.93545   1.93926   1.94202
 Alpha virt. eigenvalues --    1.94510   1.94777   1.95292   1.95510   1.96203
 Alpha virt. eigenvalues --    1.96923   1.97017   1.97571   1.97833   1.97920
 Alpha virt. eigenvalues --    1.98568   1.99055   1.99703   2.00361   2.00413
 Alpha virt. eigenvalues --    2.00828   2.01169   2.01255   2.01543   2.02153
 Alpha virt. eigenvalues --    2.02896   2.03219   2.03258   2.03617   2.03722
 Alpha virt. eigenvalues --    2.04118   2.04358   2.04662   2.04961   2.05502
 Alpha virt. eigenvalues --    2.05785   2.06269   2.06592   2.06793   2.06907
 Alpha virt. eigenvalues --    2.07217   2.07857   2.08359   2.08658   2.08989
 Alpha virt. eigenvalues --    2.09362   2.09808   2.10030   2.10066   2.10217
 Alpha virt. eigenvalues --    2.10328   2.10701   2.11039   2.11194   2.11636
 Alpha virt. eigenvalues --    2.12025   2.12224   2.12691   2.12928   2.13422
 Alpha virt. eigenvalues --    2.13548   2.14220   2.14641   2.15446   2.15681
 Alpha virt. eigenvalues --    2.16234   2.16666   2.16803   2.17187   2.17349
 Alpha virt. eigenvalues --    2.17645   2.18385   2.18746   2.18905   2.19122
 Alpha virt. eigenvalues --    2.19503   2.19961   2.19993   2.20485   2.21403
 Alpha virt. eigenvalues --    2.21603   2.21972   2.22321   2.22525   2.22855
 Alpha virt. eigenvalues --    2.23053   2.23543   2.24287   2.24305   2.24772
 Alpha virt. eigenvalues --    2.24976   2.25191   2.25661   2.26048   2.26286
 Alpha virt. eigenvalues --    2.26689   2.27047   2.27528   2.27828   2.28116
 Alpha virt. eigenvalues --    2.28897   2.29933   2.30783   2.31168   2.31235
 Alpha virt. eigenvalues --    2.31945   2.32750   2.33410   2.33527   2.33753
 Alpha virt. eigenvalues --    2.34070   2.34651   2.35213   2.35906   2.36060
 Alpha virt. eigenvalues --    2.36849   2.37352   2.38321   2.38651   2.39041
 Alpha virt. eigenvalues --    2.39240   2.39942   2.41546   2.42209   2.43400
 Alpha virt. eigenvalues --    2.44058   2.44675   2.45131   2.46406   2.47647
 Alpha virt. eigenvalues --    2.48054   2.48475   2.48823   2.49534   2.49887
 Alpha virt. eigenvalues --    2.50644   2.51704   2.52949   2.53692   2.56650
 Alpha virt. eigenvalues --    2.57187   2.58015   2.58565   2.58955   2.59265
 Alpha virt. eigenvalues --    2.60033   2.60788   2.61662   2.62183   2.62221
 Alpha virt. eigenvalues --    2.63044   2.63464   2.63994   2.64458   2.65689
 Alpha virt. eigenvalues --    2.66134   2.67062   2.67952   2.69173   2.71664
 Alpha virt. eigenvalues --    2.72434   2.74469   2.76475   2.76863   2.77446
 Alpha virt. eigenvalues --    2.77523   2.78058   2.78333   2.78847   2.79237
 Alpha virt. eigenvalues --    2.79515   2.80222   2.80647   2.80858   2.81136
 Alpha virt. eigenvalues --    2.82339   2.83002   2.84637   2.84958   2.85235
 Alpha virt. eigenvalues --    2.85979   2.86270   2.89328   2.90188   2.91033
 Alpha virt. eigenvalues --    2.91557   2.94682   2.95385   2.95709   2.96069
 Alpha virt. eigenvalues --    2.96847   2.97503   2.97852   3.02892   3.03558
 Alpha virt. eigenvalues --    3.06526   3.07025   3.07579   3.08009   3.09586
 Alpha virt. eigenvalues --    3.09647   3.10317   3.11146   3.11496   3.11952
 Alpha virt. eigenvalues --    3.13369   3.13846   3.14908   3.19635   3.23374
 Alpha virt. eigenvalues --    3.34689   3.43324  13.31336
          Condensed to atoms (all electrons):
 Mulliken charges:
               1
     1  C    0.312189
     2  C    0.060924
     3  C   -0.088075
     4  C   -0.147281
     5  C   -0.184996
     6  C    0.247831
     7  C   -0.129085
     8  C   -0.068484
     9  C   -0.012259
    10  H    0.243357
    11  H    0.201607
    12  H    0.203607
    13  H    0.210165
    14  H    0.187802
    15  N   -0.504563
    16  Ir  -0.278413
    17  O   -0.530656
    18  O   -0.518339
    19  B    0.488991
    20  B    0.460796
    21  O   -0.492135
    22  C    0.298190
    23  C    0.287037
    24  C    0.284917
    25  C    0.298200
    26  O   -0.522152
    27  C   -0.506447
    28  H    0.155827
    29  H    0.164607
    30  H    0.166482
    31  C   -0.489292
    32  H    0.174190
    33  H    0.152156
    34  H    0.154551
    35  C   -0.507324
    36  H    0.148423
    37  H    0.170384
    38  H    0.180969
    39  C   -0.509634
    40  H    0.158102
    41  H    0.167802
    42  H    0.153204
    43  C   -0.503791
    44  H    0.159053
    45  H    0.153688
    46  H    0.163623
    47  C   -0.497242
    48  H    0.145567
    49  H    0.177463
    50  H    0.163679
    51  C   -0.508396
    52  H    0.153094
    53  H    0.170743
    54  H    0.170334
    55  C   -0.506600
    56  H    0.161393
    57  H    0.168663
    58  H    0.156355
    59  H    0.131727
    60  C    0.595499
    61  O   -0.502244
    62  C   -0.408684
    63  H    0.175596
    64  H    0.158935
    65  C   -0.322261
    66  H    0.169047
    67  H    0.212405
    68  N   -0.352455
    69  C   -0.372004
    70  H    0.185666
    71  H    0.180307
    72  H    0.178126
    73  C   -0.297389
    74  H    0.129409
    75  H    0.219619
    76  C   -0.271410
    77  H    0.132984
    78  H    0.137027
    79  C   -0.271464
    80  H    0.145199
    81  H    0.139277
    82  C   -0.497443
    83  H    0.158436
    84  H    0.159113
    85  H    0.163622
    86  C   -0.182993
    87  N   -0.411190
    88  H    0.243787
    89  C    0.287979
    90  C    0.286647
    91  C   -0.492203
    92  H    0.175809
    93  H    0.146062
    94  H    0.154447
    95  C   -0.496333
    96  H    0.153175
    97  H    0.152850
    98  H    0.169448
    99  C   -0.498576
   100  H    0.171818
   101  H    0.152291
   102  H    0.155774
   103  C   -0.529840
   104  H    0.146250
   105  H    0.149693
   106  H    0.211187
   107  B    0.552943
   108  O   -0.490556
   109  O   -0.533204
   110  C    0.959885
   111  C    0.973352
   112  F   -0.298711
   113  F   -0.314021
   114  F   -0.314037
   115  F   -0.307098
   116  F   -0.303256
   117  F   -0.318817
 Sum of Mulliken charges =  -0.00000
 Mulliken charges with hydrogens summed into heavy atoms:
               1
     1  C    0.312189
     2  C    0.304280
     3  C   -0.088075
     4  C    0.054326
     5  C    0.018611
     6  C    0.247831
     7  C    0.081080
     8  C   -0.068484
     9  C    0.175543
    15  N   -0.504563
    16  Ir  -0.146686
    17  O   -0.530656
    18  O   -0.518339
    19  B    0.488991
    20  B    0.460796
    21  O   -0.492135
    22  C    0.298190
    23  C    0.287037
    24  C    0.284917
    25  C    0.298200
    26  O   -0.522152
    27  C   -0.019530
    31  C   -0.008396
    35  C   -0.007547
    39  C   -0.030526
    43  C   -0.027426
    47  C   -0.010532
    51  C   -0.014225
    55  C   -0.020189
    60  C    0.595499
    61  O   -0.502244
    62  C   -0.074153
    65  C    0.059191
    68  N   -0.352455
    69  C    0.172095
    73  C    0.051639
    76  C   -0.001399
    79  C    0.013012
    82  C   -0.016272
    86  C    0.060794
    87  N   -0.411190
    89  C    0.287979
    90  C    0.286647
    91  C   -0.015885
    95  C   -0.020861
    99  C   -0.018693
   103  C   -0.022711
   107  B    0.552943
   108  O   -0.490556
   109  O   -0.533204
   110  C    0.959885
   111  C    0.973352
   112  F   -0.298711
   113  F   -0.314021
   114  F   -0.314037
   115  F   -0.307098
   116  F   -0.303256
   117  F   -0.318817
 APT charges:
               1
     1  C    0.259343
     2  C    0.084294
     3  C   -0.246556
     4  C    0.153540
     5  C   -0.221333
     6  C    0.256266
     7  C    0.120131
     8  C   -0.273471
     9  C    0.199138
    10  H    0.136859
    11  H    0.059256
    12  H    0.079696
    13  H    0.076583
    14  H    0.029708
    15  N   -0.195008
    16  Ir  -0.818466
    17  O   -0.907565
    18  O   -0.941770
    19  B    1.108229
    20  B    1.220387
    21  O   -0.921924
    22  C    0.483974
    23  C    0.448764
    24  C    0.449285
    25  C    0.432265
    26  O   -0.890499
    27  C   -0.002828
    28  H   -0.013577
    29  H    0.001488
    30  H    0.001906
    31  C   -0.018162
    32  H    0.000459
    33  H   -0.018631
    34  H   -0.003133
    35  C   -0.032106
    36  H   -0.015918
    37  H   -0.000493
    38  H    0.017622
    39  C   -0.022800
    40  H    0.014008
    41  H    0.005853
    42  H   -0.008600
    43  C    0.007188
    44  H   -0.000364
    45  H   -0.016225
    46  H    0.002650
    47  C   -0.017422
    48  H   -0.024053
    49  H    0.021512
    50  H   -0.008944
    51  C   -0.011016
    52  H   -0.015387
    53  H    0.001849
    54  H    0.008380
    55  C   -0.026030
    56  H   -0.003227
    57  H   -0.001820
    58  H   -0.016274
    59  H    0.234732
    60  C    0.909351
    61  O   -0.776066
    62  C   -0.023814
    63  H    0.005368
    64  H   -0.032499
    65  C    0.395742
    66  H   -0.066692
    67  H   -0.035272
    68  N   -0.774651
    69  C    0.302932
    70  H   -0.024077
    71  H    0.006387
    72  H   -0.020351
    73  C    0.020315
    74  H   -0.033264
    75  H    0.063174
    76  C    0.112389
    77  H   -0.030527
    78  H   -0.066053
    79  C    0.104578
    80  H   -0.046028
    81  H   -0.054931
    82  C    0.067021
    83  H   -0.015220
    84  H   -0.029775
    85  H   -0.029849
    86  C   -0.122729
    87  N   -0.424158
    88  H    0.040819
    89  C    0.489193
    90  C    0.457857
    91  C   -0.029954
    92  H    0.032388
    93  H   -0.021753
    94  H   -0.002505
    95  C   -0.013490
    96  H   -0.006886
    97  H   -0.014832
    98  H    0.011523
    99  C   -0.011792
   100  H    0.003481
   101  H   -0.014591
   102  H   -0.001905
   103  C   -0.059277
   104  H   -0.022073
   105  H   -0.002401
   106  H    0.074152
   107  B    1.222933
   108  O   -0.949089
   109  O   -0.944247
   110  C    1.811350
   111  C    1.780484
   112  F   -0.583808
   113  F   -0.543956
   114  F   -0.604671
   115  F   -0.577822
   116  F   -0.513782
   117  F   -0.608413
 Sum of APT charges =  -0.00000
 APT charges with hydrogens summed into heavy atoms:
               1
     1  C    0.259343
     2  C    0.221153
     3  C   -0.246556
     4  C    0.212796
     5  C   -0.141637
     6  C    0.256266
     7  C    0.196714
     8  C   -0.273471
     9  C    0.228846
    15  N   -0.195008
    16  Ir  -0.583734
    17  O   -0.907565
    18  O   -0.941770
    19  B    1.108229
    20  B    1.220387
    21  O   -0.921924
    22  C    0.483974
    23  C    0.448764
    24  C    0.449285
    25  C    0.432265
    26  O   -0.890499
    27  C   -0.013011
    31  C   -0.039468
    35  C   -0.030895
    39  C   -0.011539
    43  C   -0.006750
    47  C   -0.028907
    51  C   -0.016175
    55  C   -0.047350
    60  C    0.909351
    61  O   -0.776066
    62  C   -0.050944
    65  C    0.293779
    68  N   -0.774651
    69  C    0.264891
    73  C    0.050225
    76  C    0.015809
    79  C    0.003619
    82  C   -0.007823
    86  C   -0.081910
    87  N   -0.424158
    89  C    0.489193
    90  C    0.457857
    91  C   -0.021823
    95  C   -0.023684
    99  C   -0.024808
   103  C   -0.009599
   107  B    1.222933
   108  O   -0.949089
   109  O   -0.944247
   110  C    1.811350
   111  C    1.780484
   112  F   -0.583808
   113  F   -0.543956
   114  F   -0.604671
   115  F   -0.577822
   116  F   -0.513782
   117  F   -0.608413
 Electronic spatial extent (au):  <R**2>=          35404.4057
 Charge=              0.0000 electrons
 Dipole moment (field-independent basis, Debye):
    X=              1.2569    Y=             -1.4524    Z=             -1.0017  Tot=              2.1663
 Quadrupole moment (field-independent basis, Debye-Ang):
   XX=           -358.9348   YY=           -351.3109   ZZ=           -340.5169
   XY=             18.4412   XZ=              0.5644   YZ=              3.8965
 Traceless Quadrupole moment (field-independent basis, Debye-Ang):
   XX=             -8.6806   YY=             -1.0567   ZZ=              9.7373
   XY=             18.4412   XZ=              0.5644   YZ=              3.8965
 Octapole moment (field-independent basis, Debye-Ang**2):
  XXX=             31.9733  YYY=             16.4433  ZZZ=           -109.4943  XYY=             76.5332
  XXY=             57.5258  XXZ=            -25.9893  XZZ=             22.8155  YZZ=              5.6258
  YYZ=            -43.3019  XYZ=            -30.8900
 Hexadecapole moment (field-independent basis, Debye-Ang**3):
 XXXX=         -21366.7727 YYYY=         -15801.4792 ZZZZ=          -7704.3940 XXXY=           -148.4233
 XXXZ=             98.0142 YYYX=              2.9375 YYYZ=            -21.3912 ZZZX=             71.6467
 ZZZY=             59.5462 XXYY=          -6247.2591 XXZZ=          -4674.2168 YYZZ=          -4015.0252
 XXYZ=             58.4257 YYXZ=            -56.1034 ZZXY=           -132.3151
 N-N= 1.066623468165D+04 E-N=-2.821171914350D+04  KE= 2.862696583812D+03
  Exact polarizability:     574.745       0.709     541.231      11.932      16.659     427.517
 Approx polarizability:     813.525     -18.285     795.860      25.415      42.546     650.630
   1 Symmetry operations used in ECPInt.
 ECPInt:  NShTT=   62835 NPrTT=  387974 LenC2=   47047 LenP2D=  144373.
 LDataN:  DoStor=T MaxTD1= 8 Len=  415
 Calling FoFJK, ICntrl=    100127 FMM=F ISym2X=0 I1Cent= 0 IOpClX= 0 NMat=1 NMatS=1 NMatT=0.
 Defaulting to unpruned grid for atomic number  77.
 Defaulting to unpruned grid for atomic number  77.
 Defaulting to unpruned grid for atomic number  77.
 Defaulting to unpruned grid for atomic number  77.
 Defaulting to unpruned grid for atomic number  77.
 Defaulting to unpruned grid for atomic number  77.
 Defaulting to unpruned grid for atomic number  77.
 Defaulting to unpruned grid for atomic number  77.
 Defaulting to unpruned grid for atomic number  77.
 Defaulting to unpruned grid for atomic number  77.
 Defaulting to unpruned grid for atomic number  77.
 Defaulting to unpruned grid for atomic number  77.
 Defaulting to unpruned grid for atomic number  77.
 Defaulting to unpruned grid for atomic number  77.
 Defaulting to unpruned grid for atomic number  77.
 Defaulting to unpruned grid for atomic number  77.
 Full mass-weighted force constant matrix:
 Low frequencies --- -667.8466   -5.8093   -0.0006   -0.0002    0.0004    1.3553
 Low frequencies ---    5.7750   20.0905   25.6258
 ******    1 imaginary frequencies (negative Signs) ****** 
 Diagonal vibrational polarizability:
       78.3628046      76.4413627      95.6291415
 Harmonic frequencies (cm**-1), IR intensities (KM/Mole), Raman scattering
 activities (A**4/AMU), depolarization ratios for plane and unpolarized
 incident light, reduced masses (AMU), force constants (mDyne/A),
 and normal coordinates:
                      1                      2                      3
                      A                      A                      A
 Frequencies --   -667.8460                19.8873                25.4766
 Red. masses --      1.1952                 7.1864                 6.9643
 Frc consts  --      0.3141                 0.0017                 0.0027
 IR Inten    --    245.1551                 0.1007                 0.0672
  Atom AN      X      Y      Z        X      Y      Z        X      Y      Z
     1   6     0.00   0.01  -0.00     0.01  -0.01  -0.01     0.02   0.01  -0.02
     2   6     0.00   0.01  -0.00     0.02   0.02   0.01     0.02   0.02  -0.01
     3   6     0.00   0.00   0.00     0.04   0.01   0.06     0.03   0.02  -0.02
     4   6     0.00   0.00   0.00     0.05  -0.01   0.07     0.03   0.01  -0.03
     5   6     0.00   0.00   0.00     0.03  -0.02   0.03     0.02   0.01  -0.03
     6   6    -0.00   0.00  -0.00    -0.01  -0.02  -0.03     0.01   0.00  -0.01
     7   6    -0.00  -0.00   0.00    -0.05  -0.03  -0.05    -0.01  -0.01   0.01
     8   6    -0.00   0.00  -0.00    -0.05  -0.06  -0.05    -0.02  -0.02   0.03
     9   6    -0.00  -0.00  -0.00    -0.02  -0.07  -0.04    -0.01  -0.01   0.01
    10   1     0.00   0.01   0.00     0.01   0.04  -0.00     0.02   0.02   0.01
    11   1     0.00   0.00  -0.00     0.07  -0.02   0.10     0.03   0.01  -0.04
    12   1     0.00   0.01   0.01     0.04  -0.04   0.03     0.02   0.00  -0.04
    13   1    -0.00  -0.00   0.00    -0.07  -0.01  -0.06    -0.02  -0.01   0.02
    14   1    -0.00  -0.00   0.00    -0.02  -0.09  -0.04    -0.01  -0.02   0.02
    15   7     0.00   0.02  -0.02     0.00   0.01  -0.02     0.01   0.01  -0.01
    16  77     0.01  -0.00   0.01    -0.01   0.01  -0.01     0.01   0.02  -0.02
    17   8    -0.00   0.00  -0.00    -0.02   0.07   0.02     0.01  -0.00  -0.02
    18   8    -0.00  -0.00   0.00     0.03   0.03   0.04     0.01   0.02  -0.02
    19   5    -0.01   0.00  -0.01    -0.01   0.04  -0.00     0.02   0.01  -0.01
    20   5    -0.00   0.02  -0.01     0.02   0.01   0.02     0.01   0.02  -0.02
    21   8     0.00   0.00  -0.01     0.03  -0.01   0.01     0.01   0.02  -0.03
    22   6     0.00   0.00   0.00     0.05   0.02   0.06     0.01   0.02  -0.03
    23   6     0.00   0.00  -0.00     0.05   0.00   0.04     0.01   0.02  -0.03
    24   6    -0.00   0.00  -0.00    -0.02   0.09   0.02     0.01  -0.01  -0.02
    25   6    -0.00   0.00  -0.00    -0.02   0.08  -0.01     0.01   0.00  -0.00
    26   8    -0.00   0.00  -0.00    -0.01   0.04  -0.02     0.01   0.02   0.00
    27   6    -0.00   0.00  -0.00    -0.02   0.13   0.03    -0.00  -0.02  -0.02
    28   1     0.00   0.00  -0.00    -0.02   0.15   0.03    -0.01  -0.02  -0.02
    29   1    -0.00   0.00  -0.00    -0.01   0.14   0.00    -0.01  -0.03  -0.02
    30   1    -0.00   0.00  -0.00    -0.02   0.14   0.05     0.01  -0.03  -0.03
    31   6    -0.00   0.00  -0.00    -0.02   0.08   0.06     0.02   0.00  -0.02
    32   1    -0.00  -0.00  -0.00    -0.02   0.05   0.05     0.03   0.01  -0.01
    33   1    -0.00   0.00   0.00    -0.01   0.10   0.06     0.01  -0.00  -0.01
    34   1    -0.00   0.00  -0.00    -0.01   0.08   0.09     0.02  -0.00  -0.04
    35   6    -0.00  -0.00  -0.00    -0.02   0.11  -0.05     0.00  -0.01   0.01
    36   1     0.00  -0.00  -0.00    -0.03   0.14  -0.05    -0.00  -0.02   0.01
    37   1    -0.00   0.00  -0.00    -0.02   0.10  -0.08     0.00  -0.00   0.03
    38   1    -0.00  -0.00  -0.00    -0.02   0.10  -0.07     0.00  -0.01   0.01
    39   6    -0.00  -0.00  -0.00    -0.02   0.09   0.00     0.01  -0.00   0.00
    40   1    -0.00  -0.00   0.00    -0.01   0.07   0.04     0.01   0.01  -0.01
    41   1    -0.00  -0.00   0.00    -0.02   0.09  -0.04     0.00   0.00   0.02
    42   1    -0.00  -0.00  -0.00    -0.02   0.14   0.02     0.00  -0.02  -0.00
    43   6     0.00  -0.00  -0.00     0.07  -0.02   0.04     0.01   0.02  -0.04
    44   1    -0.00  -0.00  -0.00     0.08  -0.04   0.04     0.00   0.03  -0.04
    45   1    -0.00  -0.00   0.00     0.08  -0.02   0.06     0.01   0.02  -0.05
    46   1    -0.00  -0.00  -0.00     0.06  -0.04   0.03     0.01   0.01  -0.03
    47   6    -0.00   0.00  -0.00     0.03   0.03   0.04     0.00   0.01  -0.03
    48   1    -0.00   0.00  -0.00     0.05   0.03   0.05    -0.00   0.01  -0.04
    49   1     0.00   0.00  -0.00     0.01   0.05   0.03     0.01   0.00  -0.03
    50   1    -0.00   0.00  -0.00     0.02   0.01   0.02     0.01   0.02  -0.04
    51   6    -0.00  -0.00  -0.00     0.06   0.05   0.08     0.00   0.01  -0.04
    52   1     0.00  -0.00   0.00     0.08   0.04   0.09     0.00   0.01  -0.05
    53   1    -0.00   0.00   0.00     0.07   0.06   0.09     0.01   0.01  -0.04
    54   1    -0.00  -0.00  -0.00     0.05   0.06   0.08     0.00   0.00  -0.04
    55   6     0.00  -0.00   0.00     0.08  -0.00   0.07     0.01   0.03  -0.04
    56   1     0.00   0.00   0.00     0.07  -0.02   0.05     0.01   0.03  -0.03
    57   1     0.00   0.00   0.00     0.08   0.00   0.08     0.01   0.02  -0.03
    58   1     0.00  -0.00  -0.00     0.09  -0.01   0.08     0.00   0.03  -0.04
    59   1    -0.06   0.69  -0.65    -0.00   0.00  -0.00     0.02   0.01  -0.01
    60   6    -0.01   0.00   0.00     0.00  -0.04  -0.03    -0.04  -0.03   0.10
    61   8     0.00  -0.00  -0.01    -0.01  -0.04  -0.03    -0.05  -0.01   0.09
    62   6    -0.00   0.00   0.00     0.01  -0.06  -0.03    -0.03  -0.05   0.13
    63   1    -0.00  -0.00   0.00    -0.00  -0.07  -0.04    -0.01  -0.07   0.17
    64   1     0.00   0.00   0.00     0.02  -0.08  -0.03    -0.06  -0.01   0.14
    65   6    -0.03  -0.08  -0.03     0.00  -0.01  -0.02    -0.06   0.03   0.03
    66   1    -0.05   0.08  -0.09     0.01  -0.01  -0.01    -0.09   0.06   0.00
    67   1     0.04  -0.10   0.22    -0.01  -0.01  -0.02    -0.08   0.03   0.04
    68   7    -0.03   0.01  -0.03     0.01  -0.03  -0.03    -0.05  -0.00   0.08
    69   6    -0.01  -0.01  -0.01     0.03  -0.03  -0.02    -0.05  -0.00   0.07
    70   1    -0.01   0.01   0.01     0.05  -0.02  -0.02    -0.03  -0.00   0.06
    71   1    -0.01  -0.02  -0.01     0.03  -0.05  -0.02    -0.05  -0.01   0.09
    72   1    -0.01  -0.02  -0.00     0.03  -0.02  -0.02    -0.07   0.01   0.06
    73   6     0.00  -0.00   0.00     0.03  -0.05  -0.02    -0.03  -0.08   0.08
    74   1     0.00  -0.00   0.00     0.06  -0.05  -0.01    -0.02  -0.05   0.05
    75   1     0.00  -0.00  -0.00     0.01  -0.03  -0.01    -0.04  -0.12   0.10
    76   6    -0.00   0.00   0.00     0.03  -0.08  -0.04    -0.05  -0.11   0.03
    77   1     0.00   0.00   0.00    -0.00  -0.09  -0.05    -0.06  -0.14   0.06
    78   1     0.00   0.00  -0.00     0.04  -0.10  -0.05    -0.02  -0.08   0.00
    79   6     0.00   0.00  -0.00     0.04  -0.08  -0.04    -0.08  -0.15  -0.02
    80   1     0.00   0.00  -0.00     0.07  -0.07  -0.03    -0.03  -0.11  -0.04
    81   1     0.00  -0.00  -0.00     0.03  -0.06  -0.02    -0.12  -0.17   0.04
    82   6    -0.00   0.00  -0.00     0.04  -0.11  -0.06    -0.12  -0.19  -0.10
    83   1     0.00   0.00   0.00     0.01  -0.11  -0.06    -0.17  -0.23  -0.08
    84   1    -0.00  -0.00  -0.00     0.05  -0.13  -0.07    -0.08  -0.18  -0.15
    85   1     0.00   0.00  -0.00     0.05  -0.10  -0.05    -0.14  -0.22  -0.13
    86   6    -0.00  -0.00   0.00    -0.03  -0.01  -0.04     0.00  -0.00  -0.00
[...]
 0919,-0.00000330,0.00000393,0.00000248,-0.00000292,0.00000160,0.000001
 07,0.00000946,-0.00000421,-0.00001590,0.00002359,0.00003543,-0.0000026
 6,0.00000680,0.00000754,0.00004849,0.00000251,-0.00001781,-0.00002043,
 -0.00004121,0.00000004,-0.00000507,0.00001254,0.00002763,-0.00001216,0
 .00001132,0.00000043,0.00001024,-0.00000144,-0.00001026,0.00000554,-0.
 00000434,0.00000420,-0.00000145,-0.00000346,0.00000004,-0.00000105,0.0
 0000539,0.00000832,0.00000199,-0.00000264,0.00000154,0.00000059,0.0000
 0219,-0.00000482,0.00000049,-0.00000206,0.00000571,-0.00000118,-0.0000
 0029,0.00000350,0.00000611,-0.00000220,-0.00000033,-0.00000710,-0.0000
 0316,-0.00000486,0.00000164,0.00000117,-0.00000189,0.00000107,0.000000
 77,0.00000076,0.00000066,-0.00000036,-0.00000125,-0.00000115,-0.000002
 04,0.00000565,-0.00000690,0.00000377,-0.00000093,0.00000369,-0.0000017
 7,0.00000309,0.00000016,0.00000163,0.00000008,0.00000026,0.00000032,0.
 00000091,-0.00006664,0.00008451,-0.00018268,-0.00003873,0.00056533,0.0
 0034321,-0.00003073,-0.00055365,0.00010928,-0.00002774,-0.00004600,-0.
 00002321,0.00001468,0.00001324,-0.00002830,-0.00001276,0.00000084,0.00
 001075,-0.00016277,-0.00004939,-0.00005966,0.00000998,-0.00001429,0.00
 002387,-0.00002177,-0.00001138,0.00003530,0.00024697,-0.00016412,-0.00
 016565,0.00001069,0.00008235,0.00001901,0.00001237,-0.00003414,0.00000
 418,-0.00000202,0.00000175,-0.00000461,-0.00000500,-0.00000860,-0.0000
 0582,-0.00001603,0.00003827,-0.00003344,0.00000238,-0.00001280,0.00000
 569,-0.00001002,-0.00001475,-0.00001491,0.00002519,-0.00002352,-0.0000
 0036,-0.00001298,0.00000437,-0.00000504,0.00000561,0.00000613,0.000007
 60,-0.00002607,0.00000712,-0.00000822,0.00000188,0.00000085,0.00000328
 ,0.00001020,-0.00000442,0.00000620,0.00000624,-0.00001217,0.00000241,-
 0.00000581,0.00000447,0.00000018,0.00000316,0.00000360,0.00000205,-0.0
 0000412,-0.00000640,0.00000485,-0.00002182,0.00002092,0.00000849,-0.00
 000715,0.00002350,0.00001321,-0.00000219,0.00000693,-0.00000924,0.0001
 8929,-0.00004529,-0.00004473,-0.00006664,-0.00009909,-0.00011817,0.000
 02670,0.00004132,0.00002425,0.00001100,-0.00001532,-0.00000651,-0.0000
 1378,-0.00000831,0.00001708,0.00000708,0.00002882,-0.00000572,-0.00000
 909,0.00003731,-0.00001130,0.00001181,0.00002277,-0.00000630,-0.000014
 93,-0.00000523,0.00001692,0.00000038,-0.00001658,-0.00000435,-0.000063
 41,-0.00017421,0.00002398,0.00005529,0.00003789,0.00006890,0.00001566,
 0.00002147,0.00000483,0.00001520,0.00004479,0.00000242,-0.00015476,-0.
 00028167,-0.00035436,0.00002052,0.00008830,-0.00003648,0.00077341,0.00
 201641,-0.00322231,0.00008222,0.00025348,-0.00013778,0.00012769,-0.000
 26823,-0.00046317,0.00000435,0.00015632,0.00022568,-0.00010778,0.00038
 415,0.00037253,-0.00001031,0.00000914,-0.00006329,-0.07192626,-0.01359
 094,-0.10133390,0.00000037,-0.00000963,0.00003412,0.00000399,0.0000094
 9,0.00001829,0.00000649,-0.00000123,0.00001060,-0.05365179,-0.02268780
 ,-0.05320548,0.11941120,0.03581404,0.13354970,0.00037931,0.00035331,0.
 00011647,-0.00352006,-0.00027173,-0.00065797,0.01010154,0.01992269,-0.
 00488315,-0.00199735,-0.00009787,-0.00088428,0.00131570,0.00050244,-0.
 00018597,0.00030843,-0.00018565,-0.00012602,0.00012799,-0.00004527,0.0
 0001457,-0.00015642,0.00006881,-0.00003498,0.00008133,0.00004082,0.000
 06289,-0.00016535,0.00053852,-0.00006066,-0.00066668,0.00244398,0.0001
 1670,0.00004523,-0.00011883,-0.00001862,-0.00001132,0.00001335,0.00000
 160,-0.00002142,0.00000096,-0.00000502,-0.00010640,0.00176771,0.000900
 34,0.00009638,-0.00016587,-0.00007908,0.00008070,0.00006051,-0.0001468
 7,0.00005305,0.00014578,-0.00002281,-0.00015682,-0.00014040,0.00021029
 ,-0.00011355,-0.00020122,0.00006328,0.00013371,0.00017702,-0.00003453,
 -0.00003861,-0.00006145,-0.00001283,-0.00000377,-0.00004158,0.00002818
 ,-0.00001334,-0.00001279,0.00001604,0.00000555,0.00000766,0.00012174,0
 .00006692,0.00009848,-0.00014972,-0.00000173,0.00001822,0.00000501,0.0
 0000367,-0.00000320,-0.00000238,-0.00000243,-0.00001123,-0.00000553,0.
 00000289,0.00001138,-0.00000429,-0.00000143,0.00000052,0.00000567,0.00
 000381,-0.00000746,-0.00001422,-0.00000224,-0.00000178,0.00000077,0.00
 000601,0.00000763,-0.00000303,-0.00002148,-0.00003391,-0.00001247,-0.0
 0000350,0.00000615,-0.00001653,0.00001053,0.00001353,0.00001291,-0.000
 00175,0.00000930,0.00001195,-0.00000784,-0.00001035,-0.00001519,0.0000
 0751,-0.00001198,0.00000754,0.00000833,0.00001183,0.00001272,-0.000000
 93,0.00000410,-0.00001451,-0.00000492,0.00000622,-0.00000706,-0.000004
 82,0.00000083,0.00000203,0.00000424,0.00000439,0.00000297,0.00000883,0
 .00000224,-0.00000503,-0.00001137,0.00001126,-0.00000520,0.00000126,0.
 00000161,-0.00000775,-0.00000705,-0.00000126,0.00000720,0.00001615,-0.
 00000001,0.00000079,0.00000328,0.00001028,0.00000276,0.00000106,0.0000
 0977,-0.00000083,0.00000367,-0.00000512,-0.00000284,-0.00000434,-0.000
 00388,0.00000012,0.00000156,0.00001047,0.00000143,-0.00000494,-0.00000
 415,-0.00000140,0.00000732,-0.00000632,-0.00000310,0.00000208,0.000009
 90,0.00000217,-0.00003297,0.00006861,-0.00015536,-0.00022866,0.0006348
 8,0.00054590,0.00011834,-0.00063668,-0.00022889,-0.00002434,0.00000284
 ,-0.00001637,0.00003675,0.00000629,-0.00001956,-0.00000597,0.00000101,
 -0.00000107,-0.00034023,-0.00017484,-0.00007450,0.00002976,-0.00002931
 ,0.00002382,-0.00006208,0.00000282,0.00003085,0.00043304,-0.00013267,-
 0.00029155,0.00004706,0.00004141,0.00000665,0.00000116,-0.00003196,0.0
 0000660,0.00001161,0.00001253,0.00001189,-0.00000360,-0.00001445,-0.00
 001602,0.00001339,0.00001079,-0.00001550,-0.00000316,-0.00002515,-0.00
 000892,-0.00001529,0.00000624,0.00001154,-0.00000326,0.00001152,0.0000
 1682,0.00001222,-0.00000967,-0.00001056,0.00000503,-0.00000004,-0.0000
 0080,-0.00000069,0.00000410,-0.00000331,-0.00000217,-0.00001219,-0.000
 00872,-0.00000178,0.00000686,0.00000719,-0.00000018,0.00000192,0.00000
 540,0.00000404,-0.00000227,-0.00000635,0.00000118,0.00000183,-0.000001
 12,-0.00000058,-0.00000493,0.00000315,-0.00018341,0.00018507,0.0000560
 1,-0.00013381,0.00012435,-0.00001050,-0.00000510,-0.00002710,0.0000089
 4,-0.00063520,0.00026991,0.00010725,0.00001970,0.00013185,0.00018141,-
 0.00000967,-0.00006746,-0.00004408,-0.00000478,0.00000865,0.00001959,0
 .00000633,0.00000732,-0.00001774,-0.00000774,-0.00002671,0.00001701,0.
 00000324,-0.00001676,-0.00003034,0.00000185,-0.00003098,0.00001440,0.0
 0002163,0.00000869,-0.00002730,0.00002399,0.00003142,0.00003685,0.0001
 1018,-0.00002886,-0.00000643,-0.00005819,0.00000577,-0.00004341,0.0000
 0785,-0.00000012,-0.00003123,0.00001919,-0.00003949,0.00005973,0.00032
 576,0.00006491,0.00011884,0.00000069,-0.00006932,0.00003329,-0.0002297
 8,-0.00008607,-0.00025691,0.00004582,0.00019872,0.00005350,-0.00054073
 ,0.00023945,0.00060884,0.00032560,-0.00011124,-0.00028639,0.00051682,-
 0.00030720,-0.00046400,0.00017335,-0.00027475,0.00008774,-0.08658076,-
 0.02815024,0.01336686,-0.00004012,0.00009310,-0.00008987,-0.00002580,0
 .00009985,0.00001766,-0.00007637,0.00004780,-0.00001822,0.00841122,-0.
 01270897,0.01843802,-0.03036543,-0.05938058,0.00896063,0.10305886,-0.0
 0060827,-0.00008334,0.00005361,0.00740395,-0.00091368,0.00131984,-0.00
 632314,-0.04593002,0.01879347,-0.00446984,-0.00176946,-0.00065477,0.00
 067585,-0.00042036,-0.00120656,-0.00039018,0.00072921,0.00053633,-0.00
 026096,0.00017232,0.00000747,0.00045321,-0.00016165,0.00009972,-0.0001
 7602,-0.00018391,-0.00015179,0.00011555,0.00071690,0.00048927,0.002541
 60,-0.00024594,0.00102072,0.00017285,-0.00015134,0.00002929,-0.0000092
 7,-0.00002332,0.00001094,0.00006044,-0.00002308,0.00002428,0.00045436,
 -0.00292090,-0.00206340,0.00025298,0.00040974,-0.00005057,0.00012606,-
 0.00023669,0.00045773,0.00002814,-0.00061469,0.00004391,-0.00010453,0.
 00034772,-0.00059109,0.00006510,0.00080911,-0.00014079,-0.00020500,-0.
 00061314,0.00009523,0.00008498,0.00025775,0.00005438,-0.00002522,0.000
 23291,-0.00008097,-0.00014782,0.00005927,-0.00014083,-0.00008308,0.000
 04059,-0.00032863,0.00017127,-0.00017187,0.00045576,-0.00000403,-0.000
 00870,0.00001545,0.00002678,-0.00000100,0.00001977,-0.00000711,0.00000
 420,-0.00001660,-0.00001867,-0.00001358,-0.00000162,0.00002392,-0.0000
 0687,-0.00001540,-0.00001892,0.00001316,0.00001466,0.00002978,-0.00000
 751,0.00001867,-0.00001929,-0.00001079,0.00000018,-0.00001765,0.000012
 88,0.00003309,0.00001607,-0.00002753,0.00006418,-0.00004125,-0.0000207
 6,-0.00005212,0.00001740,0.00002829,-0.00004671,0.00002491,-0.00002105
 ,0.00001997,-0.00000004,0.00002013,-0.00002558,-0.00001255,-0.00000311
 ,-0.00003828,0.00000386,-0.00001481,0.00004959,-0.00000520,-0.00002308
 ,0.00001150,0.00000197,0.00001264,-0.00000576,0.00000055,-0.00003345,0
 .00000432,-0.00000879,0.00001182,-0.00000248,0.00000227,-0.00002562,0.
 00001248,0.00000524,-0.00003673,0.00002081,-0.00000847,0.00001854,-0.0
 0001841,0.00000735,0.00001872,-0.00000259,-0.00000154,-0.00002988,-0.0
 0000750,-0.00001064,-0.00003412,0.00000461,0.00001326,0.00001450,0.000
 00024,0.00000156,0.00001550,-0.00000304,-0.00000957,-0.00002743,-0.000
 02143,0.00000804,0.00001185,0.00002107,0.00000645,0.00001948,0.0000057
 7,-0.00001353,-0.00003878,-0.00000773,0.00002674,-0.00012812,0.0002070
 2,0.00021417,0.00052676,0.00038831,-0.00039710,-0.00064374,-0.00042340
 ,-0.00003363,-0.00011814,0.00002961,0.00001551,0.00000992,0.00002184,-
 0.00003830,-0.00004480,-0.00003958,0.00034000,0.00030464,0.00015014,-0
 .00000405,-0.00004454,-0.00009089,0.00000288,0.00003927,0.00009391,-0.
 00018424,-0.00025059,-0.00030841,-0.00000832,0.00014496,0.00016516,0.0
 0001750,-0.00003438,-0.00001761,-0.00004513,-0.00002331,-0.00000317,0.
 00004147,-0.00001180,-0.00003500,-0.00005974,0.00004040,-0.00001738,0.
 00000612,-0.00001253,-0.00000619,0.00002753,0.00003529,0.00000831,0.00
 004636,-0.00001286,0.00001760,0.00001681,0.00000141,0.00001167,-0.0000
 3309,-0.00001575,-0.00002548,0.00000066,0.00002182,0.00001479,0.000001
 64,-0.00000635,-0.00000115,-0.00002158,0.00000526,-0.00001931,0.000014
 40,-0.00000733,0.00000305,0.00000856,0.00000757,0.00000194,-0.00002078
 ,-0.00000109,-0.00001572,-0.00000312,-0.00001687,0.00001605,0.00029185
 ,-0.00033367,-0.00022069,0.00049143,-0.00024812,-0.00001416,0.00004024
 ,0.00006955,0.00003407,0.00002783,0.00006706,-0.00031525,0.00016527,0.
 00005144,-0.00010337,-0.00003016,-0.00005529,-0.00001107,-0.00000173,0
 .00001709,-0.00001868,-0.00000719,0.00001340,0.00003491,-0.00000361,-0
 .00004643,0.00000505,-0.00001847,-0.00004766,-0.00000237,-0.00001935,-
 0.00005210,0.00000549,-0.00000350,0.00002188,0.00001136,0.00004091,0.0
 0002739,0.00001199,0.00005053,0.00000974,0.00004093,-0.00000630,-0.000
 01604,-0.00009420,-0.00005291,-0.00001679,0.00003169,0.00002840,-0.000
 03171,0.00004013,0.00017834,0.00022328,0.00008307,-0.00012959,-0.00013
 462,0.00014003,-0.00007253,-0.00026356,-0.00020724,0.00014766,0.000161
 63,0.00004536,0.00037224,0.00062170,-0.00012885,-0.00045936,-0.0002528
 2,0.00023334,-0.00026403,-0.00053856,0.00034213,-0.00071465,0.00070912
 ,-0.00011138,-0.02347737,-0.26543876,0.07520357,0.00016485,-0.00023634
 ,0.00017295,0.00011035,-0.00025942,-0.00006318,0.00035049,-0.00010319,
 0.00002619,-0.00831108,0.00142672,0.03348637,-0.04383622,-0.03158738,0
 .00093132,0.07522114,0.34734824,-0.00019422,-0.00033835,-0.00019888,-0
 .00149661,0.00069877,0.00075896,0.00229516,0.00473022,0.00768329,0.001
 46354,-0.00023070,0.00005324,-0.00039396,0.00029394,0.00012598,-0.0000
 3730,-0.00003276,0.00004062,-0.00000995,-0.00001140,0.00001381,-0.0000
 0845,-0.00000092,-0.00000320,0.00000302,0.00000723,-0.00000593,-0.0000
 2955,-0.00001338,0.00003338,-0.00051057,0.00002548,-0.00051101,-0.0000
 4085,0.00004681,-0.00002308,0.00000756,0.00000046,-0.00000600,0.000001
 67,0.00000185,-0.00000564,0.00067311,0.00053047,-0.00055444,-0.0001261
 3,0.00000228,0.00027302,-0.00004445,0.00004152,0.00003463,-0.00002300,
 0.00008794,0.00001735,0.00003351,-0.00002052,-0.00008882,0.00003440,-0
 .00009701,-0.00003350,0.00000066,0.00007768,0.00001795,-0.00000556,-0.
 00003931,-0.00001653,0.00000621,-0.00003183,-0.00000925,0.00001626,-0.
 00002216,0.00001256,0.00002984,-0.00005794,-0.00007786,-0.00001753,0.0
 0003606,0.00008893,0.00001001,-0.00001262,-0.00000565,-0.00000749,-0.0
 0000119,0.00000003,-0.00000650,0.00000495,0.00001071,0.00000378,0.0000
 0481,0.00000320,0.00000650,0.00000909,0.00000239,-0.00000286,-0.000000
 97,0.00000838,-0.00000477,0.00000045,-0.00000394,0.00000247,0.00000617
 ,-0.00000063,-0.00000272,0.00003184,0.00002697,-0.00000338,0.00000730,
 -0.00000097,0.00004358,-0.00000125,-0.00000925,-0.00001942,-0.00004198
 ,0.00000439,-0.00000617,0.00001798,0.00002260,-0.00001248,0.00001089,0
 .00000244,0.00000722,-0.00000671,-0.00000608,0.00000281,-0.00000211,-0
 .00000142,0.00000244,0.00000153,0.00000048,0.00000139,-0.00000068,0.00
 000587,-0.00000081,0.00000523,-0.00000174,-0.00000181,-0.00000291,0.00
 000022,0.00000401,0.00000076,0.00000289,-0.00000253,0.00000842,-0.0000
 0002,0.00000922,-0.00000586,0.00000096,-0.00001389,-0.00000673,-0.0000
 0247,0.00000043,0.00000343,-0.00000084,0.00000277,0.00000470,-0.000000
 30,-0.00000548,-0.00000168,0.00000043,0.00000077,-0.00000364,0.0000046
 7,-0.00000157,0.00000436,0.00000457,0.00000282,-0.00000275,-0.00000269
 ,-0.00000620,-0.00000126,0.00000006,0.00000248,0.00000554,0.00000176,-
 0.00002903,0.00005714,-0.00009706,0.00002840,-0.00014690,-0.00018384,0
 .00003191,0.00012453,0.00026009,0.00000527,0.00000596,-0.00001169,-0.0
 0001369,0.00000153,-0.00001226,0.00000746,0.00001314,0.00001783,-0.000
 04134,-0.00004738,-0.00004781,-0.00000546,0.00002130,0.00003656,0.0000
 2568,-0.00001431,-0.00001413,-0.00001766,0.00004374,0.00014075,-0.0000
 1448,-0.00001426,-0.00004363,0.00000209,0.00000691,0.00000575,0.000005
 95,0.00000204,-0.00000764,-0.00001350,0.00000592,0.00001601,0.00000169
 ,0.00000481,-0.00000648,0.00000096,0.00000838,0.00000897,-0.00000591,-
 0.00002110,-0.00001541,0.00000282,-0.00001478,-0.00001317,-0.00001762,
 0.00000672,-0.00000096,0.00000990,0.00000773,0.00001172,-0.00001439,-0
 .00000364,-0.00000750,0.00000153,0.00000800,0.00000648,0.00001259,-0.0
 0000714,0.00000536,-0.00000023,-0.00000601,-0.00000223,-0.00000759,0.0
 0000203,0.00000258,0.00000686,0.00000155,0.00000598,-0.00000125,0.0000
 0271,-0.00000290,-0.00000044,0.00000650,0.00002146,-0.00003294,-0.0000
 0812,0.00002871,0.00000487,0.00000793,-0.00002986,0.00033207,-0.000176
 82,-0.00005025,-0.00007643,-0.00013531,-0.00011012,0.00002386,0.000064
 09,0.00003310,0.00001033,-0.00001816,-0.00000946,-0.00001182,-0.000012
 36,0.00001262,0.00001041,0.00003967,-0.00000887,-0.00000044,0.00003692
 ,0.00001093,0.00001026,0.00003995,-0.00001218,-0.00001905,-0.00001258,
 0.00001918,-0.00002143,-0.00003061,-0.00002152,-0.00011761,-0.00013924
 ,0.00000957,0.00006514,0.00002636,0.00008894,0.00002157,0.00002189,0.0
 0001142,0.00000011,0.00005979,-0.00003028,-0.00027520,-0.00033967,0.00
 003231,0.00002824,0.00007035,-0.00002962,-0.00009814,-0.00005131,-0.00
 007683,0.00004537,0.00006242,-0.00007864,0.00022241,-0.00039230,-0.000
 50903,-0.00004645,0.00020451,0.00021853,-0.00024431,0.00046105,0.00039
 451,0.00006998,-0.00000907,-0.00007683,0.01124915,0.07505933,-0.105281
 37,-0.00001719,-0.00000304,0.00003737,-0.00001041,0.00001480,0.0000204
 7,-0.00003776,-0.00000290,0.00001352,0.01969738,0.05205012,-0.05939381
 ,0.00260176,-0.00481310,0.01565518,-0.03497565,-0.12784927,0.14137290\
 \0.00000072,0.00000161,0.00000396,-0.00001209,0.00000734,0.00000414,0.
 00000413,-0.00000059,0.00000599,-0.00000266,0.00000009,0.00000635,-0.0
 0000251,0.00000622,0.00000440,-0.00000679,0.00000227,-0.00000187,0.000
 00179,0.00000704,0.00000061,-0.00000346,0.00000131,-0.00000149,-0.0000
 0459,0.00000330,-0.00000334,-0.00000061,0.00000227,-0.00000041,-0.0000
 0069,0.00000008,0.00000225,-0.00000219,0.00000004,0.00000185,0.0000000
 9,-0.00000026,-0.00000184,0.00000293,0.00000122,0.00000164,0.00000486,
 -0.00000297,0.00000274,-0.00000501,0.00000060,0.00000004,0.00000120,-0
 .00000679,0.00000061,0.00000147,0.00000382,-0.00000343,0.00000317,0.00
 000313,-0.00000224,0.00000592,0.00000161,-0.00000135,-0.00000264,-0.00
 000243,-0.00000160,0.00000175,0.00000496,-0.00000852,-0.00000169,-0.00
 000227,-0.00000839,-0.00000152,-0.00000554,0.00000191,0.00000294,0.000
 00050,-0.00000535,-0.00000038,-0.00000293,0.00000280,0.00000393,-0.000
 00175,-0.00000169,0.00000145,-0.00000138,-0.00000027,0.00000064,-0.000
 00207,-0.00000067,-0.00000169,-0.00000548,-0.00000199,-0.00000335,0.00
 000350,0.00000053,0.00000298,0.00000101,-0.00000436,0.00000132,-0.0000
 0215,-0.00000135,0.00000124,-0.00000152,-0.00000134,0.00000193,-0.0000
 0621,0.00000028,0.00000060,-0.00000084,0.00000263,0.00000060,0.,0.0000
 0102,-0.00000385,-0.00000063,0.00000064,0.00000070,-0.00000632,0.00000
 220,-0.00000084,0.00000132,0.00000023,0.00000045,0.00000135,-0.0000002
 5,-0.00000033,-0.00000040,-0.00000247,0.00000297,0.00000438,-0.0000071
 0,0.00000047,0.00000064,0.00000007,0.00000051,-0.00000182,-0.00000193,
 -0.00000038,-0.00000039,-0.00000142,0.00000009,-0.00000266,-0.00000041
 ,0.00000008,0.00000054,-0.00000291,0.00000233,-0.00000124,-0.00000117,
 0.00000236,-0.00000151,-0.00000241,-0.00000077,-0.00000589,0.00000034,
 0.00000311,0.00000487,-0.00000306,0.00000042,0.00000083,-0.00000293,0.
 00000100,-0.00000154,-0.00000599,-0.00000174,-0.00000226,-0.00000533,0
 .00000036,0.00000291,-0.00000235,0.00000005,0.00000208,-0.00000186,0.0
 0000141,0.00000278,-0.00000240,0.00000165,0.00000111,0.00000107,0.0000
 0684,0.00000039,-0.00000157,-0.00000118,0.00000156,0.00000475,-0.00000
 384,0.00000222,0.00000333,0.00000012,-0.00000083,0.00000074,-0.0000001
 8,0.00000087,-0.00000075,0.00000102,0.00000857,-0.00000022,-0.00000026
 ,0.00000088,-0.00000012,-0.00000091,-0.00000268,0.00000171,-0.00000535
 ,0.00000934,0.00000607,-0.00000813,0.00000016,-0.00000451,0.00000123,-
 0.00000074,0.00000081,0.00000457,0.00000278,0.00000079,0.00000051,0.00
 000205,-0.00000168,-0.00000187,-0.00000141,0.00000006,-0.00000128,0.00
 000271,0.00000094,-0.00000130,0.00000120,-0.00000265,0.00000705,-0.000
 00068,0.00000009,0.00000006,-0.00000063,0.00000036,-0.00000209,-0.0000
 0040,-0.00000185,-0.00000577,-0.00000471,-0.00000657,0.00000045,0.0000
 0137,0.00000034,0.00000442,0.00000005,0.00000243,0.00000369,0.00000151
 ,-0.00000119,0.00000049,-0.00000255,-0.00000218,-0.00000031,-0.0000015
 4,-0.00000130,0.00000047,-0.00000423,-0.00000079,0.00000186,0.00000155
 ,0.00000103,0.00000277,0.00000356,0.00000357,0.00000039,0.00000108,0.0
 0000063,-0.00000430,0.00000064,0.00000025,0.00000353,0.00000211,-0.000
 00024,-0.00000404,-0.00000641,0.00000034,0.00000323,-0.00000233,0.0000
 0001,0.00000030,-0.00000179,0.00000034,0.00000178,-0.00000149,0.000000
 14,-0.00000221,-0.00000213,0.00000249,-0.00000077,-0.00000380,-0.00000
 015,0.00000054,-0.00000178,0.00000076,0.00000081,-0.00000068,0.0000014
 2,-0.00000006,0.00000170,0.00000287,-0.00000133,-0.00000484,0.00000241
 ,0.00000069,-0.00000267,0.00000057,0.00000212,-0.00000430,0.00000237,-
 0.00000775,-0.00000844,0.00001269,0.00000389,-0.00000274,-0.00000094,0
 .00000308,0.00000334,0.00000132,0.00000005,-0.00000075,-0.00000071,0.0
 0000081,-0.00000058,-0.00000183,0.00000070,-0.00000251,0.00000021,0.00
 000026,-0.00000390,0.00000437,-0.00000399,0.00000432,-0.00000729,-0.00
 000182,-0.00000159,0.00000756,0.00000007,0.00000081,-0.00000064,0.0000
 0104,0.00000450,-0.00000542,0.00000393,0.00000553,-0.00000437,-0.00000
 240,-0.00000210,0.00000798,-0.00000239,0.00000050,0.00000950,-0.000003
 06,0.00000504,0.00000891\\\@
 The archive entry for this job was punched.


 "PERFECTION IS NOT AN ACCIDENT"
         --  EAGLE ELECTRIC MANUFACTURING CO.,INC. NY
 Job cpu time:       2 days 14 hours 24 minutes 23.4 seconds.
 Elapsed time:       0 days  3 hours 58 minutes 15.3 seconds.
 File lengths (MBytes):  RWF=  11754 Int=      0 D2E=      0 Chk=     62 Scr=      1
 Normal termination of Gaussian 16 at Sat Dec  7 22:50:10 2024.
