/mnt/lustre/scratch/nvme/SLURM/9663631/usccqdma.W62riS5nNE
OMP_STACKSIZE=0m
GAUSS_PDEF=16
GAUSS_MDEF=65536MB
GAUSS_RDEF=SCF=Direct
 Entering Gaussian System, Link 0=g16.exe
 Initial command:
 /opt/cesga/2020/software/Core/g16/c1/l1.exe "/mnt/lustre/scratch/nvme/SLURM/9663631/usccqdma.W62riS5nNE/Gau-442209.inp" -scrdir="/mnt/lustre/scratch/nvme/SLURM/9663631/usccqdma.W62riS5nNE/"
 Default is to use a total of  16 processors:
                               16 via shared-memory
                                1 via Linda
 Entering Link 1 = /opt/cesga/2020/software/Core/g16/c1/l1.exe PID=    442235.
  
 Copyright (c) 1988-2019, Gaussian, Inc.  All Rights Reserved.
  
 This is part of the Gaussian(R) 16 program.  It is based on
 the Gaussian(R) 09 system (copyright 2009, Gaussian, Inc.),
 the Gaussian(R) 03 system (copyright 2003, Gaussian, Inc.),
 the Gaussian(R) 98 system (copyright 1998, Gaussian, Inc.),
 the Gaussian(R) 94 system (copyright 1995, Gaussian, Inc.),
 the Gaussian 92(TM) system (copyright 1992, Gaussian, Inc.),
 the Gaussian 90(TM) system (copyright 1990, Gaussian, Inc.),
 the Gaussian 88(TM) system (copyright 1988, Gaussian, Inc.),
 the Gaussian 86(TM) system (copyright 1986, Carnegie Mellon
 University), and the Gaussian 82(TM) system (copyright 1983,
 Carnegie Mellon University). Gaussian is a federally registered
 trademark of Gaussian, Inc.
  
 This software contains proprietary and confidential information,
 including trade secrets, belonging to Gaussian, Inc.
  
 This software is provided under written license and may be
 used, copied, transmitted, or stored only in accord with that
 written license.
  
 The following legend is applicable only to US Government
 contracts under FAR:
  
                    RESTRICTED RIGHTS LEGEND
  
 Use, reproduction and disclosure by the US Government is
 subject to restrictions as set forth in subparagraphs (a)
 and (c) of the Commercial Computer Software - Restricted
 Rights clause in FAR 52.227-19.
  
 Gaussian, Inc.
 340 Quinnipiac St., Bldg. 40, Wallingford CT 06492
  
  
 ---------------------------------------------------------------
 Warning -- This program may not be used in any manner that
 competes with the business of Gaussian, Inc. or will provide
 assistance to any competitor of Gaussian, Inc.  The licensee
 of this program is prohibited from giving any competitor of
 Gaussian, Inc. access to this program.  By using this program,
 the user acknowledges that Gaussian, Inc. is engaged in the
 business of creating and licensing software in the field of
 computational chemistry and represents and warrants to the
 licensee that it is not a competitor of Gaussian, Inc. and that
 it will not use this program in any manner prohibited above.
 ---------------------------------------------------------------
  

 Cite this work as:
 Gaussian 16, Revision C.01,
 M. J. Frisch, G. W. Trucks, H. B. Schlegel, G. E. Scuseria, 
 M. A. Robb, J. R. Cheeseman, G. Scalmani, V. Barone, 
 G. A. Petersson, H. Nakatsuji, X. Li, M. Caricato, A. V. Marenich, 
 J. Bloino, B. G. Janesko, R. Gomperts, B. Mennucci, H. P. Hratchian, 
 J. V. Ortiz, A. F. Izmaylov, J. L. Sonnenberg, D. Williams-Young, 
 F. Ding, F. Lipparini, F. Egidi, J. Goings, B. Peng, A. Petrone, 
 T. Henderson, D. Ranasinghe, V. G. Zakrzewski, J. Gao, N. Rega, 
 G. Zheng, W. Liang, M. Hada, M. Ehara, K. Toyota, R. Fukuda, 
 J. Hasegawa, M. Ishida, T. Nakajima, Y. Honda, O. Kitao, H. Nakai, 
 T. Vreven, K. Throssell, J. A. Montgomery, Jr., J. E. Peralta, 
 F. Ogliaro, M. J. Bearpark, J. J. Heyd, E. N. Brothers, K. N. Kudin, 
 V. N. Staroverov, T. A. Keith, R. Kobayashi, J. Normand, 
 K. Raghavachari, A. P. Rendell, J. C. Burant, S. S. Iyengar, 
 J. Tomasi, M. Cossi, J. M. Millam, M. Klene, C. Adamo, R. Cammi, 
 J. W. Ochterski, R. L. Martin, K. Morokuma, O. Farkas, 
 J. B. Foresman, and D. J. Fox, Gaussian, Inc., Wallingford CT, 2019.
 
 ******************************************
 Gaussian 16:  ES64L-G16RevC.01  3-Jul-2019
                 7-Dec-2024 
 ******************************************
 Default route: SCF=Direct
 ----------------------------------------------------
 # m06/genecp scf=tight int=ultrafine 5d freq=noraman
 ----------------------------------------------------
 1/10=4,30=1,38=1/1,3;
 2/12=2,17=6,18=5,40=1/2;
 3/5=7,8=1,11=2,16=1,17=8,25=1,30=1,71=2,74=-54,75=-5,140=1/1,2,3;
 4//1;
 5/5=2,32=2,38=5,98=1/2;
 8/6=4,10=90,11=11/1;
 11/6=1,8=1,9=11,15=111,16=1/1,2,10;
 10/6=1/2;
 6/7=2,8=2,9=2,10=2,28=1/1;
 7/8=1,10=1,25=1/1,2,3,16;
 1/10=4,30=1/3;
 99//99;
 ------
 OPT-TS
 ------
 Symbolic Z-matrix:
 Charge =  0 Multiplicity = 1
 C                    -2.1458   -1.98926   1.14468 
 C                    -3.23599  -0.44203  -0.20297 
 C                    -4.47133  -0.99933   0.08114 
 C                    -4.5343   -2.09579   0.93934 
 C                    -3.36347  -2.59279   1.47865 
 C                    -0.84513  -2.45189   1.65952 
 C                     1.4489   -2.09847   1.74718 
 C                     1.63673  -3.21266   2.55028 
 C                     0.53154  -3.96817   2.91524 
 C                    -0.7199   -3.58358   2.46115 
 H                    -3.12673   0.43774  -0.83483 
 H                    -5.49639  -2.54306   1.18458 
 H                    -3.39975  -3.43413   2.16463 
 H                     2.27536  -1.46003   1.44049 
 H                     0.6387   -4.84895   3.54482 
 H                    -1.59595  -4.16569   2.7327 
 N                    -2.10562  -0.9317    0.31282 
 N                     0.24026  -1.72396   1.31055 
 Ir                   -0.04744  -0.03296  -0.00521 
 O                     0.05748  -1.43834  -2.7971 
 O                     2.86058   0.51157   0.69425 
 O                    -1.91478   2.35795  -0.3652 
 B                     1.8708    0.55012  -0.29171 
 B                     0.59189  -1.32352  -1.52702 
 B                    -0.58486   1.95544  -0.20737 
 O                     0.27042   3.03519  -0.38897 
 O                     1.65365  -2.21067  -1.36225 
 C                     1.65697  -3.10001  -2.4899 
 C                     0.95354  -2.24508  -3.57975 
 C                    -1.89779   3.64506  -0.99964 
 C                    -0.5226    4.22143  -0.54583 
 C                     4.13328   0.69834   0.05349 
 C                     3.73859   1.46856  -1.2393 
 O                     2.42048   0.97289  -1.49711 
 C                     1.90169  -1.28692  -4.28864 
 H                     2.46961  -0.6894   -3.5622 
 H                     2.59905  -1.81326  -4.95471 
 H                     1.30682  -0.59095  -4.89314 
 C                     0.15509  -3.03756  -4.59423 
 H                    -0.30725  -2.35342  -5.31697 
 H                     0.806    -3.7282   -5.14999 
 H                    -0.64591  -3.61542  -4.1201 
 C                     3.08395  -3.49658  -2.80823 
 H                     3.72098  -2.61961  -2.97316 
 H                     3.50616  -4.0686   -1.97136 
 H                     3.12374  -4.12914  -3.70685 
 C                     0.85333  -4.32794  -2.07907 
 H                     0.85603  -5.1061   -2.85423 
 H                     1.29661  -4.74794  -1.16647 
 H                    -0.18804  -4.05814  -1.85565 
 C                     5.05095   1.45281   0.99406 
 H                     4.61374   2.40651   1.31122 
 H                     5.23703   0.8492    1.89299 
 H                     6.02079   1.65606   0.51728 
 C                     4.69409  -0.69042  -0.22512 
 H                     4.0109   -1.26449  -0.86689 
 H                     5.68693  -0.65137  -0.69312 
 H                     4.79226  -1.22903   0.72775 
 C                     3.61969   2.97397  -1.03182 
 H                     4.60004   3.4491   -0.88962 
 H                     3.14569   3.40931  -1.92093 
 H                     2.97358   3.20886  -0.17529 
 C                     4.61957   1.18417  -2.4399 
 H                     4.24937   1.74366  -3.30875 
 H                     5.65676   1.49672  -2.25013 
 H                     4.61911   0.11914  -2.70135 
 C                     0.15579   5.12254  -1.55939 
 H                    -0.46537   6.00206  -1.78216 
 H                     1.11289   5.47681  -1.15398 
 H                     0.36514   4.59138  -2.49416 
 C                    -0.57939   4.92911   0.80149 
 H                     0.44734   5.11832   1.14295 
 H                    -1.09914   5.89402   0.73212 
 H                    -1.08261   4.3209    1.56461 
 C                    -3.1059    4.43707  -0.54284 
 H                    -3.08265   5.45751  -0.95149 
 H                    -4.02255   3.95036  -0.90029 
 H                    -3.16176   4.4971    0.54961 
 C                    -1.97552   3.40158  -2.50219 
 H                    -1.10598   2.83577  -2.86212 
 H                    -2.87405   2.80711  -2.71435 
 H                    -2.04319   4.33906  -3.07012 
 H                    -0.30352   0.74991  -1.39895 
 C                     0.72959   0.29073   3.79452 
 O                    -0.10687  -0.59308   3.97558 
 C                     1.98241   0.36594   4.65368 
 H                     2.85996   0.26311   3.99252 
 H                     2.07187   1.36693   5.10337 
 C                    -0.52671   1.18335   1.91131 
 H                    -1.27954   0.52503   2.35563 
 H                    -0.9781    2.18557   1.90553 
 N                     0.61181   1.22512   2.8106 
 C                     1.50114   2.3611    2.68886 
 H                     2.54701   2.07664   2.84108 
 H                     1.4142    2.75898   1.67271 
 H                     1.23639   3.16183   3.40081 
 C                     1.99467  -0.70291   5.72863 
 H                     1.1289   -0.60013   6.3925 
 H                     1.93419  -1.70385   5.28503 
 C                    -5.73506  -0.45456  -0.50425 
 F                    -5.52189   0.62825  -1.25122 
 F                    -6.33929  -1.37072  -1.27189 
 F                    -6.60502  -0.12654   0.45901 
 H                     2.63875  -3.47308   2.88214 
 H                     2.90809  -0.64101   6.33286 
 

 GradGradGradGradGradGradGradGradGradGradGradGradGradGradGradGradGradGrad
 Berny optimization.
 Initialization pass.
 Trust Radius=3.00D-01 FncErr=1.00D-07 GrdErr=1.00D-07 EigMax=2.50D+02 EigMin=1.00D-04
 Number of steps in this run=      2 maximum allowed number of steps=      2.
 GradGradGradGradGradGradGradGradGradGradGradGradGradGradGradGradGradGrad

 Stoichiometry    C34H54B3F3IrN3O7
 Framework group  C1[X(C34H54B3F3IrN3O7)]
 Deg. of freedom   309
 Full point group                 C1      NOp   1
 Largest Abelian subgroup         C1      NOp   1
 Largest concise Abelian subgroup C1      NOp   1
                         Standard orientation:                         
 ---------------------------------------------------------------------
 Center     Atomic      Atomic             Coordinates (Angstroms)
 Number     Number       Type             X           Y           Z
 ---------------------------------------------------------------------
      1          6           0       -2.145799   -1.989262    1.144679
      2          6           0       -3.235991   -0.442033   -0.202971
      3          6           0       -4.471330   -0.999335    0.081139
      4          6           0       -4.534299   -2.095795    0.939339
      5          6           0       -3.363469   -2.592793    1.478649
      6          6           0       -0.845129   -2.451891    1.659519
      7          6           0        1.448901   -2.098469    1.747179
      8          6           0        1.636732   -3.212658    2.550279
      9          6           0        0.531543   -3.968170    2.915239
     10          6           0       -0.719898   -3.583581    2.461149
     11          1           0       -3.126732    0.437737   -0.834831
     12          1           0       -5.496389   -2.543066    1.184579
     13          1           0       -3.399748   -3.434133    2.164629
     14          1           0        2.275360   -1.460028    1.440489
     15          1           0        0.638704   -4.848949    3.544819
     16          1           0       -1.595947   -4.165692    2.732699
     17          7           0       -2.105620   -0.931702    0.312819
     18          7           0        0.240261   -1.723960    1.310549
     19         77           0       -0.047441   -0.032960   -0.005211
     20          8           0        0.057480   -1.438340   -2.797101
     21          8           0        2.860578    0.511573    0.694249
     22          8           0       -1.914783    2.357948   -0.365201
     23          5           0        1.870798    0.550122   -0.291711
     24          5           0        0.591890   -1.323520   -1.527021
     25          5           0       -0.584863    1.955439   -0.207371
     26          8           0        0.270416    3.035190   -0.388971
     27          8           0        1.653651   -2.210668   -1.362251
     28          6           0        1.656972   -3.100008   -2.489901
     29          6           0        0.953541   -2.245079   -3.579751
     30          6           0       -1.897795    3.645058   -0.999641
     31          6           0       -0.522605    4.221429   -0.545831
     32          6           0        4.133278    0.698344    0.053489
     33          6           0        3.738587    1.468564   -1.239301
     34          8           0        2.420478    0.972892   -1.497111
     35          6           0        1.901690   -1.286918   -4.288641
     36          1           0        2.469610   -0.689398   -3.562201
     37          1           0        2.599051   -1.813258   -4.954711
     38          1           0        1.306819   -0.590949   -4.893141
     39          6           0        0.155092   -3.037560   -4.594231
     40          1           0       -0.307249   -2.353420   -5.316971
     41          1           0        0.806003   -3.728199   -5.149991
     42          1           0       -0.645908   -3.615421   -4.120101
     43          6           0        3.083952   -3.496577   -2.808231
     44          1           0        3.720981   -2.619606   -2.973161
     45          1           0        3.506163   -4.068597   -1.971361
     46          1           0        3.123743   -4.129137   -3.706851
     47          6           0        0.853333   -4.327939   -2.079071
     48          1           0        0.856034   -5.106099   -2.854231
     49          1           0        1.296614   -4.747939   -1.166471
     50          1           0       -0.188037   -4.058140   -1.855651
     51          6           0        5.050947    1.452815    0.994059
     52          1           0        4.613736    2.406514    1.311219
     53          1           0        5.237028    0.849205    1.892989
     54          1           0        6.020787    1.656066    0.517279
     55          6           0        4.694090   -0.690415   -0.225121
     56          1           0        4.010900   -1.264486   -0.866891
     57          1           0        5.686929   -0.651364   -0.693121
     58          1           0        4.792260   -1.229025    0.727749
     59          6           0        3.619686    2.973973   -1.031821
     60          1           0        4.600035    3.449104   -0.889621
     61          1           0        3.145685    3.409313   -1.920931
     62          1           0        2.973576    3.208863   -0.175291
     63          6           0        4.619568    1.184174   -2.439901
     64          1           0        4.249367    1.743664   -3.308751
     65          1           0        5.656757    1.496725   -2.250131
     66          1           0        4.619109    0.119144   -2.701351
     67          6           0        0.155784    5.122540   -1.559391
     68          1           0       -0.465377    6.002059   -1.782161
     69          1           0        1.112883    5.476811   -1.153981
     70          1           0        0.365134    4.591380   -2.494161
     71          6           0       -0.579396    4.929109    0.801489
     72          1           0        0.447334    5.118320    1.142949
     73          1           0       -1.099147    5.894019    0.732119
     74          1           0       -1.082615    4.320899    1.564609
     75          6           0       -3.105906    4.437067   -0.542841
     76          1           0       -3.082657    5.457507   -0.951491
     77          1           0       -4.022555    3.950356   -0.900291
     78          1           0       -3.161766    4.497097    0.549609
     79          6           0       -1.975525    3.401578   -2.502191
     80          1           0       -1.105984    2.835769   -2.862121
     81          1           0       -2.874054    2.807107   -2.714351
     82          1           0       -2.043195    4.339058   -3.070121
     83          1           0       -0.303522    0.749910   -1.398951
     84          6           0        0.729589    0.290731    3.794519
     85          8           0       -0.106871   -0.593080    3.975579
     86          6           0        1.982408    0.365942    4.653679
     87          1           0        2.859959    0.263113    3.992519
     88          1           0        2.071867    1.366932    5.103369
     89          6           0       -0.526712    1.183349    1.911309
     90          1           0       -1.279542    0.525029    2.355629
     91          1           0       -0.978103    2.185569    1.905529
     92          7           0        0.611808    1.225120    2.810599
     93          6           0        1.501137    2.361101    2.688859
     94          1           0        2.547007    2.076642    2.841079
     95          1           0        1.414196    2.758981    1.672709
     96          1           0        1.236386    3.161831    3.400809
     97          6           0        1.994670   -0.702908    5.728629
     98          1           0        1.128899   -0.600129    6.392499
     99          1           0        1.934191   -1.703848    5.285029
    100          6           0       -5.735061   -0.454566   -0.504251
    101          9           0       -5.521892    0.628244   -1.251221
    102          9           0       -6.339290   -1.370726   -1.271891
    103          9           0       -6.605021   -0.126547    0.459009
    104          1           0        2.638752   -3.473078    2.882139
    105          1           0        2.908089   -0.641007    6.332859
 ---------------------------------------------------------------------
 Rotational constants (GHZ):           0.0646655           0.0512237           0.0481043
 General basis read from cards:  (5D, 7F)
 ======================================================================================================
                                       Pseudopotential Parameters
 ======================================================================================================
  Center     Atomic      Valence      Angular      Power
  Number     Number     Electrons     Momentum     of R      Exponent        Coefficient   SO-Coeffient
 ======================================================================================================
    1          6
                                   No pseudopotential on this center.
    2          6
                                   No pseudopotential on this center.
    3          6
                                   No pseudopotential on this center.
    4          6
                                   No pseudopotential on this center.
    5          6
                                   No pseudopotential on this center.
    6          6
                                   No pseudopotential on this center.
    7          6
                                   No pseudopotential on this center.
    8          6
                                   No pseudopotential on this center.
    9          6
                                   No pseudopotential on this center.
   10          6
                                   No pseudopotential on this center.
   11          1
                                   No pseudopotential on this center.
   12          1
                                   No pseudopotential on this center.
   13          1
                                   No pseudopotential on this center.
   14          1
                                   No pseudopotential on this center.
   15          1
                                   No pseudopotential on this center.
   16          1
                                   No pseudopotential on this center.
   17          7
                                   No pseudopotential on this center.
   18          7
                                   No pseudopotential on this center.
   19         77           17
                                      G and up 
                                                     1      823.5880147       -0.15780140    0.00000000
                                                     2      364.6613336    -1517.52704460    0.00000000
                                                     2       55.7082801     -316.53065290    0.00000000
                                                     2       12.0464544      -91.88809410    0.00000000
                                                     2        3.5120610       -9.22417730    0.00000000
                                      S - G
                                                     0      188.0490770        3.15780140    0.00000000
                                                     1      340.4194712       26.83225770    0.00000000
                                                     2      128.2373673      800.42500070    0.00000000
                                                     2       33.8644961      369.40506830    0.00000000
                                                     2        4.7560005      242.41718990    0.00000000
                                                     2        3.9649974     -118.21732820    0.00000000
                                      P - G
                                                     0      289.7291139        2.15780140    0.00000000
                                                     1       87.4633789       61.96786100    0.00000000
                                                     2       30.4363766      269.05819860    0.00000000
                                                     2        4.0553412      231.16547930    0.00000000
                                                     2        3.5525341     -133.69526670    0.00000000
                                      D - G
                                                     0      136.4017106        3.15780140    0.00000000
                                                     1       95.0776925       45.93498030    0.00000000
                                                     2       49.2258410      359.03446680    0.00000000
                                                     2       15.0874145      176.47401190    0.00000000
                                                     2        4.0405764       54.51552860    0.00000000
                                      F - G
                                                     0      127.3507908        3.95461970    0.00000000
                                                     1       66.2364374       52.97736550    0.00000000
                                                     2       34.4299229      274.86433830    0.00000000
                                                     2       10.1995721      137.20473380    0.00000000
                                                     2        2.5409702       14.86333050    0.00000000
   20          8
                                   No pseudopotential on this center.
   21          8
                                   No pseudopotential on this center.
   22          8
                                   No pseudopotential on this center.
   23          5
                                   No pseudopotential on this center.
   24          5
                                   No pseudopotential on this center.
   25          5
                                   No pseudopotential on this center.
   26          8
                                   No pseudopotential on this center.
   27          8
                                   No pseudopotential on this center.
   28          6
                                   No pseudopotential on this center.
   29          6
                                   No pseudopotential on this center.
   30          6
                                   No pseudopotential on this center.
   31          6
                                   No pseudopotential on this center.
   32          6
                                   No pseudopotential on this center.
   33          6
                                   No pseudopotential on this center.
   34          8
                                   No pseudopotential on this center.
   35          6
                                   No pseudopotential on this center.
   36          1
                                   No pseudopotential on this center.
   37          1
                                   No pseudopotential on this center.
   38          1
                                   No pseudopotential on this center.
   39          6
                                   No pseudopotential on this center.
   40          1
                                   No pseudopotential on this center.
   41          1
                                   No pseudopotential on this center.
   42          1
                                   No pseudopotential on this center.
   43          6
                                   No pseudopotential on this center.
   44          1
                                   No pseudopotential on this center.
   45          1
                                   No pseudopotential on this center.
   46          1
                                   No pseudopotential on this center.
   47          6
                                   No pseudopotential on this center.
   48          1
                                   No pseudopotential on this center.
   49          1
                                   No pseudopotential on this center.
   50          1
                                   No pseudopotential on this center.
   51          6
                                   No pseudopotential on this center.
   52          1
                                   No pseudopotential on this center.
   53          1
                                   No pseudopotential on this center.
   54          1
                                   No pseudopotential on this center.
   55          6
                                   No pseudopotential on this center.
   56          1
                                   No pseudopotential on this center.
   57          1
                                   No pseudopotential on this center.
   58          1
                                   No pseudopotential on this center.
   59          6
                                   No pseudopotential on this center.
   60          1
                                   No pseudopotential on this center.
   61          1
                                   No pseudopotential on this center.
   62          1
                                   No pseudopotential on this center.
   63          6
                                   No pseudopotential on this center.
   64          1
                                   No pseudopotential on this center.
   65          1
                                   No pseudopotential on this center.
   66          1
                                   No pseudopotential on this center.
   67          6
                                   No pseudopotential on this center.
   68          1
                                   No pseudopotential on this center.
   69          1
                                   No pseudopotential on this center.
   70          1
                                   No pseudopotential on this center.
   71          6
                                   No pseudopotential on this center.
   72          1
                                   No pseudopotential on this center.
   73          1
                                   No pseudopotential on this center.
   74          1
                                   No pseudopotential on this center.
   75          6
                                   No pseudopotential on this center.
   76          1
                                   No pseudopotential on this center.
   77          1
                                   No pseudopotential on this center.
   78          1
                                   No pseudopotential on this center.
   79          6
                                   No pseudopotential on this center.
   80          1
                                   No pseudopotential on this center.
   81          1
                                   No pseudopotential on this center.
   82          1
                                   No pseudopotential on this center.
   83          1
                                   No pseudopotential on this center.
   84          6
                                   No pseudopotential on this center.
   85          8
                                   No pseudopotential on this center.
   86          6
                                   No pseudopotential on this center.
   87          1
                                   No pseudopotential on this center.
   88          1
                                   No pseudopotential on this center.
   89          6
                                   No pseudopotential on this center.
   90          1
                                   No pseudopotential on this center.
   91          1
                                   No pseudopotential on this center.
   92          7
                                   No pseudopotential on this center.
   93          6
                                   No pseudopotential on this center.
   94          1
                                   No pseudopotential on this center.
   95          1
                                   No pseudopotential on this center.
   96          1
                                   No pseudopotential on this center.
   97          6
                                   No pseudopotential on this center.
   98          1
                                   No pseudopotential on this center.
   99          1
                                   No pseudopotential on this center.
  100          6
                                   No pseudopotential on this center.
  101          9
                                   No pseudopotential on this center.
  102          9
                                   No pseudopotential on this center.
  103          9
                                   No pseudopotential on this center.
  104          1
                                   No pseudopotential on this center.
  105          1
                                   No pseudopotential on this center.
 ======================================================================================================
 There are   882 symmetry adapted cartesian basis functions of A   symmetry.
 There are   830 symmetry adapted basis functions of A   symmetry.
   830 basis functions,  1659 primitive gaussians,   882 cartesian basis functions
   197 alpha electrons      197 beta electrons
       nuclear repulsion energy      8500.9366530906 Hartrees.
 NAtoms=  105 NActive=  105 NUniq=  105 SFac= 1.00D+00 NAtFMM=   60 NAOKFM=T Big=T
 Integral buffers will be    131072 words long.
 Raffenetti 2 integral format.
 Two-electron integral symmetry is turned on.
 One-electron integrals computed using PRISM.
   1 Symmetry operations used in ECPInt.
 ECPInt:  NShTT=   50086 NPrTT=  307226 LenC2=   38489 LenP2D=  119618.
 LDataN:  DoStor=T MaxTD1= 6 Len=  172
 NBasis=   830 RedAO= T EigKep=  4.67D-04  NBF=   830
 NBsUse=   830 1.00D-06 EigRej= -1.00D+00 NBFU=   830
 Defaulting to unpruned grid for atomic number  77.
 ExpMin= 2.90D-02 ExpMax= 7.00D+03 ExpMxC= 1.05D+03 IAcc=3 IRadAn=         5 AccDes= 0.00D+00
 Harris functional with IExCor= 1009 and IRadAn=       5 diagonalized for initial guess.
 HarFok:  IExCor= 1009 AccDes= 0.00D+00 IRadAn=         5 IDoV= 1 UseB2=F ITyADJ=14
 ICtDFT=  3500011 ScaDFX=  1.000000  1.000000  1.000000  1.000000
 Defaulting to unpruned grid for atomic number  77.
 FoFCou: FMM=F IPFlag=           0 FMFlag=      100000 FMFlg1=        2001
         NFxFlg=           0 DoJE=T BraDBF=F KetDBF=T FulRan=T
         wScrn=  0.000000 ICntrl=       500 IOpCl=  0 I1Cent=   200000004 NGrid=           0
         NMat0=    1 NMatS0=      1 NMatT0=    0 NMatD0=    1 NMtDS0=    0 NMtDT0=    0
 Petite list used in FoFCou.
 Requested convergence on RMS density matrix=1.00D-08 within 128 cycles.
 Requested convergence on MAX density matrix=1.00D-06.
 Requested convergence on             energy=1.00D-06.
 No special actions if energy rises.
 Defaulting to unpruned grid for atomic number  77.
 Defaulting to unpruned grid for atomic number  77.
 Defaulting to unpruned grid for atomic number  77.
 Defaulting to unpruned grid for atomic number  77.
 Defaulting to unpruned grid for atomic number  77.
 Defaulting to unpruned grid for atomic number  77.
 Defaulting to unpruned grid for atomic number  77.
 Defaulting to unpruned grid for atomic number  77.
 Defaulting to unpruned grid for atomic number  77.
 Defaulting to unpruned grid for atomic number  77.
 Defaulting to unpruned grid for atomic number  77.
 Defaulting to unpruned grid for atomic number  77.
 Defaulting to unpruned grid for atomic number  77.
 Defaulting to unpruned grid for atomic number  77.
 Defaulting to unpruned grid for atomic number  77.
 Defaulting to unpruned grid for atomic number  77.
 SCF Done:  E(RM06) =  -2496.61141962     A.U. after   15 cycles
            NFock= 15  Conv=0.79D-08     -V/T= 2.0359
 DoSCS=F DFT=T ScalE2(SS,OS)=  1.000000  1.000000
 Range of M.O.s used for correlation:     1   830
 NBasis=   830 NAE=   197 NBE=   197 NFC=     0 NFV=     0
 NROrb=    830 NOA=   197 NOB=   197 NVA=   633 NVB=   633

 **** Warning!!: The largest alpha MO coefficient is  0.11503239D+02

   1 Symmetry operations used in ECPInt.
 ECPInt:  NShTT=   50086 NPrTT=  307226 LenC2=   38489 LenP2D=  119618.
 LDataN:  DoStor=T MaxTD1= 7 Len=  274
 Number of processors reduced to   8 by ecpmxn.
 Symmetrizing basis deriv contribution to polar:
 IMax=3 JMax=2 DiffMx= 0.00D+00
 G2DrvN: will do   106 centers at a time, making    1 passes.
 Calling FoFCou, ICntrl=  3107 FMM=T I1Cent=   0 AccDes= 0.00D+00.
 Defaulting to unpruned grid for atomic number  77.
 Defaulting to unpruned grid for atomic number  77.
 Defaulting to unpruned grid for atomic number  77.
 Defaulting to unpruned grid for atomic number  77.
 Defaulting to unpruned grid for atomic number  77.
 Defaulting to unpruned grid for atomic number  77.
 Defaulting to unpruned grid for atomic number  77.
 Defaulting to unpruned grid for atomic number  77.
 Defaulting to unpruned grid for atomic number  77.
 Defaulting to unpruned grid for atomic number  77.
 Defaulting to unpruned grid for atomic number  77.
 Defaulting to unpruned grid for atomic number  77.
 Defaulting to unpruned grid for atomic number  77.
 Defaulting to unpruned grid for atomic number  77.
 Defaulting to unpruned grid for atomic number  77.
 Defaulting to unpruned grid for atomic number  77.
 End of G2Drv F.D. properties file   721 does not exist.
 End of G2Drv F.D. properties file   722 does not exist.
 End of G2Drv F.D. properties file   788 does not exist.
          IDoAtm=11111111111111111111111111111111111111111111111111
          IDoAtm=11111111111111111111111111111111111111111111111111
          IDoAtm=11111
          Differentiating once with respect to electric field.
                with respect to dipole field.
          Differentiating once with respect to nuclear coordinates.
 Defaulting to unpruned grid for atomic number  77.
 CalDSu exits because no D1Ps are significant.
 Defaulting to unpruned grid for atomic number  77.
 Defaulting to unpruned grid for atomic number  77.
 Defaulting to unpruned grid for atomic number  77.
 Defaulting to unpruned grid for atomic number  77.
 Defaulting to unpruned grid for atomic number  77.
 Defaulting to unpruned grid for atomic number  77.
 Defaulting to unpruned grid for atomic number  77.
 Defaulting to unpruned grid for atomic number  77.
 Defaulting to unpruned grid for atomic number  77.
 Defaulting to unpruned grid for atomic number  77.
 Defaulting to unpruned grid for atomic number  77.
 Defaulting to unpruned grid for atomic number  77.
 Defaulting to unpruned grid for atomic number  77.
 Defaulting to unpruned grid for atomic number  77.
 Defaulting to unpruned grid for atomic number  77.
 Defaulting to unpruned grid for atomic number  77.
          There are   318 degrees of freedom in the 1st order CPHF.  IDoFFX=6 NUNeed=     3.
    315 vectors produced by pass  0 Test12= 1.25D-13 1.00D-09 XBig12= 4.92D+02 9.71D+00.
 AX will form    72 AO Fock derivatives at one time.
    315 vectors produced by pass  1 Test12= 1.25D-13 1.00D-09 XBig12= 7.43D+01 8.88D-01.
    315 vectors produced by pass  2 Test12= 1.25D-13 1.00D-09 XBig12= 8.49D-01 7.11D-02.
    315 vectors produced by pass  3 Test12= 1.25D-13 1.00D-09 XBig12= 6.13D-03 5.32D-03.
    315 vectors produced by pass  4 Test12= 1.25D-13 1.00D-09 XBig12= 2.54D-05 2.93D-04.
    274 vectors produced by pass  5 Test12= 1.25D-13 1.00D-09 XBig12= 5.53D-08 1.19D-05.
     77 vectors produced by pass  6 Test12= 1.25D-13 1.00D-09 XBig12= 7.79D-11 5.77D-07.
      3 vectors produced by pass  7 Test12= 1.25D-13 1.00D-09 XBig12= 9.95D-14 1.82D-08.
 InvSVY:  IOpt=1 It=  1 EMax= 1.42D-14
 Solved reduced A of dimension  1929 with   318 vectors.
 Isotropic polarizability for W=    0.000000      477.72 Bohr**3.
 End of Minotr F.D. properties file   721 does not exist.
 End of Minotr F.D. properties file   722 does not exist.
 End of Minotr F.D. properties file   788 does not exist.
 Hyperfine terms turned off by default for NAtoms > 100.

 **********************************************************************

            Population analysis using the SCF Density.

 **********************************************************************

 Orbital symmetries:
       Occupied  (A) (A) (A) (A) (A) (A) (A) (A) (A) (A) (A) (A)
                 (A) (A) (A) (A) (A) (A) (A) (A) (A) (A) (A) (A)
                 (A) (A) (A) (A) (A) (A) (A) (A) (A) (A) (A) (A)
                 (A) (A) (A) (A) (A) (A) (A) (A) (A) (A) (A) (A)
                 (A) (A) (A) (A) (A) (A) (A) (A) (A) (A) (A) (A)
                 (A) (A) (A) (A) (A) (A) (A) (A) (A) (A) (A) (A)
                 (A) (A) (A) (A) (A) (A) (A) (A) (A) (A) (A) (A)
                 (A) (A) (A) (A) (A) (A) (A) (A) (A) (A) (A) (A)
                 (A) (A) (A) (A) (A) (A) (A) (A) (A) (A) (A) (A)
                 (A) (A) (A) (A) (A) (A) (A) (A) (A) (A) (A) (A)
                 (A) (A) (A) (A) (A) (A) (A) (A) (A) (A) (A) (A)
                 (A) (A) (A) (A) (A) (A) (A) (A) (A) (A) (A) (A)
                 (A) (A) (A) (A) (A) (A) (A) (A) (A) (A) (A) (A)
                 (A) (A) (A) (A) (A) (A) (A) (A) (A) (A) (A) (A)
                 (A) (A) (A) (A) (A) (A) (A) (A) (A) (A) (A) (A)
                 (A) (A) (A) (A) (A) (A) (A) (A) (A) (A) (A) (A)
                 (A) (A) (A) (A) (A)
       Virtual   (A) (A) (A) (A) (A) (A) (A) (A) (A) (A) (A) (A)
                 (A) (A) (A) (A) (A) (A) (A) (A) (A) (A) (A) (A)
                 (A) (A) (A) (A) (A) (A) (A) (A) (A) (A) (A) (A)
                 (A) (A) (A) (A) (A) (A) (A) (A) (A) (A) (A) (A)
                 (A) (A) (A) (A) (A) (A) (A) (A) (A) (A) (A) (A)
                 (A) (A) (A) (A) (A) (A) (A) (A) (A) (A) (A) (A)
                 (A) (A) (A) (A) (A) (A) (A) (A) (A) (A) (A) (A)
                 (A) (A) (A) (A) (A) (A) (A) (A) (A) (A) (A) (A)
                 (A) (A) (A) (A) (A) (A) (A) (A) (A) (A) (A) (A)
                 (A) (A) (A) (A) (A) (A) (A) (A) (A) (A) (A) (A)
                 (A) (A) (A) (A) (A) (A) (A) (A) (A) (A) (A) (A)
                 (A) (A) (A) (A) (A) (A) (A) (A) (A) (A) (A) (A)
                 (A) (A) (A) (A) (A) (A) (A) (A) (A) (A) (A) (A)
                 (A) (A) (A) (A) (A) (A) (A) (A) (A) (A) (A) (A)
                 (A) (A) (A) (A) (A) (A) (A) (A) (A) (A) (A) (A)
                 (A) (A) (A) (A) (A) (A) (A) (A) (A) (A) (A) (A)
                 (A) (A) (A) (A) (A) (A) (A) (A) (A) (A) (A) (A)
                 (A) (A) (A) (A) (A) (A) (A) (A) (A) (A) (A) (A)
                 (A) (A) (A) (A) (A) (A) (A) (A) (A) (A) (A) (A)
                 (A) (A) (A) (A) (A) (A) (A) (A) (A) (A) (A) (A)
                 (A) (A) (A) (A) (A) (A) (A) (A) (A) (A) (A) (A)
                 (A) (A) (A) (A) (A) (A) (A) (A) (A) (A) (A) (A)
                 (A) (A) (A) (A) (A) (A) (A) (A) (A) (A) (A) (A)
                 (A) (A) (A) (A) (A) (A) (A) (A) (A) (A) (A) (A)
                 (A) (A) (A) (A) (A) (A) (A) (A) (A) (A) (A) (A)
                 (A) (A) (A) (A) (A) (A) (A) (A) (A) (A) (A) (A)
                 (A) (A) (A) (A) (A) (A) (A) (A) (A) (A) (A) (A)
                 (A) (A) (A) (A) (A) (A) (A) (A) (A) (A) (A) (A)
                 (A) (A) (A) (A) (A) (A) (A) (A) (A) (A) (A) (A)
                 (A) (A) (A) (A) (A) (A) (A) (A) (A) (A) (A) (A)
                 (A) (A) (A) (A) (A) (A) (A) (A) (A) (A) (A) (A)
                 (A) (A) (A) (A) (A) (A) (A) (A) (A) (A) (A) (A)
                 (A) (A) (A) (A) (A) (A) (A) (A) (A) (A) (A) (A)
                 (A) (A) (A) (A) (A) (A) (A) (A) (A) (A) (A) (A)
                 (A) (A) (A) (A) (A) (A) (A) (A) (A) (A) (A) (A)
                 (A) (A) (A) (A) (A) (A) (A) (A) (A) (A) (A) (A)
                 (A) (A) (A) (A) (A) (A) (A) (A) (A) (A) (A) (A)
                 (A) (A) (A) (A) (A) (A) (A) (A) (A) (A) (A) (A)
                 (A) (A) (A) (A) (A) (A) (A) (A) (A) (A) (A) (A)
                 (A) (A) (A) (A) (A) (A) (A) (A) (A) (A) (A) (A)
                 (A) (A) (A) (A) (A) (A) (A) (A) (A) (A) (A) (A)
                 (A) (A) (A) (A) (A) (A) (A) (A) (A) (A) (A) (A)
                 (A) (A) (A) (A) (A) (A) (A) (A) (A) (A) (A) (A)
                 (A) (A) (A) (A) (A) (A) (A) (A) (A) (A) (A) (A)
                 (A) (A) (A) (A) (A) (A) (A) (A) (A) (A) (A) (A)
                 (A) (A) (A) (A) (A) (A) (A) (A) (A) (A) (A) (A)
                 (A) (A) (A) (A) (A) (A) (A) (A) (A) (A) (A) (A)
                 (A) (A) (A) (A) (A) (A) (A) (A) (A) (A) (A) (A)
                 (A) (A) (A) (A) (A) (A) (A) (A) (A) (A) (A) (A)
                 (A) (A) (A) (A) (A) (A) (A) (A) (A) (A) (A) (A)
                 (A) (A) (A) (A) (A) (A) (A) (A) (A) (A) (A) (A)
                 (A) (A) (A) (A) (A) (A) (A) (A) (A) (A) (A) (A)
                 (A) (A) (A) (A) (A) (A) (A) (A) (A)
 The electronic state is 1-A.
 Alpha  occ. eigenvalues --  -24.82966 -24.82406 -24.82347 -19.20674 -19.20534
 Alpha  occ. eigenvalues --  -19.20505 -19.20464 -19.20098 -19.19813 -19.16376
 Alpha  occ. eigenvalues --  -14.45379 -14.44998 -14.40348 -10.51135 -10.32673
 Alpha  occ. eigenvalues --  -10.31993 -10.31861 -10.31038 -10.29863 -10.29836
 Alpha  occ. eigenvalues --  -10.29760 -10.29694 -10.29475 -10.29434 -10.29182
 Alpha  occ. eigenvalues --  -10.29154 -10.29146 -10.28831 -10.28445 -10.27934
 Alpha  occ. eigenvalues --  -10.27301 -10.25222 -10.24320 -10.23742 -10.23132
 Alpha  occ. eigenvalues --  -10.23105 -10.23021 -10.22988 -10.22982 -10.22843
 Alpha  occ. eigenvalues --  -10.22744 -10.22690 -10.22581 -10.22423 -10.22151
 Alpha  occ. eigenvalues --  -10.21971 -10.21780  -6.82703  -6.79658  -6.79416
 Alpha  occ. eigenvalues --   -3.64327  -2.07293  -2.06190  -2.05057  -1.35500
 Alpha  occ. eigenvalues --   -1.27028  -1.26443  -1.06733  -1.06257  -1.06063
 Alpha  occ. eigenvalues --   -1.02232  -1.00327  -0.99857  -0.99257  -0.99185
 Alpha  occ. eigenvalues --   -0.97707  -0.91905  -0.86125  -0.83787  -0.83237
 Alpha  occ. eigenvalues --   -0.80856  -0.80467  -0.80347  -0.78852  -0.77122
 Alpha  occ. eigenvalues --   -0.75295  -0.74891  -0.74832  -0.73605  -0.70739
 Alpha  occ. eigenvalues --   -0.70533  -0.70352  -0.69715  -0.68575  -0.68561
 Alpha  occ. eigenvalues --   -0.67999  -0.67783  -0.67723  -0.67557  -0.65170
 Alpha  occ. eigenvalues --   -0.64200  -0.62398  -0.61718  -0.61478  -0.61401
 Alpha  occ. eigenvalues --   -0.61337  -0.61009  -0.60259  -0.57137  -0.55205
 Alpha  occ. eigenvalues --   -0.54694  -0.54605  -0.54403  -0.53749  -0.53555
 Alpha  occ. eigenvalues --   -0.53093  -0.52258  -0.51526  -0.50083  -0.49130
 Alpha  occ. eigenvalues --   -0.49086  -0.48873  -0.48626  -0.48336  -0.47646
 Alpha  occ. eigenvalues --   -0.47354  -0.47045  -0.46840  -0.46746  -0.46637
 Alpha  occ. eigenvalues --   -0.46296  -0.46168  -0.45788  -0.45371  -0.45080
 Alpha  occ. eigenvalues --   -0.44948  -0.44611  -0.44512  -0.44385  -0.44264
 Alpha  occ. eigenvalues --   -0.44179  -0.43709  -0.43651  -0.43547  -0.42779
 Alpha  occ. eigenvalues --   -0.42757  -0.42609  -0.42017  -0.40760  -0.40501
 Alpha  occ. eigenvalues --   -0.40296  -0.40197  -0.40120  -0.40048  -0.39929
 Alpha  occ. eigenvalues --   -0.39861  -0.39759  -0.39556  -0.39525  -0.39275
 Alpha  occ. eigenvalues --   -0.39082  -0.38896  -0.38526  -0.37836  -0.37720
 Alpha  occ. eigenvalues --   -0.37597  -0.37372  -0.37193  -0.37023  -0.36888
 Alpha  occ. eigenvalues --   -0.36583  -0.36521  -0.36488  -0.36208  -0.36045
 Alpha  occ. eigenvalues --   -0.35902  -0.35885  -0.35270  -0.34974  -0.34849
 Alpha  occ. eigenvalues --   -0.34801  -0.34566  -0.33761  -0.33393  -0.33235
 Alpha  occ. eigenvalues --   -0.32808  -0.32508  -0.32249  -0.32074  -0.31741
 Alpha  occ. eigenvalues --   -0.31664  -0.31038  -0.30622  -0.30424  -0.30022
 Alpha  occ. eigenvalues --   -0.29180  -0.27835  -0.26902  -0.26869  -0.26640
 Alpha  occ. eigenvalues --   -0.26265  -0.26140  -0.25328  -0.23824  -0.23565
 Alpha  occ. eigenvalues --   -0.21954  -0.18412
 Alpha virt. eigenvalues --   -0.07560  -0.03975  -0.02913   0.01117   0.02877
 Alpha virt. eigenvalues --    0.03897   0.05389   0.05908   0.06519   0.07204
 Alpha virt. eigenvalues --    0.07687   0.08365   0.09344   0.09689   0.09871
 Alpha virt. eigenvalues --    0.10267   0.10642   0.11020   0.11227   0.11700
 Alpha virt. eigenvalues --    0.12165   0.12537   0.12997   0.13210   0.13326
 Alpha virt. eigenvalues --    0.13405   0.13964   0.14461   0.14513   0.14634
 Alpha virt. eigenvalues --    0.14967   0.15258   0.15461   0.15556   0.15676
 Alpha virt. eigenvalues --    0.15858   0.16069   0.16440   0.16457   0.16754
 Alpha virt. eigenvalues --    0.16955   0.17121   0.17195   0.17492   0.17555
 Alpha virt. eigenvalues --    0.17802   0.18067   0.18356   0.18486   0.18721
 Alpha virt. eigenvalues --    0.18856   0.19051   0.19271   0.19453   0.19645
 Alpha virt. eigenvalues --    0.19856   0.19965   0.20173   0.20444   0.20560
 Alpha virt. eigenvalues --    0.20704   0.21196   0.21256   0.21460   0.21804
 Alpha virt. eigenvalues --    0.21998   0.22132   0.22672   0.22813   0.22972
 Alpha virt. eigenvalues --    0.23200   0.23465   0.23788   0.23847   0.24096
 Alpha virt. eigenvalues --    0.24344   0.24495   0.24667   0.25124   0.25223
 Alpha virt. eigenvalues --    0.25485   0.25767   0.25929   0.26095   0.26282
 Alpha virt. eigenvalues --    0.26600   0.26972   0.27275   0.27567   0.27683
 Alpha virt. eigenvalues --    0.28113   0.28513   0.28706   0.29214   0.29612
 Alpha virt. eigenvalues --    0.29724   0.30086   0.30695   0.31181   0.31374
 Alpha virt. eigenvalues --    0.32477   0.32741   0.33793   0.34368   0.34721
 Alpha virt. eigenvalues --    0.35081   0.36415   0.36526   0.36892   0.37510
 Alpha virt. eigenvalues --    0.38216   0.39244   0.39424   0.39844   0.40309
 Alpha virt. eigenvalues --    0.41042   0.41754   0.43936   0.46166   0.47107
 Alpha virt. eigenvalues --    0.48028   0.48331   0.48741   0.49065   0.49440
 Alpha virt. eigenvalues --    0.49976   0.50294   0.50367   0.50879   0.51181
 Alpha virt. eigenvalues --    0.51287   0.51668   0.51774   0.52240   0.52502
 Alpha virt. eigenvalues --    0.52882   0.53421   0.53829   0.54663   0.54768
 Alpha virt. eigenvalues --    0.55322   0.55671   0.55919   0.56433   0.56525
 Alpha virt. eigenvalues --    0.56866   0.57030   0.57698   0.58000   0.58073
 Alpha virt. eigenvalues --    0.58314   0.58621   0.58711   0.58965   0.59230
 Alpha virt. eigenvalues --    0.59303   0.59468   0.59912   0.60156   0.60338
 Alpha virt. eigenvalues --    0.60861   0.61554   0.61885   0.62070   0.62687
 Alpha virt. eigenvalues --    0.62793   0.63198   0.63628   0.63731   0.64069
 Alpha virt. eigenvalues --    0.64236   0.64462   0.64999   0.65218   0.65470
 Alpha virt. eigenvalues --    0.66024   0.66541   0.67109   0.67394   0.67659
 Alpha virt. eigenvalues --    0.68002   0.68507   0.68717   0.69340   0.69670
 Alpha virt. eigenvalues --    0.69687   0.70253   0.70493   0.71079   0.71640
 Alpha virt. eigenvalues --    0.71829   0.71994   0.72404   0.72502   0.72742
 Alpha virt. eigenvalues --    0.73033   0.73701   0.74256   0.74500   0.74626
 Alpha virt. eigenvalues --    0.74870   0.75227   0.75487   0.75784   0.76533
 Alpha virt. eigenvalues --    0.77238   0.77649   0.77786   0.78071   0.78524
 Alpha virt. eigenvalues --    0.78955   0.79129   0.79676   0.79992   0.80343
 Alpha virt. eigenvalues --    0.81442   0.81656   0.81701   0.82436   0.82760
 Alpha virt. eigenvalues --    0.82830   0.83126   0.83679   0.83965   0.84216
 Alpha virt. eigenvalues --    0.84494   0.84799   0.84962   0.85314   0.85402
 Alpha virt. eigenvalues --    0.85641   0.85867   0.86001   0.86276   0.86525
 Alpha virt. eigenvalues --    0.86896   0.87164   0.87320   0.87926   0.88119
 Alpha virt. eigenvalues --    0.88460   0.88598   0.88669   0.89469   0.89660
 Alpha virt. eigenvalues --    0.89737   0.90028   0.90193   0.90364   0.90780
 Alpha virt. eigenvalues --    0.90930   0.91012   0.91166   0.91598   0.92059
 Alpha virt. eigenvalues --    0.92122   0.92700   0.92889   0.93032   0.93535
 Alpha virt. eigenvalues --    0.93667   0.94578   0.94852   0.95032   0.95232
 Alpha virt. eigenvalues --    0.95471   0.95694   0.95927   0.96246   0.96540
 Alpha virt. eigenvalues --    0.96622   0.97177   0.97278   0.98019   0.98079
 Alpha virt. eigenvalues --    0.98423   0.99096   0.99243   0.99861   1.00563
 Alpha virt. eigenvalues --    1.00808   1.00956   1.01741   1.02737   1.02893
 Alpha virt. eigenvalues --    1.03508   1.04339   1.04929   1.05394   1.05544
 Alpha virt. eigenvalues --    1.05897   1.06660   1.07130   1.07537   1.08124
 Alpha virt. eigenvalues --    1.08153   1.08892   1.09685   1.09946   1.10468
 Alpha virt. eigenvalues --    1.11566   1.11969   1.12606   1.13400   1.13955
 Alpha virt. eigenvalues --    1.14726   1.15315   1.15430   1.16816   1.17173
 Alpha virt. eigenvalues --    1.17329   1.17385   1.18054   1.18574   1.19153
 Alpha virt. eigenvalues --    1.19473   1.19857   1.20089   1.20673   1.21390
 Alpha virt. eigenvalues --    1.21851   1.22488   1.22948   1.23933   1.24327
 Alpha virt. eigenvalues --    1.24949   1.25158   1.26178   1.26836   1.26904
 Alpha virt. eigenvalues --    1.27713   1.28722   1.29369   1.30748   1.30904
 Alpha virt. eigenvalues --    1.31616   1.31947   1.32638   1.33404   1.33891
 Alpha virt. eigenvalues --    1.34422   1.34911   1.35310   1.36089   1.36577
 Alpha virt. eigenvalues --    1.37084   1.37495   1.38121   1.38507   1.38851
 Alpha virt. eigenvalues --    1.39154   1.39407   1.39934   1.40541   1.41312
 Alpha virt. eigenvalues --    1.42339   1.43152   1.43926   1.44296   1.44919
 Alpha virt. eigenvalues --    1.45422   1.45649   1.45888   1.46304   1.46483
 Alpha virt. eigenvalues --    1.46820   1.47256   1.48062   1.48260   1.48623
 Alpha virt. eigenvalues --    1.49350   1.49816   1.51381   1.52176   1.52519
 Alpha virt. eigenvalues --    1.52809   1.54440   1.55542   1.55961   1.57011
 Alpha virt. eigenvalues --    1.57460   1.58849   1.59669   1.60993   1.61422
 Alpha virt. eigenvalues --    1.62496   1.63200   1.63773   1.64628   1.65041
 Alpha virt. eigenvalues --    1.65208   1.65669   1.67238   1.67283   1.67609
 Alpha virt. eigenvalues --    1.67812   1.69074   1.69568   1.70451   1.70499
 Alpha virt. eigenvalues --    1.71031   1.71330   1.72770   1.74047   1.74385
 Alpha virt. eigenvalues --    1.74772   1.75875   1.76550   1.76855   1.77152
 Alpha virt. eigenvalues --    1.77599   1.77907   1.78124   1.78677   1.79341
 Alpha virt. eigenvalues --    1.80348   1.80811   1.81311   1.81576   1.81894
 Alpha virt. eigenvalues --    1.82233   1.82733   1.83386   1.83736   1.84176
 Alpha virt. eigenvalues --    1.84732   1.84970   1.85343   1.85719   1.85958
 Alpha virt. eigenvalues --    1.86673   1.87254   1.87400   1.87919   1.88013
 Alpha virt. eigenvalues --    1.88775   1.89405   1.90264   1.90613   1.91127
 Alpha virt. eigenvalues --    1.91269   1.91422   1.91571   1.91780   1.92208
 Alpha virt. eigenvalues --    1.92501   1.92716   1.92895   1.93321   1.93689
 Alpha virt. eigenvalues --    1.93959   1.94088   1.94553   1.95412   1.95717
 Alpha virt. eigenvalues --    1.96323   1.96548   1.97435   1.97682   1.98277
 Alpha virt. eigenvalues --    1.98980   1.99366   2.00172   2.00619   2.01365
 Alpha virt. eigenvalues --    2.01780   2.02232   2.02401   2.02757   2.03127
 Alpha virt. eigenvalues --    2.03742   2.04077   2.04620   2.05223   2.05525
 Alpha virt. eigenvalues --    2.05887   2.06153   2.06520   2.06648   2.06975
 Alpha virt. eigenvalues --    2.07065   2.07725   2.07964   2.08235   2.09829
 Alpha virt. eigenvalues --    2.10021   2.10076   2.10193   2.10991   2.11305
 Alpha virt. eigenvalues --    2.12266   2.12484   2.12721   2.13442   2.13487
 Alpha virt. eigenvalues --    2.14022   2.14400   2.14739   2.15572   2.16019
 Alpha virt. eigenvalues --    2.16136   2.16361   2.17090   2.17482   2.17780
 Alpha virt. eigenvalues --    2.18611   2.18856   2.19062   2.19246   2.19443
 Alpha virt. eigenvalues --    2.19776   2.19994   2.20047   2.20631   2.21572
 Alpha virt. eigenvalues --    2.21892   2.22053   2.22390   2.22757   2.23188
 Alpha virt. eigenvalues --    2.23446   2.23573   2.24782   2.24992   2.25143
 Alpha virt. eigenvalues --    2.25602   2.25717   2.26161   2.26309   2.26888
 Alpha virt. eigenvalues --    2.26998   2.27703   2.28152   2.28929   2.29082
 Alpha virt. eigenvalues --    2.30879   2.31027   2.31452   2.31941   2.32365
 Alpha virt. eigenvalues --    2.32983   2.33312   2.34048   2.34676   2.35139
 Alpha virt. eigenvalues --    2.35254   2.37165   2.37564   2.38560   2.38858
 Alpha virt. eigenvalues --    2.39246   2.39902   2.41452   2.42631   2.43792
 Alpha virt. eigenvalues --    2.44294   2.44624   2.45863   2.47321   2.48000
 Alpha virt. eigenvalues --    2.48248   2.48633   2.49039   2.49208   2.49561
 Alpha virt. eigenvalues --    2.50170   2.50835   2.52287   2.53380   2.54454
 Alpha virt. eigenvalues --    2.55160   2.58411   2.59534   2.60109   2.60730
 Alpha virt. eigenvalues --    2.60945   2.61987   2.63067   2.64167   2.64469
 Alpha virt. eigenvalues --    2.65416   2.65854   2.66629   2.67862   2.68502
 Alpha virt. eigenvalues --    2.70142   2.70808   2.72783   2.73447   2.76782
 Alpha virt. eigenvalues --    2.77186   2.77407   2.78075   2.78162   2.79161
 Alpha virt. eigenvalues --    2.79676   2.80002   2.80294   2.80994   2.81294
 Alpha virt. eigenvalues --    2.81544   2.82308   2.82867   2.83582   2.84814
 Alpha virt. eigenvalues --    2.86387   2.88511   2.89254   2.90806   2.91342
 Alpha virt. eigenvalues --    2.93958   2.94590   2.95450   2.96515   2.96736
 Alpha virt. eigenvalues --    2.97014   3.01440   3.02407   3.04077   3.05538
 Alpha virt. eigenvalues --    3.05977   3.06729   3.09054   3.10743   3.11663
 Alpha virt. eigenvalues --    3.12128   3.12659   3.14474   3.22515   3.26304
 Alpha virt. eigenvalues --    3.31658   3.45466  13.48968
          Condensed to atoms (all electrons):
 Mulliken charges:
               1
     1  C    0.296516
     2  C    0.053864
     3  C   -0.080773
     4  C   -0.156748
     5  C   -0.188964
     6  C    0.351824
     7  C    0.082238
     8  C   -0.159776
     9  C   -0.133456
    10  C   -0.167363
    11  H    0.228375
    12  H    0.199587
    13  H    0.181431
    14  H    0.213992
    15  H    0.181309
    16  H    0.168222
    17  N   -0.493926
    18  N   -0.547917
    19  Ir  -0.064094
    20  O   -0.500072
    21  O   -0.531542
    22  O   -0.537555
    23  B    0.451483
    24  B    0.479862
    25  B    0.434951
    26  O   -0.515173
    27  O   -0.522286
    28  C    0.297967
    29  C    0.291720
    30  C    0.291165
    31  C    0.294699
    32  C    0.296844
    33  C    0.291411
    34  O   -0.516814
    35  C   -0.506831
    36  H    0.179980
    37  H    0.142600
    38  H    0.173986
    39  C   -0.513535
    40  H    0.173431
    41  H    0.148166
    42  H    0.169364
    43  C   -0.507666
    44  H    0.164727
    45  H    0.165908
    46  H    0.153038
    47  C   -0.509468
    48  H    0.152242
    49  H    0.166139
    50  H    0.173362
    51  C   -0.509833
    52  H    0.166709
    53  H    0.160352
    54  H    0.154061
    55  C   -0.512923
    56  H    0.183688
    57  H    0.150529
    58  H    0.152368
    59  C   -0.490329
    60  H    0.142464
    61  H    0.169180
    62  H    0.165084
    63  C   -0.506668
    64  H    0.172107
    65  H    0.149253
    66  H    0.160032
    67  C   -0.506830
    68  H    0.150378
    69  H    0.166262
    70  H    0.176772
    71  C   -0.507092
    72  H    0.161943
    73  H    0.156673
    74  H    0.169672
    75  C   -0.510880
    76  H    0.151538
    77  H    0.171916
    78  H    0.172084
    79  C   -0.518256
    80  H    0.191847
    81  H    0.170837
    82  H    0.152611
    83  H    0.210748
    84  C    0.582018
    85  O   -0.539692
    86  C   -0.405383
    87  H    0.169333
    88  H    0.169599
    89  C   -0.339203
    90  H    0.201547
    91  H    0.163681
    92  N   -0.341671
    93  C   -0.363937
    94  H    0.167277
    95  H    0.200448
    96  H    0.154086
    97  C   -0.473419
    98  H    0.176536
    99  H    0.157098
   100  C    0.967494
   101  F   -0.309768
   102  F   -0.313479
   103  F   -0.313940
   104  H    0.179380
   105  H    0.149254
 Sum of Mulliken charges =  -0.00000
 Mulliken charges with hydrogens summed into heavy atoms:
               1
     1  C    0.296516
     2  C    0.282238
     3  C   -0.080773
     4  C    0.042840
     5  C   -0.007533
     6  C    0.351824
     7  C    0.296230
     8  C    0.019605
     9  C    0.047853
    10  C    0.000860
    17  N   -0.493926
    18  N   -0.547917
    19  Ir   0.146654
    20  O   -0.500072
    21  O   -0.531542
    22  O   -0.537555
    23  B    0.451483
    24  B    0.479862
    25  B    0.434951
    26  O   -0.515173
    27  O   -0.522286
    28  C    0.297967
    29  C    0.291720
    30  C    0.291165
    31  C    0.294699
    32  C    0.296844
    33  C    0.291411
    34  O   -0.516814
    35  C   -0.010265
    39  C   -0.022575
    43  C   -0.023992
    47  C   -0.017726
    51  C   -0.028711
    55  C   -0.026337
    59  C   -0.013601
    63  C   -0.025276
    67  C   -0.013417
    71  C   -0.018804
    75  C   -0.015343
    79  C   -0.002961
    84  C    0.582018
    85  O   -0.539692
    86  C   -0.066451
    89  C    0.026025
    92  N   -0.341671
    93  C    0.157874
    97  C    0.009470
   100  C    0.967494
   101  F   -0.309768
   102  F   -0.313479
   103  F   -0.313940
 APT charges:
               1
     1  C    0.283234
     2  C    0.066030
     3  C   -0.202973
     4  C    0.106343
     5  C   -0.214092
     6  C    0.096693
     7  C    0.029162
     8  C   -0.042912
     9  C    0.093212
    10  C   -0.133322
    11  H    0.121546
    12  H    0.055266
    13  H    0.045607
    14  H    0.118192
    15  H    0.030341
    16  H    0.038874
    17  N   -0.173500
    18  N   -0.054202
    19  Ir  -0.941523
    20  O   -0.947802
    21  O   -0.962337
    22  O   -1.024931
    23  B    1.243418
    24  B    1.271842
    25  B    1.518532
    26  O   -1.030184
    27  O   -0.967797
    28  C    0.471153
    29  C    0.468262
    30  C    0.533760
    31  C    0.515605
    32  C    0.484162
    33  C    0.481718
    34  O   -0.970148
    35  C   -0.031053
    36  H    0.022229
    37  H   -0.026759
    38  H    0.001439
    39  C   -0.003583
    40  H   -0.000345
    41  H   -0.017664
    42  H   -0.002156
    43  C    0.002335
    44  H   -0.000807
    45  H    0.000237
    46  H   -0.020425
    47  C   -0.038833
    48  H   -0.020297
    49  H    0.002653
    50  H   -0.001888
    51  C   -0.011616
    52  H    0.001705
    53  H    0.003667
    54  H   -0.016372
    55  C   -0.028487
    56  H    0.016950
    57  H   -0.022707
    58  H   -0.008130
    59  C   -0.023130
    60  H   -0.030768
    61  H    0.000583
    62  H    0.008366
    63  C    0.005202
    64  H    0.003100
    65  H   -0.020911
    66  H   -0.009696
    67  C   -0.011651
    68  H   -0.017468
    69  H    0.000253
    70  H    0.011235
    71  C   -0.044148
    72  H    0.003524
    73  H   -0.022866
    74  H    0.008247
    75  C   -0.014309
    76  H   -0.015158
    77  H   -0.001328
    78  H    0.004941
    79  C   -0.039853
    80  H    0.009979
    81  H    0.002469
    82  H   -0.020427
    83  H    0.037170
    84  C    0.853886
    85  O   -0.692578
    86  C    0.023903
    87  H   -0.034593
    88  H   -0.027677
    89  C    0.234895
    90  H   -0.016418
    91  H   -0.066908
    92  N   -0.748934
    93  C    0.297315
    94  H   -0.005308
    95  H    0.055273
    96  H   -0.073568
    97  C    0.070331
    98  H    0.001136
    99  H    0.001360
   100  C    1.850938
   101  F   -0.522842
   102  F   -0.624837
   103  F   -0.611689
   104  H    0.042297
   105  H   -0.036661
 Sum of APT charges =  -0.00000
 APT charges with hydrogens summed into heavy atoms:
               1
     1  C    0.283234
     2  C    0.187576
     3  C   -0.202973
     4  C    0.161609
     5  C   -0.168485
     6  C    0.096693
     7  C    0.147353
     8  C   -0.000615
     9  C    0.123553
    10  C   -0.094447
    17  N   -0.173500
    18  N   -0.054202
    19  Ir  -0.904353
    20  O   -0.947802
    21  O   -0.962337
    22  O   -1.024931
    23  B    1.243418
    24  B    1.271842
    25  B    1.518532
    26  O   -1.030184
    27  O   -0.967797
    28  C    0.471153
    29  C    0.468262
    30  C    0.533760
    31  C    0.515605
    32  C    0.484162
    33  C    0.481718
    34  O   -0.970148
    35  C   -0.034145
    39  C   -0.023747
    43  C   -0.018659
    47  C   -0.058365
    51  C   -0.022615
    55  C   -0.042375
    59  C   -0.044949
    63  C   -0.022305
    67  C   -0.017632
    71  C   -0.055244
    75  C   -0.025855
    79  C   -0.047832
    84  C    0.853886
    85  O   -0.692578
    86  C   -0.038367
    89  C    0.151569
    92  N   -0.748934
    93  C    0.273711
    97  C    0.036167
   100  C    1.850938
   101  F   -0.522842
   102  F   -0.624837
   103  F   -0.611689
 Electronic spatial extent (au):  <R**2>=          28310.3194
 Charge=             -0.0000 electrons
 Dipole moment (field-independent basis, Debye):
    X=              1.5946    Y=             -2.7249    Z=              1.0125  Tot=              3.3155
 Quadrupole moment (field-independent basis, Debye-Ang):
   XX=           -307.9857   YY=           -282.4079   ZZ=           -319.4793
   XY=              4.5406   XZ=             -1.3111   YZ=             -8.8791
 Traceless Quadrupole moment (field-independent basis, Debye-Ang):
   XX=             -4.6947   YY=             20.8831   ZZ=            -16.1884
   XY=              4.5406   XZ=             -1.3111   YZ=             -8.8791
 Octapole moment (field-independent basis, Debye-Ang**2):
  XXX=             -9.1201  YYY=            -27.5550  ZZZ=            -63.4855  XYY=            -63.7110
  XXY=            -32.4378  XXZ=             33.2332  XZZ=             -2.2291  YZZ=            -24.2605
  YYZ=             37.9680  XYZ=             30.1312
 Hexadecapole moment (field-independent basis, Debye-Ang**3):
 XXXX=         -15108.8894 YYYY=         -11205.9751 ZZZZ=         -10072.7821 XXXY=            229.8343
 XXXZ=            -89.4975 YYYX=            -27.8292 YYYZ=           -267.0222 ZZZX=            138.3959
 ZZZY=             85.4096 XXYY=          -4260.2575 XXZZ=          -4087.9154 YYZZ=          -3347.6597
 XXYZ=           -143.6706 YYXZ=            -12.0441 ZZXY=            -28.7651
 N-N= 8.500936653091D+03 E-N=-2.280779069973D+04  KE= 2.410198671505D+03
  Exact polarizability:     517.094       8.234     483.565      15.071     -42.158     432.490
 Approx polarizability:     755.056      10.041     695.979      26.297     -85.082     619.864
   1 Symmetry operations used in ECPInt.
 ECPInt:  NShTT=   50086 NPrTT=  307226 LenC2=   38489 LenP2D=  119618.
 LDataN:  DoStor=T MaxTD1= 8 Len=  415
 Calling FoFJK, ICntrl=    100127 FMM=F ISym2X=0 I1Cent= 0 IOpClX= 0 NMat=1 NMatS=1 NMatT=0.
 Defaulting to unpruned grid for atomic number  77.
 Defaulting to unpruned grid for atomic number  77.
 Defaulting to unpruned grid for atomic number  77.
 Defaulting to unpruned grid for atomic number  77.
 Defaulting to unpruned grid for atomic number  77.
 Defaulting to unpruned grid for atomic number  77.
 Defaulting to unpruned grid for atomic number  77.
 Defaulting to unpruned grid for atomic number  77.
 Defaulting to unpruned grid for atomic number  77.
 Defaulting to unpruned grid for atomic number  77.
 Defaulting to unpruned grid for atomic number  77.
 Defaulting to unpruned grid for atomic number  77.
 Defaulting to unpruned grid for atomic number  77.
 Defaulting to unpruned grid for atomic number  77.
 Defaulting to unpruned grid for atomic number  77.
 Defaulting to unpruned grid for atomic number  77.
 Full mass-weighted force constant matrix:
 Low frequencies ---  -64.7966   -4.5979   -1.8763   -0.0004    0.0005    0.0008
 Low frequencies ---    4.9201   17.8905   31.8643
 ******    1 imaginary frequencies (negative Signs) ****** 
 Diagonal vibrational polarizability:
       69.8480132      86.7350239     154.9385322
 Harmonic frequencies (cm**-1), IR intensities (KM/Mole), Raman scattering
 activities (A**4/AMU), depolarization ratios for plane and unpolarized
 incident light, reduced masses (AMU), force constants (mDyne/A),
 and normal coordinates:
                      1                      2                      3
                      A                      A                      A
 Frequencies --    -64.7816                17.8730                31.8443
 Red. masses --      6.2747                 7.5665                 4.2373
 Frc consts  --      0.0155                 0.0014                 0.0025
 IR Inten    --      9.8889                 0.2294                 0.1281
  Atom AN      X      Y      Z        X      Y      Z        X      Y      Z
     1   6     0.00  -0.01   0.01    -0.00  -0.00   0.01     0.00  -0.01  -0.05
     2   6     0.01  -0.01  -0.00    -0.02   0.00   0.03    -0.01   0.02  -0.01
     3   6     0.01  -0.00  -0.00    -0.02   0.05   0.11    -0.00   0.00  -0.02
     4   6     0.00   0.00   0.00    -0.01   0.07   0.13     0.00  -0.03  -0.06
     5   6     0.00  -0.00   0.01    -0.00   0.04   0.09     0.01  -0.04  -0.07
     6   6     0.00  -0.01   0.01     0.01  -0.02  -0.03     0.00  -0.01  -0.05
     7   6     0.00  -0.02   0.01     0.01  -0.02  -0.04    -0.00   0.02  -0.02
     8   6    -0.00  -0.02   0.01     0.01  -0.03  -0.05     0.00   0.01  -0.04
     9   6    -0.00  -0.01   0.02     0.02  -0.04  -0.06     0.01  -0.01  -0.06
    10   6    -0.00  -0.01   0.01     0.01  -0.03  -0.05     0.01  -0.02  -0.07
    11   1     0.02  -0.01  -0.01    -0.02  -0.02   0.00    -0.01   0.04   0.02
    12   1     0.00   0.01   0.00    -0.02   0.11   0.20     0.01  -0.04  -0.08
    13   1    -0.00  -0.00   0.01     0.01   0.07   0.11     0.01  -0.06  -0.10
    14   1     0.00  -0.03  -0.00     0.00  -0.02  -0.04    -0.01   0.03  -0.00
    15   1    -0.01  -0.01   0.02     0.02  -0.04  -0.07     0.02  -0.02  -0.07
    16   1    -0.00  -0.01   0.01     0.02  -0.04  -0.05     0.02  -0.04  -0.08
    17   7     0.01  -0.01   0.00    -0.01  -0.02  -0.02    -0.00   0.01  -0.02
    18   7     0.00  -0.02   0.01     0.00  -0.02  -0.03    -0.00   0.01  -0.03
    19  77     0.01  -0.02  -0.02    -0.00  -0.02  -0.04    -0.01   0.01  -0.02
    20   8    -0.00   0.01   0.00     0.07  -0.02  -0.04     0.06  -0.03  -0.01
    21   8    -0.00  -0.00  -0.02    -0.03   0.02   0.01    -0.01   0.04  -0.03
    22   8    -0.02   0.02   0.20    -0.00  -0.02  -0.07    -0.01   0.02   0.04
    23   5     0.01  -0.02  -0.03    -0.01   0.00  -0.01    -0.01   0.02  -0.03
    24   5     0.00   0.00   0.00     0.04  -0.01  -0.03     0.01  -0.00   0.00
    25   5    -0.01   0.02   0.29    -0.01  -0.02  -0.04    -0.01   0.02   0.02
    26   8    -0.01   0.01   0.20    -0.00  -0.02  -0.03    -0.01   0.02   0.01
    27   8     0.00  -0.00  -0.01     0.05   0.01  -0.00    -0.00  -0.01   0.06
    28   6    -0.00   0.00  -0.01     0.09   0.01  -0.00     0.01  -0.06   0.10
    29   6    -0.01   0.01  -0.00     0.10  -0.00  -0.02     0.06  -0.08   0.05
    30   6     0.01  -0.04   0.09     0.01  -0.01  -0.07    -0.02   0.04   0.08
    31   6    -0.00  -0.01   0.08     0.01  -0.02  -0.04    -0.00   0.02   0.05
    32   6     0.00  -0.00  -0.01    -0.02   0.03   0.04    -0.01   0.04  -0.03
    33   6     0.01  -0.01  -0.02     0.00   0.02   0.03    -0.02   0.01  -0.05
    34   8     0.02  -0.01  -0.03     0.01   0.01   0.00    -0.01  -0.01  -0.04
    35   6    -0.00   0.01  -0.00     0.10   0.01  -0.00     0.10  -0.13   0.04
    36   1     0.00   0.00  -0.00     0.08   0.02   0.01     0.10  -0.12   0.03
    37   1    -0.01   0.00  -0.01     0.12   0.02   0.01     0.11  -0.18   0.08
    38   1    -0.00   0.01   0.00     0.10   0.00  -0.01     0.14  -0.14  -0.01
    39   6    -0.01   0.01  -0.00     0.14  -0.02  -0.03     0.07  -0.11   0.06
    40   1    -0.01   0.02  -0.00     0.14  -0.02  -0.04     0.11  -0.12   0.01
    41   1    -0.01   0.01  -0.01     0.16  -0.01  -0.02     0.08  -0.14   0.10
    42   1    -0.01   0.01  -0.00     0.14  -0.03  -0.05     0.05  -0.07   0.05
    43   6    -0.01  -0.00  -0.01     0.11   0.03   0.03     0.01  -0.11   0.16
    44   1    -0.00  -0.00  -0.01     0.10   0.04   0.04     0.04  -0.13   0.15
    45   1    -0.01  -0.01  -0.02     0.10   0.04   0.04    -0.03  -0.08   0.20
    46   1    -0.01  -0.00  -0.02     0.14   0.03   0.03     0.02  -0.14   0.19
    47   6    -0.01   0.00  -0.01     0.11  -0.01  -0.02    -0.03  -0.02   0.13
    48   1    -0.01   0.00  -0.01     0.14  -0.01  -0.03    -0.02  -0.05   0.17
    49   1    -0.01  -0.00  -0.01     0.10  -0.00  -0.02    -0.08   0.01   0.17
    50   1    -0.01   0.01  -0.01     0.10  -0.03  -0.04    -0.04   0.02   0.08
    51   6    -0.00   0.00  -0.01    -0.05   0.05   0.06    -0.02   0.07  -0.04
    52   1    -0.01   0.01  -0.02    -0.07   0.04   0.05    -0.04   0.08  -0.07
    53   1    -0.02   0.01  -0.00    -0.06   0.05   0.07    -0.02   0.10  -0.03
    54   1     0.00  -0.00   0.00    -0.04   0.06   0.08    -0.02   0.07  -0.04
    55   6     0.01  -0.00   0.00     0.01   0.04   0.06     0.01   0.04   0.01
    56   1     0.01  -0.01   0.00     0.03   0.03   0.04     0.01   0.02   0.02
    57   1     0.01  -0.01   0.01     0.02   0.05   0.08     0.01   0.04   0.01
    58   1     0.00   0.00   0.01    -0.00   0.04   0.06     0.01   0.07   0.02
    59   6     0.01  -0.01  -0.03    -0.01   0.02   0.02    -0.03   0.01  -0.09
    60   1     0.01  -0.01  -0.01    -0.02   0.03   0.05    -0.03   0.02  -0.09
    61   1     0.04  -0.01  -0.05     0.00   0.02   0.01    -0.02  -0.01  -0.10
    62   1    -0.02  -0.00  -0.06    -0.04   0.02   0.01    -0.03   0.03  -0.10
    63   6     0.02  -0.02  -0.01     0.03   0.03   0.05    -0.01  -0.02  -0.04
    64   1     0.03  -0.03  -0.02     0.05   0.03   0.04    -0.02  -0.05  -0.06
    65   1     0.02  -0.02  -0.01     0.02   0.04   0.07    -0.02  -0.00  -0.05
    66   1     0.03  -0.02  -0.00     0.05   0.03   0.05    -0.00  -0.03  -0.01
    67   6     0.02  -0.07   0.04     0.02  -0.02  -0.03    -0.02   0.03   0.05
    68   1     0.02  -0.10  -0.05     0.03  -0.02  -0.04    -0.02   0.05   0.08
    69   1     0.00  -0.03   0.04     0.02  -0.02  -0.01    -0.00   0.01   0.02
    70   1     0.05  -0.15   0.09     0.05  -0.02  -0.02    -0.06   0.05   0.03
    71   6    -0.05   0.10   0.03    -0.02  -0.02  -0.04     0.04   0.01   0.06
    72   1    -0.06   0.13   0.05    -0.02  -0.02  -0.02     0.05  -0.00   0.03
    73   1    -0.05   0.09  -0.06    -0.01  -0.02  -0.05     0.04   0.01   0.09
    74   1    -0.07   0.16   0.06    -0.03  -0.02  -0.05     0.06  -0.00   0.07
    75   6    -0.00  -0.00  -0.02     0.01  -0.01  -0.09    -0.00   0.03   0.14
    76   1     0.02  -0.03  -0.09     0.03  -0.01  -0.08    -0.01   0.04   0.16
    77   1     0.01  -0.02  -0.02     0.01   0.00  -0.11    -0.02   0.05   0.16
    78   1    -0.04   0.08  -0.02    -0.01  -0.01  -0.09     0.04   0.01   0.14
    79   6     0.06  -0.16   0.10     0.04  -0.01  -0.07    -0.07   0.08   0.07
    80   1     0.07  -0.17   0.17     0.04  -0.02  -0.05    -0.09   0.08   0.03
    81   1     0.07  -0.18   0.12     0.04  -0.01  -0.08    -0.08   0.10   0.09
    82   1     0.06  -0.20   0.03     0.05  -0.01  -0.07    -0.08   0.10   0.10
    83   1    -0.01   0.10   0.07    -0.00  -0.03  -0.04    -0.02   0.02  -0.01
    84   6    -0.05   0.08  -0.10    -0.08  -0.03  -0.03     0.01  -0.02  -0.02
    85   8    -0.08   0.11  -0.14    -0.09  -0.04  -0.06     0.00  -0.02  -0.02
    86   6    -0.07   0.02  -0.07    -0.10  -0.04  -0.01     0.01  -0.04  -0.02
    87   1    -0.06  -0.00  -0.06    -0.09  -0.03   0.01     0.01  -0.03  -0.02
    88   1    -0.04   0.02  -0.07    -0.11  -0.05   0.01     0.01  -0.04  -0.01
    89   6    -0.01   0.21  -0.08    -0.05  -0.01  -0.05     0.00   0.00  -0.01
    90   1    -0.02   0.18  -0.14    -0.06  -0.01  -0.06     0.00  -0.00  -0.01
    91   1    -0.02   0.21   0.05    -0.04  -0.01  -0.05     0.01   0.00   0.01
    92   7    -0.00   0.11  -0.08    -0.07  -0.02  -0.02     0.01  -0.01  -0.01
    93   6     0.05   0.08  -0.02    -0.07  -0.02   0.01     0.01  -0.01   0.00
    94   1     0.04   0.02  -0.06    -0.07  -0.01   0.04     0.00  -0.01   0.02
    95   1     0.05   0.16   0.01    -0.04  -0.01   0.01     0.02  -0.01   0.00
    96   1     0.11   0.04   0.04    -0.09  -0.02   0.00    -0.01  -0.01   0.00
    97   6    -0.13   0.02  -0.08    -0.12  -0.06  -0.02     0.00  -0.05  -0.03
    98   1    -0.13   0.05  -0.09    -0.13  -0.07  -0.04     0.01  -0.04  -0.02
    99   1    -0.17   0.02  -0.09    -0.11  -0.05  -0.04    -0.01  -0.04  -0.04
   100   6     0.01  -0.00  -0.00    -0.04   0.08   0.17    -0.01   0.02  -0.00
   101   9     0.01  -0.00  -0.00    -0.04   0.07   0.15    -0.01   0.04   0.02
   102   9     0.01  -0.00  -0.00    -0.10   0.09   0.21    -0.01   0.04  -0.02
   103   9     0.01  -0.00  -0.00     0.02   0.11   0.21     0.00  -0.00   0.01
   104   1    -0.00  -0.02   0.01     0.02  -0.03  -0.06     0.00   0.02  -0.03
   105   1    -0.13  -0.03  -0.07    -0.13  -0.07  -0.00     0.01  -0.06  -0.03
                      4                      5                      6
                      A                      A                      A
 Frequencies --     35.2348                37.7007                37.8578
 Red. masses --      4.1742                 4.6999                 6.3611
 Frc consts  --      0.0031                 0.0039                 0.0054
 IR Inten    --      0.4647                 0.1765                 0.7445
  Atom AN      X      Y      Z        X      Y      Z        X      Y      Z
     1   6    -0.03   0.04   0.03    -0.03   0.01   0.01     0.00  -0.03  -0.06
     2   6     0.00   0.00  -0.04    -0.01   0.00  -0.02     0.01   0.01  -0.02
     3   6    -0.01   0.04  -0.01    -0.01   0.02  -0.02     0.01  -0.02  -0.06
     4   6    -0.03   0.09   0.05    -0.03   0.03   0.00     0.01  -0.06  -0.11
     5   6    -0.04   0.09   0.07    -0.03   0.03   0.01     0.00  -0.06  -0.11
     6   6    -0.03   0.03   0.03    -0.03  -0.00   0.01    -0.00  -0.03  -0.04
     7   6    -0.02  -0.03  -0.01    -0.03  -0.04  -0.00    -0.01  -0.01   0.00
     8   6    -0.04  -0.01   0.02    -0.04  -0.04  -0.00    -0.01  -0.02  -0.02
     9   6    -0.05   0.02   0.05    -0.05  -0.02   0.01    -0.01  -0.04  -0.05
    10   6    -0.05   0.04   0.06    -0.05   0.00   0.01    -0.00  -0.05  -0.07
    11   1     0.02  -0.03  -0.08     0.00  -0.01  -0.03     0.01   0.03   0.02
    12   1    -0.04   0.13   0.08    -0.03   0.05   0.01     0.01  -0.08  -0.15
    13   1    -0.06   0.12   0.11    -0.04   0.04   0.02     0.00  -0.10  -0.15
    14   1    -0.01  -0.06  -0.04    -0.02  -0.05  -0.01    -0.01   0.01   0.03
    15   1    -0.07   0.04   0.07    -0.06  -0.02   0.01    -0.01  -0.05  -0.07
    16   1    -0.06   0.07   0.08    -0.05   0.02   0.02    -0.00  -0.06  -0.09
    17   7    -0.01   0.01  -0.01    -0.01   0.00  -0.01     0.00  -0.00  -0.02
    18   7    -0.02  -0.01   0.00    -0.02  -0.02   0.00    -0.00  -0.01  -0.01
    19  77     0.00  -0.02  -0.01    -0.01  -0.02   0.00     0.00   0.01   0.01
    20   8    -0.04  -0.10   0.02     0.07   0.06  -0.04    -0.03  -0.03   0.03
    21   8     0.01  -0.03  -0.02    -0.01  -0.02   0.02     0.01   0.01   0.01
    22   8    -0.00  -0.02   0.03    -0.03  -0.03   0.06    -0.01  -0.01  -0.03
    23   5     0.00  -0.01  -0.01    -0.00  -0.02   0.01     0.00   0.01   0.02
    24   5     0.01  -0.03  -0.00     0.02   0.00  -0.01    -0.01   0.00   0.02
    25   5    -0.00  -0.02   0.01    -0.02  -0.02   0.01    -0.00   0.01   0.02
    26   8    -0.01  -0.01  -0.00    -0.03  -0.02  -0.03    -0.02   0.03   0.07
    27   8     0.07   0.03  -0.02    -0.01  -0.03   0.01     0.01   0.02   0.01
    28   6     0.09   0.01  -0.00     0.01   0.00  -0.01    -0.01  -0.01   0.03
    29   6    -0.01  -0.05   0.01     0.08   0.05  -0.02    -0.04  -0.04   0.03
    30   6    -0.02  -0.00   0.06    -0.06  -0.03   0.05     0.01  -0.02  -0.05
    31   6    -0.01  -0.01   0.03    -0.04  -0.02  -0.03    -0.04   0.01   0.05
    32   6     0.00   0.01  -0.02    -0.00  -0.02   0.03     0.00   0.01  -0.01
    33   6    -0.02   0.03  -0.01     0.01  -0.02   0.03    -0.01   0.02   0.00
    34   8    -0.01   0.02  -0.01     0.01  -0.02   0.02    -0.01   0.02   0.01
    35   6    -0.10  -0.00  -0.05     0.14   0.04   0.04    -0.07  -0.04  -0.01
    36   1    -0.11   0.05  -0.08     0.12   0.01   0.08    -0.05  -0.02  -0.03
    37   1    -0.10   0.04  -0.07     0.15   0.04   0.06    -0.08  -0.04  -0.01
    38   1    -0.18  -0.05  -0.03     0.19   0.07   0.03    -0.09  -0.05  -0.01
    39   6     0.01  -0.13   0.05     0.10   0.11  -0.08    -0.05  -0.06   0.06
    40   1    -0.07  -0.18   0.06     0.15   0.14  -0.08    -0.08  -0.08   0.06
    41   1     0.03  -0.10   0.04     0.11   0.10  -0.07    -0.06  -0.07   0.06
    42   1     0.06  -0.18   0.09     0.06   0.12  -0.13    -0.04  -0.06   0.09
    43   6     0.11   0.11  -0.05     0.01  -0.03   0.04    -0.01  -0.00   0.01
    44   1     0.04   0.15  -0.10     0.05  -0.04   0.09    -0.02   0.00  -0.02
    45   1     0.18   0.16  -0.06    -0.04  -0.06   0.04     0.01   0.02   0.01
    46   1     0.11   0.09  -0.04     0.03  -0.01   0.02    -0.03  -0.02   0.02
[...]
 94,0.00000039,-0.00000162,-0.00000572,-0.00000176,0.00000345,0.0000038
 3,0.00000253,-0.00000370,-0.00000209,0.00000069,-0.00000113,0.00000220
 ,-0.00000296,0.00000063,-0.00000562,-0.00016182,0.00010099,0.00028281,
 -0.00010087,0.00025826,-0.00013305,-0.00006467,-0.00019493,0.00004517,
 -0.00000226,-0.00002237,-0.00010075,-0.00007656,0.00004945,-0.00005024
 ,0.00004530,0.00000934,0.00004085,0.00001925,0.00000502,-0.00001133,0.
 00001761,0.00001784,-0.00001988,-0.00001008,-0.00001466,-0.00005266,0.
 00003225,-0.00015147,0.00001629,0.00000016,-0.00000989,-0.00001959,-0.
 00001140,0.00000893,0.00000328,0.00000451,0.00000183,-0.00000216,-0.00
 000304,0.00000247,-0.00010128,-0.00007677,0.00002363,-0.00001856,0.000
 07728,0.00005026,0.00014245,-0.00000858,-0.00023375,-0.00001151,0.0000
 2642,0.00002613,0.00000138,-0.00000185,-0.00000589,0.00000997,-0.00000
 056,0.00000274,-0.00000025,-0.00000267,-0.00000548,-0.06567481,0.06298
 992,0.00006684,-0.00070029,-0.00086879,0.00002944,-0.00000596,0.000014
 58,-0.00000805,-0.00003184,0.00000995,-0.00003606,-0.00001666,-0.00003
 676,0.00002905,0.00003924,0.00003811,0.00093645,0.00059644,-0.00067287
 ,-0.01707146,0.00109548,-0.00243788,-0.08209001,0.03160709,-0.06924070
 ,0.00866750,-0.00256579,0.00577256,0.00099867,0.00402109,0.00457761,0.
 00000506,0.00000317,-0.00000173,-0.00000070,-0.00000674,-0.00000949,-0
 .00001555,0.00003520,0.00005289,0.00054652,-0.00182050,-0.00193831,0.0
 0007456,-0.00212498,-0.00226893,0.00045777,-0.00005940,0.00025980,0.00
 001273,0.00010232,0.00000926,-0.00154818,0.00693115,0.00329253,-0.0001
 9675,-0.00046538,0.00009840,0.00007483,-0.00009666,-0.00005283,0.00019
 863,-0.00002645,0.00004296,-0.00005463,0.00006483,-0.00000848,-0.00028
 795,-0.00006512,0.00002737,-0.00013342,0.00020895,0.00012515,0.0000585
 7,-0.00014288,-0.00008860,0.00001463,0.00010229,-0.00001183,0.00018931
 ,-0.00023755,-0.00012033,-0.00002830,0.00008685,0.00002459,-0.00004998
 ,0.00002500,-0.00000776,0.00000050,-0.00003110,0.00002312,0.00001722,-
 0.00002529,0.00002026,-0.00010537,0.00008368,0.00010574,-0.00004997,-0
 .00001499,-0.00004116,0.00012413,0.00000346,-0.00002034,0.00001136,-0.
 00001014,0.00000363,-0.00000601,0.00000724,0.00000270,0.00000335,-0.00
 000062,-0.00000998,0.00000397,-0.00000469,0.00000800,0.00000758,-0.000
 00590,-0.00000085,0.00000100,-0.00000441,0.00000603,-0.00000028,-0.000
 00328,-0.00000856,-0.00000451,0.00000268,-0.00000152,-0.00002784,0.000
 03701,-0.00004471,0.00000118,-0.00000023,-0.00000240,0.00002135,-0.000
 03798,0.00001052,0.00001756,-0.00000790,0.00001698,-0.00002769,0.00002
 106,-0.00005947,0.00000465,-0.00000988,0.00000731,-0.00001824,-0.00002
 165,0.00000322,0.00002494,-0.00000541,0.00001451,0.00002586,-0.0000193
 6,-0.00001211,-0.00000326,-0.00002359,-0.00000525,-0.00000290,0.000012
 39,0.00001617,0.00000557,0.00000386,0.00000020,-0.00002581,-0.00001102
 ,-0.00012738,-0.00001907,0.00002068,-0.00004374,0.00000337,-0.00003276
 ,0.00002609,0.00006958,0.00002307,0.00010656,0.00001616,-0.00000219,0.
 00002209,0.00000191,0.00000279,-0.00000097,0.00000008,-0.00001056,0.00
 000493,-0.00000248,-0.00000278,-0.00000710,0.00001151,0.00000520,0.000
 00927,0.00000165,-0.00000784,0.00000482,0.00000456,0.00000386,-0.00000
 442,-0.00000287,-0.00000812,-0.00001354,-0.00000261,0.00000103,0.00000
 027,0.00000105,0.00000233,-0.00000147,0.00000156,0.00000253,0.00000232
 ,-0.00000168,-0.00000153,-0.00000255,-0.00000791,0.00000711,-0.0000016
 0,-0.00000021,-0.00000160,0.00000134,-0.00000112,0.00000439,0.00000132
 ,0.00000415,-0.00000087,-0.00000283,0.00000067,0.00000461,-0.00000244,
 -0.00000155,0.00000331,-0.00000059,-0.00000115,-0.00000123,-0.00000005
 ,0.00000119,-0.00000096,-0.00000090,0.00000264,0.00000332,-0.00000543,
 -0.00000049,-0.00000180,0.00000451,-0.00000109,-0.00000069,0.00000106,
 -0.00000160,0.00000364,-0.00000252,-0.00002240,0.00016420,-0.00010870,
 0.00007631,-0.00007003,0.00011293,-0.00004252,-0.00001659,-0.00010525,
 -0.00001719,0.00000694,0.00007512,-0.00001324,0.00001433,0.00002307,-0
 .00000972,0.00003503,-0.00002409,0.00001505,-0.00010691,-0.00000274,0.
 00000694,0.00002305,0.00001548,0.00000301,0.00001346,-0.00001887,0.000
 01612,0.00003559,-0.00002562,-0.00002965,-0.00002508,-0.00000272,0.000
 00245,0.00000072,0.00001892,-0.00000919,0.00000681,-0.00000599,0.00001
 162,0.00000412,0.00000069,-0.00006113,-0.00010294,-0.00002927,-0.00000
 555,0.00006055,0.00001819,0.00011359,-0.00002570,-0.00014599,-0.000004
 13,0.00003588,0.00004194,-0.00000173,-0.00000767,-0.00000587,0.0000058
 7,-0.00000572,-0.00000410,-0.00000874,-0.00000059,-0.00000433,0.089058
 66,-0.03654390,0.06360537,0.00005597,-0.00000752,0.00003376,-0.0000096
 8,-0.00000733,0.00001006,-0.00000609,0.00002990,-0.00002246,0.00001837
 ,-0.00002284,0.00001672,-0.00003553,0.00000259,-0.00001267,0.00000008,
 0.00001571,0.00002612,-0.00001178,-0.00000589,0.00002361,-0.00004635,-
 0.00000020,-0.00004630,0.00000195,0.00002834,-0.00001288,0.00002209,-0
 .00000488,-0.00000816,0.00000232,0.00000026,0.00000211,-0.00000161,0.,
 0.00000192,0.00000560,0.00000594,0.00000466,-0.00001218,-0.00000060,0.
 00001121,-0.00000887,0.00000269,0.00000409,-0.00000081,0.00000587,0.00
 000525,0.00001678,0.00001103,-0.00001653,0.00000437,0.00001516,0.00000
 532,0.00000381,-0.00003483,-0.00011157,0.00001825,-0.00004190,-0.00008
 060,0.00009463,0.00000787,-0.00005453,-0.00005025,0.00008048,-0.000057
 04,-0.00009222,-0.00002288,0.00009487,-0.00003139,0.00004105,0.0001159
 7,0.00003280,-0.00010156,0.00016648,-0.00000734,0.00009747,-0.00005810
 ,0.00004453,-0.00006514,-0.00006904,-0.00000205,0.00002928,0.00003227,
 -0.00002069,0.00001778,0.00002390,0.00000575,-0.00004937,0.00002763,0.
 00002481,-0.00004839,0.00000968,-0.00008678,-0.00000771,0.00003441,-0.
 00003371,-0.00001319,-0.00000285,0.00007889,0.00003197,-0.00005867,0.0
 0000402,-0.00000196,-0.00000256,-0.00000358,0.00000042,0.00000261,0.00
 000469,-0.00000228,-0.00000474,-0.00000154,0.00000140,0.00000107,0.000
 00128,-0.00000075,-0.00000262,-0.00000200,0.00000183,-0.00000067,0.000
 00216,-0.00000375,-0.00000324,-0.00000010,0.00000113,0.00000165,0.0000
 0028,-0.00000297,-0.00000430,-0.00000010,0.00000214,0.00000095,-0.0000
 0018,0.00000029,0.00000358,0.00000172,-0.00000336,-0.00000489,-0.00000
 139,-0.00000396,-0.00000350,-0.00000008,-0.00000505,-0.00000586,-0.000
 00272,0.00000429,0.00000263,0.00000488,0.00000170,0.00000247,0.0000135
 5,0.00000752,0.00000441,-0.00000803,-0.00000860,0.00000268,-0.00002290
 ,-0.00000171,0.00000694,0.00000918,0.00000165,-0.00001068,0.00001035,-
 0.00000121,-0.00000466,-0.00000306,0.00000090,0.00000401,0.00000952,-0
 .00000056,-0.00000725,-0.00000898,0.00000066,0.00000247,-0.00000301,0.
 00000422,0.00000728,0.00000841,0.00000335,-0.00000090,-0.00000166,-0.0
 0000066,-0.00000193,-0.00000247,-0.00000638,-0.00000129,-0.00000048,0.
 00000134,-0.00000281,-0.00000145,0.00000031,-0.00000286,0.00000580,0.0
 0000151,0.00000030,-0.00000107,-0.00000203,-0.00000042,-0.00000191,0.0
 0000297,-0.00000261,-0.00000251,0.00000542,-0.00000248,0.00000303,-0.0
 0000136,0.00000192,0.00000065,-0.00000190,-0.00000130,-0.00000920,0.00
 000524,0.00000815,-0.00000041,-0.00000889,0.00000175,-0.00000485,0.000
 00927,-0.00000603,0.00001214,-0.00000417,-0.00000562,-0.00000272,0.000
 00301,-0.00000109,-0.00000017,0.00000605,-0.00000235,-0.00000190,-0.00
 000313,0.00000058,0.00000243,-0.00000390,-0.00000036,-0.00000071,0.000
 00542,-0.00000554,-0.00000060,-0.00000137,0.00000416,-0.00000032,-0.00
 000279,0.00000167,-0.00000048,0.00000600,-0.00000536,-0.00000907,0.000
 00790,-0.00000540,-0.00037746,-0.00211114,0.00126873,0.00022360,0.0013
 2805,-0.00164873,0.00157861,-0.00072207,0.00274830,0.00039396,0.000382
 17,-0.00037676,-0.00005237,0.00044978,-0.00019978,0.00015858,0.0000816
 1,0.00015363,0.00003924,-0.00001772,0.00000682,-0.00002198,0.00001695,
 -0.00004546,0.00012119,0.00043283,-0.00048960,-0.00012138,-0.00010066,
 -0.00004186,-0.00000668,-0.00001018,0.00001856,0.00000262,0.00003509,-
 0.00000708,0.00001265,0.00006023,0.00001762,-0.23395599,-0.01344864,-0
 .12116227,-0.01827211,-0.00224785,-0.01512192,-0.00016010,0.00034673,0
 .00125449,0.00009677,-0.00001914,0.00004593,-0.00001802,0.00001336,-0.
 00001547,-0.00003477,-0.00001037,-0.00002398,-0.00003356,0.00000895,0.
 00000053,-0.00000276,0.00000956,0.00000148,0.25046187,0.00002971,-0.00
 000733,-0.00000471,0.00000500,-0.00000476,0.00000226,-0.00001316,0.000
 00217,-0.00000538,0.00001057,0.00000828,-0.00000483,-0.00001168,0.0000
 0058,-0.00000337,0.00001814,-0.00001523,0.00002230,-0.00003707,-0.0000
 3452,0.00002649,-0.00010143,-0.00005648,-0.00006700,0.00006875,0.00004
 592,-0.00004161,0.00002230,0.00002528,-0.00001464,-0.00000368,-0.00000
 305,-0.00000108,-0.00000104,0.00000018,0.00000015,0.00000623,0.0000044
 4,0.00000008,-0.00001159,-0.00001520,0.00000330,-0.00000693,0.00002579
 ,0.00000705,-0.00000048,0.00000405,0.00000369,-0.00004267,0.00000548,0
 .00000175,0.00004068,-0.00004703,0.00002833,0.00002662,0.00004103,0.00
 006254,0.00000082,0.00000205,0.00000087,-0.00000523,0.00001357,0.00000
 769,0.00002383,-0.00002455,0.00004477,0.00000848,-0.00000881,-0.000020
 72,-0.00001426,0.00000142,0.00000387,0.00001751,0.00000164,-0.00013240
 ,-0.00000137,-0.00002201,0.00002130,-0.00000414,0.00001182,-0.00000196
 ,-0.00000566,0.00000225,0.00000410,-0.00000125,-0.00000022,-0.00000036
 ,-0.00000119,0.00002046,-0.00000256,-0.00000633,0.00001514,-0.00000017
 ,0.00001641,0.00000971,-0.00000159,0.00000284,-0.00000026,0.00000003,-
 0.00000632,-0.00000394,0.00000865,-0.00000059,0.00000039,-0.00000010,0
 .00000027,-0.00000008,-0.00000015,0.,0.00000006,-0.00000014,0.00000022
 ,0.,-0.00000021,-0.00000055,0.00000018,-0.00000008,-0.00000004,-0.0000
 0007,-0.00000010,0.00000011,0.00000003,0.,0.00000039,0.00000035,0.0000
 0006,0.00000064,0.00000117,-0.00000025,0.00000057,0.00000052,-0.000000
 61,-0.00000085,-0.00000034,0.00000065,-0.00000017,0.00000022,-0.000000
 08,0.00000046,-0.00000040,0.00000067,0.00000019,0.00000047,-0.00000159
 ,-0.00000223,0.00000178,-0.00000004,0.00000195,-0.00000084,0.00000116,
 -0.00000572,-0.00000135,-0.00000868,0.00000540,-0.00000339,0.00000491,
 0.00000750,0.00000887,-0.00000001,-0.00000094,0.00000034,0.00000149,-0
 .00000337,-0.00000092,-0.00000618,-0.00000023,-0.00000240,0.00000239,0
 .,0.00000222,0.,-0.00000238,-0.00000116,0.00000008,0.00000233,-0.00000
 152,-0.00000122,-0.00000242,-0.00000018,0.00000125,-0.00000012,-0.0000
 0042,0.00000010,0.00000186,0.00000149,-0.00000003,0.00000082,-0.000000
 23,0.00000051,0.00000021,-0.00000038,0.00000044,-0.00000054,0.00000048
 ,0.00000011,-0.00000053,-0.00000029,-0.00000051,0.00000142,-0.00000088
 ,0.00000060,0.00000037,-0.00000143,0.00000091,-0.00000101,0.00000034,-
 0.00000020,-0.00000027,0.00000002,0.00000025,0.00000462,-0.00000150,-0
 .00000529,-0.00000119,0.00000228,0.00000054,0.00000083,-0.00000327,0.0
 0000308,-0.00000406,0.00000367,0.00000288,-0.00000007,-0.00000072,0.00
 000037,0.00000059,-0.00000125,0.00000065,0.00000093,0.00000042,0.00000
 039,-0.00000105,0.00000126,-0.00000030,0.00000001,-0.00000574,0.000001
 69,-0.00000015,-0.00000008,-0.00000076,0.00000060,0.00000026,-0.000000
 16,0.00000014,-0.00000075,0.00000297,-0.00000232,0.00000448,-0.0000060
 7,-0.00285372,-0.00471379,0.00306347,-0.00036489,0.00144279,-0.0011208
 7,0.02175505,0.00117483,0.01346121,-0.00044247,0.00081168,-0.00069557,
 0.00020300,0.00067798,-0.00097155,-0.00019065,-0.00037893,0.00001251,0
 .00001626,0.00002097,0.00001132,0.00009598,0.00000192,0.00010842,0.001
 64677,0.00041031,0.00113908,0.00019271,0.00028234,-0.00009267,-0.00005
 274,0.00004958,-0.00001637,-0.00002869,-0.00003021,0.00000395,0.000009
 13,-0.00004255,-0.00000941,-0.01383845,-0.04913828,-0.01038359,0.00336
 518,-0.00118507,0.00243106,-0.02503108,0.00056324,-0.01429460,0.000011
 83,-0.00001041,0.00001126,-0.00000112,0.00000636,-0.00000484,-0.000004
 66,0.00000044,-0.00000333,-0.00000413,0.00000210,-0.00000150,-0.000027
 41,0.00001115,0.00000266,0.01552012,0.05004397,0.00005756,-0.00001010,
 0.00003321,-0.00001139,-0.00000435,0.00000750,-0.00000298,0.00002945,-
 0.00002030,0.00001195,-0.00002525,0.00001914,-0.00003529,0.00000811,-0
 .00001097,-0.00000612,0.00002427,0.00001109,-0.00002496,-0.00000522,0.
 00005539,-0.00008993,0.00001338,-0.00008024,0.00001765,0.00001923,-0.0
 0000828,0.00002999,-0.00000259,0.00000285,0.00000385,0.00000268,0.0000
 0255,-0.00000229,-0.00000057,0.00000042,0.00000316,-0.00000077,0.00000
 163,-0.00002828,0.00000279,0.00000427,-0.00000722,-0.00000238,0.000004
 59,-0.00000364,-0.00000320,-0.00000040,0.00003467,0.00001396,-0.000022
 23,0.00000012,0.00003571,0.00000391,0.00000843,-0.00004698,-0.00016110
 ,0.00002595,-0.00004622,-0.00007939,0.00019028,0.00000677,-0.00001802,
 -0.00006221,0.00009307,-0.00008709,-0.00019336,-0.00003024,0.00007684,
 -0.00004415,0.00004298,0.00012400,0.00000088,-0.00010455,0.00026569,0.
 00000691,0.00010198,-0.00006788,0.00006672,-0.00007498,-0.00007089,-0.
 00000364,0.00002718,0.00002977,-0.00002342,0.00001786,0.00002202,0.000
 00485,-0.00006077,0.00002520,0.00002253,-0.00004818,0.00001063,-0.0001
 3372,-0.00002375,0.00003402,-0.00004616,-0.00000179,-0.00002483,0.0001
 2235,0.00003387,-0.00004097,0.00000386,-0.00000304,-0.00000390,-0.0000
 0374,0.00000070,0.00000236,0.00000457,-0.00000178,-0.00000529,-0.00000
 069,0.00000094,0.00000176,0.00000274,-0.00000090,-0.00000284,-0.000001
 69,0.00000111,0.00000002,0.00000160,-0.00000377,-0.00000370,0.00000008
 ,0.00000163,0.00000130,-0.00000227,-0.00000405,-0.00000524,0.00000046,
 0.00000368,-0.00000227,-0.00000020,-0.00000290,0.00000410,0.00000372,-
 0.00000251,-0.00000346,-0.00000071,-0.00000380,-0.00000557,-0.00000047
 ,-0.00000481,-0.00000477,-0.00000257,0.00000291,0.00000315,0.00000552,
 0.00000189,0.00000220,0.00000388,0.00004031,-0.00002704,-0.00000706,-0
 .00000846,0.00000192,-0.00000841,-0.00001820,0.00001308,0.00001072,-0.
 00000165,0.00000143,0.00001718,0.00001231,-0.00002313,-0.00000360,0.00
 000112,0.00001192,0.00001068,-0.00000432,-0.00000704,-0.00001070,-0.00
 001171,0.00000828,-0.00000021,0.00000215,0.00001527,0.00001091,0.00000
 657,-0.00000372,0.00000052,-0.00000321,0.00000313,-0.00000653,-0.00000
 523,-0.00000327,0.00000263,-0.00000189,0.00000019,-0.00000049,-0.00000
 220,0.00000108,0.00000781,0.00000339,-0.00000240,-0.00000202,-0.000001
 87,-0.00000323,-0.00000334,0.00000283,-0.00000230,-0.00000102,0.000005
 23,-0.00000271,0.00000316,0.00000051,0.00000275,-0.00000045,-0.0000017
 8,-0.00000262,-0.00001027,0.00000574,0.00000792,-0.00000033,-0.0000075
 1,0.00000217,-0.00000361,0.00000941,-0.00000608,0.00001302,-0.00000620
 ,-0.00000704,-0.00000164,0.00000352,-0.00000200,-0.00000102,0.00000595
 ,-0.00000182,-0.00000209,-0.00000298,-0.00000002,0.00000310,-0.0000037
 0,-0.00000031,-0.00000124,0.00001007,-0.00000634,-0.00000033,-0.000001
 44,0.00000408,-0.00000046,-0.00000241,0.00000157,-0.00000066,0.0000056
 1,-0.00000711,-0.00001051,0.00000728,-0.00000191,0.00189037,0.00361737
 ,-0.00162819,0.00000058,0.00023592,0.00035774,-0.01952730,-0.00288439,
 -0.01251224,0.00019697,-0.00084157,0.00035788,0.00024110,-0.00013941,0
 .00092039,0.00028245,0.00040683,0.00003071,0.00002445,-0.00002344,0.00
 000293,-0.00010417,0.00002504,-0.00014076,-0.00160480,0.00002375,-0.00
 128722,-0.00029088,-0.00032879,0.00003297,0.00005000,-0.00002260,0.000
 02779,0.00003308,0.00004501,-0.00001828,0.00002613,0.00006245,0.000019
 90,-0.12092380,-0.01010058,-0.12740706,0.01633136,0.00178834,0.0124499
 0,-0.01015780,0.00075034,-0.00727016,0.00008358,-0.00001335,0.00003020
 ,-0.00001550,0.00000800,-0.00001000,-0.00002902,-0.00000888,-0.0000185
 6,-0.00003006,0.00000764,0.00000418,-0.00000387,-0.00001874,-0.0000076
 9,0.13362021,0.00740712,0.13608090\\-0.00000819,-0.00000075,0.00000104
 ,-0.00000637,-0.00000280,0.00000279,0.00000580,0.00000566,-0.00000375,
 -0.00000049,-0.00000064,0.00000192,0.00000389,0.00000330,-0.00000112,-
 0.00000104,-0.00000487,0.00000403,0.00000891,-0.00000236,0.00000386,-0
 .00001033,-0.00000204,-0.00000278,0.00000711,0.00000866,-0.00000598,-0
 .00000387,-0.00000163,0.00000138,0.00000043,0.00000034,0.00000065,-0.0
 0000055,0.00000027,0.00000093,-0.00000103,-0.00000090,0.00000128,-0.00
 000400,-0.00000190,0.00000161,-0.00000007,-0.00000473,0.00000323,0.000
 00170,0.00000173,-0.00000111,0.00000311,0.00000335,-0.00000257,-0.0000
 0139,0.00000241,-0.00000767,0.00000020,-0.00000046,0.00000643,0.000001
 21,0.00000050,-0.00000078,-0.00000364,-0.00000043,-0.00000180,-0.00000
 059,0.00000045,0.00000097,0.00000309,-0.00000043,0.00000126,-0.0000010
 9,0.00000217,-0.00000233,-0.00000201,0.00000049,-0.00000181,0.00000051
 ,0.00000397,-0.00000007,0.00000173,0.00000098,0.00000257,0.00000132,0.
 00000061,-0.00000021,-0.00000002,-0.00000004,-0.00000206,0.00000372,-0
 .00000188,-0.00000226,0.00000303,-0.00000656,0.00000172,0.00000173,-0.
 00000100,-0.00000329,-0.00000008,-0.00000136,0.00000058,0.00000309,0.0
 0000172,0.00000140,-0.00000285,0.00000407,0.00000213,-0.00000490,-0.00
 000502,-0.00000264,0.00000051,-0.00000103,-0.00000177,0.00000066,-0.00
 000170,0.00000175,0.00000329,-0.00000358,0.00000201,-0.00000222,0.0000
 0083,-0.00000078,-0.00000331,0.00000301,0.00000158,-0.00000172,0.00000
 089,-0.00000151,-0.00000219,0.00000421,-0.00000056,-0.00000273,-0.0000
 0201,-0.00000157,-0.00000010,-0.00000196,0.00000114,-0.00000074,-0.000
 00042,-0.00000102,0.00000207,0.00000380,-0.00000189,-0.00000051,-0.000
 00226,-0.00000046,0.00000032,-0.00000221,0.00000007,-0.00000477,0.0000
 0040,0.00000088,0.00000247,-0.00000656,0.,-0.00000020,0.00000297,0.000
 00035,-0.00000020,0.00000044,-0.00000171,0.00000026,0.00000075,-0.0000
 0060,0.00000020,-0.00000443,0.00000411,-0.00000021,-0.00000099,-0.0000
 0017,0.00000077,0.00000064,-0.00000187,-0.00000103,0.00000163,-0.00000
 486,0.00000086,-0.00000077,-0.00000005,-0.00000160,-0.00000060,-0.0000
 0024,0.00000091,-0.00000053,-0.00000021,0.00000055,0.00000052,-0.00000
 048,0.00000034,-0.00000040,-0.00000014,0.00000032,0.00000020,-0.000000
 26,-0.00000102,-0.00000047,-0.00000087,-0.00000068,-0.00000099,-0.0000
 0014,-0.00000051,0.00000381,-0.00000665,0.00000062,-0.00000142,0.00000
 059,0.00000124,-0.00000026,0.00000137,-0.00000044,0.00000095,0.0000026
 8,0.00000087,0.00000437,0.00000706,-0.00000103,-0.00000053,-0.00000166
 ,0.00000154,-0.00000150,0.00000044,0.00000032,-0.00000048,-0.00000163,
 -0.00000142,-0.00000024,0.00000315,0.00000032,0.00000261,-0.00000093,0
 .00000035,0.00000264,0.00000039,0.00000071,-0.00000011,0.00000144,0.00
 000283,-0.00000128,0.00000051,-0.00000121,0.00000079,0.00000099,-0.000
 00121,-0.00000149,0.00000094,0.00000044,0.00000329,-0.00000059,-0.0000
 0109,0.00000056,-0.00000159,-0.00001108,-0.00000789,-0.00000111,0.0000
 0907,0.00000471,-0.00000105,0.00000433,0.00000343,0.00000300,0.0000015
 6,-0.00000010,-0.00000180,0.00000021,-0.00000163,-0.00000081,0.0000064
 0,0.00000307,-0.00000160,-0.00000302,-0.00000303,0.00000362,0.00000064
 ,0.00000095,-0.00000023,-0.00000251,-0.00000230,-0.00000275,0.00000255
 ,0.00000062,-0.00000396,0.00000014,-0.00000070,0.00000144,-0.00000097,
 0.00000107,0.00000364,0.00000009,0.00000155,0.00000088,-0.00000723,-0.
 00000181,0.00000369,0.00000381,-0.00000042,-0.00000257,-0.00000070,0.0
 0000030,-0.00000056,0.00000075,-0.00000217,0.00000143,-0.00000094,-0.0
 0000410,0.00000057,-0.00000007,0.00000384,0.00000363,-0.00000026,0.000
 00361,-0.00000201,0.00000291,-0.00000110,0.00000086,0.00000364,0.00000
 014,0.00000096\\\@
 The archive entry for this job was punched.


 NEVER LISTEN TO CRITICISM
 OR YOU'LL BE DOIN' EVERYBODY ELSE'S THING BUT BUT YOUR OWN.

                                               -- ANDY CAPP
 Job cpu time:       1 days 17 hours 43 minutes 11.4 seconds.
 Elapsed time:       0 days  2 hours 39 minutes 23.5 seconds.
 File lengths (MBytes):  RWF=   8253 Int=      0 D2E=      0 Chk=     49 Scr=      1
 Normal termination of Gaussian 16 at Sat Dec  7 21:32:42 2024.
