/mnt/lustre/scratch/nvme/SLURM/9663537/usccqdma.MQER66iKkQ
OMP_STACKSIZE=0m
GAUSS_PDEF=16
GAUSS_MDEF=65536MB
GAUSS_RDEF=SCF=Direct
 Entering Gaussian System, Link 0=g16.exe
 Initial command:
 /opt/cesga/2020/software/Core/g16/c1/l1.exe "/mnt/lustre/scratch/nvme/SLURM/9663537/usccqdma.MQER66iKkQ/Gau-1005810.inp" -scrdir="/mnt/lustre/scratch/nvme/SLURM/9663537/usccqdma.MQER66iKkQ/"
 Default is to use a total of  16 processors:
                               16 via shared-memory
                                1 via Linda
 Entering Link 1 = /opt/cesga/2020/software/Core/g16/c1/l1.exe PID=   1005838.
  
 Copyright (c) 1988-2019, Gaussian, Inc.  All Rights Reserved.
  
 This is part of the Gaussian(R) 16 program.  It is based on
 the Gaussian(R) 09 system (copyright 2009, Gaussian, Inc.),
 the Gaussian(R) 03 system (copyright 2003, Gaussian, Inc.),
 the Gaussian(R) 98 system (copyright 1998, Gaussian, Inc.),
 the Gaussian(R) 94 system (copyright 1995, Gaussian, Inc.),
 the Gaussian 92(TM) system (copyright 1992, Gaussian, Inc.),
 the Gaussian 90(TM) system (copyright 1990, Gaussian, Inc.),
 the Gaussian 88(TM) system (copyright 1988, Gaussian, Inc.),
 the Gaussian 86(TM) system (copyright 1986, Carnegie Mellon
 University), and the Gaussian 82(TM) system (copyright 1983,
 Carnegie Mellon University). Gaussian is a federally registered
 trademark of Gaussian, Inc.
  
 This software contains proprietary and confidential information,
 including trade secrets, belonging to Gaussian, Inc.
  
 This software is provided under written license and may be
 used, copied, transmitted, or stored only in accord with that
 written license.
  
 The following legend is applicable only to US Government
 contracts under FAR:
  
                    RESTRICTED RIGHTS LEGEND
  
 Use, reproduction and disclosure by the US Government is
 subject to restrictions as set forth in subparagraphs (a)
 and (c) of the Commercial Computer Software - Restricted
 Rights clause in FAR 52.227-19.
  
 Gaussian, Inc.
 340 Quinnipiac St., Bldg. 40, Wallingford CT 06492
  
  
 ---------------------------------------------------------------
 Warning -- This program may not be used in any manner that
 competes with the business of Gaussian, Inc. or will provide
 assistance to any competitor of Gaussian, Inc.  The licensee
 of this program is prohibited from giving any competitor of
 Gaussian, Inc. access to this program.  By using this program,
 the user acknowledges that Gaussian, Inc. is engaged in the
 business of creating and licensing software in the field of
 computational chemistry and represents and warrants to the
 licensee that it is not a competitor of Gaussian, Inc. and that
 it will not use this program in any manner prohibited above.
 ---------------------------------------------------------------
  

 Cite this work as:
 Gaussian 16, Revision C.01,
 M. J. Frisch, G. W. Trucks, H. B. Schlegel, G. E. Scuseria, 
 M. A. Robb, J. R. Cheeseman, G. Scalmani, V. Barone, 
 G. A. Petersson, H. Nakatsuji, X. Li, M. Caricato, A. V. Marenich, 
 J. Bloino, B. G. Janesko, R. Gomperts, B. Mennucci, H. P. Hratchian, 
 J. V. Ortiz, A. F. Izmaylov, J. L. Sonnenberg, D. Williams-Young, 
 F. Ding, F. Lipparini, F. Egidi, J. Goings, B. Peng, A. Petrone, 
 T. Henderson, D. Ranasinghe, V. G. Zakrzewski, J. Gao, N. Rega, 
 G. Zheng, W. Liang, M. Hada, M. Ehara, K. Toyota, R. Fukuda, 
 J. Hasegawa, M. Ishida, T. Nakajima, Y. Honda, O. Kitao, H. Nakai, 
 T. Vreven, K. Throssell, J. A. Montgomery, Jr., J. E. Peralta, 
 F. Ogliaro, M. J. Bearpark, J. J. Heyd, E. N. Brothers, K. N. Kudin, 
 V. N. Staroverov, T. A. Keith, R. Kobayashi, J. Normand, 
 K. Raghavachari, A. P. Rendell, J. C. Burant, S. S. Iyengar, 
 J. Tomasi, M. Cossi, J. M. Millam, M. Klene, C. Adamo, R. Cammi, 
 J. W. Ochterski, R. L. Martin, K. Morokuma, O. Farkas, 
 J. B. Foresman, and D. J. Fox, Gaussian, Inc., Wallingford CT, 2019.
 
 ******************************************
 Gaussian 16:  ES64L-G16RevC.01  3-Jul-2019
                 7-Dec-2024 
 ******************************************
 Default route: SCF=Direct
 ----------------------------------------------------
 # m06/genecp scf=tight int=ultrafine 5d freq=noraman
 ----------------------------------------------------
 1/10=4,30=1,38=1/1,3;
 2/12=2,17=6,18=5,40=1/2;
 3/5=7,8=1,11=2,16=1,17=8,25=1,30=1,71=2,74=-54,75=-5,140=1/1,2,3;
 4//1;
 5/5=2,32=2,38=5,98=1/2;
 8/6=4,10=90,11=11/1;
 11/6=1,8=1,9=11,15=111,16=1/1,2,10;
 10/6=1/2;
 6/7=2,8=2,9=2,10=2,28=1/1;
 7/8=1,10=1,25=1/1,2,3,16;
 1/10=4,30=1/3;
 99//99;
 ------
 OPT-TS
 ------
 Symbolic Z-matrix:
 Charge =  0 Multiplicity = 1
 C                     2.40564   0.91192   0.0201 
 C                     0.1743    1.6354    0.02376 
 C                     0.57709   2.9507    0.01655 
 C                     1.93475   3.2789    0.01362 
 C                     2.83866   2.23763   0.01784 
 C                     3.32241  -0.2238    0.01299 
 C                     3.46783  -2.5344   -0.03889 
 C                     4.85349  -2.50411  -0.00694 
 C                     5.48559  -1.26471   0.03798 
 C                     4.71368  -0.11349   0.04844 
 H                    -0.87685   1.35982   0.04025 
 H                     2.25853   4.31712   0.00587 
 H                     3.9052    2.44638   0.01248 
 H                     2.92145  -3.47669  -0.07416 
 H                     6.57095  -1.19512   0.06593 
 H                     5.19409   0.86091   0.0879 
 N                     1.06174   0.60076   0.02062 
 N                     2.71598  -1.42923  -0.02922 
 Ir                    0.48765  -1.2419   -0.02441 
 O                    -2.32984   0.07988   0.2991 
 B                    -1.52905  -1.03121   0.01129 
 O                    -2.34971  -2.12989  -0.26363 
 C                    -3.68195  -0.23251  -0.06184 
 C                    -3.70059  -1.78118   0.07308 
 C                    -3.94776  -2.24909   1.50162 
 H                    -3.73439  -3.32372   1.56102 
 H                    -3.28343  -1.73352   2.20708 
 H                    -4.98845  -2.08676   1.81383 
 C                    -4.6491   -2.48994  -0.87296 
 H                    -4.59752  -3.57358  -0.70656 
 H                    -5.68685  -2.16943  -0.6997 
 H                    -4.39294  -2.29856  -1.92063 
 C                    -3.88585   0.24704  -1.49367 
 H                    -3.22526  -0.28805  -2.18813 
 H                    -4.92476   0.12048  -1.82703 
 H                    -3.63584   1.3151   -1.5437 
 C                    -4.62411   0.50663   0.86688 
 H                    -5.66908   0.22763   0.66846 
 H                    -4.3996    0.30164   1.91918 
 H                    -4.52546   1.58828   0.70648 
 C                    -0.43751   4.05209   0.01632 
 F                    -0.3168    4.80832   1.11474 
 F                    -0.25193   4.86535  -1.03209 
 F                    -1.68926   3.59946  -0.03398 
 H                     5.42093  -3.43108  -0.01671 
 

 GradGradGradGradGradGradGradGradGradGradGradGradGradGradGradGradGradGrad
 Berny optimization.
 Initialization pass.
 Trust Radius=3.00D-01 FncErr=1.00D-07 GrdErr=1.00D-07 EigMax=2.50D+02 EigMin=1.00D-04
 Number of steps in this run=      2 maximum allowed number of steps=      2.
 GradGradGradGradGradGradGradGradGradGradGradGradGradGradGradGradGradGrad

                          Input orientation:                          
 ---------------------------------------------------------------------
 Center     Atomic      Atomic             Coordinates (Angstroms)
 Number     Number       Type             X           Y           Z
 ---------------------------------------------------------------------
      1          6           0        2.405640    0.911920    0.020100
      2          6           0        0.174300    1.635400    0.023760
      3          6           0        0.577090    2.950700    0.016550
      4          6           0        1.934750    3.278900    0.013620
      5          6           0        2.838660    2.237630    0.017840
      6          6           0        3.322410   -0.223800    0.012990
      7          6           0        3.467830   -2.534400   -0.038890
      8          6           0        4.853490   -2.504110   -0.006940
      9          6           0        5.485590   -1.264710    0.037980
     10          6           0        4.713680   -0.113490    0.048440
     11          1           0       -0.876850    1.359820    0.040250
     12          1           0        2.258530    4.317120    0.005870
     13          1           0        3.905200    2.446380    0.012480
     14          1           0        2.921450   -3.476690   -0.074160
     15          1           0        6.570950   -1.195120    0.065930
     16          1           0        5.194090    0.860910    0.087900
     17          7           0        1.061740    0.600760    0.020620
     18          7           0        2.715980   -1.429230   -0.029220
     19         77           0        0.487650   -1.241900   -0.024410
     20          8           0       -2.329840    0.079880    0.299100
     21          5           0       -1.529050   -1.031210    0.011290
     22          8           0       -2.349710   -2.129890   -0.263630
     23          6           0       -3.681950   -0.232510   -0.061840
     24          6           0       -3.700590   -1.781180    0.073080
     25          6           0       -3.947760   -2.249090    1.501620
     26          1           0       -3.734390   -3.323720    1.561020
     27          1           0       -3.283430   -1.733520    2.207080
     28          1           0       -4.988450   -2.086760    1.813830
     29          6           0       -4.649100   -2.489940   -0.872960
     30          1           0       -4.597520   -3.573580   -0.706560
     31          1           0       -5.686850   -2.169430   -0.699700
     32          1           0       -4.392940   -2.298560   -1.920630
     33          6           0       -3.885850    0.247040   -1.493670
     34          1           0       -3.225260   -0.288050   -2.188130
     35          1           0       -4.924760    0.120480   -1.827030
     36          1           0       -3.635840    1.315100   -1.543700
     37          6           0       -4.624110    0.506630    0.866880
     38          1           0       -5.669080    0.227630    0.668460
     39          1           0       -4.399600    0.301640    1.919180
     40          1           0       -4.525460    1.588280    0.706480
     41          6           0       -0.437510    4.052090    0.016320
     42          9           0       -0.316800    4.808320    1.114740
     43          9           0       -0.251930    4.865350   -1.032090
     44          9           0       -1.689260    3.599460   -0.033980
     45          1           0        5.420930   -3.431080   -0.016710
 ---------------------------------------------------------------------
                    Distance matrix (angstroms):
                    1          2          3          4          5
     1  C    0.000000
     2  C    2.345701   0.000000
     3  C    2.738655   1.375611   0.000000
     4  C    2.413374   2.408398   1.396769   0.000000
     5  C    1.394639   2.731580   2.371322   1.378882   0.000000
     6  C    1.459581   3.656137   4.196933   3.767560   2.508521
     7  C    3.606778   5.313991   6.200466   6.012283   4.813662
     8  C    4.202614   6.247504   6.931313   6.477860   5.152111
     9  C    3.771489   6.051499   6.470202   5.766580   4.390106
    10  C    2.525731   4.864689   5.147976   4.385427   3.007391
    11  H    3.312969   1.086799   2.155320   3.404214   3.817862
    12  H    3.408406   3.396462   2.166670   1.087563   2.158929
    13  H    2.145532   3.818040   3.366106   2.139104   1.086790
    14  H    4.419824   5.804299   6.842192   6.827831   5.715660
    15  H    4.668139   6.995052   7.288115   6.443131   5.071102
    16  H    2.789741   5.079591   5.068432   4.059001   2.729160
    17  N    1.379452   1.363099   2.399400   2.816847   2.415946
    18  N    2.362145   3.981821   4.874498   4.772698   3.669213
    19  Ir   2.884373   2.894713   4.193754   4.746912   4.199543
    20  O    4.816109   2.960772   4.095325   5.338722   5.607886
    21  B    4.388350   3.164232   4.504604   5.529463   5.455479
    22  O    5.652120   4.542095   5.870013   6.905684   6.787757
    23  C    6.194771   4.285683   5.317743   6.624426   6.973256
    24  C    6.673952   5.166258   6.379062   7.573969   7.675655
    25  C    7.249316   5.853607   7.051065   8.208334   8.269689
    26  H    7.616761   6.498761   7.768050   8.839015   8.747286
    27  H    6.644302   5.298340   6.453213   7.560755   7.618582
    28  H    8.178149   6.611567   7.718902   8.942134   9.120832
    29  C    7.882865   6.409971   7.596371   8.798444   8.900000
    30  H    8.348173   7.101909   8.358571   9.494509   9.465289
    31  H    8.689144   7.025184   8.121926   9.395845   9.623999
    32  H    7.764941   6.333749   7.483889   8.653846   8.753898
    33  C    6.505107   4.551369   5.432161   6.733757   7.173991
    34  H    6.166299   4.488778   5.459669   6.648048   6.929393
    35  H    7.600857   5.632124   6.455950   7.772804   8.255699
    36  H    6.253599   4.132395   4.781040   6.108456   6.723735
    37  C    7.092156   5.000971   5.809391   7.171623   7.707799
    38  H    8.129559   6.045043   6.845052   8.219324   8.766131
    39  H    7.091561   5.127582   5.950207   7.253911   7.730172
    40  H    6.997766   4.749323   5.326181   6.713610   7.424698
    41  C    4.236058   2.492942   1.497489   2.495085   3.745071
    42  F    4.877689   3.390994   2.335768   2.936166   4.215278
    43  F    4.878462   3.424773   2.335124   2.896878   4.190347
    44  F    4.898367   2.708084   2.357920   3.638471   4.728565
    45  H    5.287247   7.293695   8.011929   7.561627   6.229252
                    6          7          8          9         10
     6  C    0.000000
     7  C    2.315753   0.000000
     8  C    2.746710   1.386359   0.000000
     9  C    2.400722   2.385242   1.392006   0.000000
    10  C    1.396086   2.724073   2.395345   1.386096   0.000000
    11  H    4.488026   5.835020   6.911511   6.882500   5.781413
    12  H    4.663887   6.957567   7.298161   6.447618   5.065558
    13  H    2.733040   5.000210   5.040534   4.033667   2.684747
    14  H    3.278667   1.089810   2.164072   3.388251   3.812904
    15  H    3.391058   3.381422   2.160656   1.087948   2.149344
    16  H    2.164577   3.811060   3.383543   2.146095   1.087109
    17  N    2.406364   3.952472   4.900851   4.801117   3.721235
    18  N    1.350037   1.336702   2.392658   2.775306   2.393326
    19  Ir   3.012273   3.248421   4.544671   4.998381   4.374694
    20  O    5.667628   6.368805   7.640085   7.934548   7.050631
    21  B    4.918188   5.218324   6.550312   7.018576   6.309934
    22  O    5.990212   5.835915   7.217480   7.888690   7.352193
    23  C    7.004765   7.511230   8.832719   9.226006   8.397198
    24  C    7.193857   7.208753   8.584947   9.200754   8.577980
    25  C    7.692411   7.579284   8.933241   9.596840   9.038421
    26  H    7.861573   7.419886   8.768235   9.569075   9.163152
    27  H    7.122528   7.159979   8.467890   9.045468   8.440260
    28  H    8.705403   8.668427  10.017643  10.655277  10.056924
    29  C    8.334583   8.159792   9.541981  10.249046   9.703512
    30  H    8.629257   8.159384   9.537024  10.370840   9.961962
    31  H    9.244467   9.185752  10.568382  11.233259  10.628153
    32  H    8.220106   8.086301   9.444624  10.123752   9.569864
    33  C    7.379074   7.995586   9.281986   9.615364   8.744141
    34  H    6.908042   7.379890   8.656484   9.043691   8.249817
    35  H    8.456951   8.982283  10.286660  10.666415   9.821999
    36  H    7.294432   8.218591   9.434867   9.610287   8.619180
    37  C    8.025574   8.691822   9.982636  10.297124   9.394079
    38  H    9.026645   9.571430  10.892339  11.271701  10.406848
    39  H    7.971141   8.589157   9.859100  10.183779   9.312565
    40  H    8.084159   9.024675  10.257745  10.431087   9.417576
    41  C    5.693878   7.657453   8.424902   7.959394   6.624790
    42  F    6.307134   8.340853   9.025613   8.468107   7.118071
    43  F    6.306151   8.341424   9.023591   8.464149   7.114329
    44  F    6.303678   8.013728   8.947730   8.668552   7.402056
    45  H    3.832925   2.149215   1.086902   2.168025   3.392764
                   11         12         13         14         15
    11  H    0.000000
    12  H    4.310152   0.000000
    13  H    4.904017   2.492235   0.000000
    14  H    6.150772   7.822362   6.004834   0.000000
    15  H    7.873887   6.998954   4.513270   4.306279   0.000000
    16  H    6.091592   4.535375   2.044662   4.899585   2.474568
    17  N    2.081992   3.904338   3.389933   4.482533   5.794707
    18  N    4.548852   5.764636   4.054175   2.058235   3.863244
    19  Ir   2.938535   5.834350   5.028361   3.304564   6.084151
    20  O    1.953568   6.252466   6.675193   6.353311   8.994668
    21  B    2.478554   6.553657   6.451721   5.078841   8.101843
    22  O    3.799965   7.929215   7.755152   5.443794   8.975555
    23  C    3.227154   7.482848   8.046541   7.357292  10.298782
    24  C    4.223798   8.526716   8.701953   6.837240  10.288248
    25  C    4.958863   9.158079   9.270057   7.153749  10.668426
    26  H    5.693314   9.834430   9.698215   6.855466  10.628559
    27  H    4.478340   8.495228   8.600246   6.836902  10.098673
    28  H    5.650642   9.838553  10.143531   8.250026  11.724756
    29  C    5.466669   9.737749   9.916013   7.676261  11.333472
    30  H    6.224110  10.477410  10.442853   7.546140  11.445022
    31  H    6.011591  10.281159  10.668661   8.729436  12.320273
    32  H    5.439824   9.577091   9.752461   7.635296  11.196914
    33  C    3.556019   7.521142   8.234443   7.887998  10.670372
    34  H    3.632655   7.489538   7.947531   7.240051  10.093032
    35  H    4.626908   8.518859   9.314602   8.807678  11.724566
    36  H    3.181654   6.793886   7.782594   8.253415  10.633470
    37  C    3.931057   7.914032   8.788729   8.584164  11.351953
    38  H    4.964068   8.944828   9.849873   9.384598  12.337163
    39  H    4.130362   8.007217   8.786644   8.476258  11.226210
    40  H    3.715967   7.345743   8.502588   9.039900  11.458095
    41  C    2.727986   2.709056   4.630059   8.244594   8.755238
    42  F    3.655179   2.846611   4.961756   8.974471   9.196869
    43  F    3.718760   2.771340   4.921816   8.976503   9.191661
    44  F    2.383591   4.012689   5.712244   8.445837   9.551390
    45  H    7.913154   8.368745   6.069829   2.500556   2.515729
                   16         17         18         19         20
    16  H    0.000000
    17  N    4.141077   0.000000
    18  N    3.376313   2.619132   0.000000
    19  Ir   5.156064   1.930545   2.236195   0.000000
    20  O    7.567307   3.442627   5.276884   3.128899   0.000000
    21  B    6.984740   3.061961   4.263841   2.027990   1.399507
    22  O    8.122646   4.378954   5.119286   2.982677   2.280382
    23  C    8.944388   4.817025   6.508972   4.290202   1.433899
    24  C    9.278803   5.325052   6.427029   4.223941   2.322409
    25  C    9.759310   5.950638   6.886296   4.797506   3.080231
    26  H    9.969903   6.385706   6.908345   4.967211   3.892261
    27  H    9.115390   5.395366   6.409879   4.409340   2.799668
    28  H   10.740192   6.858802   7.949052   5.837858   3.749259
    29  C   10.442214   6.554739   7.488752   5.353862   3.654677
    30  H   10.778288   7.069733   7.651425   5.635691   4.416050
    31  H   11.322461   7.330503   8.461973   6.280189   4.162513
    32  H   10.292113   6.475187   7.407423   5.341567   3.852345
    33  C    9.237073   5.186216   6.966969   4.848007   2.379734
    34  H    8.796924   4.903767   6.423513   4.401956   2.668982
    35  H   10.325034   6.283523   8.000914   5.865126   3.354950
    36  H    8.990888   5.002463   7.083122   5.084256   2.574357
    37  C    9.855424   5.749253   7.643786   5.475568   2.401700
    38  H   10.897089   6.772212   8.575615   6.367489   3.362853
    39  H    9.782906   5.789666   7.577840   5.481357   2.637753
    40  H    9.766338   5.715103   7.879408   5.803050   2.694805
    41  C    6.473305   3.762904   6.323879   5.374375   4.409006
    42  F    6.856118   4.560815   7.029469   6.208862   5.203436
    43  F    6.851938   4.584829   7.031072   6.233851   5.384283
    44  F    7.409117   4.069789   6.685349   5.308276   3.592872
    45  H    4.299253   5.937985   3.365162   5.397205   8.514753
                   21         22         23         24         25
    21  B    0.000000
    22  O    1.398628   0.000000
    23  C    2.297444   2.327151   0.000000
    24  C    2.298230   1.435217   1.554648   0.000000
    25  C    3.091031   2.384131   2.565474   1.523404   0.000000
    26  H    3.538473   2.583005   3.491705   2.143487   1.097217
    27  H    2.896995   2.670833   2.749518   2.174914   1.097643
    28  H    4.041137   3.358668   2.943352   2.186818   1.098573
    29  C    3.555911   2.405850   2.586365   1.515587   2.487673
    30  H    4.049008   2.707966   3.523731   2.150586   2.655658
    31  H    4.369022   3.365743   2.859746   2.166369   2.806526
    32  H    3.679722   2.636074   2.868653   2.172996   3.451438
    33  C    3.074627   3.085858   1.523706   2.569573   3.899520
    34  H    2.875215   2.804044   2.175491   2.751081   4.240512
    35  H    4.029473   3.760222   2.187481   2.953865   4.201107
    36  H    3.515925   3.893670   2.143159   3.493583   4.698374
    37  C    3.560391   3.660900   1.515425   2.591733   2.907634
    38  H    4.376802   4.176710   2.166507   2.874847   3.129096
    39  H    3.695482   3.857337   2.173655   2.869641   2.623879
    40  H    4.040234   4.415857   2.148744   3.526311   3.961236
    41  C    5.199175   6.477018   5.374969   6.684157   7.364295
    42  F    6.065250   7.360121   6.174022   7.480414   7.946105
    43  F    6.122834   7.343337   6.220498   7.569083   8.407978
    44  F    4.633662   5.771861   4.319211   5.745276   6.454799
    45  H    7.352713   7.882697   9.648591   9.269971   9.564245
                   26         27         28         29         30
    26  H    0.000000
    27  H    1.774682   0.000000
    28  H    1.779508   1.785082   0.000000
    29  C    2.730594   3.453096   2.737983   0.000000
    30  H    2.439127   3.688082   2.952258   1.097554   0.000000
    31  H    3.202396   3.796816   2.610063   1.099850   1.777167
    32  H    3.688703   4.311412   3.787570   1.095380   1.772426
    33  C    4.701531   4.240410   4.195462   2.908417   3.965243
    34  H    4.850838   4.627163   4.728624   2.933481   3.856534
    35  H    4.975779   4.733426   4.258148   2.792943   3.874096
    36  H    5.582799   4.846300   4.967415   3.994361   5.052210
    37  C    3.993121   2.934592   2.784803   3.465126   4.373161
    38  H    4.141470   3.450331   2.670493   3.286567   4.181880
    39  H    3.703244   2.338931   2.462173   3.956162   4.685191
    40  H    5.048146   3.850817   3.866071   4.375134   5.352259
    41  C    8.225454   6.809697   7.850323   7.831122   8.716598
    42  F    8.832280   7.265657   8.357940   8.716902   9.586342
    43  F    9.268906   7.951560   8.880637   8.570923   9.497666
    44  F    7.393037   6.000367   6.828774   6.822414   7.769353
    45  H    9.290890   9.142912  10.654260  10.150094  10.043184
                   31         32         33         34         35
    31  H    0.000000
    32  H    1.783689   0.000000
    33  C    3.116619   2.630497   0.000000
    34  H    3.437214   2.340338   1.097714   0.000000
    35  H    2.663708   2.478578   1.098399   1.784822   0.000000
    36  H    4.130488   3.711309   1.098071   1.775938   1.780086
    37  C    3.277939   3.961407   2.486888   3.452736   2.738002
    38  H    2.760086   3.835825   2.802694   3.794508   2.606331
    39  H    3.823837   4.637373   3.451734   4.312401   3.787176
    40  H    4.176907   4.693271   2.654936   3.686448   2.955089
    41  C    8.171632   7.728386   5.352525   5.609631   6.244270
    42  F    8.989918   8.737055   6.351944   6.733578   7.201607
    43  F    8.895896   8.322204   5.894677   6.060912   6.706792
    44  F    7.050106   6.756920   4.265492   4.702382   5.078070
    45  H   11.200045  10.060793  10.115638   9.452529  11.087116
                   36         37         38         39         40
    36  H    0.000000
    37  C    2.727856   0.000000
    38  H    3.195357   1.099624   0.000000
    39  H    3.688085   1.095336   1.783636   0.000000
    40  H    2.435028   1.097919   1.777830   1.772547   0.000000
    41  C    4.489331   5.551699   6.513149   5.777968   4.822657
    42  F    5.503264   6.092527   7.058951   6.134048   5.314899
    43  F    4.931214   6.459140   7.331155   6.836710   5.659052
    44  F    3.359573   4.357808   5.263233   4.694294   3.554878
    45  H   10.338424  10.825392  11.698031  10.682868  11.164571
                   41         42         43         44         45
    41  C    0.000000
    42  F    1.339022   0.000000
    43  F    1.339774   2.148567   0.000000
    44  F    1.332022   2.159756   2.159773   0.000000
    45  H    9.503696  10.103932  10.101638   9.999180   0.000000
 Stoichiometry    C17H19BF3IrN2O2
 Framework group  C1[X(C17H19BF3IrN2O2)]
 Deg. of freedom   129
 Full point group                 C1      NOp   1
 Largest Abelian subgroup         C1      NOp   1
 Largest concise Abelian subgroup C1      NOp   1
                         Standard orientation:                         
 ---------------------------------------------------------------------
 Center     Atomic      Atomic             Coordinates (Angstroms)
 Number     Number       Type             X           Y           Z
 ---------------------------------------------------------------------
      1          6           0        2.405642    0.911918    0.020102
      2          6           0        0.174303    1.635401    0.023762
      3          6           0        0.577095    2.950700    0.016552
      4          6           0        1.934755    3.278898    0.013622
      5          6           0        2.838664    2.237627    0.017842
      6          6           0        3.322411   -0.223803    0.012992
      7          6           0        3.467828   -2.534404   -0.038889
      8          6           0        4.853488   -2.504115   -0.006939
      9          6           0        5.485590   -1.264716    0.037982
     10          6           0        4.713681   -0.113495    0.048442
     11          1           0       -0.876847    1.359822    0.040252
     12          1           0        2.258537    4.317118    0.005872
     13          1           0        3.905204    2.446376    0.012482
     14          1           0        2.921447   -3.476693   -0.074159
     15          1           0        6.570950   -1.195128    0.065932
     16          1           0        5.194092    0.860904    0.087902
     17          7           0        1.061742    0.600759    0.020622
     18          7           0        2.715979   -1.429233   -0.029219
     19         77           0        0.487650   -1.241900   -0.024409
     20          8           0       -2.329839    0.079884    0.299102
     21          5           0       -1.529050   -1.031207    0.011292
     22          8           0       -2.349711   -2.129886   -0.263629
     23          6           0       -3.681949   -0.232504   -0.061839
     24          6           0       -3.700591   -1.781174    0.073082
     25          6           0       -3.947762   -2.249084    1.501622
     26          1           0       -3.734393   -3.323714    1.561022
     27          1           0       -3.283431   -1.733515    2.207081
     28          1           0       -4.988451   -2.086753    1.813832
     29          6           0       -4.649102   -2.489933   -0.872959
     30          1           0       -4.597523   -3.573573   -0.706559
     31          1           0       -5.686852   -2.169422   -0.699699
     32          1           0       -4.392942   -2.298553   -1.920629
     33          6           0       -3.885848    0.247046   -1.493669
     34          1           0       -3.225259   -0.288045   -2.188129
     35          1           0       -4.924759    0.120487   -1.827029
     36          1           0       -3.635837    1.315106   -1.543699
     37          6           0       -4.624108    0.506637    0.866882
     38          1           0       -5.669078    0.227638    0.668462
     39          1           0       -4.399598    0.301647    1.919182
     40          1           0       -4.525457    1.588287    0.706482
     41          6           0       -0.437504    4.052091    0.016322
     42          9           0       -0.316793    4.808321    1.114742
     43          9           0       -0.251922    4.865351   -1.032088
     44          9           0       -1.689254    3.599463   -0.033979
     45          1           0        5.420927   -3.431086   -0.016709
 ---------------------------------------------------------------------
 Rotational constants (GHZ):           0.1889037           0.1417688           0.0850614
 General basis read from cards:  (5D, 7F)
 ======================================================================================================
                                       Pseudopotential Parameters
 ======================================================================================================
  Center     Atomic      Valence      Angular      Power
  Number     Number     Electrons     Momentum     of R      Exponent        Coefficient   SO-Coeffient
 ======================================================================================================
    1          6
                                   No pseudopotential on this center.
    2          6
                                   No pseudopotential on this center.
    3          6
                                   No pseudopotential on this center.
    4          6
                                   No pseudopotential on this center.
    5          6
                                   No pseudopotential on this center.
    6          6
                                   No pseudopotential on this center.
    7          6
                                   No pseudopotential on this center.
    8          6
                                   No pseudopotential on this center.
    9          6
                                   No pseudopotential on this center.
   10          6
                                   No pseudopotential on this center.
   11          1
                                   No pseudopotential on this center.
   12          1
                                   No pseudopotential on this center.
   13          1
                                   No pseudopotential on this center.
   14          1
                                   No pseudopotential on this center.
   15          1
                                   No pseudopotential on this center.
   16          1
                                   No pseudopotential on this center.
   17          7
                                   No pseudopotential on this center.
   18          7
                                   No pseudopotential on this center.
   19         77           17
                                      G and up 
                                                     1      823.5880147       -0.15780140    0.00000000
                                                     2      364.6613336    -1517.52704460    0.00000000
                                                     2       55.7082801     -316.53065290    0.00000000
                                                     2       12.0464544      -91.88809410    0.00000000
                                                     2        3.5120610       -9.22417730    0.00000000
                                      S - G
                                                     0      188.0490770        3.15780140    0.00000000
                                                     1      340.4194712       26.83225770    0.00000000
                                                     2      128.2373673      800.42500070    0.00000000
                                                     2       33.8644961      369.40506830    0.00000000
                                                     2        4.7560005      242.41718990    0.00000000
                                                     2        3.9649974     -118.21732820    0.00000000
                                      P - G
                                                     0      289.7291139        2.15780140    0.00000000
                                                     1       87.4633789       61.96786100    0.00000000
                                                     2       30.4363766      269.05819860    0.00000000
                                                     2        4.0553412      231.16547930    0.00000000
                                                     2        3.5525341     -133.69526670    0.00000000
                                      D - G
                                                     0      136.4017106        3.15780140    0.00000000
                                                     1       95.0776925       45.93498030    0.00000000
                                                     2       49.2258410      359.03446680    0.00000000
                                                     2       15.0874145      176.47401190    0.00000000
                                                     2        4.0405764       54.51552860    0.00000000
                                      F - G
                                                     0      127.3507908        3.95461970    0.00000000
                                                     1       66.2364374       52.97736550    0.00000000
                                                     2       34.4299229      274.86433830    0.00000000
                                                     2       10.1995721      137.20473380    0.00000000
                                                     2        2.5409702       14.86333050    0.00000000
   20          8
                                   No pseudopotential on this center.
   21          5
                                   No pseudopotential on this center.
   22          8
                                   No pseudopotential on this center.
   23          6
                                   No pseudopotential on this center.
   24          6
                                   No pseudopotential on this center.
   25          6
                                   No pseudopotential on this center.
   26          1
                                   No pseudopotential on this center.
   27          1
                                   No pseudopotential on this center.
   28          1
                                   No pseudopotential on this center.
   29          6
                                   No pseudopotential on this center.
   30          1
                                   No pseudopotential on this center.
   31          1
                                   No pseudopotential on this center.
   32          1
                                   No pseudopotential on this center.
   33          6
                                   No pseudopotential on this center.
   34          1
                                   No pseudopotential on this center.
   35          1
                                   No pseudopotential on this center.
   36          1
                                   No pseudopotential on this center.
   37          6
                                   No pseudopotential on this center.
   38          1
                                   No pseudopotential on this center.
   39          1
                                   No pseudopotential on this center.
   40          1
                                   No pseudopotential on this center.
   41          6
                                   No pseudopotential on this center.
   42          9
                                   No pseudopotential on this center.
   43          9
                                   No pseudopotential on this center.
   44          9
                                   No pseudopotential on this center.
   45          1
                                   No pseudopotential on this center.
 ======================================================================================================
 There are   437 symmetry adapted cartesian basis functions of A   symmetry.
 There are   410 symmetry adapted basis functions of A   symmetry.
   410 basis functions,   819 primitive gaussians,   437 cartesian basis functions
   100 alpha electrons      100 beta electrons
       nuclear repulsion energy      2596.9725792868 Hartrees.
 NAtoms=   45 NActive=   45 NUniq=   45 SFac= 1.00D+00 NAtFMM=   60 NAOKFM=F Big=F
 Integral buffers will be    131072 words long.
 Raffenetti 2 integral format.
 Two-electron integral symmetry is turned on.
 One-electron integrals computed using PRISM.
   1 Symmetry operations used in ECPInt.
 ECPInt:  NShTT=   10731 NPrTT=   68046 LenC2=    8658 LenP2D=   30998.
 LDataN:  DoStor=T MaxTD1= 6 Len=  172
 NBasis=   410 RedAO= T EigKep=  5.00D-04  NBF=   410
 NBsUse=   410 1.00D-06 EigRej= -1.00D+00 NBFU=   410
 Defaulting to unpruned grid for atomic number  77.
 ExpMin= 2.90D-02 ExpMax= 7.00D+03 ExpMxC= 1.05D+03 IAcc=3 IRadAn=         5 AccDes= 0.00D+00
 Harris functional with IExCor= 1009 and IRadAn=       5 diagonalized for initial guess.
 HarFok:  IExCor= 1009 AccDes= 0.00D+00 IRadAn=         5 IDoV= 1 UseB2=F ITyADJ=14
 ICtDFT=  3500011 ScaDFX=  1.000000  1.000000  1.000000  1.000000
 Defaulting to unpruned grid for atomic number  77.
 FoFCou: FMM=F IPFlag=           0 FMFlag=      100000 FMFlg1=           0
         NFxFlg=           0 DoJE=T BraDBF=F KetDBF=T FulRan=T
         wScrn=  0.000000 ICntrl=       500 IOpCl=  0 I1Cent=   200000004 NGrid=           0
         NMat0=    1 NMatS0=      1 NMatT0=    0 NMatD0=    1 NMtDS0=    0 NMtDT0=    0
 Petite list used in FoFCou.
 Requested convergence on RMS density matrix=1.00D-08 within 128 cycles.
 Requested convergence on MAX density matrix=1.00D-06.
 Requested convergence on             energy=1.00D-06.
 No special actions if energy rises.
 Defaulting to unpruned grid for atomic number  77.
 Defaulting to unpruned grid for atomic number  77.
 Defaulting to unpruned grid for atomic number  77.
 Defaulting to unpruned grid for atomic number  77.
 Defaulting to unpruned grid for atomic number  77.
 Defaulting to unpruned grid for atomic number  77.
 Defaulting to unpruned grid for atomic number  77.
 Defaulting to unpruned grid for atomic number  77.
 Defaulting to unpruned grid for atomic number  77.
 Defaulting to unpruned grid for atomic number  77.
 Defaulting to unpruned grid for atomic number  77.
 Defaulting to unpruned grid for atomic number  77.
 Defaulting to unpruned grid for atomic number  77.
 Defaulting to unpruned grid for atomic number  77.
 Defaulting to unpruned grid for atomic number  77.
 Defaulting to unpruned grid for atomic number  77.
 SCF Done:  E(RM06) =  -1347.58944316     A.U. after   20 cycles
            NFock= 20  Conv=0.64D-08     -V/T= 2.0622
 DoSCS=F DFT=T ScalE2(SS,OS)=  1.000000  1.000000
 Range of M.O.s used for correlation:     1   410
 NBasis=   410 NAE=   100 NBE=   100 NFC=     0 NFV=     0
 NROrb=    410 NOA=   100 NOB=   100 NVA=   310 NVB=   310

 **** Warning!!: The smallest alpha delta epsilon is  0.87058220D-01

   1 Symmetry operations used in ECPInt.
 ECPInt:  NShTT=   10731 NPrTT=   68046 LenC2=    8658 LenP2D=   30998.
 LDataN:  DoStor=T MaxTD1= 7 Len=  274
 Symmetrizing basis deriv contribution to polar:
 IMax=3 JMax=2 DiffMx= 0.00D+00
 G2DrvN: will do    46 centers at a time, making    1 passes.
 Calling FoFCou, ICntrl=  3107 FMM=F I1Cent=   0 AccDes= 0.00D+00.
 Defaulting to unpruned grid for atomic number  77.
 Defaulting to unpruned grid for atomic number  77.
 Defaulting to unpruned grid for atomic number  77.
 Defaulting to unpruned grid for atomic number  77.
 Defaulting to unpruned grid for atomic number  77.
 Defaulting to unpruned grid for atomic number  77.
 Defaulting to unpruned grid for atomic number  77.
 Defaulting to unpruned grid for atomic number  77.
 Defaulting to unpruned grid for atomic number  77.
 Defaulting to unpruned grid for atomic number  77.
 Defaulting to unpruned grid for atomic number  77.
 Defaulting to unpruned grid for atomic number  77.
 Defaulting to unpruned grid for atomic number  77.
 Defaulting to unpruned grid for atomic number  77.
 Defaulting to unpruned grid for atomic number  77.
 Defaulting to unpruned grid for atomic number  77.
 End of G2Drv F.D. properties file   721 does not exist.
 End of G2Drv F.D. properties file   722 does not exist.
 End of G2Drv F.D. properties file   788 does not exist.
          IDoAtm=111111111111111111111111111111111111111111111
          Differentiating once with respect to electric field.
                with respect to dipole field.
          Differentiating once with respect to nuclear coordinates.
 Defaulting to unpruned grid for atomic number  77.
 Keep R1 ints in memory in canonical form, NReq=3591531251.
 Defaulting to unpruned grid for atomic number  77.
 Defaulting to unpruned grid for atomic number  77.
 Defaulting to unpruned grid for atomic number  77.
 Defaulting to unpruned grid for atomic number  77.
 Defaulting to unpruned grid for atomic number  77.
 Defaulting to unpruned grid for atomic number  77.
 Defaulting to unpruned grid for atomic number  77.
 Defaulting to unpruned grid for atomic number  77.
 Defaulting to unpruned grid for atomic number  77.
 Defaulting to unpruned grid for atomic number  77.
 Defaulting to unpruned grid for atomic number  77.
 Defaulting to unpruned grid for atomic number  77.
 Defaulting to unpruned grid for atomic number  77.
 Defaulting to unpruned grid for atomic number  77.
 Defaulting to unpruned grid for atomic number  77.
 Defaulting to unpruned grid for atomic number  77.
          There are   138 degrees of freedom in the 1st order CPHF.  IDoFFX=6 NUNeed=     3.
    135 vectors produced by pass  0 Test12= 3.10D-14 1.00D-09 XBig12= 5.63D+02 1.46D+01.
 AX will form   135 AO Fock derivatives at one time.
    135 vectors produced by pass  1 Test12= 3.10D-14 1.00D-09 XBig12= 1.52D+02 2.41D+00.
    135 vectors produced by pass  2 Test12= 3.10D-14 1.00D-09 XBig12= 6.01D+00 3.36D-01.
    135 vectors produced by pass  3 Test12= 3.10D-14 1.00D-09 XBig12= 8.68D-02 4.34D-02.
    135 vectors produced by pass  4 Test12= 3.10D-14 1.00D-09 XBig12= 3.88D-04 2.15D-03.
    132 vectors produced by pass  5 Test12= 3.10D-14 1.00D-09 XBig12= 8.84D-07 8.15D-05.
     69 vectors produced by pass  6 Test12= 3.10D-14 1.00D-09 XBig12= 1.37D-09 2.62D-06.
      3 vectors produced by pass  7 Test12= 3.10D-14 1.00D-09 XBig12= 1.83D-12 9.97D-08.
      3 vectors produced by pass  8 Test12= 3.10D-14 1.00D-09 XBig12= 2.68D-15 4.18D-09.
 InvSVY:  IOpt=1 It=  1 EMax= 4.62D-14
 Solved reduced A of dimension   882 with   138 vectors.
 Isotropic polarizability for W=    0.000000      281.12 Bohr**3.
 End of Minotr F.D. properties file   721 does not exist.
 End of Minotr F.D. properties file   722 does not exist.
 End of Minotr F.D. properties file   788 does not exist.

 **********************************************************************

            Population analysis using the SCF Density.

 **********************************************************************

 Orbital symmetries:
       Occupied  (A) (A) (A) (A) (A) (A) (A) (A) (A) (A) (A) (A)
                 (A) (A) (A) (A) (A) (A) (A) (A) (A) (A) (A) (A)
                 (A) (A) (A) (A) (A) (A) (A) (A) (A) (A) (A) (A)
                 (A) (A) (A) (A) (A) (A) (A) (A) (A) (A) (A) (A)
                 (A) (A) (A) (A) (A) (A) (A) (A) (A) (A) (A) (A)
                 (A) (A) (A) (A) (A) (A) (A) (A) (A) (A) (A) (A)
                 (A) (A) (A) (A) (A) (A) (A) (A) (A) (A) (A) (A)
                 (A) (A) (A) (A) (A) (A) (A) (A) (A) (A) (A) (A)
                 (A) (A) (A) (A)
       Virtual   (A) (A) (A) (A) (A) (A) (A) (A) (A) (A) (A) (A)
                 (A) (A) (A) (A) (A) (A) (A) (A) (A) (A) (A) (A)
                 (A) (A) (A) (A) (A) (A) (A) (A) (A) (A) (A) (A)
                 (A) (A) (A) (A) (A) (A) (A) (A) (A) (A) (A) (A)
                 (A) (A) (A) (A) (A) (A) (A) (A) (A) (A) (A) (A)
                 (A) (A) (A) (A) (A) (A) (A) (A) (A) (A) (A) (A)
                 (A) (A) (A) (A) (A) (A) (A) (A) (A) (A) (A) (A)
                 (A) (A) (A) (A) (A) (A) (A) (A) (A) (A) (A) (A)
                 (A) (A) (A) (A) (A) (A) (A) (A) (A) (A) (A) (A)
                 (A) (A) (A) (A) (A) (A) (A) (A) (A) (A) (A) (A)
                 (A) (A) (A) (A) (A) (A) (A) (A) (A) (A) (A) (A)
                 (A) (A) (A) (A) (A) (A) (A) (A) (A) (A) (A) (A)
                 (A) (A) (A) (A) (A) (A) (A) (A) (A) (A) (A) (A)
                 (A) (A) (A) (A) (A) (A) (A) (A) (A) (A) (A) (A)
                 (A) (A) (A) (A) (A) (A) (A) (A) (A) (A) (A) (A)
                 (A) (A) (A) (A) (A) (A) (A) (A) (A) (A) (A) (A)
                 (A) (A) (A) (A) (A) (A) (A) (A) (A) (A) (A) (A)
                 (A) (A) (A) (A) (A) (A) (A) (A) (A) (A) (A) (A)
                 (A) (A) (A) (A) (A) (A) (A) (A) (A) (A) (A) (A)
                 (A) (A) (A) (A) (A) (A) (A) (A) (A) (A) (A) (A)
                 (A) (A) (A) (A) (A) (A) (A) (A) (A) (A) (A) (A)
                 (A) (A) (A) (A) (A) (A) (A) (A) (A) (A) (A) (A)
                 (A) (A) (A) (A) (A) (A) (A) (A) (A) (A) (A) (A)
                 (A) (A) (A) (A) (A) (A) (A) (A) (A) (A) (A) (A)
                 (A) (A) (A) (A) (A) (A) (A) (A) (A) (A) (A) (A)
                 (A) (A) (A) (A) (A) (A) (A) (A) (A) (A)
 The electronic state is 1-A.
 Alpha  occ. eigenvalues --  -24.82576 -24.82061 -24.82006 -19.19796 -19.19476
 Alpha  occ. eigenvalues --  -14.48836 -14.44967 -10.50765 -10.32344 -10.32048
 Alpha  occ. eigenvalues --  -10.31220 -10.30044 -10.29309 -10.28905 -10.28900
 Alpha  occ. eigenvalues --  -10.28843 -10.28796 -10.28780 -10.28587 -10.28369
 Alpha  occ. eigenvalues --  -10.22353 -10.22302 -10.22016 -10.21905  -6.77236
 Alpha  occ. eigenvalues --   -3.59942  -2.04457  -2.01672  -1.99450  -1.35137
 Alpha  occ. eigenvalues --   -1.26646  -1.26096  -1.05488  -1.00820  -0.98579
 Alpha  occ. eigenvalues --   -0.98121  -0.86084  -0.84361  -0.83765  -0.79925
 Alpha  occ. eigenvalues --   -0.79169  -0.74420  -0.73556  -0.69947  -0.69031
 Alpha  occ. eigenvalues --   -0.68759  -0.67239  -0.65653  -0.64459  -0.61324
 Alpha  occ. eigenvalues --   -0.61129  -0.60989  -0.60256  -0.57450  -0.54111
 Alpha  occ. eigenvalues --   -0.54033  -0.52718  -0.52459  -0.50716  -0.49205
 Alpha  occ. eigenvalues --   -0.48586  -0.48490  -0.47735  -0.47299  -0.46950
 Alpha  occ. eigenvalues --   -0.46156  -0.45742  -0.45141  -0.44806  -0.44390
 Alpha  occ. eigenvalues --   -0.44056  -0.43841  -0.43041  -0.42942  -0.42399
 Alpha  occ. eigenvalues --   -0.40509  -0.39614  -0.39508  -0.39438  -0.39066
 Alpha  occ. eigenvalues --   -0.38622  -0.37878  -0.36893  -0.36215  -0.35731
 Alpha  occ. eigenvalues --   -0.35559  -0.34427  -0.34220  -0.33185  -0.32509
 Alpha  occ. eigenvalues --   -0.31663  -0.31125  -0.29740  -0.27461  -0.25976
 Alpha  occ. eigenvalues --   -0.24013  -0.21020  -0.19161  -0.18007  -0.16917
 Alpha virt. eigenvalues --   -0.08211  -0.04801  -0.04253  -0.03560   0.00673
 Alpha virt. eigenvalues --    0.00899   0.02126   0.03500   0.07572   0.08568
 Alpha virt. eigenvalues --    0.09611   0.10399   0.10722   0.11942   0.12823
 Alpha virt. eigenvalues --    0.13925   0.14635   0.15087   0.15508   0.15709
 Alpha virt. eigenvalues --    0.15851   0.16471   0.16995   0.17463   0.17675
 Alpha virt. eigenvalues --    0.17870   0.18611   0.19470   0.19808   0.20478
 Alpha virt. eigenvalues --    0.20904   0.21016   0.21705   0.21949   0.22804
 Alpha virt. eigenvalues --    0.23166   0.23359   0.24009   0.24188   0.24839
 Alpha virt. eigenvalues --    0.25606   0.26065   0.27015   0.27900   0.28560
 Alpha virt. eigenvalues --    0.28700   0.29421   0.30853   0.32018   0.33759
 Alpha virt. eigenvalues --    0.34849   0.36093   0.37159   0.38527   0.39210
 Alpha virt. eigenvalues --    0.39790   0.43797   0.44771   0.45018   0.46401
 Alpha virt. eigenvalues --    0.47836   0.48277   0.49592   0.50261   0.50649
 Alpha virt. eigenvalues --    0.51416   0.51443   0.51945   0.52145   0.53012
 Alpha virt. eigenvalues --    0.53415   0.55021   0.56338   0.56809   0.57174
 Alpha virt. eigenvalues --    0.57494   0.57855   0.58030   0.58485   0.59159
 Alpha virt. eigenvalues --    0.59542   0.59785   0.60065   0.60222   0.61030
 Alpha virt. eigenvalues --    0.61423   0.62471   0.63533   0.63929   0.64001
 Alpha virt. eigenvalues --    0.64565   0.66205   0.67027   0.67542   0.69589
 Alpha virt. eigenvalues --    0.70215   0.71862   0.72602   0.72918   0.73608
 Alpha virt. eigenvalues --    0.74078   0.75325   0.75530   0.76255   0.77101
 Alpha virt. eigenvalues --    0.77752   0.78352   0.79517   0.81045   0.81970
 Alpha virt. eigenvalues --    0.82845   0.83517   0.83747   0.84183   0.85291
 Alpha virt. eigenvalues --    0.85394   0.85872   0.86947   0.88310   0.88586
 Alpha virt. eigenvalues --    0.89281   0.89531   0.90306   0.90891   0.91447
 Alpha virt. eigenvalues --    0.91794   0.92381   0.92839   0.94772   0.94984
 Alpha virt. eigenvalues --    0.95517   0.95827   0.96379   0.97029   0.97588
 Alpha virt. eigenvalues --    0.98677   0.99477   1.00329   1.00484   1.03629
 Alpha virt. eigenvalues --    1.05527   1.06194   1.08076   1.09307   1.09921
 Alpha virt. eigenvalues --    1.11009   1.12375   1.13407   1.15343   1.16355
 Alpha virt. eigenvalues --    1.17765   1.18210   1.18613   1.19378   1.20592
 Alpha virt. eigenvalues --    1.21006   1.22269   1.23557   1.24412   1.25847
 Alpha virt. eigenvalues --    1.26161   1.27132   1.28869   1.31577   1.32935
 Alpha virt. eigenvalues --    1.34226   1.34492   1.35035   1.37088   1.38091
 Alpha virt. eigenvalues --    1.38658   1.39046   1.39414   1.39899   1.40302
 Alpha virt. eigenvalues --    1.42404   1.43624   1.43911   1.44601   1.45262
 Alpha virt. eigenvalues --    1.46152   1.47005   1.48227   1.49869   1.50244
 Alpha virt. eigenvalues --    1.51076   1.54410   1.54763   1.55412   1.57966
 Alpha virt. eigenvalues --    1.62398   1.64919   1.65561   1.66044   1.66772
 Alpha virt. eigenvalues --    1.68572   1.70000   1.71143   1.71707   1.72166
 Alpha virt. eigenvalues --    1.73691   1.75315   1.76853   1.77344   1.77509
 Alpha virt. eigenvalues --    1.78267   1.80324   1.81443   1.82159   1.82948
 Alpha virt. eigenvalues --    1.83691   1.84744   1.85428   1.85914   1.86691
 Alpha virt. eigenvalues --    1.88290   1.88931   1.91035   1.91553   1.92432
 Alpha virt. eigenvalues --    1.92870   1.93364   1.94430   1.96711   1.97314
 Alpha virt. eigenvalues --    1.99084   2.00808   2.02427   2.03138   2.03389
 Alpha virt. eigenvalues --    2.04215   2.05117   2.05726   2.06684   2.06809
 Alpha virt. eigenvalues --    2.07183   2.08792   2.10279   2.10429   2.11149
 Alpha virt. eigenvalues --    2.11752   2.12247   2.12912   2.12952   2.13818
 Alpha virt. eigenvalues --    2.14161   2.15928   2.17509   2.18344   2.18943
 Alpha virt. eigenvalues --    2.19944   2.20850   2.21962   2.22126   2.22674
 Alpha virt. eigenvalues --    2.24600   2.25792   2.26010   2.27282   2.28701
 Alpha virt. eigenvalues --    2.30197   2.30806   2.31756   2.33129   2.33638
 Alpha virt. eigenvalues --    2.38521   2.39921   2.43821   2.44246   2.44444
 Alpha virt. eigenvalues --    2.47535   2.47875   2.48801   2.49112   2.51197
 Alpha virt. eigenvalues --    2.56574   2.58991   2.59212   2.60314   2.60563
 Alpha virt. eigenvalues --    2.63256   2.64378   2.64672   2.67211   2.68827
 Alpha virt. eigenvalues --    2.69506   2.76703   2.77117   2.77706   2.78382
 Alpha virt. eigenvalues --    2.78911   2.80077   2.81163   2.83120   2.85665
 Alpha virt. eigenvalues --    2.87761   2.90455   2.92290   2.92664   2.94917
 Alpha virt. eigenvalues --    3.01811   3.05271   3.05817   3.09249   3.11427
 Alpha virt. eigenvalues --    3.14671   3.24970   3.28776   3.43064   7.42430
          Condensed to atoms (all electrons):
               1          2          3          4          5          6
     1  C    4.817341  -0.045262  -0.022930  -0.011473   0.529885   0.351064
     2  C   -0.045262   5.042195   0.469071  -0.047318  -0.041688   0.004762
     3  C   -0.022930   0.469071   5.109266   0.432117  -0.013620   0.000643
     4  C   -0.011473  -0.047318   0.432117   5.022081   0.478512   0.007011
     5  C    0.529885  -0.041688  -0.013620   0.478512   5.032138  -0.064214
     6  C    0.351064   0.004762   0.000643   0.007011  -0.064214   4.679681
     7  C    0.005381   0.000009  -0.000001   0.000003  -0.000169  -0.052171
     8  C    0.001115  -0.000001   0.000000   0.000000  -0.000024  -0.028873
     9  C    0.005455   0.000003   0.000000  -0.000011   0.000676  -0.004532
    10  C   -0.078032  -0.000084  -0.000058   0.000715  -0.014902   0.535240
    11  H    0.002764   0.319856  -0.046830   0.004634   0.000330  -0.000257
    12  H    0.002505   0.004319  -0.041337   0.358461  -0.028783  -0.000138
    13  H   -0.033088   0.000541   0.003245  -0.032769   0.353882  -0.012034
    14  H   -0.000203  -0.000000   0.000000  -0.000000   0.000002   0.004189
    15  H   -0.000167  -0.000000  -0.000000  -0.000000   0.000005   0.002315
    16  H   -0.009520  -0.000006  -0.000002   0.000326   0.003081  -0.033354
    17  N    0.263504   0.363016  -0.014956  -0.033157  -0.072182   0.013618
    18  N   -0.032770   0.000664  -0.000079  -0.000149   0.006982   0.336662
    19  Ir  -0.062665  -0.043289   0.007565  -0.002122   0.007871  -0.042394
    20  O   -0.000036  -0.027741   0.000416  -0.000002  -0.000002   0.000002
    21  B    0.001981   0.002279   0.001201  -0.000043   0.000073  -0.000220
    22  O    0.000001  -0.000194  -0.000002  -0.000000  -0.000000   0.000000
    23  C    0.000001   0.000887  -0.000025  -0.000000   0.000000  -0.000000
    24  C    0.000000  -0.000109  -0.000000  -0.000000   0.000000  -0.000000
    25  C    0.000000   0.000002  -0.000000  -0.000000  -0.000000   0.000000
    26  H   -0.000000  -0.000000   0.000000   0.000000  -0.000000   0.000000
    27  H    0.000000   0.000005  -0.000000  -0.000000   0.000000   0.000000
    28  H   -0.000000  -0.000000   0.000000   0.000000   0.000000  -0.000000
    29  C    0.000000   0.000001  -0.000000   0.000000   0.000000   0.000000
    30  H   -0.000000  -0.000000   0.000000   0.000000  -0.000000   0.000000
    31  H   -0.000000   0.000000   0.000000   0.000000   0.000000  -0.000000
    32  H   -0.000000   0.000000  -0.000000  -0.000000   0.000000   0.000000
    33  C   -0.000000   0.000134  -0.000001  -0.000000  -0.000000   0.000000
    34  H   -0.000000   0.000044  -0.000001  -0.000000   0.000000   0.000000
    35  H    0.000000  -0.000002   0.000000   0.000000  -0.000000  -0.000000
    36  H   -0.000000  -0.000256  -0.000011  -0.000000   0.000000  -0.000000
    37  C   -0.000000  -0.000011   0.000000   0.000000  -0.000000   0.000000
    38  H    0.000000   0.000000  -0.000000  -0.000000   0.000000  -0.000000
    39  H    0.000000   0.000008  -0.000001  -0.000000  -0.000000   0.000000
    40  H   -0.000000  -0.000063   0.000000  -0.000000   0.000000  -0.000000
    41  C    0.000009  -0.024878   0.322807  -0.021179   0.005252  -0.000004
    42  F   -0.000008   0.000712  -0.049792   0.003124   0.000263  -0.000000
    43  F   -0.000009   0.001117  -0.049148   0.003583   0.000342  -0.000000
    44  F    0.000009  -0.002820  -0.036312   0.003572  -0.000060   0.000000
    45  H    0.000017  -0.000000   0.000000  -0.000000  -0.000000   0.000611
               7          8          9         10         11         12
     1  C    0.005381   0.001115   0.005455  -0.078032   0.002764   0.002505
     2  C    0.000009  -0.000001   0.000003  -0.000084   0.319856   0.004319
     3  C   -0.000001   0.000000   0.000000  -0.000058  -0.046830  -0.041337
     4  C    0.000003   0.000000  -0.000011   0.000715   0.004634   0.358461
     5  C   -0.000169  -0.000024   0.000676  -0.014902   0.000330  -0.028783
     6  C   -0.052171  -0.028873  -0.004532   0.535240  -0.000257  -0.000138
     7  C    4.751942   0.547073  -0.022397  -0.041524   0.000001  -0.000000
     8  C    0.547073   4.892267   0.535786  -0.034422  -0.000000  -0.000000
     9  C   -0.022397   0.535786   4.859306   0.514011   0.000000  -0.000000
    10  C   -0.041524  -0.034422   0.514011   5.032089   0.000002   0.000006
    11  H    0.000001  -0.000000   0.000000   0.000002   0.458687  -0.000105
    12  H   -0.000000  -0.000000  -0.000000   0.000006  -0.000105   0.512532
    13  H    0.000000  -0.000005   0.000360   0.003667   0.000017  -0.004170
    14  H    0.370016  -0.046161   0.002667   0.001001   0.000000   0.000000
    15  H    0.004156  -0.037353   0.364659  -0.035003   0.000000   0.000000
    16  H    0.000165   0.004543  -0.038767   0.352952  -0.000000   0.000002
    17  N   -0.000493   0.000025  -0.000176   0.008371  -0.034225   0.000023
    18  N    0.470195  -0.032271  -0.038153  -0.074441   0.000076   0.000001
    19  Ir  -0.027038   0.004874  -0.001348   0.005495  -0.014699   0.000212
    20  O    0.000000  -0.000000   0.000000   0.000000   0.052400   0.000000
    21  B   -0.000023  -0.000001  -0.000001  -0.000010  -0.013146   0.000000
    22  O   -0.000000   0.000000   0.000000   0.000000   0.000188   0.000000
    23  C   -0.000000  -0.000000  -0.000000  -0.000000  -0.002981  -0.000000
    24  C   -0.000000  -0.000000  -0.000000  -0.000000   0.000509   0.000000
    25  C    0.000000   0.000000   0.000000   0.000000  -0.000026  -0.000000
    26  H   -0.000000   0.000000   0.000000   0.000000   0.000001   0.000000
    27  H   -0.000000   0.000000  -0.000000   0.000000  -0.000033  -0.000000
    28  H   -0.000000  -0.000000  -0.000000  -0.000000   0.000000   0.000000
    29  C   -0.000000   0.000000  -0.000000  -0.000000  -0.000008  -0.000000
    30  H   -0.000000   0.000000   0.000000  -0.000000   0.000000   0.000000
    31  H   -0.000000  -0.000000  -0.000000   0.000000  -0.000000  -0.000000
    32  H   -0.000000   0.000000   0.000000   0.000000  -0.000001  -0.000000
    33  C    0.000000   0.000000   0.000000   0.000000  -0.000768  -0.000000
    34  H    0.000000  -0.000000  -0.000000   0.000000  -0.000222  -0.000000
    35  H   -0.000000  -0.000000  -0.000000  -0.000000   0.000020   0.000000
    36  H    0.000000  -0.000000   0.000000  -0.000000   0.000983   0.000000
    37  C    0.000000  -0.000000  -0.000000   0.000000  -0.000078   0.000000
    38  H   -0.000000   0.000000  -0.000000  -0.000000  -0.000002  -0.000000
    39  H    0.000000  -0.000000   0.000000   0.000000  -0.000055  -0.000000
    40  H    0.000000  -0.000000   0.000000   0.000000   0.000300   0.000000
    41  C    0.000000   0.000000   0.000000  -0.000000  -0.006612  -0.002130
    42  F    0.000000  -0.000000   0.000000   0.000000   0.000144   0.001434
    43  F    0.000000  -0.000000   0.000000   0.000000   0.000142   0.002018
    44  F    0.000000   0.000000  -0.000000   0.000000   0.011114   0.000074
    45  H   -0.035729   0.361917  -0.035779   0.004315  -0.000000  -0.000000
              13         14         15         16         17         18
     1  C   -0.033088  -0.000203  -0.000167  -0.009520   0.263504  -0.032770
     2  C    0.000541  -0.000000  -0.000000  -0.000006   0.363016   0.000664
     3  C    0.003245   0.000000  -0.000000  -0.000002  -0.014956  -0.000079
     4  C   -0.032769  -0.000000  -0.000000   0.000326  -0.033157  -0.000149
     5  C    0.353882   0.000002   0.000005   0.003081  -0.072182   0.006982
     6  C   -0.012034   0.004189   0.002315  -0.033354   0.013618   0.336662
     7  C    0.000000   0.370016   0.004156   0.000165  -0.000493   0.470195
     8  C   -0.000005  -0.046161  -0.037353   0.004543   0.000025  -0.032271
     9  C    0.000360   0.002667   0.364659  -0.038767  -0.000176  -0.038153
    10  C    0.003667   0.001001  -0.035003   0.352952   0.008371  -0.074441
    11  H    0.000017   0.000000   0.000000  -0.000000  -0.034225   0.000076
    12  H   -0.004170   0.000000   0.000000   0.000002   0.000023   0.000001
    13  H    0.539760   0.000000   0.000000   0.004314   0.003692   0.000047
    14  H    0.000000   0.528319  -0.000151   0.000026  -0.000018  -0.043161
    15  H    0.000000  -0.000151   0.527212  -0.004902   0.000001   0.000082
    16  H    0.004314   0.000026  -0.004902   0.544598   0.000015   0.004002
    17  N    0.003692  -0.000018   0.000001   0.000015   7.085656  -0.034038
    18  N    0.000047  -0.043161   0.000082   0.004002  -0.034038   6.868154
    19  Ir  -0.000419  -0.003023   0.000195  -0.000468   0.120263   0.095570
    20  O   -0.000000  -0.000000  -0.000000  -0.000000  -0.000353   0.000002
    21  B   -0.000000   0.000116  -0.000000   0.000000  -0.013566  -0.006943
    22  O    0.000000  -0.000001   0.000000  -0.000000   0.000049   0.000007
    23  C    0.000000   0.000000  -0.000000   0.000000   0.000003  -0.000000
    24  C   -0.000000   0.000000  -0.000000   0.000000   0.000009  -0.000000
    25  C    0.000000  -0.000000   0.000000  -0.000000   0.000000   0.000000
    26  H    0.000000  -0.000000   0.000000  -0.000000  -0.000000   0.000000
    27  H    0.000000   0.000000   0.000000   0.000000   0.000000  -0.000000
    28  H   -0.000000   0.000000  -0.000000   0.000000  -0.000000  -0.000000
    29  C    0.000000  -0.000000   0.000000   0.000000  -0.000000  -0.000000
    30  H    0.000000  -0.000000   0.000000  -0.000000  -0.000000   0.000000
    31  H   -0.000000   0.000000  -0.000000   0.000000   0.000000  -0.000000
    32  H    0.000000  -0.000000   0.000000  -0.000000   0.000000   0.000000
    33  C    0.000000   0.000000   0.000000  -0.000000  -0.000004   0.000000
    34  H   -0.000000   0.000000  -0.000000   0.000000  -0.000001  -0.000000
    35  H   -0.000000  -0.000000  -0.000000   0.000000  -0.000000  -0.000000
    36  H    0.000000   0.000000   0.000000  -0.000000   0.000003   0.000000
    37  C   -0.000000  -0.000000  -0.000000  -0.000000  -0.000001   0.000000
    38  H    0.000000   0.000000  -0.000000   0.000000   0.000000  -0.000000
    39  H   -0.000000   0.000000   0.000000  -0.000000   0.000000   0.000000
    40  H    0.000000  -0.000000   0.000000  -0.000000   0.000000   0.000000
    41  C   -0.000119   0.000000  -0.000000   0.000000   0.003539   0.000000
    42  F    0.000000   0.000000   0.000000   0.000000  -0.000014  -0.000000
    43  F    0.000000   0.000000   0.000000   0.000000  -0.000014  -0.000000
    44  F    0.000000   0.000000  -0.000000   0.000000   0.000223   0.000000
    45  H   -0.000000  -0.001910  -0.004558  -0.000123   0.000000   0.003955
              19         20         21         22         23         24
     1  C   -0.062665  -0.000036   0.001981   0.000001   0.000001   0.000000
     2  C   -0.043289  -0.027741   0.002279  -0.000194   0.000887  -0.000109
     3  C    0.007565   0.000416   0.001201  -0.000002  -0.000025  -0.000000
     4  C   -0.002122  -0.000002  -0.000043  -0.000000  -0.000000  -0.000000
     5  C    0.007871  -0.000002   0.000073  -0.000000   0.000000   0.000000
     6  C   -0.042394   0.000002  -0.000220   0.000000  -0.000000  -0.000000
     7  C   -0.027038   0.000000  -0.000023  -0.000000  -0.000000  -0.000000
     8  C    0.004874  -0.000000  -0.000001   0.000000  -0.000000  -0.000000
     9  C   -0.001348   0.000000  -0.000001   0.000000  -0.000000  -0.000000
    10  C    0.005495   0.000000  -0.000010   0.000000  -0.000000  -0.000000
    11  H   -0.014699   0.052400  -0.013146   0.000188  -0.002981   0.000509
    12  H    0.000212   0.000000   0.000000   0.000000  -0.000000   0.000000
    13  H   -0.000419  -0.000000  -0.000000   0.000000   0.000000  -0.000000
    14  H   -0.003023  -0.000000   0.000116  -0.000001   0.000000   0.000000
    15  H    0.000195  -0.000000  -0.000000   0.000000  -0.000000  -0.000000
    16  H   -0.000468  -0.000000   0.000000  -0.000000   0.000000   0.000000
    17  N    0.120263  -0.000353  -0.013566   0.000049   0.000003   0.000009
    18  N    0.095570   0.000002  -0.006943   0.000007  -0.000000  -0.000000
    19  Ir  16.492123  -0.017789   0.268223  -0.007799   0.007354   0.001883
    20  O   -0.017789   8.180085   0.328255  -0.046186   0.227436  -0.057141
    21  B    0.268223   0.328255   3.807574   0.345411  -0.047850  -0.048715
    22  O   -0.007799  -0.046186   0.345411   8.158210  -0.059254   0.236859
    23  C    0.007354   0.227436  -0.047850  -0.059254   4.732440   0.375232
    24  C    0.001883  -0.057141  -0.048715   0.236859   0.375232   4.732791
    25  C    0.001848  -0.003219   0.003728  -0.060051  -0.050729   0.352896
    26  H    0.001842  -0.000051  -0.000797  -0.000330   0.004953  -0.022921
    27  H    0.001114   0.003360   0.004964  -0.002337  -0.005631  -0.027063
    28  H   -0.000543   0.000139  -0.000213   0.003741  -0.004836  -0.021647
    29  C   -0.001975   0.003492   0.001060  -0.049626  -0.052200   0.362786
    30  H    0.000876  -0.000075  -0.000282  -0.001099   0.004737  -0.023249
    31  H    0.000001   0.000039   0.000011   0.003218  -0.001805  -0.028387
    32  H    0.000198   0.000001   0.000671  -0.000683  -0.009109  -0.020677
    33  C    0.002620  -0.060555   0.004867  -0.003048   0.357494  -0.054688
    34  H    0.001317  -0.002711   0.005813   0.003902  -0.027981  -0.005260
    35  H   -0.000651   0.003858  -0.000297   0.000101  -0.022013  -0.004186
    36  H    0.000920  -0.000333  -0.001173  -0.000069  -0.023053   0.005109
    37  C   -0.002179  -0.048283   0.001716   0.003608   0.363820  -0.049574
    38  H    0.000012   0.003239  -0.000032   0.000042  -0.028791  -0.001655
    39  H    0.000285  -0.000804   0.000775   0.000015  -0.020584  -0.009196
    40  H    0.000430  -0.001033  -0.000438  -0.000078  -0.023026   0.004861
    41  C   -0.000255  -0.000021  -0.000001   0.000000   0.000007   0.000000
    42  F    0.000415  -0.000000  -0.000000  -0.000000   0.000000   0.000000
    43  F    0.000374  -0.000000  -0.000000  -0.000000   0.000000   0.000000
    44  F    0.000922  -0.000119  -0.000070  -0.000000   0.000047   0.000000
    45  H   -0.000161  -0.000000   0.000000  -0.000000   0.000000   0.000000
              25         26         27         28         29         30
     1  C    0.000000  -0.000000   0.000000  -0.000000   0.000000  -0.000000
     2  C    0.000002  -0.000000   0.000005  -0.000000   0.000001  -0.000000
     3  C   -0.000000   0.000000  -0.000000   0.000000  -0.000000   0.000000
     4  C   -0.000000   0.000000  -0.000000   0.000000   0.000000   0.000000
     5  C   -0.000000  -0.000000   0.000000   0.000000   0.000000  -0.000000
     6  C    0.000000   0.000000   0.000000  -0.000000   0.000000   0.000000
     7  C    0.000000  -0.000000  -0.000000  -0.000000  -0.000000  -0.000000
     8  C    0.000000   0.000000   0.000000  -0.000000   0.000000   0.000000
     9  C    0.000000   0.000000  -0.000000  -0.000000  -0.000000   0.000000
    10  C    0.000000   0.000000   0.000000  -0.000000  -0.000000  -0.000000
    11  H   -0.000026   0.000001  -0.000033   0.000000  -0.000008   0.000000
    12  H   -0.000000   0.000000  -0.000000   0.000000  -0.000000   0.000000
    13  H    0.000000   0.000000   0.000000  -0.000000   0.000000   0.000000
    14  H   -0.000000  -0.000000   0.000000   0.000000  -0.000000  -0.000000
    15  H    0.000000   0.000000   0.000000  -0.000000   0.000000   0.000000
    16  H   -0.000000  -0.000000   0.000000   0.000000   0.000000  -0.000000
    17  N    0.000000  -0.000000   0.000000  -0.000000  -0.000000  -0.000000
    18  N    0.000000   0.000000  -0.000000  -0.000000  -0.000000   0.000000
    19  Ir   0.001848   0.001842   0.001114  -0.000543  -0.001975   0.000876
    20  O   -0.003219  -0.000051   0.003360   0.000139   0.003492  -0.000075
    21  B    0.003728  -0.000797   0.004964  -0.000213   0.001060  -0.000282
    22  O   -0.060051  -0.000330  -0.002337   0.003741  -0.049626  -0.001099
    23  C   -0.050729   0.004953  -0.005631  -0.004836  -0.052200   0.004737
    24  C    0.352896  -0.022921  -0.027063  -0.021647   0.362786  -0.023249
    25  C    5.264372   0.367019   0.370500   0.348750  -0.080474  -0.007384
    26  H    0.367019   0.539571  -0.028185  -0.028296  -0.007040   0.004088
    27  H    0.370500  -0.028185   0.526941  -0.027285   0.005817  -0.000017
    28  H    0.348750  -0.028296  -0.027285   0.581058  -0.000703   0.000141
    29  C   -0.080474  -0.007040   0.005817  -0.000703   5.244147   0.369855
    30  H   -0.007384   0.004088  -0.000017   0.000141   0.369855   0.542062
    31  H   -0.000568   0.000108  -0.000053   0.000892   0.356226  -0.029765
    32  H    0.005844  -0.000082  -0.000172  -0.000033   0.365954  -0.028518
    33  C    0.006605  -0.000144   0.000149  -0.000156  -0.010105   0.000153
    34  H    0.000161  -0.000006   0.000006  -0.000008  -0.002178  -0.000105
    35  H   -0.000159   0.000000  -0.000008  -0.000011   0.001037   0.000092
    36  H   -0.000148   0.000002  -0.000006   0.000000   0.000388  -0.000004
    37  C   -0.010561   0.000402  -0.002119   0.001088   0.002181  -0.000166
    38  H   -0.001132  -0.000043   0.000232   0.000787   0.000557  -0.000032
    39  H    0.004627   0.000022   0.001965  -0.000954   0.000177  -0.000005
    40  H    0.000148  -0.000003  -0.000110   0.000095  -0.000172   0.000003
    41  C    0.000000  -0.000000   0.000000  -0.000000   0.000000  -0.000000
    42  F   -0.000000   0.000000  -0.000000   0.000000  -0.000000  -0.000000
    43  F   -0.000000  -0.000000  -0.000000  -0.000000   0.000000  -0.000000
    44  F   -0.000000  -0.000000  -0.000000  -0.000000  -0.000000  -0.000000
    45  H   -0.000000  -0.000000   0.000000   0.000000  -0.000000  -0.000000
              31         32         33         34         35         36
     1  C   -0.000000  -0.000000  -0.000000  -0.000000   0.000000  -0.000000
     2  C    0.000000   0.000000   0.000134   0.000044  -0.000002  -0.000256
     3  C    0.000000  -0.000000  -0.000001  -0.000001   0.000000  -0.000011
     4  C    0.000000  -0.000000  -0.000000  -0.000000   0.000000  -0.000000
     5  C    0.000000   0.000000  -0.000000   0.000000  -0.000000   0.000000
     6  C   -0.000000   0.000000   0.000000   0.000000  -0.000000  -0.000000
     7  C   -0.000000  -0.000000   0.000000   0.000000  -0.000000   0.000000
     8  C   -0.000000   0.000000   0.000000  -0.000000  -0.000000  -0.000000
     9  C   -0.000000   0.000000   0.000000  -0.000000  -0.000000   0.000000
    10  C    0.000000   0.000000   0.000000   0.000000  -0.000000  -0.000000
    11  H   -0.000000  -0.000001  -0.000768  -0.000222   0.000020   0.000983
    12  H   -0.000000  -0.000000  -0.000000  -0.000000   0.000000   0.000000
    13  H   -0.000000   0.000000   0.000000  -0.000000  -0.000000   0.000000
    14  H    0.000000  -0.000000   0.000000   0.000000  -0.000000   0.000000
    15  H   -0.000000   0.000000   0.000000  -0.000000  -0.000000   0.000000
    16  H    0.000000  -0.000000  -0.000000   0.000000   0.000000  -0.000000
    17  N    0.000000   0.000000  -0.000004  -0.000001  -0.000000   0.000003
    18  N   -0.000000   0.000000   0.000000  -0.000000  -0.000000   0.000000
    19  Ir   0.000001   0.000198   0.002620   0.001317  -0.000651   0.000920
    20  O    0.000039   0.000001  -0.060555  -0.002711   0.003858  -0.000333
    21  B    0.000011   0.000671   0.004867   0.005813  -0.000297  -0.001173
    22  O    0.003218  -0.000683  -0.003048   0.003902   0.000101  -0.000069
    23  C   -0.001805  -0.009109   0.357494  -0.027981  -0.022013  -0.023053
    24  C   -0.028387  -0.020677  -0.054688  -0.005260  -0.004186   0.005109
    25  C   -0.000568   0.005844   0.006605   0.000161  -0.000159  -0.000148
    26  H    0.000108  -0.000082  -0.000144  -0.000006   0.000000   0.000002
    27  H   -0.000053  -0.000172   0.000149   0.000006  -0.000008  -0.000006
    28  H    0.000892  -0.000033  -0.000156  -0.000008  -0.000011   0.000000
    29  C    0.356226   0.365954  -0.010105  -0.002178   0.001037   0.000388
    30  H   -0.029765  -0.028518   0.000153  -0.000105   0.000092  -0.000004
    31  H    0.577032  -0.026637  -0.001098   0.000237   0.000779  -0.000046
    32  H   -0.026637   0.535676   0.004595   0.001933  -0.000931   0.000022
    33  C   -0.001098   0.004595   5.264066   0.370265   0.349568   0.364614
    34  H    0.000237   0.001933   0.370265   0.525709  -0.027044  -0.028439
    35  H    0.000779  -0.000931   0.349568  -0.027044   0.577562  -0.027822
    36  H   -0.000046   0.000022   0.364614  -0.028439  -0.027822   0.545888
    37  C    0.000523   0.000173  -0.080109   0.005784  -0.000744  -0.007191
    38  H    0.001507  -0.000038  -0.000745  -0.000043   0.000908   0.000108
    39  H   -0.000039  -0.000006   0.005830  -0.000172  -0.000034  -0.000081
    40  H   -0.000035  -0.000005  -0.007762  -0.000027   0.000171   0.004354
    41  C   -0.000000   0.000000   0.000000  -0.000000  -0.000000   0.000050
    42  F    0.000000  -0.000000  -0.000000  -0.000000   0.000000   0.000000
    43  F    0.000000   0.000000  -0.000000  -0.000000  -0.000000  -0.000000
    44  F    0.000000  -0.000000  -0.000140  -0.000001   0.000000   0.000679
    45  H    0.000000  -0.000000  -0.000000   0.000000   0.000000  -0.000000
              37         38         39         40         41         42
     1  C   -0.000000   0.000000   0.000000  -0.000000   0.000009  -0.000008
     2  C   -0.000011   0.000000   0.000008  -0.000063  -0.024878   0.000712
     3  C    0.000000  -0.000000  -0.000001   0.000000   0.322807  -0.049792
     4  C    0.000000  -0.000000  -0.000000  -0.000000  -0.021179   0.003124
     5  C   -0.000000   0.000000  -0.000000   0.000000   0.005252   0.000263
     6  C    0.000000  -0.000000   0.000000  -0.000000  -0.000004  -0.000000
     7  C    0.000000  -0.000000   0.000000   0.000000   0.000000   0.000000
     8  C   -0.000000   0.000000  -0.000000  -0.000000   0.000000  -0.000000
     9  C   -0.000000  -0.000000   0.000000   0.000000   0.000000   0.000000
    10  C    0.000000  -0.000000   0.000000   0.000000  -0.000000   0.000000
    11  H   -0.000078  -0.000002  -0.000055   0.000300  -0.006612   0.000144
    12  H    0.000000  -0.000000  -0.000000   0.000000  -0.002130   0.001434
    13  H   -0.000000   0.000000  -0.000000   0.000000  -0.000119   0.000000
    14  H   -0.000000   0.000000   0.000000  -0.000000   0.000000   0.000000
    15  H   -0.000000  -0.000000   0.000000   0.000000  -0.000000   0.000000
    16  H   -0.000000   0.000000  -0.000000  -0.000000   0.000000   0.000000
    17  N   -0.000001   0.000000   0.000000   0.000000   0.003539  -0.000014
    18  N    0.000000  -0.000000   0.000000   0.000000   0.000000  -0.000000
    19  Ir  -0.002179   0.000012   0.000285   0.000430  -0.000255   0.000415
    20  O   -0.048283   0.003239  -0.000804  -0.001033  -0.000021  -0.000000
    21  B    0.001716  -0.000032   0.000775  -0.000438  -0.000001  -0.000000
    22  O    0.003608   0.000042   0.000015  -0.000078   0.000000  -0.000000
    23  C    0.363820  -0.028791  -0.020584  -0.023026   0.000007   0.000000
    24  C   -0.049574  -0.001655  -0.009196   0.004861   0.000000   0.000000
    25  C   -0.010561  -0.001132   0.004627   0.000148   0.000000  -0.000000
    26  H    0.000402  -0.000043   0.000022  -0.000003  -0.000000   0.000000
    27  H   -0.002119   0.000232   0.001965  -0.000110   0.000000  -0.000000
    28  H    0.001088   0.000787  -0.000954   0.000095  -0.000000   0.000000
    29  C    0.002181   0.000557   0.000177  -0.000172   0.000000  -0.000000
    30  H   -0.000166  -0.000032  -0.000005   0.000003  -0.000000  -0.000000
    31  H    0.000523   0.001507  -0.000039  -0.000035  -0.000000   0.000000
    32  H    0.000173  -0.000038  -0.000006  -0.000005   0.000000  -0.000000
    33  C   -0.080109  -0.000745   0.005830  -0.007762   0.000000  -0.000000
    34  H    0.005784  -0.000043  -0.000172  -0.000027  -0.000000  -0.000000
    35  H   -0.000744   0.000908  -0.000034   0.000171  -0.000000   0.000000
    36  H   -0.007191   0.000108  -0.000081   0.004354   0.000050   0.000000
    37  C    5.238596   0.357724   0.365946   0.368458   0.000000  -0.000000
    38  H    0.357724   0.574191  -0.026495  -0.029416  -0.000000   0.000000
    39  H    0.365946  -0.026495   0.535469  -0.028609   0.000000  -0.000000
    40  H    0.368458  -0.029416  -0.028609   0.543172   0.000014   0.000000
    41  C    0.000000  -0.000000   0.000000   0.000014   3.976818   0.262908
    42  F   -0.000000   0.000000  -0.000000   0.000000   0.262908   9.171734
    43  F   -0.000000   0.000000  -0.000000   0.000000   0.260144  -0.039762
    44  F   -0.000053   0.000000  -0.000000   0.000266   0.261384  -0.037352
    45  H   -0.000000   0.000000  -0.000000  -0.000000  -0.000000  -0.000000
              43         44         45
     1  C   -0.000009   0.000009   0.000017
     2  C    0.001117  -0.002820  -0.000000
     3  C   -0.049148  -0.036312   0.000000
     4  C    0.003583   0.003572  -0.000000
     5  C    0.000342  -0.000060  -0.000000
     6  C   -0.000000   0.000000   0.000611
     7  C    0.000000   0.000000  -0.035729
     8  C   -0.000000   0.000000   0.361917
     9  C    0.000000  -0.000000  -0.035779
    10  C    0.000000   0.000000   0.004315
    11  H    0.000142   0.011114  -0.000000
    12  H    0.002018   0.000074  -0.000000
    13  H    0.000000   0.000000  -0.000000
    14  H    0.000000   0.000000  -0.001910
    15  H    0.000000  -0.000000  -0.004558
    16  H    0.000000   0.000000  -0.000123
    17  N   -0.000014   0.000223   0.000000
    18  N   -0.000000   0.000000   0.003955
    19  Ir   0.000374   0.000922  -0.000161
    20  O   -0.000000  -0.000119  -0.000000
    21  B   -0.000000  -0.000070   0.000000
    22  O   -0.000000  -0.000000  -0.000000
    23  C    0.000000   0.000047   0.000000
    24  C    0.000000   0.000000   0.000000
    25  C   -0.000000  -0.000000  -0.000000
    26  H   -0.000000  -0.000000  -0.000000
    27  H   -0.000000  -0.000000   0.000000
    28  H   -0.000000  -0.000000   0.000000
    29  C    0.000000  -0.000000  -0.000000
    30  H   -0.000000  -0.000000  -0.000000
    31  H    0.000000   0.000000   0.000000
    32  H    0.000000  -0.000000  -0.000000
    33  C   -0.000000  -0.000140  -0.000000
    34  H   -0.000000  -0.000001   0.000000
    35  H   -0.000000   0.000000   0.000000
    36  H   -0.000000   0.000679  -0.000000
    37  C   -0.000000  -0.000053  -0.000000
    38  H    0.000000   0.000000   0.000000
    39  H   -0.000000  -0.000000  -0.000000
    40  H    0.000000   0.000266  -0.000000
    41  C    0.260144   0.261384  -0.000000
    42  F   -0.039762  -0.037352  -0.000000
    43  F    9.174449  -0.037162  -0.000000
    44  F   -0.037162   9.142448   0.000000
    45  H   -0.000000   0.000000   0.524244
 Mulliken charges:
               1
     1  C    0.315135
     2  C    0.024095
     3  C   -0.071226
     4  C   -0.165914
     5  C   -0.183650
     6  C    0.302393
     7  C    0.030603
     8  C   -0.168489
     9  C   -0.141760
    10  C   -0.179390
    11  H    0.267878
    12  H    0.195076
    13  H    0.173078
    14  H    0.188291
    15  H    0.183510
    16  H    0.173119
    17  N   -0.658813
[...]
 ,-0.00047645,0.00039833,0.00018319,0.00014314,0.00047587,-0.00018098,0
 .00000203,-0.00008417,0.00005100,0.00001446,0.00001440,0.00000276,-0.0
 0002463,0.00000240,-0.00000004,0.00003565,-0.00001340,0.00000183,-0.00
 092255,0.00076597,-0.00118427,0.00008287,0.00015096,0.00001648,0.00001
 501,0.00010302,-0.00000728,0.00112208,-0.00053273,-0.00009236,-0.00142
 208,0.00049738,0.00010634,0.00080151,-0.00009161,-0.00002495,-0.000304
 13,0.00012670,-0.00011818,-0.00026235,0.00017665,0.00010286,0.00005427
 ,-0.00005953,-0.00001521,-0.00001027,-0.00003292,0.00000870,-0.0000265
 3,0.00002298,0.00000857,0.00004280,0.00001611,-0.00002404,0.00004599,-
 0.00003500,-0.00001491,-0.00000949,-0.00002049,0.00000925,0.00004377,0
 .00001637,0.00000562,-0.00001248,0.00001855,0.00000802,0.00007662,0.00
 025023,-0.00000156,-0.00000896,-0.00004690,-0.00003928,0.00000748,-0.0
 0005313,0.00003250,0.00001630,-0.00012986,0.00008462,0.00001583,0.0001
 5053,-0.00000941,0.00000704,-0.00006315,-0.00002068,0.00000072,0.00001
 294,0.00000095,0.00013402,-0.00006060,0.00000761,-0.08029711,0.0023064
 7,-0.00043763,0.08077457,-0.00061819,-0.00036252,-0.00010861,0.0034859
 3,0.00077496,-0.00168913,0.00455377,-0.02669011,-0.03587712,-0.0027291
 5,-0.00220795,0.00034740,0.00058860,-0.00063653,0.00123704,-0.00014664
 ,0.00033287,-0.00024356,0.00040624,0.00005144,0.00002881,-0.00014391,-
 0.00027378,-0.00000508,-0.00011776,0.00017188,-0.00000688,0.00018992,-
 0.00038280,0.00000826,0.00041849,0.00052461,-0.00105381,0.00104220,0.0
 0034384,-0.00108822,0.00026240,-0.00015227,-0.00003539,-0.00004398,-0.
 00002624,-0.00000572,0.00006389,-0.00001360,-0.00000676,-0.00003665,0.
 00004467,-0.00000262,0.00113308,-0.00093886,0.00257046,-0.00007103,-0.
 00003494,-0.00002910,0.00046212,0.00029856,0.00003082,-0.00111293,-0.0
 0030947,0.00012733,0.00104542,0.00027731,0.00002181,-0.00102616,-0.000
 34462,-0.00002043,0.00067364,0.00002032,0.00009780,0.00037693,-0.00003
 169,-0.00016889,-0.00005383,-0.00000825,0.00001988,0.00001857,-0.00001
 197,0.00000192,0.00002866,0.00000233,-0.00003913,-0.00006729,-0.000002
 87,0.00003080,-0.00003798,-0.00002445,0.00003814,0.00000420,-0.0000346
 7,-0.00000675,-0.00005527,0.00000428,-0.00000933,0.00001884,0.00001354
 ,0.00001134,-0.00007804,0.00013477,-0.00003657,0.00001748,0.00001330,0
 .00005551,-0.00009118,-0.00005406,-0.00002907,0.00010353,-0.00007920,0
 .00005354,-0.00007158,0.00003304,-0.00002122,-0.00006815,-0.00001837,0
 .00001499,0.00001627,-0.00004066,0.00002847,0.00009587,0.00002816,-0.0
 0005263,0.00306356,-0.16330594,-0.10973327,0.01945580,0.18555632,-0.00
 030393,0.00002050,-0.00019319,0.00312118,-0.00040178,-0.00092404,0.000
 20940,-0.01960619,-0.00972024,-0.00186876,-0.00040282,0.00084513,0.000
 50853,-0.00046993,0.00053986,0.00001166,0.00014702,-0.00010683,0.00018
 271,0.00002181,0.00000850,-0.00006690,-0.00011491,0.00000439,-0.000031
 83,0.00007365,0.00000676,0.00008314,-0.00017780,0.00002932,0.00018489,
 0.00035834,-0.00043593,0.00051231,0.00030151,-0.00102408,0.00016952,-0
 .00009323,-0.00007689,-0.00002471,-0.00000842,-0.00000989,0.00003237,-
 0.00000670,-0.00001102,-0.00002160,0.00002653,-0.00003162,0.00017575,-
 0.00104393,0.00075896,-0.00006698,-0.00000307,-0.00000948,0.00029099,0
 .00002157,0.00015203,-0.00044345,-0.00027830,0.00025663,0.00036099,0.0
 0025264,-0.00001458,-0.00047531,-0.00021265,0.00002547,0.00031121,0.00
 003299,-0.00013146,0.00018550,0.00003020,-0.00009945,-0.00002815,-0.00
 004794,0.00000130,0.00000982,-0.00001331,0.00001283,0.00002445,0.00000
 474,-0.00001543,-0.00004003,-0.00000064,0.00001483,-0.00001481,-0.0000
 2439,0.00002240,0.00000151,-0.00002983,0.00000132,-0.00002486,0.000007
 80,-0.00000952,0.00000769,0.00002017,0.00002691,-0.00003596,0.00021149
 ,0.00001786,0.00000296,0.00002404,0.00004126,-0.00005740,-0.00006402,-
 0.00000066,0.00008469,-0.00013172,0.00001785,-0.00002671,0.00006278,-0
 .00000546,-0.00002914,-0.00000670,0.00002077,-0.00000982,-0.00007608,0
 .00006435,0.00009851,0.00002729,-0.00010359,0.00042987,-0.10683729,-0.
 21113118,0.02450337,0.16065210,0.31908906,0.00082064,0.00101881,0.0001
 6407,-0.00326558,-0.00049307,-0.00138044,0.00871393,0.01847069,-0.0140
 0875,-0.00090720,0.00015113,-0.00052379,0.00125493,-0.00056366,-0.0003
 5261,0.00032735,-0.00025968,-0.00001370,-0.00009180,-0.00003843,-0.000
 00615,0.00003191,0.00011109,0.00000744,0.00007116,-0.00006997,-0.00000
 109,-0.00013608,0.00011178,-0.00000274,-0.00045803,0.00042763,-0.00006
 270,0.00048819,0.00074712,0.00035413,0.00001521,-0.00009840,-0.0000481
 0,0.00001311,0.00001239,-0.00000241,-0.00002197,0.00000166,-0.00000021
 ,0.00003608,-0.00001154,0.00000052,-0.00076282,0.00071629,0.00102563,0
 .00009977,0.00016286,-0.00000824,0.00003710,0.00019119,-0.00001975,0.0
 0109770,-0.00057045,-0.00008345,-0.00141321,0.00052730,0.00008670,0.00
 077389,-0.00010944,-0.00002575,-0.00027155,0.00013243,-0.00010645,-0.0
 0025327,0.00017612,0.00009714,0.00005303,-0.00006052,-0.00001509,-0.00
 000985,-0.00003333,0.00000942,-0.00002558,0.00002276,0.00000743,0.0000
 4059,0.00001594,-0.00002333,0.00004501,-0.00003707,-0.00001330,-0.0000
 0956,-0.00002203,0.00000912,0.00004228,0.00001653,0.00000515,-0.000012
 15,0.00001917,0.00000844,0.00007306,0.00021994,0.00000593,-0.00000735,
 -0.00004253,-0.00003684,0.00000546,-0.00005004,0.00003137,0.00000884,-
 0.00010612,0.00006789,0.00000868,0.00016036,-0.00001158,0.00000461,-0.
 00006466,-0.00001910,0.00000127,0.00000654,0.00000397,0.00016874,-0.00
 005580,-0.00000218,-0.08112054,-0.00457568,0.00827059,0.01378216,-0.00
 036505,0.00261822,0.08515956,-0.00069611,-0.00045186,0.00009275,0.0041
 9219,0.00070054,0.00184706,0.00178693,-0.02997348,0.03539594,-0.002736
 55,-0.00214789,-0.00039680,0.00052471,-0.00046011,-0.00116637,-0.00016
 114,0.00037972,0.00022858,0.00041458,0.00004902,-0.00000109,-0.0001549
 7,-0.00028144,-0.00001594,-0.00011309,0.00019321,0.00000206,0.00021234
 ,-0.00039768,-0.00001013,0.00044146,0.00064111,0.00090156,0.00125992,0
 .00033080,0.00111660,0.00025908,-0.00014596,0.00005569,-0.00004569,-0.
 00002522,0.00000720,0.00006434,-0.00001408,0.00000921,-0.00003460,0.00
 004600,0.00000996,0.00104645,-0.00116599,-0.00261783,-0.00009944,-0.00
 004047,0.00000977,0.00049417,0.00024471,0.00006309,-0.00115521,-0.0003
 8826,-0.00013817,0.00099163,0.00033076,0.00011720,-0.00102295,-0.00039
 001,-0.00008106,0.00074163,0.00003729,0.00029345,0.00036964,-0.0000382
 4,-0.00015677,-0.00005114,0.00001862,0.00002494,0.00001962,-0.00001402
 ,-0.00000758,0.00001516,0.00000293,-0.00004795,-0.00005814,0.00000114,
 0.00002999,-0.00003846,-0.00002769,0.00004091,0.00000230,-0.00003266,-
 0.00001142,-0.00005506,0.00000317,-0.00000403,0.00002076,0.00000570,-0
 .00000922,-0.00008023,0.00004993,-0.00008710,0.00002372,-0.00002602,0.
 00003622,-0.00009068,-0.00003607,-0.00004214,0.00008058,-0.00001436,0.
 00010644,-0.00008988,0.00006011,-0.00005348,-0.00008353,-0.00004783,0.
 00000324,0.00003407,0.00000815,-0.00001972,0.00014675,0.00001584,0.000
 01839,-0.00342714,-0.17450904,0.11045869,0.00023900,0.02386684,-0.0067
 7980,0.03068213,0.20285086,0.00023143,-0.00006290,-0.00017001,-0.00328
 292,0.00059652,-0.00083284,0.00126075,0.01954412,-0.00801782,0.0018862
 3,0.00032226,0.00075683,-0.00047741,0.00046830,0.00046611,-0.00001785,
 -0.00014863,-0.00008621,-0.00017088,-0.00001766,-0.00000316,0.00006439
 ,0.00010548,0.00001173,0.00002541,-0.00007290,0.00000761,-0.00008454,0
 .00016327,0.00002700,-0.00015249,-0.00037337,-0.00027352,-0.00046384,-
 0.00025717,-0.00094317,-0.00015688,0.00008794,-0.00007877,0.00002432,0
 .00000714,-0.00000973,-0.00002928,0.00000644,-0.00001140,0.00002095,-0
 .00002367,-0.00003205,0.00004214,0.00099205,0.00062313,0.00007564,0.00
 000274,0.00000201,-0.00029879,0.00000299,0.00010571,0.00046538,0.00037
 947,0.00026020,-0.00026754,-0.00031832,-0.00013279,0.00043516,0.000267
 28,0.00009843,-0.00041530,-0.00007347,-0.00032314,-0.00015920,-0.00000
 263,0.00006306,0.00001958,-0.00002299,-0.00001541,-0.00000963,0.000014
 47,0.00001081,0.00000692,-0.00000621,0.00003200,0.00001718,-0.00000596
 ,-0.00001213,0.00001472,0.00002309,-0.00002445,0.00000190,0.00001906,0
 .00000916,0.00002281,-0.00000318,-0.00000239,-0.00001066,0.00000083,0.
 00002030,0.00002584,-0.00003783,0.00010108,-0.00001458,0.00007539,0.00
 000229,0.00004550,0.00001671,0.00003040,-0.00001255,0.00000210,-0.0001
 4393,0.00006659,-0.00008376,0.00006266,0.00005744,0.00005998,0.0000094
 9,-0.00003375,-0.00003945,0.00004908,-0.00015283,0.00000390,-0.0000582
 9,0.00675493,0.10781555,-0.19782390,0.00353729,0.01267053,-0.08719574,
 -0.03696756,-0.16415380,0.29690092,0.00122589,-0.00000275,-0.00001655,
 -0.00304557,-0.00248961,0.00007181,-0.04744526,-0.01492144,-0.00188431
 ,-0.00098376,0.00962357,-0.00019296,-0.00234485,-0.00120865,0.00009569
 ,0.00039743,-0.00011202,-0.00000277,-0.00018809,-0.00000710,-0.0000059
 4,0.00005865,0.00016840,0.00000677,0.00017339,-0.00003399,0.00000054,-
 0.00019797,0.00015691,-0.00000239,-0.00230458,0.00205707,-0.00009641,0
 .00074549,-0.00018587,-0.00001546,-0.00058351,0.00064445,0.00001344,0.
 00002316,0.00002225,-0.00000026,-0.00003930,0.00000064,-0.00000089,0.0
 0013319,-0.00000079,0.00000837,-0.00060829,-0.00105563,0.00003982,0.00
 027020,0.00022766,0.00000098,0.00022753,0.00059502,-0.00001443,0.00291
 647,-0.00122491,-0.00035483,-0.00394889,0.00180523,0.00030338,0.001997
 85,-0.00051545,-0.00009746,-0.00060150,0.00049775,-0.00024510,-0.00061
 584,0.00058453,0.00023196,0.00013435,-0.00020038,-0.00004119,-0.000017
 15,-0.00011562,0.00002636,-0.00007208,0.00007446,0.00000221,0.00010706
 ,0.00005451,-0.00006268,0.00012593,-0.00012756,-0.00002118,-0.00002856
 ,-0.00008718,0.00002272,0.00011053,0.00005648,0.00001580,-0.00002664,0
 .00006643,0.00002643,0.00027973,0.00078674,-0.00000701,-0.00001563,-0.
 00015034,-0.00009916,-0.00004095,-0.00016945,0.00007862,-0.00020404,-0
 .00129853,0.00008780,-0.00023237,0.00098589,-0.00005462,-0.00001855,-0
 .00033685,-0.00002566,-0.00000864,-0.00007663,0.00002459,0.00133959,-0
 .00038101,0.00005860,-0.30098695,-0.04677506,-0.00826159,-0.02012578,-
 0.03060722,-0.03056149,-0.02440299,-0.03388647,0.02808596,0.39882567,0
 .00038742,0.00005389,-0.00000455,0.00046663,-0.00482159,0.00022436,0.0
 1863117,0.01131803,0.00050241,0.00034958,-0.00336329,0.00009516,0.0014
 7631,0.00005897,-0.00005677,0.00010493,0.00023189,-0.00000177,0.000109
 42,0.00002291,0.00000292,-0.00004839,-0.00006107,-0.00000163,0.0000217
 9,0.00006225,0.00000313,0.00008732,-0.00015087,0.00000335,0.00306608,-
 0.00191740,-0.00001464,0.00046550,0.00026165,0.00002421,0.00022164,-0.
 00024104,-0.00000609,-0.00002303,-0.00000520,-0.00000021,0.00002575,-0
 .00000825,-0.00000003,-0.00002366,0.00001780,-0.00000194,0.00121782,0.
 00157927,0.00000963,-0.00009713,0.00000508,-0.00000810,0.00000362,-0.0
 0020199,0.00002595,-0.00034115,0.00045505,-0.00022817,0.00003960,0.000
 49479,0.00004960,-0.00032296,-0.00031851,-0.00004055,0.00040809,0.0001
 5503,0.00011350,0.00014544,0.00010316,-0.00007305,-0.00001437,-0.00002
 822,0.00000588,0.00001039,-0.00002900,-0.00000041,0.00000128,0.0000151
 2,-0.00002961,-0.00001914,0.00000895,0.00000824,-0.00000520,-0.0000351
 6,0.00002516,-0.00000371,-0.00003610,-0.00000500,-0.00001780,0.0000106
 1,0.00000052,0.00001098,0.00001463,0.00000051,0.00007090,-0.00008062,0
 .00006832,0.00002080,0.00001551,0.00001980,-0.00008318,0.00000763,-0.0
 0001894,-0.00053821,-0.00153447,-0.00033257,-0.00019360,0.00037962,-0.
 00001561,-0.00005349,-0.00012393,0.00001488,0.00000519,-0.00006472,0.0
 0000353,0.00039187,-0.00047395,0.00014695,-0.05435460,-0.09696250,-0.0
 0223939,-0.04265466,-0.01647311,-0.02544815,-0.04648811,-0.01917372,0.
 02203958,0.11753222,0.13084976,0.00005479,0.00004169,0.00002002,-0.000
 00213,-0.00014225,-0.00010228,-0.00105638,-0.00048555,0.00864748,-0.00
 009432,0.00030083,0.00162345,-0.00004963,-0.00011597,-0.00034218,0.000
 01441,-0.00001173,-0.00003371,0.00000246,-0.00000298,0.00000276,-0.000
 00252,0.00000171,0.00000524,0.00000320,0.00000137,0.00002104,-0.000008
 36,-0.00000080,0.00001343,-0.00019288,0.00012561,-0.00029808,-0.000010
 04,0.00000491,-0.00015215,-0.00001575,0.00001635,-0.00017816,0.0000004
 0,0.00000084,-0.00000417,-0.00000036,-0.00000007,-0.00000300,0.0000049
 6,0.00000135,-0.00002764,-0.00005139,0.00000774,0.00001282,0.00000235,
 0.00001056,0.00000047,0.00000864,0.00000495,0.00009007,0.00005301,0.00
 002340,0.00016906,-0.00004064,0.00001186,-0.00004370,0.00003669,0.0000
 1655,0.00003296,-0.00005611,0.00004183,-0.00019225,-0.00000584,0.00002
 325,0.00000385,0.00000187,-0.00002788,-0.00000749,-0.00000066,-0.00000
 096,0.00001012,0.00000792,-0.00000172,0.00000705,-0.00000532,-0.000001
 02,-0.00000003,0.00000164,-0.00000090,-0.00000245,0.00000039,-0.000004
 89,0.00000486,0.00000180,0.00000198,-0.00000332,-0.00000096,0.00000932
 ,0.00001521,0.00002126,-0.00004629,0.00009634,0.00000622,0.00005141,0.
 00001768,-0.00001650,0.00000294,0.00001476,-0.00023849,-0.00058900,-0.
 00026984,0.00004380,-0.00007232,0.00000843,0.00000974,0.00002913,0.000
 00921,-0.00001609,-0.00002816,0.00004479,0.00010959,0.00024041,-0.0001
 2605,-0.00810638,-0.00173259,-0.07619963,-0.04423364,-0.02778353,-0.01
 070341,0.04095768,0.02493798,-0.00345487,0.01286146,0.00513989,0.08128
 196,0.00024702,0.00010421,0.00003762,-0.00000275,0.00002240,-0.0000007
 3,-0.00002297,-0.00002675,-0.00000130,0.00006818,0.00005800,-0.0000003
 1,-0.00006718,0.00001429,0.00000375,-0.00121126,-0.00165176,-0.0000581
 4,-0.00788913,0.02875410,0.00051632,-0.13679331,0.12696335,0.00073913,
 0.01213964,-0.01375721,-0.00010281,-0.00076307,-0.00320195,-0.00026139
 ,-0.00000327,-0.00001501,0.00000070,-0.00000214,0.00000488,-0.00000058
 ,0.00001393,0.00003003,-0.00000320,0.00076875,-0.00036789,0.00008720,0
 .00064764,0.00062203,0.00011294,0.00048797,-0.00079139,-0.00001209,-0.
 00002017,-0.00021393,-0.00000226,-0.00686661,-0.00004776,-0.00034008,0
 .00078089,0.00043525,0.00001194,-0.00019419,0.00003653,0.00000002,0.00
 006220,-0.00010313,0.00000508,-0.00028350,-0.00005647,0.00000134,0.000
 05020,0.00000674,0.00002734,0.00004662,-0.00001098,-0.00004125,-0.0000
 1341,0.00000673,0.00000357,0.00000064,-0.00000511,-0.00000118,0.000002
 37,0.00000210,-0.00000556,-0.00000763,-0.00000220,0.00000726,-0.000015
 61,0.00000789,0.00001064,-0.00000052,-0.00000644,0.00000058,-0.0000100
 7,-0.00000336,-0.00000476,0.00000192,0.00000259,-0.00000052,-0.0000122
 9,-0.00000360,-0.00000291,0.00000322,0.00000002,0.00000516,-0.00000817
 ,0.00000184,-0.00000572,0.00000237,0.00000060,0.00000106,-0.00000951,-
 0.00000217,-0.00000794,-0.00000895,0.00000150,0.00000211,0.00000223,-0
 .00000023,0.00000083,0.00000113,0.00000243,0.00000124,0.00001958,-0.00
 004644,-0.00000126,-0.00000485,0.00001659,0.00001060,-0.00000472,0.000
 01732,-0.00000996,-0.00000435,0.00001065,0.00000013,0.13887314,0.00004
 323,0.00008258,0.00003783,0.00002796,0.00001019,0.00000082,0.00002806,
 -0.00001867,0.00000004,0.00001626,0.00003127,0.00000095,-0.00003890,-0
 .00006278,0.00000209,-0.00106270,0.00001332,-0.00001544,-0.00309766,0.
 00445266,0.00003055,0.12748781,-0.26469379,-0.00271791,0.01686558,-0.0
 1681006,-0.00008022,-0.00361236,-0.00302851,-0.00034359,-0.00001124,-0
 .00000366,0.00000063,-0.00000050,-0.00000406,0.00000004,0.00002544,0.0
 0006419,-0.00000513,0.00034884,0.00020467,0.00008878,0.00003853,0.0010
 8836,0.00012188,0.00087735,-0.00080942,-0.00000058,0.00004342,0.000010
 30,0.00000059,-0.00121815,0.00174735,-0.00018609,0.00009869,-0.0000980
 2,-0.00000569,0.00012989,-0.00002800,-0.00000609,-0.00026148,0.0000302
 3,0.00000276,0.00015322,0.00004267,0.00000702,-0.00005285,-0.00000616,
 -0.00001498,-0.00005694,0.00000946,0.00001623,0.00001030,-0.00000343,-
 0.00000331,-0.00000211,0.00000188,0.00000140,-0.00000193,-0.00000039,0
 .00000443,0.00000668,0.00000037,-0.00000498,0.00000740,-0.00000133,-0.
 00000463,-0.00000093,0.00000357,0.00000008,0.00000648,0.00000030,0.000
 00156,-0.00000216,-0.00000133,0.,0.00000876,0.00000099,0.00000339,-0.0
 0000218,-0.00000008,-0.00000438,0.00000708,-0.00000018,0.00000399,-0.0
 0000303,0.00000018,-0.00000147,0.00000566,-0.00000094,0.00000413,0.000
 00639,0.00000021,-0.00000066,-0.00000215,0.00000047,-0.00000021,-0.000
 00186,-0.00000179,-0.00000082,-0.00006456,0.00009669,-0.00000063,0.000
 01488,-0.00003408,-0.00001758,0.00001374,-0.00003435,0.00001670,0.0000
 3032,-0.00001689,0.00000074,-0.13680828,0.27776600,0.00004450,-0.00000
 262,-0.00143970,-0.00000313,0.00002787,-0.00001897,-0.00002691,-0.0000
 2227,-0.00001418,0.00003936,-0.00001066,-0.00003854,-0.00002504,0.0000
 3615,0.00003989,-0.00006192,0.00001219,-0.00036043,-0.00025308,0.00073
 135,0.00044139,0.00073993,-0.00274962,-0.03480437,0.00061118,-0.000737
 19,0.00243074,-0.00022846,-0.00033675,0.00704161,0.00000023,0.00000109
 ,-0.00000075,-0.00000009,0.00000055,0.00000643,0.00000331,0.00000397,0
 .00008662,0.00009392,0.00007497,-0.00317288,0.00011021,0.00012955,-0.0
 0364773,0.00002334,-0.00004366,0.00022942,0.00002104,-0.00001692,0.000
 03891,-0.00037043,-0.00017658,0.00845396,0.00000304,0.00002608,-0.0004
 1949,-0.00000586,-0.00000171,-0.00001976,-0.00001918,-0.00002753,0.000
 33653,0.00002679,0.00000221,-0.00004403,0.00000307,0.00000328,-0.00000
 500,-0.00000773,0.00000737,-0.00001978,0.00000964,-0.00000084,-0.00000
 010,0.00000065,0.00000171,0.00000147,-0.00000017,-0.00000302,-0.000001
 19,-0.00000002,0.00000093,-0.00000322,-0.00000286,0.00000195,0.0000011
 1,-0.00000017,0.00000008,0.00000126,-0.00000029,-0.00000104,-0.0000006
 6,-0.00000055,0.00000117,-0.00000162,-0.00000399,0.00000130,0.00000009
 ,0.00000042,-0.00000096,-0.00000083,-0.00000004,0.00000031,-0.00000110
 ,-0.00000002,0.00000043,0.00000022,0.00000083,0.00000061,0.00000069,0.
 00000014,-0.00000043,-0.00000019,0.00000027,0.00000021,-0.00000140,0.0
 0000006,0.,0.00000032,-0.00000138,-0.00000036,0.00005039,-0.00000344,0
 .00000588,-0.00000409,0.00000443,-0.00000654,-0.00000429,0.00000105,-0
 .00000031,-0.00000865,-0.00072264,0.00306777,0.02487189\\0.00001815,-0
 .00000012,0.00000016,-0.00001035,0.00000879,0.00000045,0.00000832,0.00
 000225,0.00000060,0.00000306,-0.00000512,-0.00000120,0.00000255,0.0000
 0315,-0.00000002,-0.00000674,-0.00000006,-0.00000423,0.00000846,0.0000
 0372,0.00000050,-0.00000342,-0.00000431,0.00000003,-0.00000312,0.00000
 194,-0.00000119,0.00000628,-0.00000003,0.00000290,0.00000344,-0.000003
 98,0.00000162,0.00000140,0.00000163,-0.00000061,-0.00000445,-0.0000024
 5,0.00000158,0.00000001,-0.00000132,0.00000123,-0.00000102,-0.00000111
 ,0.00000179,-0.00000165,-0.00000353,0.00000029,-0.00001177,-0.00000174
 ,-0.00000130,0.00000523,0.00001513,-0.00000817,-0.00000285,-0.00004002
 ,0.00002348,-0.00000397,0.00000883,-0.00000009,0.00000123,0.00000790,-
 0.00001716,-0.00000827,0.00000398,0.00000557,0.00000606,-0.00000614,0.
 00000494,-0.00000336,-0.00000206,-0.00000465,-0.00000244,0.00000500,0.
 00000065,0.00000044,-0.00000088,-0.00000033,0.00000058,0.00000071,0.00
 000280,0.00000330,-0.00000022,-0.00000085,0.00000613,-0.00000269,-0.00
 000801,0.,0.00000044,0.00000088,-0.00000340,0.00000167,0.00000019,-0.0
 0000069,0.00000096,0.00000409,0.00000092,0.00000845,0.00000249,0.00000
 244,-0.00000391,-0.00000245,0.00000035,0.00000303,-0.00000143,-0.00000
 250,-0.00000678,-0.00000409,-0.00000468,0.00000005,-0.00000393,0.00000
 043,0.00000194,0.00000060,-0.00000016,-0.00000042,0.00000357,0.0000001
 4,-0.00000084,-0.00000074,0.00000635,-0.00000554,0.00000226,-0.0000031
 0,0.00000124,-0.00000671,-0.00000397,0.00000262,0.00000305,-0.00000201
 ,0.00000833,-0.00000066,-0.00000133,0.00000149,0.00000207\\\@
 The archive entry for this job was punched.


 SOME PEOPLE TRY TO PULL THE WOOL OVER YOUR EYES
 USING THE WRONG YARN.
 Job cpu time:       0 days  2 hours 54 minutes 49.2 seconds.
 Elapsed time:       0 days  0 hours 11 minutes  8.7 seconds.
 File lengths (MBytes):  RWF=    961 Int=      0 D2E=      0 Chk=     13 Scr=      1
 Normal termination of Gaussian 16 at Sat Dec  7 19:00:11 2024.
