/mnt/lustre/scratch/nvme/SLURM/9663712/usccqdma.vNiGwkjf8d
OMP_STACKSIZE=0m
GAUSS_PDEF=16
GAUSS_MDEF=65536MB
GAUSS_RDEF=SCF=Direct
 Entering Gaussian System, Link 0=g16.exe
 Initial command:
 /opt/cesga/2020/software/Core/g16/c1/l1.exe "/mnt/lustre/scratch/nvme/SLURM/9663712/usccqdma.vNiGwkjf8d/Gau-2881245.inp" -scrdir="/mnt/lustre/scratch/nvme/SLURM/9663712/usccqdma.vNiGwkjf8d/"
 Default is to use a total of  16 processors:
                               16 via shared-memory
                                1 via Linda
 Entering Link 1 = /opt/cesga/2020/software/Core/g16/c1/l1.exe PID=   2881271.
  
 Copyright (c) 1988-2019, Gaussian, Inc.  All Rights Reserved.
  
 This is part of the Gaussian(R) 16 program.  It is based on
 the Gaussian(R) 09 system (copyright 2009, Gaussian, Inc.),
 the Gaussian(R) 03 system (copyright 2003, Gaussian, Inc.),
 the Gaussian(R) 98 system (copyright 1998, Gaussian, Inc.),
 the Gaussian(R) 94 system (copyright 1995, Gaussian, Inc.),
 the Gaussian 92(TM) system (copyright 1992, Gaussian, Inc.),
 the Gaussian 90(TM) system (copyright 1990, Gaussian, Inc.),
 the Gaussian 88(TM) system (copyright 1988, Gaussian, Inc.),
 the Gaussian 86(TM) system (copyright 1986, Carnegie Mellon
 University), and the Gaussian 82(TM) system (copyright 1983,
 Carnegie Mellon University). Gaussian is a federally registered
 trademark of Gaussian, Inc.
  
 This software contains proprietary and confidential information,
 including trade secrets, belonging to Gaussian, Inc.
  
 This software is provided under written license and may be
 used, copied, transmitted, or stored only in accord with that
 written license.
  
 The following legend is applicable only to US Government
 contracts under FAR:
  
                    RESTRICTED RIGHTS LEGEND
  
 Use, reproduction and disclosure by the US Government is
 subject to restrictions as set forth in subparagraphs (a)
 and (c) of the Commercial Computer Software - Restricted
 Rights clause in FAR 52.227-19.
  
 Gaussian, Inc.
 340 Quinnipiac St., Bldg. 40, Wallingford CT 06492
  
  
 ---------------------------------------------------------------
 Warning -- This program may not be used in any manner that
 competes with the business of Gaussian, Inc. or will provide
 assistance to any competitor of Gaussian, Inc.  The licensee
 of this program is prohibited from giving any competitor of
 Gaussian, Inc. access to this program.  By using this program,
 the user acknowledges that Gaussian, Inc. is engaged in the
 business of creating and licensing software in the field of
 computational chemistry and represents and warrants to the
 licensee that it is not a competitor of Gaussian, Inc. and that
 it will not use this program in any manner prohibited above.
 ---------------------------------------------------------------
  

 Cite this work as:
 Gaussian 16, Revision C.01,
 M. J. Frisch, G. W. Trucks, H. B. Schlegel, G. E. Scuseria, 
 M. A. Robb, J. R. Cheeseman, G. Scalmani, V. Barone, 
 G. A. Petersson, H. Nakatsuji, X. Li, M. Caricato, A. V. Marenich, 
 J. Bloino, B. G. Janesko, R. Gomperts, B. Mennucci, H. P. Hratchian, 
 J. V. Ortiz, A. F. Izmaylov, J. L. Sonnenberg, D. Williams-Young, 
 F. Ding, F. Lipparini, F. Egidi, J. Goings, B. Peng, A. Petrone, 
 T. Henderson, D. Ranasinghe, V. G. Zakrzewski, J. Gao, N. Rega, 
 G. Zheng, W. Liang, M. Hada, M. Ehara, K. Toyota, R. Fukuda, 
 J. Hasegawa, M. Ishida, T. Nakajima, Y. Honda, O. Kitao, H. Nakai, 
 T. Vreven, K. Throssell, J. A. Montgomery, Jr., J. E. Peralta, 
 F. Ogliaro, M. J. Bearpark, J. J. Heyd, E. N. Brothers, K. N. Kudin, 
 V. N. Staroverov, T. A. Keith, R. Kobayashi, J. Normand, 
 K. Raghavachari, A. P. Rendell, J. C. Burant, S. S. Iyengar, 
 J. Tomasi, M. Cossi, J. M. Millam, M. Klene, C. Adamo, R. Cammi, 
 J. W. Ochterski, R. L. Martin, K. Morokuma, O. Farkas, 
 J. B. Foresman, and D. J. Fox, Gaussian, Inc., Wallingford CT, 2019.
 
 ******************************************
 Gaussian 16:  ES64L-G16RevC.01  3-Jul-2019
                 7-Dec-2024 
 ******************************************
 Default route: SCF=Direct
 ----------------------------------------------------
 # m06/genecp scf=tight int=ultrafine 5d freq=noraman
 ----------------------------------------------------
 1/10=4,30=1,38=1/1,3;
 2/12=2,17=6,18=5,40=1/2;
 3/5=7,8=1,11=2,16=1,17=8,25=1,30=1,71=2,74=-54,75=-5,140=1/1,2,3;
 4//1;
 5/5=2,32=2,38=5,98=1/2;
 8/6=4,10=90,11=11/1;
 11/6=1,8=1,9=11,15=111,16=1/1,2,10;
 10/6=1/2;
 6/7=2,8=2,9=2,10=2,28=1/1;
 7/8=1,10=1,25=1/1,2,3,16;
 1/10=4,30=1/3;
 99//99;
 ------
 OPT-TS
 ------
 Symbolic Z-matrix:
 Charge =  0 Multiplicity = 1
 C                     1.50849  -1.82155  -0.00131 
 C                     0.09294  -1.40121   1.78324 
 C                     0.67437  -2.40624   2.54347 
 C                     1.71539  -3.149     1.99424 
 C                     2.13762  -2.84588   0.70822 
 C                     1.86155  -1.51131  -1.3984 
 C                     1.14257  -0.60166  -3.39598 
 C                     2.30762  -0.97663  -4.05185 
 C                     3.29503  -1.6282   -3.32182 
 C                     3.06609  -1.90758  -1.98265 
 H                    -0.74637  -0.80778   2.1505 
 H                     2.18373  -3.9585    2.55154 
 H                     2.92988  -3.42763   0.24055 
 H                     0.33674  -0.08494  -3.91443 
 H                     4.2325   -1.92104  -3.79044 
 H                     3.82589  -2.41668  -1.39281 
 N                     0.49154  -1.10875   0.53427 
 N                     0.93009  -0.83931  -2.10002 
 Ir                   -0.75577   0.07501  -0.84786 
 O                    -2.30389   0.58156   1.71809 
 O                    -1.64748  -2.76035  -0.63552 
 O                     0.81208   1.95047  -0.80207 
 B                    -2.06216  -1.42977  -0.82544 
 B                    -2.15394   0.89084   0.34309 
 B                     1.53954   2.35106   0.37989 
 O                     2.18219   3.58237   0.09835 
 O                    -3.0865    1.8724    0.00955 
 C                    -3.70135   2.3679    1.19754 
 C                    -3.51202   1.18771   2.19327 
 C                     0.72853   3.11931  -1.63991 
 C                     2.07648   3.81087  -1.30111 
 C                    -2.80271  -3.53376  -0.30202 
 C                    -3.93944  -2.73341  -0.99331 
 O                    -3.45751  -1.38932  -0.90501 
 C                    -3.32119   1.59508   3.64141 
 H                    -3.19237   0.69971   4.26495 
 H                    -2.43364   2.2276    3.76832 
 H                    -4.19705   2.14328   4.01773 
 C                    -4.6129    0.14115   2.0818 
 H                    -4.32134  -0.74183   2.66855 
 H                    -5.57391   0.50568   2.46977 
 H                    -4.73719  -0.17345   1.03676 
 C                    -2.94983   3.62847   1.61149 
 H                    -1.89849   3.41034   1.84422 
 H                    -2.96255   4.33508   0.77161 
 H                    -3.40863   4.11753   2.48206 
 C                    -5.14648   2.71989   0.89802 
 H                    -5.18061   3.55976   0.19235 
 H                    -5.67739   1.87837   0.44072 
 H                    -5.67835   3.02189   1.81248 
 C                    -2.6223   -4.95346  -0.80121 
 H                    -2.37787  -4.97663  -1.8689 
 H                    -1.79973  -5.43645  -0.25722 
 H                    -3.53301  -5.54766  -0.63603 
 C                    -2.91725  -3.52749   1.21901 
 H                    -3.74416  -4.15525   1.57901 
 H                    -1.97965  -3.91536   1.64075 
 H                    -3.0584   -2.503     1.59379 
 C                    -4.08191  -3.06815  -2.4735 
 H                    -4.7332   -2.31882  -2.94018 
 H                    -3.10913  -3.03048  -2.98047 
 H                    -4.52519  -4.06096  -2.63231 
 C                    -5.29257  -2.83101  -0.3162 
 H                    -6.02054  -2.21113  -0.85589 
 H                    -5.6588   -3.86823  -0.32231 
 H                    -5.25695  -2.48081   0.72166 
 C                     3.25977   3.14699  -2.00282 
 H                     4.18481   3.48708  -1.51945 
 H                     3.21338   2.0523   -1.91711 
 H                     3.3091    3.41435  -3.06768 
 C                     2.10082   5.30628  -1.55248 
 H                     1.35326   5.82411  -0.94152 
 H                     3.08813   5.70865  -1.28967 
 H                     1.91219   5.53548  -2.61103 
 C                    -0.48242   3.93194  -1.19859 
 H                    -0.35016   4.31173  -0.17543 
 H                    -0.65924   4.78874  -1.86363 
 H                    -1.37144   3.28656  -1.21083 
 C                     0.57435   2.723    -3.09255 
 H                    -0.39581   2.22997  -3.24055 
 H                     0.60824   3.61671  -3.7325 
 H                     1.36781   2.03773  -3.41387 
 H                    -1.6926    0.7347   -1.97888 
 C                     2.63909   0.8516    1.86821 
 O                     2.68296   1.20616   0.65196 
 C                     3.65147  -0.10478   2.41659 
 H                     4.13892   0.35683   3.29041 
 H                     3.11289  -0.98577   2.8042 
 C                     0.81421   2.2747    1.83715 
 H                    -0.20445   1.85764   1.81758 
 H                     0.79226   3.25326   2.3403 
 N                     1.66761   1.3666    2.60883 
 C                     1.37581   1.07239   3.98991 
 H                     2.05091   0.31049   4.39163 
 H                     1.46586   1.98352   4.59652 
 H                     0.34168   0.70729   4.06988 
 C                     4.69027  -0.54512   1.39901 
 H                     4.17565  -0.92984   0.5053 
 H                     5.2683    0.32484   1.05359 
 C                     5.61751  -1.61023   1.96 
 H                     6.16885  -1.21048   2.82886 
 H                     5.01784  -2.45284   2.35024 
 C                     6.60549  -2.13585   0.92991 
 H                     6.04443  -2.55493   0.07698 
 H                     7.18614  -1.29413   0.52 
 C                     7.54252  -3.1874    1.49891 
 H                     6.98088  -4.04716   1.89043 
 H                     8.24381  -3.56379   0.74443 
 H                     8.13496  -2.77876   2.32917 
 H                     2.4352   -0.75362  -5.1082 
 H                     0.29741  -2.60997   3.54377 
 

 GradGradGradGradGradGradGradGradGradGradGradGradGradGradGradGradGradGrad
 Berny optimization.
 Initialization pass.
 Trust Radius=3.00D-01 FncErr=1.00D-07 GrdErr=1.00D-07 EigMax=2.50D+02 EigMin=1.00D-04
 Number of steps in this run=      2 maximum allowed number of steps=      2.
 GradGradGradGradGradGradGradGradGradGradGradGradGradGradGradGradGradGrad

 Stoichiometry    C36H61B3IrN3O7
 Framework group  C1[X(C36H61B3IrN3O7)]
 Deg. of freedom   327
 Full point group                 C1      NOp   1
 Largest Abelian subgroup         C1      NOp   1
 Largest concise Abelian subgroup C1      NOp   1
                         Standard orientation:                         
 ---------------------------------------------------------------------
 Center     Atomic      Atomic             Coordinates (Angstroms)
 Number     Number       Type             X           Y           Z
 ---------------------------------------------------------------------
      1          6           0        1.508492   -1.821549   -0.001311
      2          6           0        0.092942   -1.401210    1.783239
      3          6           0        0.674372   -2.406240    2.543469
      4          6           0        1.715392   -3.148999    1.994239
      5          6           0        2.137622   -2.845879    0.708219
      6          6           0        1.861552   -1.511309   -1.398401
      7          6           0        1.142571   -0.601659   -3.395981
      8          6           0        2.307621   -0.976629   -4.051851
      9          6           0        3.295032   -1.628199   -3.321821
     10          6           0        3.066092   -1.907579   -1.982651
     11          1           0       -0.746369   -0.807780    2.150499
     12          1           0        2.183733   -3.958499    2.551539
     13          1           0        2.929882   -3.427629    0.240549
     14          1           0        0.336741   -0.084940   -3.914431
     15          1           0        4.232502   -1.921038   -3.790441
     16          1           0        3.825892   -2.416678   -1.392811
     17          7           0        0.491542   -1.108750    0.534269
     18          7           0        0.930091   -0.839310   -2.100021
     19         77           0       -0.755769    0.075010   -0.847861
     20          8           0       -2.303889    0.581559    1.718089
     21          8           0       -1.647478   -2.760351   -0.635521
     22          8           0        0.812080    1.950470   -0.802071
     23          5           0       -2.062158   -1.429771   -0.825441
     24          5           0       -2.153939    0.890839    0.343089
     25          5           0        1.539540    2.351061    0.379889
     26          8           0        2.182190    3.582371    0.098349
     27          8           0       -3.086500    1.872399    0.009549
     28          6           0       -3.701350    2.367898    1.197539
     29          6           0       -3.512019    1.187709    2.193269
     30          6           0        0.728530    3.119310   -1.639911
     31          6           0        2.076479    3.810871   -1.301111
     32          6           0       -2.802707   -3.533761   -0.302021
     33          6           0       -3.939438   -2.733412   -0.993311
     34          8           0       -3.457508   -1.389321   -0.905011
     35          6           0       -3.321190    1.595079    3.641409
     36          1           0       -3.192369    0.699709    4.264949
     37          1           0       -2.433640    2.227599    3.768319
     38          1           0       -4.197050    2.143278    4.017729
     39          6           0       -4.612899    0.141148    2.081799
     40          1           0       -4.321339   -0.741832    2.668549
     41          1           0       -5.573909    0.505678    2.469769
     42          1           0       -4.737189   -0.173452    1.036759
     43          6           0       -2.949831    3.628469    1.611489
     44          1           0       -1.898490    3.410339    1.844219
     45          1           0       -2.962551    4.335079    0.771609
     46          1           0       -3.408631    4.117529    2.482059
     47          6           0       -5.146480    2.719888    0.898019
     48          1           0       -5.180610    3.559758    0.192349
     49          1           0       -5.677390    1.878368    0.440719
     50          1           0       -5.678350    3.021888    1.812479
     51          6           0       -2.622297   -4.953461   -0.801211
     52          1           0       -2.377867   -4.976631   -1.868901
     53          1           0       -1.799727   -5.436451   -0.257221
     54          1           0       -3.533007   -5.547661   -0.636031
     55          6           0       -2.917247   -3.527491    1.219009
     56          1           0       -3.744157   -4.155252    1.579009
     57          1           0       -1.979647   -3.915361    1.640749
     58          1           0       -3.058398   -2.503001    1.593789
     59          6           0       -4.081908   -3.068152   -2.473501
     60          1           0       -4.733198   -2.318822   -2.940181
     61          1           0       -3.109128   -3.030481   -2.980471
     62          1           0       -4.525187   -4.060962   -2.632311
     63          6           0       -5.292568   -2.831012   -0.316201
     64          1           0       -6.020538   -2.211133   -0.855891
     65          1           0       -5.658797   -3.868232   -0.322311
     66          1           0       -5.256948   -2.480812    0.721659
     67          6           0        3.259770    3.146991   -2.002821
     68          1           0        4.184810    3.487082   -1.519451
     69          1           0        3.213380    2.052301   -1.917111
     70          1           0        3.309100    3.414351   -3.067681
     71          6           0        2.100819    5.306281   -1.552481
     72          1           0        1.353259    5.824111   -0.941521
     73          1           0        3.088129    5.708651   -1.289671
     74          1           0        1.912189    5.535481   -2.611031
     75          6           0       -0.482421    3.931940   -1.198591
     76          1           0       -0.350161    4.311730   -0.175431
     77          1           0       -0.659241    4.788740   -1.863631
     78          1           0       -1.371440    3.286559   -1.210831
     79          6           0        0.574350    2.723000   -3.092551
     80          1           0       -0.395810    2.229970   -3.240551
     81          1           0        0.608239    3.616710   -3.732501
     82          1           0        1.367810    2.037731   -3.413871
     83          1           0       -1.692599    0.734699   -1.978881
     84          6           0        2.639091    0.851601    1.868209
     85          8           0        2.682961    1.206161    0.651959
     86          6           0        3.651471   -0.104778    2.416589
     87          1           0        4.138921    0.356832    3.290409
     88          1           0        3.112891   -0.985769    2.804199
     89          6           0        0.814210    2.274700    1.837149
     90          1           0       -0.204450    1.857640    1.817579
     91          1           0        0.792260    3.253260    2.340299
     92          7           0        1.667610    1.366601    2.608829
     93          6           0        1.375811    1.072391    3.989909
     94          1           0        2.050911    0.310491    4.391629
     95          1           0        1.465860    1.983521    4.596519
     96          1           0        0.341681    0.707290    4.069879
     97          6           0        4.690271   -0.545118    1.399009
     98          1           0        4.175651   -0.929838    0.505299
     99          1           0        5.268301    0.324842    1.053589
    100          6           0        5.617512   -1.610228    1.959999
    101          1           0        6.168852   -1.210477    2.828859
    102          1           0        5.017842   -2.452838    2.350239
    103          6           0        6.605492   -2.135847    0.929909
    104          1           0        6.044432   -2.554927    0.076979
    105          1           0        7.186142   -1.294127    0.519999
    106          6           0        7.542522   -3.187397    1.498909
    107          1           0        6.980883   -4.047157    1.890429
    108          1           0        8.243813   -3.563786    0.744429
    109          1           0        8.134962   -2.778756    2.329169
    110          1           0        2.435201   -0.753619   -5.108201
    111          1           0        0.297412   -2.609970    3.543769
 ---------------------------------------------------------------------
 Rotational constants (GHZ):           0.0731895           0.0530769           0.0452360
 General basis read from cards:  (5D, 7F)
 ======================================================================================================
                                       Pseudopotential Parameters
 ======================================================================================================
  Center     Atomic      Valence      Angular      Power
  Number     Number     Electrons     Momentum     of R      Exponent        Coefficient   SO-Coeffient
 ======================================================================================================
    1          6
                                   No pseudopotential on this center.
    2          6
                                   No pseudopotential on this center.
    3          6
                                   No pseudopotential on this center.
    4          6
                                   No pseudopotential on this center.
    5          6
                                   No pseudopotential on this center.
    6          6
                                   No pseudopotential on this center.
    7          6
                                   No pseudopotential on this center.
    8          6
                                   No pseudopotential on this center.
    9          6
                                   No pseudopotential on this center.
   10          6
                                   No pseudopotential on this center.
   11          1
                                   No pseudopotential on this center.
   12          1
                                   No pseudopotential on this center.
   13          1
                                   No pseudopotential on this center.
   14          1
                                   No pseudopotential on this center.
   15          1
                                   No pseudopotential on this center.
   16          1
                                   No pseudopotential on this center.
   17          7
                                   No pseudopotential on this center.
   18          7
                                   No pseudopotential on this center.
   19         77           17
                                      G and up 
                                                     1      823.5880147       -0.15780140    0.00000000
                                                     2      364.6613336    -1517.52704460    0.00000000
                                                     2       55.7082801     -316.53065290    0.00000000
                                                     2       12.0464544      -91.88809410    0.00000000
                                                     2        3.5120610       -9.22417730    0.00000000
                                      S - G
                                                     0      188.0490770        3.15780140    0.00000000
                                                     1      340.4194712       26.83225770    0.00000000
                                                     2      128.2373673      800.42500070    0.00000000
                                                     2       33.8644961      369.40506830    0.00000000
                                                     2        4.7560005      242.41718990    0.00000000
                                                     2        3.9649974     -118.21732820    0.00000000
                                      P - G
                                                     0      289.7291139        2.15780140    0.00000000
                                                     1       87.4633789       61.96786100    0.00000000
                                                     2       30.4363766      269.05819860    0.00000000
                                                     2        4.0553412      231.16547930    0.00000000
                                                     2        3.5525341     -133.69526670    0.00000000
                                      D - G
                                                     0      136.4017106        3.15780140    0.00000000
                                                     1       95.0776925       45.93498030    0.00000000
                                                     2       49.2258410      359.03446680    0.00000000
                                                     2       15.0874145      176.47401190    0.00000000
                                                     2        4.0405764       54.51552860    0.00000000
                                      F - G
                                                     0      127.3507908        3.95461970    0.00000000
                                                     1       66.2364374       52.97736550    0.00000000
                                                     2       34.4299229      274.86433830    0.00000000
                                                     2       10.1995721      137.20473380    0.00000000
                                                     2        2.5409702       14.86333050    0.00000000
   20          8
                                   No pseudopotential on this center.
   21          8
                                   No pseudopotential on this center.
   22          8
                                   No pseudopotential on this center.
   23          5
                                   No pseudopotential on this center.
   24          5
                                   No pseudopotential on this center.
   25          5
                                   No pseudopotential on this center.
   26          8
                                   No pseudopotential on this center.
   27          8
                                   No pseudopotential on this center.
   28          6
                                   No pseudopotential on this center.
   29          6
                                   No pseudopotential on this center.
   30          6
                                   No pseudopotential on this center.
   31          6
                                   No pseudopotential on this center.
   32          6
                                   No pseudopotential on this center.
   33          6
                                   No pseudopotential on this center.
   34          8
                                   No pseudopotential on this center.
   35          6
                                   No pseudopotential on this center.
   36          1
                                   No pseudopotential on this center.
   37          1
                                   No pseudopotential on this center.
   38          1
                                   No pseudopotential on this center.
   39          6
                                   No pseudopotential on this center.
   40          1
                                   No pseudopotential on this center.
   41          1
                                   No pseudopotential on this center.
   42          1
                                   No pseudopotential on this center.
   43          6
                                   No pseudopotential on this center.
   44          1
                                   No pseudopotential on this center.
   45          1
                                   No pseudopotential on this center.
   46          1
                                   No pseudopotential on this center.
   47          6
                                   No pseudopotential on this center.
   48          1
                                   No pseudopotential on this center.
   49          1
                                   No pseudopotential on this center.
   50          1
                                   No pseudopotential on this center.
   51          6
                                   No pseudopotential on this center.
   52          1
                                   No pseudopotential on this center.
   53          1
                                   No pseudopotential on this center.
   54          1
                                   No pseudopotential on this center.
   55          6
                                   No pseudopotential on this center.
   56          1
                                   No pseudopotential on this center.
   57          1
                                   No pseudopotential on this center.
   58          1
                                   No pseudopotential on this center.
   59          6
                                   No pseudopotential on this center.
   60          1
                                   No pseudopotential on this center.
   61          1
                                   No pseudopotential on this center.
   62          1
                                   No pseudopotential on this center.
   63          6
                                   No pseudopotential on this center.
   64          1
                                   No pseudopotential on this center.
   65          1
                                   No pseudopotential on this center.
   66          1
                                   No pseudopotential on this center.
   67          6
                                   No pseudopotential on this center.
   68          1
                                   No pseudopotential on this center.
   69          1
                                   No pseudopotential on this center.
   70          1
                                   No pseudopotential on this center.
   71          6
                                   No pseudopotential on this center.
   72          1
                                   No pseudopotential on this center.
   73          1
                                   No pseudopotential on this center.
   74          1
                                   No pseudopotential on this center.
   75          6
                                   No pseudopotential on this center.
   76          1
                                   No pseudopotential on this center.
   77          1
                                   No pseudopotential on this center.
   78          1
                                   No pseudopotential on this center.
   79          6
                                   No pseudopotential on this center.
   80          1
                                   No pseudopotential on this center.
   81          1
                                   No pseudopotential on this center.
   82          1
                                   No pseudopotential on this center.
   83          1
                                   No pseudopotential on this center.
   84          6
                                   No pseudopotential on this center.
   85          8
                                   No pseudopotential on this center.
   86          6
                                   No pseudopotential on this center.
   87          1
                                   No pseudopotential on this center.
   88          1
                                   No pseudopotential on this center.
   89          6
                                   No pseudopotential on this center.
   90          1
                                   No pseudopotential on this center.
   91          1
                                   No pseudopotential on this center.
   92          7
                                   No pseudopotential on this center.
   93          6
                                   No pseudopotential on this center.
   94          1
                                   No pseudopotential on this center.
   95          1
                                   No pseudopotential on this center.
   96          1
                                   No pseudopotential on this center.
   97          6
                                   No pseudopotential on this center.
   98          1
                                   No pseudopotential on this center.
   99          1
                                   No pseudopotential on this center.
  100          6
                                   No pseudopotential on this center.
  101          1
                                   No pseudopotential on this center.
  102          1
                                   No pseudopotential on this center.
  103          6
                                   No pseudopotential on this center.
  104          1
                                   No pseudopotential on this center.
  105          1
                                   No pseudopotential on this center.
  106          6
                                   No pseudopotential on this center.
  107          1
                                   No pseudopotential on this center.
  108          1
                                   No pseudopotential on this center.
  109          1
                                   No pseudopotential on this center.
  110          1
                                   No pseudopotential on this center.
  111          1
                                   No pseudopotential on this center.
 ======================================================================================================
 There are   881 symmetry adapted cartesian basis functions of A   symmetry.
 There are   830 symmetry adapted basis functions of A   symmetry.
   830 basis functions,  1659 primitive gaussians,   881 cartesian basis functions
   193 alpha electrons      193 beta electrons
       nuclear repulsion energy      8202.3458444407 Hartrees.
 NAtoms=  111 NActive=  111 NUniq=  111 SFac= 1.00D+00 NAtFMM=   60 NAOKFM=T Big=T
 Integral buffers will be    131072 words long.
 Raffenetti 2 integral format.
 Two-electron integral symmetry is turned on.
 One-electron integrals computed using PRISM.
   1 Symmetry operations used in ECPInt.
 ECPInt:  NShTT=   53301 NPrTT=  320676 LenC2=   40820 LenP2D=  125380.
 LDataN:  DoStor=T MaxTD1= 6 Len=  172
 NBasis=   830 RedAO= T EigKep=  5.97D-04  NBF=   830
 NBsUse=   830 1.00D-06 EigRej= -1.00D+00 NBFU=   830
 Defaulting to unpruned grid for atomic number  77.
 ExpMin= 2.90D-02 ExpMax= 5.48D+03 ExpMxC= 8.25D+02 IAcc=3 IRadAn=         5 AccDes= 0.00D+00
 Harris functional with IExCor= 1009 and IRadAn=       5 diagonalized for initial guess.
 HarFok:  IExCor= 1009 AccDes= 0.00D+00 IRadAn=         5 IDoV= 1 UseB2=F ITyADJ=14
 ICtDFT=  3500011 ScaDFX=  1.000000  1.000000  1.000000  1.000000
 Defaulting to unpruned grid for atomic number  77.
 FoFCou: FMM=F IPFlag=           0 FMFlag=      100000 FMFlg1=        2001
         NFxFlg=           0 DoJE=T BraDBF=F KetDBF=T FulRan=T
         wScrn=  0.000000 ICntrl=       500 IOpCl=  0 I1Cent=   200000004 NGrid=           0
         NMat0=    1 NMatS0=      1 NMatT0=    0 NMatD0=    1 NMtDS0=    0 NMtDT0=    0
 Petite list used in FoFCou.
 Requested convergence on RMS density matrix=1.00D-08 within 128 cycles.
 Requested convergence on MAX density matrix=1.00D-06.
 Requested convergence on             energy=1.00D-06.
 No special actions if energy rises.
 Defaulting to unpruned grid for atomic number  77.
 Defaulting to unpruned grid for atomic number  77.
 Defaulting to unpruned grid for atomic number  77.
 Defaulting to unpruned grid for atomic number  77.
 Defaulting to unpruned grid for atomic number  77.
 Defaulting to unpruned grid for atomic number  77.
 Defaulting to unpruned grid for atomic number  77.
 Defaulting to unpruned grid for atomic number  77.
 Defaulting to unpruned grid for atomic number  77.
 Defaulting to unpruned grid for atomic number  77.
 Defaulting to unpruned grid for atomic number  77.
 Defaulting to unpruned grid for atomic number  77.
 Defaulting to unpruned grid for atomic number  77.
 Defaulting to unpruned grid for atomic number  77.
 Defaulting to unpruned grid for atomic number  77.
 Defaulting to unpruned grid for atomic number  77.
 SCF Done:  E(RM06) =  -2277.54975065     A.U. after   16 cycles
            NFock= 16  Conv=0.88D-08     -V/T= 2.0390
 DoSCS=F DFT=T ScalE2(SS,OS)=  1.000000  1.000000
 Range of M.O.s used for correlation:     1   830
 NBasis=   830 NAE=   193 NBE=   193 NFC=     0 NFV=     0
 NROrb=    830 NOA=   193 NOB=   193 NVA=   637 NVB=   637
   1 Symmetry operations used in ECPInt.
 ECPInt:  NShTT=   53301 NPrTT=  320676 LenC2=   40820 LenP2D=  125380.
 LDataN:  DoStor=T MaxTD1= 7 Len=  274
 Number of processors reduced to   8 by ecpmxn.
 Symmetrizing basis deriv contribution to polar:
 IMax=3 JMax=2 DiffMx= 0.00D+00
 G2DrvN: will do   112 centers at a time, making    1 passes.
 Calling FoFCou, ICntrl=  3107 FMM=T I1Cent=   0 AccDes= 0.00D+00.
 Defaulting to unpruned grid for atomic number  77.
 Defaulting to unpruned grid for atomic number  77.
 Defaulting to unpruned grid for atomic number  77.
 Defaulting to unpruned grid for atomic number  77.
 Defaulting to unpruned grid for atomic number  77.
 Defaulting to unpruned grid for atomic number  77.
 Defaulting to unpruned grid for atomic number  77.
 Defaulting to unpruned grid for atomic number  77.
 Defaulting to unpruned grid for atomic number  77.
 Defaulting to unpruned grid for atomic number  77.
 Defaulting to unpruned grid for atomic number  77.
 Defaulting to unpruned grid for atomic number  77.
 Defaulting to unpruned grid for atomic number  77.
 Defaulting to unpruned grid for atomic number  77.
 Defaulting to unpruned grid for atomic number  77.
 Defaulting to unpruned grid for atomic number  77.
 End of G2Drv F.D. properties file   721 does not exist.
 End of G2Drv F.D. properties file   722 does not exist.
 End of G2Drv F.D. properties file   788 does not exist.
          IDoAtm=11111111111111111111111111111111111111111111111111
          IDoAtm=11111111111111111111111111111111111111111111111111
          IDoAtm=11111111111
          Differentiating once with respect to electric field.
                with respect to dipole field.
          Differentiating once with respect to nuclear coordinates.
 Defaulting to unpruned grid for atomic number  77.
 CalDSu exits because no D1Ps are significant.
 Defaulting to unpruned grid for atomic number  77.
 Defaulting to unpruned grid for atomic number  77.
 Defaulting to unpruned grid for atomic number  77.
 Defaulting to unpruned grid for atomic number  77.
 Defaulting to unpruned grid for atomic number  77.
 Defaulting to unpruned grid for atomic number  77.
 Defaulting to unpruned grid for atomic number  77.
 Defaulting to unpruned grid for atomic number  77.
 Defaulting to unpruned grid for atomic number  77.
 Defaulting to unpruned grid for atomic number  77.
 Defaulting to unpruned grid for atomic number  77.
 Defaulting to unpruned grid for atomic number  77.
 Defaulting to unpruned grid for atomic number  77.
 Defaulting to unpruned grid for atomic number  77.
 Defaulting to unpruned grid for atomic number  77.
 Defaulting to unpruned grid for atomic number  77.
          There are   336 degrees of freedom in the 1st order CPHF.  IDoFFX=6 NUNeed=     3.
    333 vectors produced by pass  0 Test12= 1.23D-13 1.00D-09 XBig12= 4.73D+02 9.19D+00.
 AX will form    72 AO Fock derivatives at one time.
    333 vectors produced by pass  1 Test12= 1.23D-13 1.00D-09 XBig12= 7.24D+01 1.29D+00.
    333 vectors produced by pass  2 Test12= 1.23D-13 1.00D-09 XBig12= 1.04D+00 1.24D-01.
    333 vectors produced by pass  3 Test12= 1.23D-13 1.00D-09 XBig12= 7.57D-03 1.31D-02.
    333 vectors produced by pass  4 Test12= 1.23D-13 1.00D-09 XBig12= 2.21D-05 3.83D-04.
    291 vectors produced by pass  5 Test12= 1.23D-13 1.00D-09 XBig12= 4.07D-08 1.63D-05.
     72 vectors produced by pass  6 Test12= 1.23D-13 1.00D-09 XBig12= 6.07D-11 5.37D-07.
      3 vectors produced by pass  7 Test12= 1.23D-13 1.00D-09 XBig12= 8.55D-14 2.18D-08.
 InvSVY:  IOpt=1 It=  1 EMax= 9.81D-15
 Solved reduced A of dimension  2031 with   336 vectors.
 Isotropic polarizability for W=    0.000000      492.08 Bohr**3.
 End of Minotr F.D. properties file   721 does not exist.
 End of Minotr F.D. properties file   722 does not exist.
 End of Minotr F.D. properties file   788 does not exist.
 Hyperfine terms turned off by default for NAtoms > 100.

 **********************************************************************

            Population analysis using the SCF Density.

 **********************************************************************

 Orbital symmetries:
       Occupied  (A) (A) (A) (A) (A) (A) (A) (A) (A) (A) (A) (A)
                 (A) (A) (A) (A) (A) (A) (A) (A) (A) (A) (A) (A)
                 (A) (A) (A) (A) (A) (A) (A) (A) (A) (A) (A) (A)
                 (A) (A) (A) (A) (A) (A) (A) (A) (A) (A) (A) (A)
                 (A) (A) (A) (A) (A) (A) (A) (A) (A) (A) (A) (A)
                 (A) (A) (A) (A) (A) (A) (A) (A) (A) (A) (A) (A)
                 (A) (A) (A) (A) (A) (A) (A) (A) (A) (A) (A) (A)
                 (A) (A) (A) (A) (A) (A) (A) (A) (A) (A) (A) (A)
                 (A) (A) (A) (A) (A) (A) (A) (A) (A) (A) (A) (A)
                 (A) (A) (A) (A) (A) (A) (A) (A) (A) (A) (A) (A)
                 (A) (A) (A) (A) (A) (A) (A) (A) (A) (A) (A) (A)
                 (A) (A) (A) (A) (A) (A) (A) (A) (A) (A) (A) (A)
                 (A) (A) (A) (A) (A) (A) (A) (A) (A) (A) (A) (A)
                 (A) (A) (A) (A) (A) (A) (A) (A) (A) (A) (A) (A)
                 (A) (A) (A) (A) (A) (A) (A) (A) (A) (A) (A) (A)
                 (A) (A) (A) (A) (A) (A) (A) (A) (A) (A) (A) (A)
                 (A)
       Virtual   (A) (A) (A) (A) (A) (A) (A) (A) (A) (A) (A) (A)
                 (A) (A) (A) (A) (A) (A) (A) (A) (A) (A) (A) (A)
                 (A) (A) (A) (A) (A) (A) (A) (A) (A) (A) (A) (A)
                 (A) (A) (A) (A) (A) (A) (A) (A) (A) (A) (A) (A)
                 (A) (A) (A) (A) (A) (A) (A) (A) (A) (A) (A) (A)
                 (A) (A) (A) (A) (A) (A) (A) (A) (A) (A) (A) (A)
                 (A) (A) (A) (A) (A) (A) (A) (A) (A) (A) (A) (A)
                 (A) (A) (A) (A) (A) (A) (A) (A) (A) (A) (A) (A)
                 (A) (A) (A) (A) (A) (A) (A) (A) (A) (A) (A) (A)
                 (A) (A) (A) (A) (A) (A) (A) (A) (A) (A) (A) (A)
                 (A) (A) (A) (A) (A) (A) (A) (A) (A) (A) (A) (A)
                 (A) (A) (A) (A) (A) (A) (A) (A) (A) (A) (A) (A)
                 (A) (A) (A) (A) (A) (A) (A) (A) (A) (A) (A) (A)
                 (A) (A) (A) (A) (A) (A) (A) (A) (A) (A) (A) (A)
                 (A) (A) (A) (A) (A) (A) (A) (A) (A) (A) (A) (A)
                 (A) (A) (A) (A) (A) (A) (A) (A) (A) (A) (A) (A)
                 (A) (A) (A) (A) (A) (A) (A) (A) (A) (A) (A) (A)
                 (A) (A) (A) (A) (A) (A) (A) (A) (A) (A) (A) (A)
                 (A) (A) (A) (A) (A) (A) (A) (A) (A) (A) (A) (A)
                 (A) (A) (A) (A) (A) (A) (A) (A) (A) (A) (A) (A)
                 (A) (A) (A) (A) (A) (A) (A) (A) (A) (A) (A) (A)
                 (A) (A) (A) (A) (A) (A) (A) (A) (A) (A) (A) (A)
                 (A) (A) (A) (A) (A) (A) (A) (A) (A) (A) (A) (A)
                 (A) (A) (A) (A) (A) (A) (A) (A) (A) (A) (A) (A)
                 (A) (A) (A) (A) (A) (A) (A) (A) (A) (A) (A) (A)
                 (A) (A) (A) (A) (A) (A) (A) (A) (A) (A) (A) (A)
                 (A) (A) (A) (A) (A) (A) (A) (A) (A) (A) (A) (A)
                 (A) (A) (A) (A) (A) (A) (A) (A) (A) (A) (A) (A)
                 (A) (A) (A) (A) (A) (A) (A) (A) (A) (A) (A) (A)
                 (A) (A) (A) (A) (A) (A) (A) (A) (A) (A) (A) (A)
                 (A) (A) (A) (A) (A) (A) (A) (A) (A) (A) (A) (A)
                 (A) (A) (A) (A) (A) (A) (A) (A) (A) (A) (A) (A)
                 (A) (A) (A) (A) (A) (A) (A) (A) (A) (A) (A) (A)
                 (A) (A) (A) (A) (A) (A) (A) (A) (A) (A) (A) (A)
                 (A) (A) (A) (A) (A) (A) (A) (A) (A) (A) (A) (A)
                 (A) (A) (A) (A) (A) (A) (A) (A) (A) (A) (A) (A)
                 (A) (A) (A) (A) (A) (A) (A) (A) (A) (A) (A) (A)
                 (A) (A) (A) (A) (A) (A) (A) (A) (A) (A) (A) (A)
                 (A) (A) (A) (A) (A) (A) (A) (A) (A) (A) (A) (A)
                 (A) (A) (A) (A) (A) (A) (A) (A) (A) (A) (A) (A)
                 (A) (A) (A) (A) (A) (A) (A) (A) (A) (A) (A) (A)
                 (A) (A) (A) (A) (A) (A) (A) (A) (A) (A) (A) (A)
                 (A) (A) (A) (A) (A) (A) (A) (A) (A) (A) (A) (A)
                 (A) (A) (A) (A) (A) (A) (A) (A) (A) (A) (A) (A)
                 (A) (A) (A) (A) (A) (A) (A) (A) (A) (A) (A) (A)
                 (A) (A) (A) (A) (A) (A) (A) (A) (A) (A) (A) (A)
                 (A) (A) (A) (A) (A) (A) (A) (A) (A) (A) (A) (A)
                 (A) (A) (A) (A) (A) (A) (A) (A) (A) (A) (A) (A)
                 (A) (A) (A) (A) (A) (A) (A) (A) (A) (A) (A) (A)
                 (A) (A) (A) (A) (A) (A) (A) (A) (A) (A) (A) (A)
                 (A) (A) (A) (A) (A) (A) (A) (A) (A) (A) (A) (A)
                 (A) (A) (A) (A) (A) (A) (A) (A) (A) (A) (A) (A)
                 (A) (A) (A) (A) (A) (A) (A) (A) (A) (A) (A) (A)
                 (A)
 The electronic state is 1-A.
 Alpha  occ. eigenvalues --  -19.24845 -19.19200 -19.19007 -19.18399 -19.18266
 Alpha  occ. eigenvalues --  -19.17992 -19.17262 -14.45790 -14.44146 -14.43344
 Alpha  occ. eigenvalues --  -10.38246 -10.31163 -10.31101 -10.29975 -10.29751
 Alpha  occ. eigenvalues --  -10.29213 -10.28375 -10.28338 -10.28157 -10.27957
 Alpha  occ. eigenvalues --  -10.27926 -10.27817 -10.27801 -10.27796 -10.27788
 Alpha  occ. eigenvalues --  -10.27692 -10.27617 -10.27315 -10.27180 -10.25865
 Alpha  occ. eigenvalues --  -10.25699 -10.25553 -10.24465 -10.23661 -10.22407
 Alpha  occ. eigenvalues --  -10.21902 -10.21610 -10.21566 -10.21352 -10.21347
 Alpha  occ. eigenvalues --  -10.21304 -10.21181 -10.21121 -10.21039 -10.21006
 Alpha  occ. eigenvalues --  -10.19987  -6.80812  -6.77369  -6.76974  -3.58776
 Alpha  occ. eigenvalues --   -2.01322  -2.00643  -2.00127  -1.10971  -1.04425
 Alpha  occ. eigenvalues --   -1.04297  -1.04092  -0.99019  -0.97462  -0.97402
 Alpha  occ. eigenvalues --   -0.97360  -0.97346  -0.96513  -0.84180  -0.83667
 Alpha  occ. eigenvalues --   -0.82929  -0.82025  -0.79984  -0.79150  -0.79016
 Alpha  occ. eigenvalues --   -0.78663  -0.76694  -0.74890  -0.73722  -0.73622
 Alpha  occ. eigenvalues --   -0.73604  -0.73212  -0.69453  -0.69229  -0.68782
 Alpha  occ. eigenvalues --   -0.68642  -0.68215  -0.67228  -0.66609  -0.66536
 Alpha  occ. eigenvalues --   -0.66096  -0.63978  -0.63069  -0.62765  -0.60630
 Alpha  occ. eigenvalues --   -0.60435  -0.60077  -0.59893  -0.57529  -0.56805
 Alpha  occ. eigenvalues --   -0.55829  -0.53634  -0.53136  -0.53064  -0.52776
 Alpha  occ. eigenvalues --   -0.52484  -0.52082  -0.52071  -0.51848  -0.51609
 Alpha  occ. eigenvalues --   -0.50371  -0.49533  -0.49214  -0.49042  -0.46852
 Alpha  occ. eigenvalues --   -0.46668  -0.46335  -0.46182  -0.45822  -0.45461
 Alpha  occ. eigenvalues --   -0.45263  -0.45071  -0.45013  -0.44784  -0.44645
 Alpha  occ. eigenvalues --   -0.44454  -0.44022  -0.43494  -0.43386  -0.43319
 Alpha  occ. eigenvalues --   -0.43105  -0.42977  -0.42703  -0.42303  -0.42201
 Alpha  occ. eigenvalues --   -0.42171  -0.41541  -0.41080  -0.40672  -0.39921
 Alpha  occ. eigenvalues --   -0.39525  -0.39300  -0.39210  -0.38982  -0.38925
 Alpha  occ. eigenvalues --   -0.38712  -0.38610  -0.38470  -0.38435  -0.38298
 Alpha  occ. eigenvalues --   -0.38228  -0.37930  -0.37701  -0.37517  -0.37266
 Alpha  occ. eigenvalues --   -0.36506  -0.36322  -0.36258  -0.36042  -0.35810
 Alpha  occ. eigenvalues --   -0.35677  -0.35641  -0.35536  -0.35451  -0.34924
 Alpha  occ. eigenvalues --   -0.34860  -0.34654  -0.34610  -0.34438  -0.34191
 Alpha  occ. eigenvalues --   -0.33908  -0.33706  -0.33588  -0.33281  -0.32623
 Alpha  occ. eigenvalues --   -0.32543  -0.32173  -0.31857  -0.30979  -0.30671
 Alpha  occ. eigenvalues --   -0.29980  -0.29878  -0.29868  -0.28925  -0.28763
 Alpha  occ. eigenvalues --   -0.28485  -0.27751  -0.26283  -0.26202  -0.25302
 Alpha  occ. eigenvalues --   -0.25189  -0.24890  -0.24345  -0.24140  -0.23088
 Alpha  occ. eigenvalues --   -0.18764  -0.18680  -0.17828
 Alpha virt. eigenvalues --   -0.06285  -0.03353  -0.02685  -0.00089   0.01967
 Alpha virt. eigenvalues --    0.03503   0.05015   0.06011   0.07187   0.07604
 Alpha virt. eigenvalues --    0.08029   0.09030   0.09231   0.09886   0.10172
 Alpha virt. eigenvalues --    0.10585   0.11121   0.11378   0.11543   0.11796
 Alpha virt. eigenvalues --    0.12001   0.12583   0.13027   0.13290   0.13561
 Alpha virt. eigenvalues --    0.13765   0.14218   0.14402   0.14771   0.14940
 Alpha virt. eigenvalues --    0.15105   0.15242   0.15497   0.15748   0.15815
 Alpha virt. eigenvalues --    0.15909   0.16079   0.16371   0.16375   0.16605
 Alpha virt. eigenvalues --    0.16688   0.16877   0.16889   0.17175   0.17329
 Alpha virt. eigenvalues --    0.17560   0.17659   0.17859   0.18227   0.18342
 Alpha virt. eigenvalues --    0.18409   0.18640   0.18741   0.18813   0.19030
 Alpha virt. eigenvalues --    0.19192   0.19329   0.19496   0.19821   0.19970
 Alpha virt. eigenvalues --    0.20101   0.20347   0.20438   0.20674   0.20945
 Alpha virt. eigenvalues --    0.21186   0.21304   0.21461   0.21670   0.21938
 Alpha virt. eigenvalues --    0.22182   0.22286   0.22780   0.22990   0.23338
 Alpha virt. eigenvalues --    0.23532   0.23721   0.24022   0.24140   0.24334
 Alpha virt. eigenvalues --    0.24750   0.24971   0.25166   0.25305   0.25524
 Alpha virt. eigenvalues --    0.25878   0.26198   0.26589   0.26860   0.27340
 Alpha virt. eigenvalues --    0.27600   0.27800   0.28119   0.28382   0.28505
 Alpha virt. eigenvalues --    0.28991   0.29041   0.29388   0.29563   0.29830
 Alpha virt. eigenvalues --    0.30215   0.30538   0.30698   0.31236   0.31757
 Alpha virt. eigenvalues --    0.31945   0.32639   0.33511   0.33657   0.34437
 Alpha virt. eigenvalues --    0.34960   0.35815   0.36001   0.37033   0.37481
 Alpha virt. eigenvalues --    0.38414   0.38735   0.39242   0.39676   0.40707
 Alpha virt. eigenvalues --    0.41082   0.41365   0.41976   0.43270   0.44130
 Alpha virt. eigenvalues --    0.45722   0.46221   0.47437   0.48105   0.48242
 Alpha virt. eigenvalues --    0.49246   0.49756   0.50470   0.50706   0.51230
 Alpha virt. eigenvalues --    0.51470   0.51596   0.52259   0.52401   0.52562
 Alpha virt. eigenvalues --    0.53025   0.53455   0.53823   0.54056   0.54366
 Alpha virt. eigenvalues --    0.54642   0.55080   0.55527   0.56042   0.56458
 Alpha virt. eigenvalues --    0.56889   0.57048   0.57262   0.57536   0.57731
 Alpha virt. eigenvalues --    0.58005   0.58200   0.58329   0.58947   0.59158
 Alpha virt. eigenvalues --    0.59367   0.59607   0.59895   0.60017   0.60204
 Alpha virt. eigenvalues --    0.60271   0.60803   0.61046   0.61463   0.61971
 Alpha virt. eigenvalues --    0.62091   0.62384   0.62808   0.63073   0.63334
 Alpha virt. eigenvalues --    0.63599   0.63960   0.64218   0.64550   0.65006
 Alpha virt. eigenvalues --    0.65071   0.65471   0.66357   0.66465   0.66811
 Alpha virt. eigenvalues --    0.67180   0.67342   0.67730   0.67871   0.68069
 Alpha virt. eigenvalues --    0.68456   0.68693   0.69425   0.69558   0.69900
 Alpha virt. eigenvalues --    0.70704   0.70989   0.71525   0.72060   0.72240
 Alpha virt. eigenvalues --    0.72426   0.72764   0.73291   0.73617   0.73850
 Alpha virt. eigenvalues --    0.74301   0.74368   0.74793   0.75152   0.75808
 Alpha virt. eigenvalues --    0.76015   0.76231   0.76525   0.76692   0.77251
 Alpha virt. eigenvalues --    0.77395   0.77925   0.78296   0.78651   0.78732
 Alpha virt. eigenvalues --    0.79235   0.79432   0.79848   0.80102   0.80215
 Alpha virt. eigenvalues --    0.80884   0.80988   0.81632   0.81714   0.82060
 Alpha virt. eigenvalues --    0.82381   0.82750   0.83306   0.83605   0.83799
 Alpha virt. eigenvalues --    0.84230   0.84615   0.84865   0.85103   0.85435
 Alpha virt. eigenvalues --    0.85577   0.85727   0.86030   0.86125   0.86591
 Alpha virt. eigenvalues --    0.86745   0.86917   0.87267   0.87282   0.87710
 Alpha virt. eigenvalues --    0.87965   0.88036   0.88299   0.88526   0.88939
 Alpha virt. eigenvalues --    0.89271   0.89534   0.89594   0.89864   0.90140
 Alpha virt. eigenvalues --    0.90253   0.90426   0.90629   0.90934   0.91015
 Alpha virt. eigenvalues --    0.91068   0.91430   0.91774   0.91945   0.92057
 Alpha virt. eigenvalues --    0.92299   0.92565   0.92813   0.93177   0.93247
 Alpha virt. eigenvalues --    0.93542   0.93939   0.94188   0.94303   0.94759
 Alpha virt. eigenvalues --    0.95048   0.95229   0.95899   0.96062   0.96434
 Alpha virt. eigenvalues --    0.96685   0.96859   0.97124   0.97507   0.97967
 Alpha virt. eigenvalues --    0.98310   0.98807   0.98961   0.99270   0.99481
 Alpha virt. eigenvalues --    0.99698   1.00759   1.00822   1.01225   1.01631
 Alpha virt. eigenvalues --    1.01726   1.02588   1.03629   1.04400   1.04929
 Alpha virt. eigenvalues --    1.05184   1.05504   1.06002   1.06461   1.07235
 Alpha virt. eigenvalues --    1.07719   1.07931   1.08472   1.09289   1.09992
 Alpha virt. eigenvalues --    1.10603   1.11115   1.11315   1.11682   1.11968
 Alpha virt. eigenvalues --    1.13559   1.14326   1.15236   1.16263   1.16660
 Alpha virt. eigenvalues --    1.17387   1.18039   1.18522   1.18913   1.19419
 Alpha virt. eigenvalues --    1.20170   1.21249   1.21710   1.22314   1.22709
 Alpha virt. eigenvalues --    1.23449   1.23881   1.24063   1.25145   1.25491
 Alpha virt. eigenvalues --    1.26066   1.27330   1.27599   1.28192   1.28662
 Alpha virt. eigenvalues --    1.29086   1.30436   1.30619   1.31574   1.32241
 Alpha virt. eigenvalues --    1.32757   1.32828   1.33828   1.34976   1.35494
 Alpha virt. eigenvalues --    1.36311   1.36526   1.38172   1.38463   1.39314
 Alpha virt. eigenvalues --    1.39738   1.40620   1.41059   1.41609   1.42201
 Alpha virt. eigenvalues --    1.42879   1.43005   1.43451   1.43820   1.44696
 Alpha virt. eigenvalues --    1.45248   1.45964   1.46158   1.46389   1.47234
 Alpha virt. eigenvalues --    1.47398   1.47654   1.48071   1.48515   1.49098
 Alpha virt. eigenvalues --    1.49656   1.49939   1.50312   1.51227   1.52112
 Alpha virt. eigenvalues --    1.52836   1.53453   1.54864   1.55219   1.55693
 Alpha virt. eigenvalues --    1.57847   1.58330   1.59104   1.59476   1.60634
 Alpha virt. eigenvalues --    1.60911   1.62344   1.62865   1.63127   1.64040
 Alpha virt. eigenvalues --    1.65030   1.65298   1.66132   1.66334   1.67080
 Alpha virt. eigenvalues --    1.67396   1.67935   1.68391   1.68881   1.69594
 Alpha virt. eigenvalues --    1.70131   1.70462   1.71493   1.71714   1.72936
 Alpha virt. eigenvalues --    1.73533   1.74752   1.76219   1.76962   1.77152
 Alpha virt. eigenvalues --    1.78372   1.78441   1.79108   1.79394   1.80147
 Alpha virt. eigenvalues --    1.80607   1.81163   1.81707   1.82261   1.82831
 Alpha virt. eigenvalues --    1.83161   1.83346   1.83780   1.84375   1.85116
 Alpha virt. eigenvalues --    1.85307   1.86359   1.86475   1.87060   1.87161
 Alpha virt. eigenvalues --    1.87321   1.87762   1.87829   1.88135   1.88835
 Alpha virt. eigenvalues --    1.89275   1.89610   1.90156   1.90623   1.91340
 Alpha virt. eigenvalues --    1.91516   1.91931   1.92450   1.92590   1.92859
 Alpha virt. eigenvalues --    1.93017   1.93243   1.93444   1.94010   1.94119
 Alpha virt. eigenvalues --    1.94622   1.94961   1.95172   1.95632   1.95912
 Alpha virt. eigenvalues --    1.96394   1.96962   1.97145   1.97402   1.97908
 Alpha virt. eigenvalues --    1.98743   1.99119   1.99524   2.00506   2.00736
 Alpha virt. eigenvalues --    2.01768   2.02627   2.03435   2.03708   2.04077
 Alpha virt. eigenvalues --    2.04408   2.04778   2.04864   2.05933   2.06185
 Alpha virt. eigenvalues --    2.06465   2.07390   2.07667   2.08004   2.08562
 Alpha virt. eigenvalues --    2.08594   2.09176   2.09478   2.11075   2.11481
 Alpha virt. eigenvalues --    2.11627   2.11904   2.12094   2.13154   2.13445
 Alpha virt. eigenvalues --    2.14243   2.14599   2.14683   2.15257   2.15709
 Alpha virt. eigenvalues --    2.16084   2.16251   2.16386   2.17340   2.17730
 Alpha virt. eigenvalues --    2.18245   2.18576   2.18803   2.19301   2.19918
 Alpha virt. eigenvalues --    2.19998   2.20311   2.20433   2.21107   2.21292
 Alpha virt. eigenvalues --    2.22098   2.22197   2.22550   2.22766   2.23007
 Alpha virt. eigenvalues --    2.23493   2.23756   2.24150   2.24500   2.25062
 Alpha virt. eigenvalues --    2.25161   2.26507   2.26788   2.27338   2.27823
 Alpha virt. eigenvalues --    2.28266   2.28466   2.28605   2.29051   2.29322
 Alpha virt. eigenvalues --    2.29995   2.31179   2.31906   2.32185   2.32445
 Alpha virt. eigenvalues --    2.32725   2.33138   2.33288   2.33919   2.34767
 Alpha virt. eigenvalues --    2.34843   2.35440   2.35924   2.36217   2.36706
 Alpha virt. eigenvalues --    2.38005   2.39806   2.40070   2.40736   2.41098
 Alpha virt. eigenvalues --    2.42258   2.42838   2.45952   2.46769   2.46800
 Alpha virt. eigenvalues --    2.47458   2.48850   2.49242   2.49860   2.50557
 Alpha virt. eigenvalues --    2.51167   2.51707   2.52027   2.52853   2.54192
 Alpha virt. eigenvalues --    2.54421   2.55220   2.56692   2.57169   2.58207
 Alpha virt. eigenvalues --    2.60403   2.60801   2.61839   2.62155   2.62327
 Alpha virt. eigenvalues --    2.62995   2.64577   2.65412   2.66124   2.66281
 Alpha virt. eigenvalues --    2.66541   2.66815   2.68684   2.69495   2.70605
 Alpha virt. eigenvalues --    2.71185   2.72184   2.75207   2.77342   2.79074
 Alpha virt. eigenvalues --    2.79239   2.79631   2.79910   2.80460   2.81312
 Alpha virt. eigenvalues --    2.81505   2.81713   2.81772   2.83085   2.83490
 Alpha virt. eigenvalues --    2.83860   2.84061   2.84561   2.85221   2.87335
 Alpha virt. eigenvalues --    2.87587   2.90670   2.92629   2.93506   2.95620
 Alpha virt. eigenvalues --    2.96162   2.96626   2.97173   2.99328   3.00101
 Alpha virt. eigenvalues --    3.03466   3.05846   3.06582   3.09631   3.12583
 Alpha virt. eigenvalues --    3.13697   3.13893   3.21864   3.24321   3.30839
 Alpha virt. eigenvalues --    3.44094  11.45903
          Condensed to atoms (all electrons):
 Mulliken charges:
               1
     1  C    0.305340
     2  C    0.037927
     3  C   -0.178807
     4  C   -0.153112
     5  C   -0.172220
     6  C    0.298568
     7  C    0.042105
     8  C   -0.169095
     9  C   -0.144963
    10  C   -0.171683
    11  H    0.219425
    12  H    0.175338
    13  H    0.161748
    14  H    0.204042
    15  H    0.178535
    16  H    0.154397
    17  N   -0.511494
    18  N   -0.456234
    19  Ir  -0.098506
    20  O   -0.562651
    21  O   -0.523885
    22  O   -0.581720
    23  B    0.414841
    24  B    0.434679
    25  B    0.845480
    26  O   -0.565944
    27  O   -0.501188
    28  C    0.300356
    29  C    0.299013
    30  C    0.336378
    31  C    0.318854
    32  C    0.308384
    33  C    0.302202
    34  O   -0.520057
    35  C   -0.505748
    36  H    0.155141
    37  H    0.153655
    38  H    0.151949
    39  C   -0.507708
    40  H    0.147038
    41  H    0.145429
    42  H    0.195128
    43  C   -0.497855
    44  H    0.150969
    45  H    0.171664
    46  H    0.143402
    47  C   -0.510750
    48  H    0.168807
    49  H    0.178809
    50  H    0.139500
    51  C   -0.510408
    52  H    0.170688
    53  H    0.160661
    54  H    0.145838
    55  C   -0.502854
    56  H    0.145418
    57  H    0.151824
    58  H    0.169132
    59  C   -0.514166
    60  H    0.176895
    61  H    0.176864
    62  H    0.141608
    63  C   -0.510039
    64  H    0.170251
    65  H    0.144815
    66  H    0.162544
    67  C   -0.507723
    68  H    0.159410
    69  H    0.174493
    70  H    0.140798
    71  C   -0.516079
    72  H    0.168638
    73  H    0.161250
    74  H    0.144748
    75  C   -0.525390
    76  H    0.150924
    77  H    0.143521
    78  H    0.227851
    79  C   -0.523702
    80  H    0.202176
    81  H    0.150024
    82  H    0.147177
    83  H    0.075503
    84  C    0.626614
    85  O   -0.513206
    86  C   -0.422214
    87  H    0.191188
    88  H    0.175773
    89  C   -0.393652
    90  H    0.179709
    91  H    0.163458
    92  N   -0.375059
    93  C   -0.379572
    94  H    0.179139
    95  H    0.197796
    96  H    0.195950
    97  C   -0.265618
    98  H    0.144238
    99  H    0.176222
   100  C   -0.276956
   101  H    0.146633
   102  H    0.129701
   103  C   -0.282255
   104  H    0.136850
   105  H    0.158387
   106  C   -0.499626
   107  H    0.159082
   108  H    0.170467
   109  H    0.164396
   110  H    0.180600
   111  H    0.173786
 Sum of Mulliken charges =  -0.00000
 Mulliken charges with hydrogens summed into heavy atoms:
               1
     1  C    0.305340
     2  C    0.257351
     3  C   -0.005021
     4  C    0.022225
     5  C   -0.010472
     6  C    0.298568
     7  C    0.246147
     8  C    0.011504
     9  C    0.033572
    10  C   -0.017286
    17  N   -0.511494
    18  N   -0.456234
    19  Ir  -0.023003
    20  O   -0.562651
    21  O   -0.523885
    22  O   -0.581720
    23  B    0.414841
    24  B    0.434679
    25  B    0.845480
    26  O   -0.565944
    27  O   -0.501188
    28  C    0.300356
    29  C    0.299013
    30  C    0.336378
    31  C    0.318854
    32  C    0.308384
    33  C    0.302202
    34  O   -0.520057
    35  C   -0.045003
    39  C   -0.020113
    43  C   -0.031821
    47  C   -0.023634
    51  C   -0.033221
    55  C   -0.036481
    59  C   -0.018800
    63  C   -0.032429
    67  C   -0.033023
    71  C   -0.041443
    75  C   -0.003094
    79  C   -0.024325
    84  C    0.626614
    85  O   -0.513206
    86  C   -0.055253
    89  C   -0.050484
    92  N   -0.375059
    93  C    0.193312
    97  C    0.054842
   100  C   -0.000622
   103  C    0.012983
   106  C   -0.005681
 APT charges:
               1
     1  C    0.098056
     2  C   -0.003563
     3  C   -0.009696
     4  C   -0.008879
     5  C   -0.113915
     6  C    0.176239
     7  C    0.064595
     8  C   -0.037667
     9  C    0.087437
    10  C   -0.149653
    11  H    0.126856
    12  H    0.032937
    13  H    0.038219
    14  H    0.058648
    15  H    0.030278
    16  H    0.037961
    17  N    0.029509
    18  N   -0.146684
    19  Ir  -0.505656
    20  O   -1.013008
    21  O   -0.925033
    22  O   -0.951458
    23  B    1.280485
    24  B    1.265116
    25  B    1.284189
    26  O   -0.925991
    27  O   -1.000117
    28  C    0.484707
    29  C    0.518779
    30  C    0.479823
    31  C    0.471297
    32  C    0.473682
    33  C    0.495506
    34  O   -1.002906
    35  C   -0.004835
    36  H   -0.004816
    37  H   -0.011397
    38  H   -0.020800
    39  C   -0.057811
    40  H   -0.005393
    41  H   -0.033918
    42  H    0.037816
    43  C   -0.019296
    44  H   -0.009656
    45  H    0.002327
    46  H   -0.032879
    47  C   -0.003921
    48  H   -0.004819
    49  H    0.004469
    50  H   -0.026940
    51  C   -0.003996
    52  H    0.000619
    53  H   -0.006957
    54  H   -0.020666
    55  C   -0.032952
    56  H   -0.022888
    57  H   -0.007769
    58  H    0.002060
    59  C   -0.031316
    60  H    0.003406
    61  H    0.004340
    62  H   -0.029413
    63  C   -0.008207
    64  H    0.000554
    65  H   -0.025114
    66  H    0.003530
    67  C   -0.012727
    68  H   -0.012647
    69  H   -0.028892
    70  H   -0.021421
    71  C   -0.003699
    72  H    0.002720
    73  H   -0.019141
    74  H   -0.011733
    75  C   -0.061098
    76  H    0.005371
    77  H   -0.025074
    78  H    0.062254
    79  C   -0.044617
    80  H    0.038445
    81  H   -0.019659
    82  H   -0.002362
    83  H   -0.093851
    84  C    0.894000
    85  O   -0.867357
    86  C   -0.028798
    87  H   -0.008711
    88  H    0.020461
    89  C   -0.028931
    90  H    0.044444
    91  H   -0.009982
    92  N   -0.602230
    93  C    0.293796
    94  H    0.004693
    95  H   -0.010243
    96  H   -0.000101
    97  C    0.096342
    98  H   -0.011682
    99  H   -0.018494
   100  C    0.098708
   101  H   -0.050462
   102  H   -0.032131
   103  C    0.125396
   104  H   -0.061835
   105  H   -0.041319
   106  C    0.061274
   107  H   -0.015813
   108  H   -0.029023
   109  H   -0.020346
   110  H    0.034297
   111  H    0.038729
 Sum of APT charges =  -0.00000
 APT charges with hydrogens summed into heavy atoms:
               1
     1  C    0.098056
     2  C    0.123293
     3  C    0.029033
     4  C    0.024058
     5  C   -0.075696
     6  C    0.176239
     7  C    0.123244
     8  C   -0.003370
     9  C    0.117715
    10  C   -0.111692
    17  N    0.029509
    18  N   -0.146684
    19  Ir  -0.599508
    20  O   -1.013008
    21  O   -0.925033
    22  O   -0.951458
    23  B    1.280485
    24  B    1.265116
    25  B    1.284189
    26  O   -0.925991
    27  O   -1.000117
    28  C    0.484707
    29  C    0.518779
    30  C    0.479823
    31  C    0.471297
    32  C    0.473682
    33  C    0.495506
    34  O   -1.002906
    35  C   -0.041847
    39  C   -0.059306
    43  C   -0.059504
    47  C   -0.031211
    51  C   -0.031000
    55  C   -0.061549
    59  C   -0.052983
    63  C   -0.029237
    67  C   -0.075687
    71  C   -0.031853
    75  C   -0.018547
    79  C   -0.028193
    84  C    0.894000
    85  O   -0.867357
    86  C   -0.017048
    89  C    0.005532
    92  N   -0.602230
    93  C    0.288145
    97  C    0.066165
   100  C    0.016114
   103  C    0.022243
   106  C   -0.003908
 Electronic spatial extent (au):  <R**2>=          28286.5357
 Charge=              0.0000 electrons
 Dipole moment (field-independent basis, Debye):
    X=              7.0618    Y=             -4.3923    Z=              4.1893  Tot=              9.3119
 Quadrupole moment (field-independent basis, Debye-Ang):
   XX=           -302.2285   YY=           -315.6645   ZZ=           -284.6173
   XY=            -13.1270   XZ=             -4.8453   YZ=             -0.0671
 Traceless Quadrupole moment (field-independent basis, Debye-Ang):
   XX=             -1.3917   YY=            -14.8277   ZZ=             16.2195
   XY=            -13.1270   XZ=             -4.8453   YZ=             -0.0671
 Octapole moment (field-independent basis, Debye-Ang**2):
  XXX=            -18.5335  YYY=            -16.8605  ZZZ=            -89.8075  XYY=            -44.8200
  XXY=            -57.4207  XXZ=             -9.3480  XZZ=             43.0208  YZZ=              7.7640
  YYZ=            -21.3850  XYZ=             -4.5844
 Hexadecapole moment (field-independent basis, Debye-Ang**3):
 XXXX=         -18515.5800 YYYY=         -12093.0595 ZZZZ=          -6776.4219 XXXY=           -104.9182
 XXXZ=             43.8869 YYYX=            -76.2063 YYYZ=           -112.8704 ZZZX=             30.0641
 ZZZY=             56.7329 XXYY=          -5072.1382 XXZZ=          -4198.9962 YYZZ=          -3144.6200
 XXYZ=            132.0125 YYXZ=             11.0643 ZZXY=            -29.0843
 N-N= 8.202345844441D+03 E-N=-2.168310258629D+04  KE= 2.192064213862D+03
  Exact polarizability:     530.865     -48.157     466.948     -32.007     -24.647     478.431
 Approx polarizability:     721.688     -92.547     666.187     -42.465     -61.114     769.989
   1 Symmetry operations used in ECPInt.
 ECPInt:  NShTT=   53301 NPrTT=  320676 LenC2=   40820 LenP2D=  125380.
 LDataN:  DoStor=T MaxTD1= 8 Len=  415
 Calling FoFJK, ICntrl=    100127 FMM=F ISym2X=0 I1Cent= 0 IOpClX= 0 NMat=1 NMatS=1 NMatT=0.
 Defaulting to unpruned grid for atomic number  77.
 Defaulting to unpruned grid for atomic number  77.
 Defaulting to unpruned grid for atomic number  77.
 Defaulting to unpruned grid for atomic number  77.
 Defaulting to unpruned grid for atomic number  77.
 Defaulting to unpruned grid for atomic number  77.
 Defaulting to unpruned grid for atomic number  77.
 Defaulting to unpruned grid for atomic number  77.
 Defaulting to unpruned grid for atomic number  77.
 Defaulting to unpruned grid for atomic number  77.
 Defaulting to unpruned grid for atomic number  77.
 Defaulting to unpruned grid for atomic number  77.
 Defaulting to unpruned grid for atomic number  77.
 Defaulting to unpruned grid for atomic number  77.
 Defaulting to unpruned grid for atomic number  77.
 Defaulting to unpruned grid for atomic number  77.
 Full mass-weighted force constant matrix:
 Low frequencies ---   -5.7373   -0.0006   -0.0006   -0.0003    3.6595    5.4428
 Low frequencies ---   21.3725   26.6836   28.6178
 Diagonal vibrational polarizability:
      110.7745539      93.5323704      59.5360969
 Harmonic frequencies (cm**-1), IR intensities (KM/Mole), Raman scattering
 activities (A**4/AMU), depolarization ratios for plane and unpolarized
 incident light, reduced masses (AMU), force constants (mDyne/A),
 and normal coordinates:
                      1                      2                      3
                      A                      A                      A
 Frequencies --     21.2437                26.5879                28.5585
 Red. masses --      4.0213                 4.0415                 4.3453
 Frc consts  --      0.0011                 0.0017                 0.0021
 IR Inten    --      0.3269                 0.0615                 0.0895
  Atom AN      X      Y      Z        X      Y      Z        X      Y      Z
     1   6    -0.00   0.00   0.01     0.02   0.02  -0.04     0.03   0.02  -0.05
     2   6    -0.03  -0.02  -0.01     0.02  -0.01  -0.03     0.02  -0.04  -0.05
     3   6    -0.01  -0.00   0.00     0.04  -0.00  -0.03     0.03  -0.06  -0.07
     4   6     0.02   0.02   0.02     0.05   0.02  -0.04     0.04  -0.03  -0.09
     5   6     0.02   0.03   0.02     0.04   0.03  -0.04     0.04   0.01  -0.08
     6   6     0.00   0.00   0.01     0.00   0.03  -0.04     0.03   0.05  -0.05
     7   6    -0.01  -0.03  -0.00    -0.04  -0.01  -0.04    -0.00   0.04  -0.04
     8   6    -0.00  -0.01   0.01    -0.04   0.02  -0.05     0.01   0.10  -0.04
     9   6     0.01   0.02   0.01    -0.01   0.06  -0.05     0.04   0.14  -0.04
    10   6     0.01   0.02   0.02     0.01   0.07  -0.04     0.05   0.11  -0.05
    11   1    -0.04  -0.04  -0.01     0.01  -0.02  -0.02     0.02  -0.06  -0.04
    12   1     0.03   0.04   0.03     0.07   0.03  -0.05     0.05  -0.04  -0.11
    13   1     0.04   0.04   0.03     0.05   0.05  -0.05     0.05   0.03  -0.09
    14   1    -0.02  -0.05  -0.01    -0.06  -0.04  -0.04    -0.02   0.02  -0.03
    15   1     0.02   0.03   0.02     0.00   0.09  -0.05     0.06   0.19  -0.04
    16   1     0.02   0.05   0.02     0.04   0.10  -0.04     0.07   0.14  -0.05
    17   7    -0.02  -0.02  -0.00     0.00  -0.00  -0.03     0.02  -0.01  -0.04
    18   7    -0.01  -0.02  -0.00    -0.02  -0.01  -0.04     0.00   0.02  -0.04
    19  77    -0.02  -0.02  -0.01    -0.01  -0.01  -0.02     0.00  -0.01  -0.02
    20   8    -0.03  -0.02  -0.02     0.04   0.01   0.01     0.02  -0.00  -0.01
    21   8    -0.06  -0.00   0.01    -0.03  -0.01  -0.09    -0.03   0.00   0.14
    22   8     0.00  -0.03   0.01     0.02  -0.02  -0.01     0.01  -0.01  -0.01
    23   5    -0.04  -0.00  -0.01    -0.02   0.00  -0.02    -0.01  -0.01   0.02
    24   5    -0.01  -0.00  -0.01     0.00  -0.01   0.00     0.01  -0.01  -0.01
    25   5    -0.00  -0.04   0.02     0.01  -0.01  -0.01    -0.00  -0.01   0.00
    26   8    -0.00  -0.04   0.03     0.01  -0.02  -0.01    -0.01   0.00   0.01
    27   8     0.02   0.02  -0.01    -0.02  -0.02   0.01     0.00  -0.02  -0.01
    28   6     0.02   0.02  -0.00     0.01  -0.02   0.02     0.01  -0.01  -0.01
    29   6    -0.02   0.00  -0.02     0.05   0.00   0.04     0.02  -0.00   0.00
    30   6     0.02  -0.03   0.01     0.02  -0.03  -0.01     0.01   0.00   0.00
    31   6     0.02  -0.03   0.03     0.01  -0.02  -0.01    -0.00   0.01   0.01
    32   6    -0.07   0.02   0.01    -0.01  -0.01  -0.06    -0.05   0.03   0.13
    33   6    -0.05   0.03  -0.02    -0.04   0.03   0.03    -0.01  -0.00   0.02
    34   8    -0.03   0.02  -0.02    -0.03   0.02   0.06    -0.01  -0.00  -0.04
    35   6    -0.02  -0.02  -0.01     0.09   0.03   0.03     0.03   0.01  -0.00
    36   1    -0.06  -0.04  -0.02     0.13   0.04   0.04     0.05   0.01   0.00
    37   1    -0.00  -0.05   0.01     0.08   0.05  -0.01     0.03   0.02  -0.02
    38   1    -0.01  -0.00  -0.01     0.09   0.02   0.04     0.03   0.00   0.00
    39   6    -0.05   0.04  -0.04     0.06  -0.02   0.09     0.02  -0.01   0.02
    40   1    -0.08   0.02  -0.05     0.10  -0.00   0.09     0.02   0.00   0.04
    41   1    -0.04   0.06  -0.05     0.07  -0.03   0.12     0.02  -0.00   0.02
    42   1    -0.05   0.06  -0.05     0.03  -0.03   0.10     0.02  -0.02   0.03
    43   6     0.05  -0.00   0.02    -0.00   0.00  -0.02     0.00  -0.00  -0.02
    44   1     0.04  -0.04   0.03     0.01   0.02  -0.04     0.00   0.01  -0.03
    45   1     0.08   0.01   0.03    -0.03  -0.01  -0.03    -0.01  -0.01  -0.02
    46   1     0.06  -0.00   0.03     0.01   0.01  -0.01     0.00  -0.00  -0.02
    47   6     0.03   0.07  -0.01    -0.01  -0.04   0.06     0.00  -0.02  -0.00
    48   1     0.06   0.08   0.00    -0.04  -0.06   0.04    -0.00  -0.03  -0.01
    49   1     0.01   0.09  -0.03    -0.01  -0.06   0.09     0.01  -0.03   0.01
    50   1     0.03   0.07  -0.01     0.01  -0.04   0.07     0.01  -0.02  -0.00
    51   6    -0.09   0.01   0.02    -0.05   0.01  -0.11    -0.03   0.00   0.22
    52   1    -0.08  -0.00   0.02    -0.11   0.04  -0.13     0.02  -0.06   0.23
    53   1    -0.11   0.00   0.03    -0.03  -0.02  -0.18    -0.06   0.03   0.28
    54   1    -0.10   0.03   0.01    -0.05   0.01  -0.08    -0.05   0.02   0.21
    55   6    -0.09   0.03   0.00     0.07  -0.06  -0.05    -0.12   0.11   0.12
    56   1    -0.11   0.04  -0.00     0.08  -0.07  -0.02    -0.15   0.15   0.11
    57   1    -0.10   0.02   0.02     0.09  -0.07  -0.11    -0.15   0.12   0.19
    58   1    -0.08   0.03  -0.00     0.09  -0.07  -0.01    -0.12   0.13   0.06
    59   6    -0.04   0.01  -0.02    -0.13   0.08   0.03     0.06  -0.10   0.04
    60   1    -0.02   0.02  -0.03    -0.14   0.11   0.09     0.08  -0.12  -0.04
    61   1    -0.03  -0.00  -0.00    -0.15   0.09  -0.02     0.08  -0.13   0.08
    62   1    -0.05   0.02  -0.01    -0.15   0.09   0.02     0.06  -0.10   0.08
    63   6    -0.06   0.06  -0.03    -0.01   0.01   0.10    -0.04   0.05  -0.04
    64   1    -0.05   0.06  -0.05    -0.03   0.03   0.16    -0.01   0.03  -0.11
    65   1    -0.08   0.06  -0.03    -0.02   0.02   0.09    -0.05   0.05   0.01
    66   1    -0.07   0.07  -0.04     0.05  -0.02   0.11    -0.09   0.11  -0.05
    67   6     0.03  -0.04   0.05     0.02  -0.03  -0.01     0.01   0.03   0.01
    68   1     0.02  -0.04   0.06     0.02  -0.02  -0.01     0.00   0.04   0.02
    69   1     0.02  -0.04   0.04     0.02  -0.03   0.00     0.02   0.03   0.01
    70   1     0.04  -0.03   0.05     0.02  -0.03  -0.01     0.01   0.03   0.02
    71   6     0.03  -0.03   0.03     0.01  -0.02  -0.02    -0.02   0.01   0.03
    72   1     0.02  -0.03   0.02     0.01  -0.02  -0.03    -0.02   0.00   0.03
    73   1     0.03  -0.04   0.05     0.01  -0.02  -0.02    -0.02   0.02   0.03
    74   1     0.04  -0.03   0.03     0.02  -0.03  -0.02    -0.01   0.02   0.03
    75   6     0.02  -0.02  -0.01     0.01  -0.03  -0.02    -0.00  -0.01   0.00
    76   1     0.01  -0.03  -0.01     0.01  -0.02  -0.02    -0.01  -0.02   0.01
    77   1     0.03  -0.02  -0.01     0.01  -0.03  -0.02    -0.01  -0.01   0.01
    78   1     0.02  -0.02  -0.02     0.02  -0.03  -0.02     0.00  -0.02  -0.00
    79   6     0.04  -0.03   0.01     0.02  -0.03  -0.01     0.01   0.01  -0.00
    80   1     0.04  -0.02  -0.01     0.02  -0.03  -0.02     0.02   0.01  -0.01
    81   1     0.06  -0.03   0.01     0.03  -0.03  -0.02     0.01   0.02   0.01
    82   1     0.04  -0.04   0.02     0.02  -0.03  -0.01     0.02   0.02  -0.01
    83   1    -0.00  -0.01  -0.01    -0.02   0.00  -0.01    -0.01  -0.02  -0.01
    84   6     0.02  -0.03   0.01    -0.01   0.00   0.02    -0.01  -0.01   0.00
    85   8     0.01  -0.03   0.01     0.01  -0.01   0.01     0.00   0.00   0.01
    86   6     0.04  -0.01   0.01    -0.01   0.02   0.05    -0.02  -0.02   0.01
    87   1     0.04   0.00   0.00    -0.02   0.03   0.05    -0.04  -0.03   0.03
    88   1     0.07  -0.02   0.00    -0.01   0.02   0.05    -0.03  -0.02  -0.01
    89   6    -0.00  -0.06   0.02    -0.01  -0.00  -0.01    -0.01  -0.01  -0.01
    90   1     0.00  -0.07   0.02    -0.01   0.00  -0.02    -0.01  -0.01  -0.02
    91   1    -0.02  -0.06   0.02    -0.01   0.00  -0.02    -0.01  -0.02   0.00
    92   7     0.01  -0.04   0.02    -0.01   0.01   0.00    -0.02  -0.02  -0.01
    93   6     0.03  -0.04   0.02    -0.03   0.02   0.00    -0.05  -0.04  -0.01
    94   1     0.04  -0.04   0.01    -0.03   0.03   0.02    -0.05  -0.05  -0.01
    95   1     0.02  -0.04   0.02    -0.05   0.03  -0.01    -0.06  -0.05  -0.00
    96   1     0.03  -0.05   0.03    -0.03   0.01  -0.01    -0.05  -0.04  -0.03
    97   6     0.05   0.03  -0.01     0.01   0.00   0.07    -0.00  -0.01   0.03
    98   1     0.05  -0.01   0.01     0.03  -0.03   0.07     0.02   0.01   0.01
    99   1    -0.01   0.05  -0.03     0.01  -0.00   0.05     0.02  -0.01   0.06
   100   6     0.12   0.08  -0.01     0.01   0.03   0.12    -0.03  -0.03   0.04
   101   1     0.11   0.13  -0.03     0.00   0.07   0.11    -0.05  -0.05   0.06
   102   1     0.17   0.05   0.01     0.01   0.04   0.15    -0.05  -0.03   0.00
   103   6     0.12   0.13  -0.03     0.02  -0.01   0.15     0.00  -0.02   0.06
   104   1     0.12   0.07  -0.00     0.03  -0.06   0.17     0.02   0.01   0.03
   105   1     0.05   0.17  -0.07     0.02  -0.02   0.11     0.03  -0.02   0.10
   106   6     0.22   0.21  -0.04     0.03   0.03   0.21    -0.04  -0.05   0.07
   107   1     0.29   0.18   0.00     0.04   0.05   0.25    -0.07  -0.05   0.03
   108   1     0.22   0.25  -0.06     0.04  -0.00   0.23    -0.02  -0.04   0.09
   109   1     0.22   0.28  -0.07     0.03   0.08   0.19    -0.06  -0.08   0.10
   110   1    -0.00  -0.02   0.00    -0.05   0.01  -0.05     0.01   0.12  -0.04
   111   1    -0.01  -0.00   0.00     0.05  -0.01  -0.03     0.03  -0.09  -0.08
                      4                      5                      6
                      A                      A                      A
 Frequencies --     31.3851                36.0846                40.8772
 Red. masses --      4.2448                 4.1596                 3.9954
 Frc consts  --      0.0025                 0.0032                 0.0039
 IR Inten    --      0.6891                 0.0497                 0.1844
  Atom AN      X      Y      Z        X      Y      Z        X      Y      Z
     1   6    -0.01   0.04  -0.03    -0.02  -0.00  -0.02     0.02   0.01   0.02
     2   6     0.02   0.06  -0.01    -0.01   0.02  -0.01    -0.02  -0.02   0.00
     3   6     0.04   0.07  -0.01    -0.02   0.01  -0.01    -0.01  -0.02   0.00
     4   6     0.04   0.07  -0.02    -0.04  -0.01  -0.02     0.01  -0.00   0.02
     5   6     0.01   0.06  -0.03    -0.03  -0.01  -0.02     0.02   0.01   0.02
     6   6    -0.03   0.03  -0.04    -0.01  -0.00  -0.01     0.05   0.03   0.03
     7   6    -0.07  -0.00  -0.04     0.02   0.01  -0.01     0.07   0.02   0.02
     8   6    -0.08  -0.01  -0.06     0.02   0.01  -0.01     0.11   0.09   0.06
     9   6    -0.06   0.01  -0.06     0.01  -0.00  -0.00     0.12   0.13   0.08
    10   6    -0.04   0.03  -0.06    -0.01  -0.01  -0.01     0.08   0.10   0.07
    11   1     0.01   0.05  -0.01     0.01   0.04  -0.01    -0.03  -0.04  -0.01
    12   1     0.05   0.08  -0.01    -0.05  -0.02  -0.02     0.01  -0.00   0.02
    13   1     0.01   0.05  -0.03    -0.04  -0.03  -0.02     0.03   0.03   0.03
    14   1    -0.08  -0.01  -0.03     0.02   0.02  -0.02     0.06  -0.01   0.00
    15   1    -0.07   0.01  -0.08     0.01  -0.01   0.00     0.15   0.19   0.11
    16   1    -0.02   0.04  -0.06    -0.02  -0.02  -0.00     0.09   0.13   0.09
    17   7    -0.00   0.04  -0.02    -0.01   0.01  -0.02    -0.00  -0.01   0.01
    18   7    -0.05   0.01  -0.03     0.00   0.01  -0.02     0.03  -0.00   0.01
    19  77    -0.03   0.01  -0.02    -0.01   0.00  -0.03    -0.00  -0.03  -0.00
    20   8    -0.07  -0.04  -0.03     0.02   0.06  -0.03    -0.04  -0.04  -0.02
    21   8     0.04   0.00   0.01     0.02  -0.00  -0.02    -0.02  -0.03  -0.03
    22   8    -0.00  -0.01   0.01    -0.00   0.00   0.03    -0.01  -0.00  -0.02
    23   5    -0.00  -0.01  -0.00     0.00  -0.01  -0.01    -0.01  -0.02   0.01
[...]
 00004517,-0.00001874,0.00002084,-0.00002665,0.00002615,-0.00001537,-0.
 00001749,-0.00001016,0.00003200,0.00000109,0.00001033,-0.00035083,0.00
 092272,-0.00258494,0.00393525,-0.00943410,0.03549587,0.06119456,-0.325
 05296,0.00435490,0.00134128,-0.01007656,-0.00190083,0.00256287,0.00090
 295,-0.00000294,0.00000040,-0.00000420,-0.00000196,0.00000475,-0.00000
 738,0.00002200,-0.00003561,0.00002046,-0.00026764,-0.00074742,0.000151
 78,-0.00038220,-0.00094471,0.00043589,0.00035413,0.00007566,-0.0004775
 2,0.00008861,-0.00000300,-0.00009876,0.00333460,0.00034237,0.00046752,
 -0.00021166,0.00034591,0.00007341,0.00011065,-0.00005643,-0.00012093,0
 .00006381,0.00008773,-0.00000507,-0.00005825,-0.00017585,0.00006620,-0
 .00015789,-0.00015575,-0.00002219,-0.00014271,0.00008818,0.00011793,0.
 00004644,0.00015633,-0.00004613,-0.00005947,-0.00009276,0.00012750,0.0
 0013723,-0.00012183,-0.00006766,-0.00001222,0.00002893,0.00004279,-0.0
 0005105,0.00001949,0.00001268,-0.00004374,0.00013386,-0.00015932,0.000
 04191,-0.00002010,-0.00008475,-0.00004516,-0.00003445,0.00000280,-0.00
 002162,-0.00004560,-0.00001188,0.00010004,0.00006952,0.00001821,0.0000
 1153,-0.00000172,-0.00000196,-0.00000237,0.00000102,-0.00000024,-0.000
 00267,0.00000066,0.00000066,0.00000390,-0.00000377,-0.00000632,0.00000
 898,-0.00000545,-0.00000338,-0.00000220,0.00000020,0.00000087,0.000008
 35,0.00000036,-0.00000286,-0.00000492,-0.00000018,0.00000057,0.0000044
 5,-0.00000241,-0.00000980,0.00000076,0.00000476,-0.00000121,0.00000263
 ,-0.00000276,0.00000430,-0.00000087,-0.00000686,-0.00000478,0.00000132
 ,-0.00000597,-0.00000980,0.00000109,-0.00000359,0.00000347,-0.00000214
 ,0.00000173,-0.00000063,0.00000688,-0.00000252,-0.00000260,0.00000294,
 0.00000428,-0.00000621,-0.00000143,-0.00000053,0.00000271,-0.00000155,
 -0.00000193,0.00000091,0.00000379,0.00000472,0.00000044,0.00000675,0.0
 0000512,-0.00000322,0.00000569,0.00000400,-0.00000337,0.00000010,-0.00
 000437,0.00000266,-0.00000317,0.00000194,0.00000452,0.00000836,0.00000
 727,0.00000315,0.00000302,-0.00000279,-0.00000037,-0.00000483,-0.00000
 039,-0.00000609,0.00000213,0.00000555,0.00000412,0.00000309,0.00000457
 ,0.00000532,0.00000282,-0.00000288,0.00000014,0.00000298,0.00000412,-0
 .00000145,-0.00000289,-0.00000091,0.00000217,-0.00002650,0.00005670,-0
 .00000670,0.00000011,0.00000667,0.00001387,0.00000544,-0.00002580,-0.0
 0006505,-0.00000531,-0.00006066,0.00002959,-0.00001708,0.00000077,0.00
 000202,-0.00000399,0.00000847,0.00000422,0.00000012,-0.00000511,-0.000
 00157,0.00000344,-0.00000836,0.00000675,0.00001466,-0.00001091,0.00004
 754,-0.00000843,0.00001347,0.00001298,0.00000372,-0.00001470,0.0000019
 9,-0.00000313,0.00001204,-0.00001240,0.00007835,-0.00009706,0.00005887
 ,-0.00002668,0.00003240,-0.00001435,-0.00000298,-0.00002763,-0.0000008
 3,0.00002807,-0.00000332,-0.00012929,0.00000727,-0.00002249,0.00006031
 ,0.00000636,0.00002980,-0.00001597,0.00001142,-0.00006991,0.00002031,-
 0.00000510,-0.00000049,0.00000025,0.00000266,-0.00000516,-0.00000593,0
 .00000474,0.00000108,0.00000844,0.00000122,-0.00000563,0.00000441,0.00
 000003,0.00000450,0.00001320,-0.00000120,-0.00000466,-0.00000940,-0.00
 001274,-0.00001623,0.00000597,0.00000654,0.00000439,0.00000556,0.00000
 175,0.00000076,0.00000418,-0.00000094,-0.00000386,-0.00000060,-0.00000
 203,0.00000269,0.00000332,0.00002253,0.00001652,0.00002933,-0.00000093
 ,0.00000378,-0.00000044,-0.00000994,-0.00000693,-0.00000832,-0.0000005
 9,-0.00000295,-0.00000217,-0.00000527,-0.00000094,-0.00000849,0.000001
 03,-0.00000367,0.00000752,0.00001958,0.00001821,0.00002006,-0.00000223
 ,-0.00000926,-0.00001375,-0.00000649,-0.00000610,-0.00000303,-0.000001
 65,-0.00000849,-0.00000468,0.00000099,-0.00000108,0.00000155,-0.000002
 50,0.00000349,0.00000259,-0.00000358,0.00000159,-0.00000525,-0.0381599
 9,-0.06713412,0.34235054,-0.00110367,0.00082765,-0.00027053,0.00725547
 ,0.00081265,-0.01315650,-0.08099747,-0.00820875,0.09549162,-0.00363603
 ,-0.00696342,0.02116938,0.00004122,0.00585857,0.00253790,-0.00045629,-
 0.00072141,-0.00030517,-0.00005151,0.00001587,0.00010956,0.00009809,-0
 .00006422,0.00001642,-0.00001716,0.00002916,-0.00013022,-0.00007368,-0
 .00003100,0.00015579,-0.00115705,-0.00179734,-0.00056649,-0.00085919,-
 0.00189895,-0.00148703,-0.00007594,-0.00023424,0.00113364,0.00000065,0
 .00000045,0.00000274,-0.00000597,-0.00000438,0.00000145,0.00006242,0.0
 0004280,0.00000479,0.00289712,0.00580988,-0.00103505,-0.00000466,0.000
 07483,-0.00007308,0.00018145,-0.00050920,0.00018174,-0.00003437,-0.000
 04903,0.00007070,-0.00007526,-0.00010046,0.00001174,-0.00006891,-0.000
 03358,-0.00008286,-0.00001421,0.00006558,-0.00003275,0.00002916,0.0000
 3924,-0.00006087,0.00007037,-0.00006620,0.00011735,-0.00000941,0.00002
 702,-0.00005233,0.00001042,-0.00003855,0.00003472,-0.00000300,0.000022
 70,-0.00000995,0.00000977,0.00003285,0.00002018,-0.00000434,-0.0000041
 9,0.00000324,0.00000757,-0.00000519,0.00003393,0.00012610,0.00005802,-
 0.00013804,-0.00002195,0.00003901,0.00001038,-0.00001877,-0.00004313,0
 .00003125,0.00000466,0.00002913,-0.00002594,-0.00000183,-0.00000244,0.
 00002134,-0.00000557,-0.00001231,0.00000236,0.00000339,-0.00001091,0.0
 0000477,-0.00000380,0.00002526,-0.00002624,-0.00000801,-0.00001565,0.0
 0001464,0.00000472,-0.00001021,0.00000277,0.00000007,-0.00000362,-0.00
 000015,0.00000569,-0.00000846,0.00000759,-0.00000036,0.00000263,-0.000
 00152,-0.00000106,-0.00000474,0.00000277,-0.00000074,0.00000002,-0.000
 00184,-0.00000150,-0.00000604,0.00000438,0.00000143,-0.00000487,0.0000
 0340,-0.00000404,0.00000068,-0.00000417,-0.00000014,0.00000200,-0.0000
 0108,-0.00001035,-0.00001127,0.00003712,-0.00000333,0.00001249,0.00001
 455,0.00000449,-0.00000751,-0.00000524,0.00000195,-0.00000388,-0.00000
 333,-0.00002351,0.00005671,0.00014810,0.00001821,0.00000401,0.00001838
 ,0.00006892,-0.00010668,-0.00004256,-0.00004175,0.00006373,-0.00001649
 ,0.00000992,-0.00001943,0.00000627,0.00000535,-0.00000165,0.00000860,-
 0.00000327,0.00000293,0.00000023,-0.00000092,0.00000187,-0.00000143,0.
 00000114,-0.00001007,-0.00000356,0.00000503,-0.00000301,0.00000853,-0.
 00000408,0.00000004,-0.00000174,-0.00000856,0.00000922,0.00000490,0.00
 000089,0.00000125,-0.00000575,-0.00000331,-0.00000293,0.00000062,0.000
 00108,-0.00000108,0.00000475,0.00000088,0.00000200,-0.00000380,-0.0000
 0167,-0.00000020,-0.00000491,0.00000113,-0.00000033,0.00000108,-0.0000
 0173,-0.00000170,0.00000093,0.00000023,0.00000220,-0.00000232,-0.00000
 182,0.00000410,0.00000046,0.00000460,-0.00000046,-0.00000175,-0.000001
 32,0.00000036,-0.00000009,0.00000168,-0.00000026,-0.00000608,-0.000007
 90,0.00000121,-0.00000166,-0.00000325,0.00000206,-0.00000026,0.0000016
 6,-0.00000210,-0.00000148,0.00000640,0.00000439,-0.00000022,-0.0000194
 1,0.00016579,-0.00005848,0.00002392,0.00000244,0.00018363,-0.00003786,
 0.00008412,-0.00015625,-0.00006632,-0.00010888,-0.00002814,-0.00002631
 ,-0.00003169,-0.00000096,-0.00001379,0.00010459,0.00016124,0.00006737,
 -0.00001899,-0.00003333,-0.00000647,0.00002155,0.00000630,-0.00001332,
 -0.00000020,0.00000115,-0.00004371,0.00000448,-0.00006859,0.00014488,-
 0.00003545,0.00015580,-0.00015678,-0.00005087,-0.00004423,-0.00001475,
 0.00005808,-0.00004862,0.00004163,-0.00009519,0.00001983,0.00002793,0.
 00007602,0.00002478,0.00001197,-0.00000333,-0.00003490,0.00001364,-0.0
 0001054,-0.00002701,-0.00000260,-0.00000803,-0.00001501,-0.00002047,-0
 .00001279,-0.00000741,0.00001164,0.00000965,0.00002936,0.00001271,0.00
 001543,0.00002836,-0.00000106,-0.00000758,-0.00002449,-0.00000090,-0.0
 0000173,-0.00000841,0.00000061,-0.00000812,-0.00000824,0.00000242,0.00
 000385,0.00000742,0.00000521,-0.00000093,-0.00000299,-0.00000832,-0.00
 000164,-0.00000264,0.00001355,0.00001670,0.00000925,0.07794392,0.00104
 650,-0.00128330,-0.00033108,-0.01141161,0.00019993,0.01968725,-0.00819
 507,-0.05803108,0.05531308,0.00481014,0.00693292,-0.01676880,0.0055344
 1,0.00133738,0.00020163,-0.00067766,-0.00054899,-0.00028161,-0.0000717
 6,0.00002755,0.00006332,0.00007572,-0.00006411,0.00000949,-0.00009118,
 0.00005984,-0.00008978,0.00004771,-0.00004123,0.00019852,-0.00141347,-
 0.00107855,-0.00135912,-0.00220299,-0.00095525,-0.00062097,0.00041274,
 0.00034181,-0.00081708,0.00000277,0.00000253,-0.00000184,-0.00000582,-
 0.00000511,0.00000458,-0.00003592,0.00004875,0.00000658,0.00568857,0.0
 0038526,0.00508957,0.00006499,0.00007196,-0.00006680,-0.00074925,-0.00
 010615,-0.00026521,0.00003592,0.00000754,-0.00021034,0.00000572,-0.000
 06740,0.00002543,-0.00004303,-0.00005128,-0.00006524,-0.00004072,0.000
 07252,-0.00003137,-0.00014334,0.00009500,0.00023163,0.00008455,-0.0000
 4707,0.00018070,-0.00000263,0.00004505,-0.00008255,0.00004152,-0.00003
 361,-0.00009326,-0.00001416,-0.00000291,0.00003857,0.00003833,0.000031
 05,0.00003702,-0.00001121,-0.00000876,0.00000471,0.00001217,-0.0000092
 0,0.00005059,0.00006268,0.00000005,-0.00004559,-0.00001878,0.00002981,
 0.00000729,0.00001715,-0.00004093,-0.00000782,-0.00000822,-0.00002164,
 0.00002604,0.00002602,0.00002314,-0.00002321,-0.00000381,-0.00002384,0
 .00000295,-0.00001284,0.00001291,-0.00001427,0.00000328,-0.00002278,-0
 .00000986,0.00000936,0.00001267,0.00000763,-0.00000029,0.00000271,-0.0
 0000142,-0.00001030,0.00000605,-0.00000603,0.00000666,-0.00000219,-0.0
 0000645,-0.00000602,-0.00000145,0.00000394,-0.00000231,0.00000360,-0.0
 0000420,0.00000222,-0.00000731,-0.00000308,0.00000293,0.00000281,-0.00
 000878,-0.00000250,0.00000374,-0.00000142,-0.00000374,-0.00000241,0.00
 000010,0.00000452,-0.00000238,-0.00000092,-0.00001183,0.00000719,-0.00
 000664,0.00000360,-0.00000238,0.00000879,0.00001340,-0.00000744,-0.000
 00604,-0.00000167,-0.00000009,-0.00000157,-0.00007334,0.00009953,0.000
 04127,0.00000479,-0.00000903,0.00000426,0.00002711,-0.00003804,-0.0000
 3989,0.00002699,-0.00002326,0.00001481,0.00000979,-0.00001272,0.000002
 98,0.00000288,-0.00000187,0.00000633,-0.00000033,0.00000149,-0.0000018
 7,-0.00000218,0.00000013,-0.00000216,0.00000172,-0.00000484,0.00000876
 ,0.00000535,-0.00000200,0.00000654,-0.00000302,-0.00000288,-0.00000445
 ,-0.00000401,0.00000985,-0.00000133,0.00000018,-0.00000090,-0.00000764
 ,-0.00000331,-0.00000293,0.00000140,0.00000159,0.00000017,0.00000544,0
 .00000148,0.00000214,-0.00000620,-0.00000424,0.00000069,-0.00000602,0.
 00000119,-0.00000113,0.00000135,-0.00000100,-0.00000221,0.00000148,0.0
 0000014,0.00000317,-0.00000390,-0.00000016,0.00000139,0.00000117,-0.00
 000009,-0.00000499,-0.00000439,0.00000014,0.00000132,-0.00000196,0.000
 00008,0.00000496,0.00000456,-0.00000224,-0.00000196,-0.00000072,0.0000
 0096,0.00000578,-0.00000509,-0.00000074,-0.00000227,-0.00000138,0.0000
 0293,0.00000314,-0.00000062,0.00027394,0.00005378,0.00013869,-0.000116
 46,0.00012013,0.00036025,-0.00002555,0.00005669,-0.00031835,0.00000912
 ,-0.00007712,-0.00001942,-0.00002666,-0.00000899,-0.00000029,-0.000013
 92,0.00009899,0.00010625,0.00007932,-0.00004648,-0.00008811,-0.0000112
 5,0.00002210,0.00003290,-0.00001728,-0.00000775,0.00000411,0.00011224,
 -0.00005914,-0.00019530,-0.00018515,0.00001397,0.00036842,-0.00019437,
 -0.00002101,-0.00007743,0.00008029,0.00009669,-0.00008130,0.00028045,-
 0.00008825,0.00000734,0.00000009,0.00004993,0.00000608,0.00001252,-0.0
 0002234,-0.00000840,0.00001668,-0.00000544,-0.00000963,0.00000589,0.00
 001761,-0.00002531,-0.00000480,-0.00000072,0.00000220,-0.00000860,-0.0
 0000730,0.00000164,-0.00000716,-0.00000747,0.00000163,-0.00000081,-0.0
 0000006,0.00000403,0.00000210,0.00000097,0.00000351,0.00000528,0.00000
 630,-0.00000665,-0.00000311,-0.00000260,0.00000109,0.00000431,-0.00000
 430,-0.00000099,0.00000036,-0.00000011,0.00000198,0.00000466,0.0000220
 2,0.00000576,0.00687377,0.05248229,-0.00088997,0.00021135,0.00079595,0
 .00754577,-0.00070750,-0.01116249,0.09461787,0.05469848,-0.29152302,0.
 00135250,0.00369529,-0.00641704,0.00312218,-0.00006567,0.00198527,-0.0
 0032025,-0.00041667,-0.00012787,-0.00002700,-0.00000207,0.00006568,0.0
 0004881,-0.00003141,-0.00001392,-0.00002462,0.00003024,-0.00004723,0.0
 0002268,-0.00000146,0.00003509,-0.00085165,-0.00103022,-0.00020035,-0.
 00101554,-0.00107067,-0.00002745,0.00005501,0.00030877,-0.00030997,-0.
 00000359,0.00000068,-0.00000295,0.00000428,-0.00000285,-0.00000722,-0.
 00003633,0.00001338,0.00001753,0.00024743,0.00447893,0.00039276,-0.000
 01369,0.00009506,-0.00011468,0.00004657,-0.00059052,0.00008885,-0.0001
 9552,0.00001755,0.00027153,-0.00021446,-0.00034103,0.00010434,0.000030
 87,0.00004643,0.00003734,0.00031890,0.00040908,-0.00004982,0.00028531,
 -0.00008100,-0.00030881,-0.00004731,-0.00004540,-0.00010913,0.00001715
 ,0.00001525,0.00003052,-0.00012789,0.00006694,0.00012900,0.00001249,-0
 .00001018,-0.00007306,0.00007720,0.00001688,-0.00004584,-0.00000260,-0
 .00003528,0.00001435,-0.00001240,-0.00000679,-0.00001216,0.00026476,0.
 00010857,-0.00024235,-0.00002286,0.00013500,0.00002757,-0.00018327,-0.
 00018429,0.00005284,-0.00001098,0.00001818,-0.00001783,-0.00000706,-0.
 00000960,0.00002486,-0.00000152,0.00000018,-0.00000324,0.00000409,-0.0
 0000455,0.00001329,-0.00001690,0.00003343,-0.00002152,-0.00000584,-0.0
 0001855,0.00002199,-0.00000535,-0.00001392,0.00000526,0.00000651,0.000
 00184,-0.00000271,-0.00000414,-0.00000212,0.00001628,0.00000060,0.0000
 0043,-0.00000664,0.00000234,-0.00000727,0.00000173,-0.00000295,0.00000
 848,0.00000629,-0.00000225,0.00000439,0.00001277,0.00000030,-0.0000048
 9,0.00000022,-0.00000076,0.00000003,-0.00000556,-0.00000860,0.00000562
 ,0.00000378,-0.00003591,-0.00001741,0.00004530,0.00000373,0.00001730,0
 .00002962,0.00002194,-0.00001433,-0.00001771,-0.00000696,-0.00001390,-
 0.00000507,-0.00013480,0.00009451,0.00010391,0.00002803,0.00000008,0.0
 0003957,0.00001704,-0.00016099,-0.00016052,-0.00007235,0.00003905,-0.0
 0005462,0.00002089,-0.00004444,0.00000815,0.00000994,0.00000026,0.0000
 1624,-0.00000563,0.00000945,0.00000523,-0.00000691,-0.00000629,-0.0000
 0640,-0.00000166,-0.00002227,-0.00000577,0.00000689,-0.00000216,0.0000
 1371,-0.00001306,-0.00000748,-0.00000239,-0.00001330,0.00001852,0.0000
 0967,0.00000075,-0.00000347,0.00000368,0.00000366,0.00000220,0.0000014
 6,-0.00000291,0.00000463,-0.00000088,-0.00000156,-0.00000052,0.0000001
 2,0.00000427,0.00000125,0.00000402,-0.00000238,0.00000057,0.00000017,0
 .00000370,0.00000261,0.00000031,-0.00000111,-0.00000183,-0.00000010,-0
 .00001004,0.00000372,-0.00000102,0.00000413,0.00000489,0.00000517,0.00
 000117,0.00000591,-0.00000181,0.00000890,-0.00001407,-0.00000623,-0.00
 000710,0.00000455,-0.00001133,0.00000589,-0.00000774,0.00001665,0.0000
 0604,0.00000987,-0.00000130,-0.00000209,0.00000002,0.00000277,-0.00010
 082,0.00022919,-0.00009920,0.00008663,-0.00005346,-0.00022118,0.000030
 04,0.00001204,0.00017109,0.00002049,0.00000604,0.00000911,0.00001300,0
 .00002063,0.00000209,0.00006283,0.00004087,-0.00005283,-0.00003496,0.0
 0002021,0.00003507,0.00000436,0.00000359,-0.00002762,0.00000663,0.0000
 0769,0.00000374,-0.00007508,0.00002667,0.00007764,0.00001701,0.0000525
 9,-0.00004028,0.00001714,0.00005096,-0.00001997,-0.00000623,-0.0000201
 8,0.00001432,0.00006846,0.00015282,0.00000633,-0.00000526,-0.00001394,
 -0.00002516,-0.00000724,-0.00000992,0.00002529,0.00000365,0.00000691,0
 .00001109,-0.00000380,0.00000348,0.00000693,0.00001117,0.00000590,0.00
 000637,-0.00001446,-0.00000336,-0.00001709,-0.00001354,-0.00000680,-0.
 00001463,0.00000018,0.00000463,0.00001509,0.00000382,0.00000232,0.0000
 0274,-0.00000018,0.00000452,0.00000213,-0.00000288,0.00000005,-0.00000
 229,0.00000133,-0.00000137,-0.00000152,0.00000415,0.00000084,0.0000038
 2,0.00000602,0.00001255,-0.00000466,-0.10394998,-0.06019448,0.30680075
 \\-0.00000428,0.00000446,0.00000376,0.00000468,-0.00000278,-0.00000639
 ,-0.00000167,0.00000017,0.00000424,0.00000012,0.00000078,-0.00000064,0
 .00000461,-0.00000503,-0.00000043,-0.00000519,-0.00000048,0.00000655,-
 0.00000650,0.00000161,-0.00000247,0.00000055,0.00000137,0.00000138,-0.
 00000118,-0.00000259,0.00000534,0.00000548,0.00000137,-0.00000838,-0.0
 0000306,0.00000297,0.00000166,-0.00000041,0.00000148,-0.00000029,-0.00
 000141,0.00000188,0.00000098,0.00000393,-0.00000212,0.00000227,0.00000
 179,-0.00000043,-0.00000020,0.00000047,-0.00000061,0.00000129,0.000002
 29,-0.00000249,-0.00000042,0.00000238,0.00000020,-0.00000257,-0.000002
 14,-0.00000046,0.00000218,-0.00000210,0.00000006,0.00000161,-0.0000006
 3,0.00000054,-0.00000149,-0.00000037,-0.00000101,-0.00000130,0.0000029
 0,-0.00000118,0.00000079,-0.00000103,0.00000311,-0.00000167,0.00000044
 ,0.00000186,-0.00000019,0.00000068,-0.00000210,0.00000614,0.00000137,-
 0.00000221,-0.00000082,0.00000124,0.00000004,-0.00000074,0.00000178,-0
 .00000002,0.00000465,0.00000016,0.00000369,0.00000040,-0.00000382,-0.0
 0000197,-0.00000401,0.00000058,-0.00000580,0.00000318,-0.00000241,0.00
 000089,-0.00000324,-0.00000073,0.00000144,-0.00000105,0.,0.00000562,-0
 .00000604,0.00000001,-0.00000329,0.00000227,-0.00000164,-0.00000149,-0
 .00000104,0.00000004,-0.00000096,0.,0.00000094,0.00000209,-0.00000358,
 0.00000071,-0.00000178,0.00000155,-0.00000166,0.00000060,0.00000079,-0
 .00000036,-0.00000060,-0.00000121,0.00000046,-0.00000156,-0.00000078,-
 0.00000111,-0.00000004,0.00000025,-0.00000062,0.00000032,-0.00000079,0
 .00000032,0.00000017,-0.00000077,-0.00000054,-0.00000126,-0.00000481,0
 .00000041,-0.00000081,0.00000053,0.00000001,0.00000065,-0.00000007,-0.
 00000151,0.00000042,0.00000181,0.00000120,0.00000444,0.00000431,0.0000
 0071,-0.00000067,-0.00000338,-0.00000045,-0.00000022,0.00000058,-0.000
 00004,-0.00000085,0.00000007,0.00000085,-0.00000240,0.00000245,0.00000
 150,0.00000176,-0.00000094,-0.00000085,0.00000072,-0.00000050,-0.00000
 041,-0.00000061,-0.00000035,-0.00000134,0.00000394,0.00000007,0.000002
 00,-0.00000300,0.00000173,0.00000179,-0.00000074,-0.00000080,-0.000000
 25,-0.00000179,0.00000013,0.00000061,0.00000116,-0.00000248,0.00000107
 ,-0.00000035,0.00000045,-0.00000003,-0.00000243,0.00000038,-0.00000031
 ,0.00000011,0.00000168,0.00000087,0.00000249,-0.00000058,0.00000043,-0
 .00000003,-0.00000019,-0.00000030,-0.00000264,0.00000067,-0.00000007,0
 .00000027,-0.00000030,-0.00000436,0.00000375,-0.00000253,0.00000357,-0
 .00000215,-0.00000280,-0.00000004,0.00000026,0.00000081,0.00000030,-0.
 00000126,0.00000278,0.00000407,0.00000257,-0.00000134,-0.00000056,0.00
 000031,0.00000003,-0.00000006,-0.00000206,0.00000037,-0.00000293,-0.00
 000184,-0.00000040,-0.00000214,-0.00000582,-0.00000104,0.00000110,0.00
 000090,0.,0.00000015,0.00000214,-0.00000140,0.00000097,0.,0.00000013,-
 0.00000019,-0.00000002,-0.00000124,-0.00000373,0.00000536,-0.00000570,
 0.00000080,-0.00000251,0.00000750,0.00000438,0.00000198,-0.00000031,-0
 .00000093,0.00000049,-0.00000006,-0.00000138,-0.00000177,0.00000135,-0
 .00000207,-0.00000162,-0.00000259,0.00000070,0.00000006,-0.00000025,0.
 00000047,0.00000272,0.00000122,0.00000247,-0.00000084,-0.00000349,0.00
 000378,0.00000660,0.00000435,0.00000021,-0.00000036,0.00000054,-0.0000
 0102,-0.00000379,-0.00000284,-0.00000411,-0.00000137,-0.00000001,-0.00
 000120,-0.00000445,0.00000097,0.00000039,-0.00000012,-0.00000007,0.000
 00097,0.00000228,-0.00000015,-0.00000385,0.00000191,0.00000168,0.00000
 061,0.00000109,0.00000097,0.00000091,0.00000121,0.00000022,-0.00000090
 ,0.00000580,-0.00000476,-0.00000043,-0.00000038,0.00000126,-0.00000083
 ,-0.00000275,0.00000179,0.00000690,0.00000023,0.00000258,-0.00000073,-
 0.00000080,0.00000116,-0.00000192,-0.00000018,0.00000216,-0.00000123,0
 .00000079,-0.00000076,0.00000078,-0.00000066,-0.00000080,0.00000014,0.
 00000046,-0.00000058\\\@
 The archive entry for this job was punched.


 WE DON'T KNOW ONE MILLIONTH OF ONE PERCENT ABOUT
 ANYTHING.
                                     T. A. EDISON.
 Job cpu time:       1 days 14 hours 24 minutes 59.0 seconds.
 Elapsed time:       0 days  2 hours 26 minutes 54.4 seconds.
 File lengths (MBytes):  RWF=   8594 Int=      0 D2E=      0 Chk=     49 Scr=      1
 Normal termination of Gaussian 16 at Sat Dec  7 23:51:54 2024.
