/mnt/lustre/scratch/nvme/SLURM/9663639/usccqdma.GdoYdfputy
OMP_STACKSIZE=0m
GAUSS_PDEF=16
GAUSS_MDEF=65536MB
GAUSS_RDEF=SCF=Direct
 Entering Gaussian System, Link 0=g16.exe
 Initial command:
 /opt/cesga/2020/software/Core/g16/c1/l1.exe "/mnt/lustre/scratch/nvme/SLURM/9663639/usccqdma.GdoYdfputy/Gau-3954010.inp" -scrdir="/mnt/lustre/scratch/nvme/SLURM/9663639/usccqdma.GdoYdfputy/"
 Default is to use a total of  16 processors:
                               16 via shared-memory
                                1 via Linda
 Entering Link 1 = /opt/cesga/2020/software/Core/g16/c1/l1.exe PID=   3954037.
  
 Copyright (c) 1988-2019, Gaussian, Inc.  All Rights Reserved.
  
 This is part of the Gaussian(R) 16 program.  It is based on
 the Gaussian(R) 09 system (copyright 2009, Gaussian, Inc.),
 the Gaussian(R) 03 system (copyright 2003, Gaussian, Inc.),
 the Gaussian(R) 98 system (copyright 1998, Gaussian, Inc.),
 the Gaussian(R) 94 system (copyright 1995, Gaussian, Inc.),
 the Gaussian 92(TM) system (copyright 1992, Gaussian, Inc.),
 the Gaussian 90(TM) system (copyright 1990, Gaussian, Inc.),
 the Gaussian 88(TM) system (copyright 1988, Gaussian, Inc.),
 the Gaussian 86(TM) system (copyright 1986, Carnegie Mellon
 University), and the Gaussian 82(TM) system (copyright 1983,
 Carnegie Mellon University). Gaussian is a federally registered
 trademark of Gaussian, Inc.
  
 This software contains proprietary and confidential information,
 including trade secrets, belonging to Gaussian, Inc.
  
 This software is provided under written license and may be
 used, copied, transmitted, or stored only in accord with that
 written license.
  
 The following legend is applicable only to US Government
 contracts under FAR:
  
                    RESTRICTED RIGHTS LEGEND
  
 Use, reproduction and disclosure by the US Government is
 subject to restrictions as set forth in subparagraphs (a)
 and (c) of the Commercial Computer Software - Restricted
 Rights clause in FAR 52.227-19.
  
 Gaussian, Inc.
 340 Quinnipiac St., Bldg. 40, Wallingford CT 06492
  
  
 ---------------------------------------------------------------
 Warning -- This program may not be used in any manner that
 competes with the business of Gaussian, Inc. or will provide
 assistance to any competitor of Gaussian, Inc.  The licensee
 of this program is prohibited from giving any competitor of
 Gaussian, Inc. access to this program.  By using this program,
 the user acknowledges that Gaussian, Inc. is engaged in the
 business of creating and licensing software in the field of
 computational chemistry and represents and warrants to the
 licensee that it is not a competitor of Gaussian, Inc. and that
 it will not use this program in any manner prohibited above.
 ---------------------------------------------------------------
  

 Cite this work as:
 Gaussian 16, Revision C.01,
 M. J. Frisch, G. W. Trucks, H. B. Schlegel, G. E. Scuseria, 
 M. A. Robb, J. R. Cheeseman, G. Scalmani, V. Barone, 
 G. A. Petersson, H. Nakatsuji, X. Li, M. Caricato, A. V. Marenich, 
 J. Bloino, B. G. Janesko, R. Gomperts, B. Mennucci, H. P. Hratchian, 
 J. V. Ortiz, A. F. Izmaylov, J. L. Sonnenberg, D. Williams-Young, 
 F. Ding, F. Lipparini, F. Egidi, J. Goings, B. Peng, A. Petrone, 
 T. Henderson, D. Ranasinghe, V. G. Zakrzewski, J. Gao, N. Rega, 
 G. Zheng, W. Liang, M. Hada, M. Ehara, K. Toyota, R. Fukuda, 
 J. Hasegawa, M. Ishida, T. Nakajima, Y. Honda, O. Kitao, H. Nakai, 
 T. Vreven, K. Throssell, J. A. Montgomery, Jr., J. E. Peralta, 
 F. Ogliaro, M. J. Bearpark, J. J. Heyd, E. N. Brothers, K. N. Kudin, 
 V. N. Staroverov, T. A. Keith, R. Kobayashi, J. Normand, 
 K. Raghavachari, A. P. Rendell, J. C. Burant, S. S. Iyengar, 
 J. Tomasi, M. Cossi, J. M. Millam, M. Klene, C. Adamo, R. Cammi, 
 J. W. Ochterski, R. L. Martin, K. Morokuma, O. Farkas, 
 J. B. Foresman, and D. J. Fox, Gaussian, Inc., Wallingford CT, 2019.
 
 ******************************************
 Gaussian 16:  ES64L-G16RevC.01  3-Jul-2019
                 7-Dec-2024 
 ******************************************
 Default route: SCF=Direct
 ----------------------------------------------------
 # m06/genecp scf=tight int=ultrafine 5d freq=noraman
 ----------------------------------------------------
 1/10=4,30=1,38=1/1,3;
 2/12=2,17=6,18=5,40=1/2;
 3/5=7,8=1,11=2,16=1,17=8,25=1,30=1,71=2,74=-54,75=-5,140=1/1,2,3;
 4//1;
 5/5=2,32=2,38=5,98=1/2;
 8/6=4,10=90,11=11/1;
 11/6=1,8=1,9=11,15=111,16=1/1,2,10;
 10/6=1/2;
 6/7=2,8=2,9=2,10=2,28=1/1;
 7/8=1,10=1,25=1/1,2,3,16;
 1/10=4,30=1/3;
 99//99;
 ------
 OPT-TS
 ------
 Symbolic Z-matrix:
 Charge =  0 Multiplicity = 1
 C                    -2.46892   1.27686   1.04994 
 C                    -2.556    -0.78027  -0.01389 
 C                    -3.76886  -1.08903   0.59174 
 C                    -4.34356  -0.17001   1.46031 
 C                    -3.68048   1.02556   1.69386 
 C                    -1.69798   2.51817   1.25901 
 C                     0.33932   3.58134   0.98883 
 C                    -0.16068   4.77409   1.49318 
 C                    -1.48901   4.81751   1.89805 
 C                    -2.26854   3.67664   1.78019 
 H                    -2.0436   -1.48284  -0.67875 
 H                    -5.28472  -0.39376   1.95662 
 H                    -4.09071   1.74749   2.39561 
 H                     1.36888   3.48325   0.64029 
 H                    -1.92069   5.73699   2.28788 
 H                    -3.32239   3.70306   2.04725 
 N                    -1.92593   0.37638   0.20221 
 N                    -0.40809   2.47982   0.88003 
 Ir                    0.33959   0.59845  -0.15666 
 O                     0.97525  -2.00558   1.30722 
 O                     3.24791   0.10634   0.67621 
 O                     2.00309  -1.34529  -1.89493 
 B                     2.33396   0.83663  -0.07792 
 B                     0.57072  -0.68232   1.34681 
 B                     0.8025   -1.03164  -1.26274 
 O                    -0.14182  -2.02994  -1.55317 
 O                     0.19562  -0.32115   2.63914 
 C                     0.15453  -1.5255    3.42214 
 C                     1.15014  -2.44616   2.66085 
 C                     1.96471  -2.71917  -2.29807 
 C                     0.4351   -2.97868  -2.46047 
 C                     4.5674    0.5155    0.30358 
 C                     4.3316    1.96343  -0.21647 
 O                     2.98888   1.89734  -0.72068 
 C                     2.6062   -2.19349   3.03108 
 H                     2.8442   -1.12279   3.00187 
 H                     2.85191  -2.59754   4.02283 
 H                     3.2439   -2.68382   2.28258 
 C                     0.83878  -3.92735   2.73735 
 H                     1.59611  -4.494     2.17907 
 H                     0.85536  -4.27956   3.77901 
 H                    -0.14109  -4.15727   2.30337 
 C                     0.54695  -1.20734   4.84993 
 H                     0.61301  -2.12597   5.45083 
 H                     1.51089  -0.68918   4.89438 
 H                    -0.20861  -0.55619   5.30847 
 C                    -1.28111  -2.03716   3.37538 
 H                    -1.94902  -1.2361    3.72051 
 H                    -1.5777   -2.31102   2.35254 
 H                    -1.42954  -2.91147   4.0237 
 C                     5.47337   0.40852   1.51517 
 H                     5.55597  -0.64447   1.81591 
 H                     6.48431   0.77756   1.28835 
 H                     5.07813   0.96922   2.37007 
 C                     5.04702  -0.43855  -0.78322 
 H                     6.07934  -0.22526  -1.09298 
 H                     5.01054  -1.46021  -0.38156 
 H                     4.38387  -0.4056   -1.65709 
 C                     4.34071   3.00116   0.8996 
 H                     3.67691   2.70039   1.72207 
 H                     5.34805   3.16448   1.30602 
 H                     3.97895   3.95691   0.49635 
 C                     5.26015   2.40054  -1.33164 
 H                     6.30873   2.38149  -1.00023 
 H                     5.15857   1.75721  -2.21214 
 H                     5.0194    3.42793  -1.63476 
 C                    -0.08118  -2.64423  -3.85372 
 H                     0.25107  -3.37444  -4.60398 
 H                    -1.17965  -2.64763  -3.83633 
 H                     0.25246  -1.64574  -4.16724 
 C                    -0.02204  -4.36686  -2.05645 
 H                     0.46605  -5.13998  -2.66754 
 H                     0.19505  -4.56034  -0.99935 
 H                    -1.10739  -4.45655  -2.19932 
 C                     2.59893  -3.53222  -1.17565 
 H                     3.62233  -3.16633  -1.01914 
 H                     2.05088  -3.3918   -0.23622 
 H                     2.64921  -4.60229  -1.42023 
 C                     2.77775  -2.8858   -3.56772 
 H                     2.71327  -3.9176   -3.9432 
 H                     2.4489   -2.20324  -4.35915 
 H                     3.83324  -2.66981  -3.3559 
 H                     0.48832   1.77846  -2.13032 
 C                    -2.53874   2.58028  -2.14197 
 O                    -2.40054   3.56745  -1.42834 
 C                    -3.89738   1.91556  -2.29946 
 H                    -4.17572   1.90305  -3.36468 
 H                    -3.81959   0.85693  -2.00278 
 C                    -0.15853   2.54027  -2.61942 
 H                     0.32693   2.77949  -3.57606 
 H                    -0.2121    3.43724  -1.99938 
 N                    -1.49602   2.03243  -2.8408 
 C                    -1.55867   0.7664   -3.54194 
 H                    -2.55866   0.57469  -3.94001 
 H                    -0.86306   0.79636  -4.39144 
 H                    -1.26113  -0.07278  -2.88916 
 C                    -4.96726   2.61636  -1.4844 
 H                    -4.71118   2.61143  -0.41716 
 H                    -5.06795   3.665    -1.78484 
 C                    -4.37924  -2.42493   0.30757 
 F                    -4.58134  -2.59423  -1.00397 
 F                    -3.57468  -3.41528   0.70869 
 F                    -5.55419  -2.57807   0.92461 
 H                     0.4812    5.64881   1.5592 
 H                    -5.93713   2.11996  -1.60901 
 

 GradGradGradGradGradGradGradGradGradGradGradGradGradGradGradGradGradGrad
 Berny optimization.
 Initialization pass.
 Trust Radius=3.00D-01 FncErr=1.00D-07 GrdErr=1.00D-07 EigMax=2.50D+02 EigMin=1.00D-04
 Number of steps in this run=      2 maximum allowed number of steps=      2.
 GradGradGradGradGradGradGradGradGradGradGradGradGradGradGradGradGradGrad

 Stoichiometry    C34H54B3F3IrN3O7
 Framework group  C1[X(C34H54B3F3IrN3O7)]
 Deg. of freedom   309
 Full point group                 C1      NOp   1
 Largest Abelian subgroup         C1      NOp   1
 Largest concise Abelian subgroup C1      NOp   1
                         Standard orientation:                         
 ---------------------------------------------------------------------
 Center     Atomic      Atomic             Coordinates (Angstroms)
 Number     Number       Type             X           Y           Z
 ---------------------------------------------------------------------
      1          6           0       -2.468920    1.276861    1.049940
      2          6           0       -2.556001   -0.780269   -0.013890
      3          6           0       -3.768862   -1.089028    0.591740
      4          6           0       -4.343561   -0.170008    1.460310
      5          6           0       -3.680481    1.025562    1.693860
      6          6           0       -1.697980    2.518171    1.259010
      7          6           0        0.339321    3.581340    0.988830
      8          6           0       -0.160679    4.774090    1.493180
      9          6           0       -1.489009    4.817511    1.898050
     10          6           0       -2.268539    3.676641    1.780190
     11          1           0       -2.043602   -1.482839   -0.678750
     12          1           0       -5.284721   -0.393758    1.956620
     13          1           0       -4.090710    1.747492    2.395610
     14          1           0        1.368880    3.483249    0.640290
     15          1           0       -1.920689    5.736991    2.287880
     16          1           0       -3.322389    3.703061    2.047250
     17          7           0       -1.925931    0.376381    0.202210
     18          7           0       -0.408090    2.479820    0.880030
     19         77           0        0.339589    0.598450   -0.156660
     20          8           0        0.975248   -2.005580    1.307220
     21          8           0        3.247909    0.106339    0.676210
     22          8           0        2.003088   -1.345291   -1.894930
     23          5           0        2.333959    0.836629   -0.077920
     24          5           0        0.570719   -0.682320    1.346810
     25          5           0        0.802499   -1.031640   -1.262740
     26          8           0       -0.141822   -2.029940   -1.553170
     27          8           0        0.195619   -0.321150    2.639140
     28          6           0        0.154528   -1.525500    3.422140
     29          6           0        1.150138   -2.446161    2.660850
     30          6           0        1.964708   -2.719171   -2.298070
     31          6           0        0.435098   -2.978680   -2.460470
     32          6           0        4.567399    0.515498    0.303580
     33          6           0        4.331600    1.963428   -0.216470
     34          8           0        2.988880    1.897339   -0.720680
     35          6           0        2.606198   -2.193491    3.031080
     36          1           0        2.844198   -1.122791    3.001870
     37          1           0        2.851908   -2.597541    4.022830
     38          1           0        3.243898   -2.683821    2.282580
     39          6           0        0.838777   -3.927350    2.737350
     40          1           0        1.596107   -4.494001    2.179070
     41          1           0        0.855357   -4.279560    3.779010
     42          1           0       -0.141093   -4.157270    2.303370
     43          6           0        0.546948   -1.207340    4.849930
     44          1           0        0.613008   -2.125970    5.450830
     45          1           0        1.510889   -0.689181    4.894380
     46          1           0       -0.208611   -0.556190    5.308470
     47          6           0       -1.281112   -2.037159    3.375380
     48          1           0       -1.949022   -1.236099    3.720510
     49          1           0       -1.577702   -2.311019    2.352540
     50          1           0       -1.429542   -2.911469    4.023700
     51          6           0        5.473369    0.408518    1.515170
     52          1           0        5.555969   -0.644472    1.815910
     53          1           0        6.484309    0.777557    1.288350
     54          1           0        5.078129    0.969218    2.370070
     55          6           0        5.047019   -0.438552   -0.783220
     56          1           0        6.079339   -0.225263   -1.092980
     57          1           0        5.010538   -1.460212   -0.381560
     58          1           0        4.383869   -0.405602   -1.657090
     59          6           0        4.340710    3.001158    0.899600
     60          1           0        3.676910    2.700388    1.722070
     61          1           0        5.348050    3.164478    1.306020
     62          1           0        3.978951    3.956908    0.496350
     63          6           0        5.260150    2.400538   -1.331640
     64          1           0        6.308730    2.381487   -1.000230
     65          1           0        5.158570    1.757208   -2.212140
     66          1           0        5.019400    3.427928   -1.634760
     67          6           0       -0.081182   -2.644230   -3.853720
     68          1           0        0.251068   -3.374440   -4.603980
     69          1           0       -1.179652   -2.647630   -3.836330
     70          1           0        0.252458   -1.645740   -4.167240
     71          6           0       -0.022043   -4.366860   -2.056450
     72          1           0        0.466047   -5.139980   -2.667540
     73          1           0        0.195047   -4.560340   -0.999350
     74          1           0       -1.107393   -4.456550   -2.199320
     75          6           0        2.598927   -3.532221   -1.175650
     76          1           0        3.622328   -3.166332   -1.019140
     77          1           0        2.050878   -3.391801   -0.236220
     78          1           0        2.649207   -4.602291   -1.420230
     79          6           0        2.777748   -2.885801   -3.567720
     80          1           0        2.713267   -3.917601   -3.943200
     81          1           0        2.448898   -2.203241   -4.359150
     82          1           0        3.833238   -2.669812   -3.355900
     83          1           0        0.488320    1.778460   -2.130320
     84          6           0       -2.538740    2.580281   -2.141970
     85          8           0       -2.400539    3.567451   -1.428340
     86          6           0       -3.897380    1.915562   -2.299460
     87          1           0       -4.175720    1.903052   -3.364680
     88          1           0       -3.819591    0.856932   -2.002780
     89          6           0       -0.158530    2.540270   -2.619420
     90          1           0        0.326930    2.779490   -3.576060
     91          1           0       -0.212100    3.437240   -1.999380
     92          7           0       -1.496020    2.032431   -2.840800
     93          6           0       -1.558671    0.766401   -3.541940
     94          1           0       -2.558661    0.574691   -3.940010
     95          1           0       -0.863061    0.796360   -4.391440
     96          1           0       -1.261131   -0.072779   -2.889160
     97          6           0       -4.967260    2.616362   -1.484400
     98          1           0       -4.711180    2.611432   -0.417160
     99          1           0       -5.067949    3.665002   -1.784840
    100          6           0       -4.379242   -2.424928    0.307570
    101          9           0       -4.581342   -2.594228   -1.003970
    102          9           0       -3.574683   -3.415278    0.708690
    103          9           0       -5.554192   -2.578068    0.924610
    104          1           0        0.481201    5.648810    1.559200
    105          1           0       -5.937130    2.119963   -1.609010
 ---------------------------------------------------------------------
 Rotational constants (GHZ):           0.0691338           0.0550449           0.0478331
 General basis read from cards:  (5D, 7F)
 ======================================================================================================
                                       Pseudopotential Parameters
 ======================================================================================================
  Center     Atomic      Valence      Angular      Power
  Number     Number     Electrons     Momentum     of R      Exponent        Coefficient   SO-Coeffient
 ======================================================================================================
    1          6
                                   No pseudopotential on this center.
    2          6
                                   No pseudopotential on this center.
    3          6
                                   No pseudopotential on this center.
    4          6
                                   No pseudopotential on this center.
    5          6
                                   No pseudopotential on this center.
    6          6
                                   No pseudopotential on this center.
    7          6
                                   No pseudopotential on this center.
    8          6
                                   No pseudopotential on this center.
    9          6
                                   No pseudopotential on this center.
   10          6
                                   No pseudopotential on this center.
   11          1
                                   No pseudopotential on this center.
   12          1
                                   No pseudopotential on this center.
   13          1
                                   No pseudopotential on this center.
   14          1
                                   No pseudopotential on this center.
   15          1
                                   No pseudopotential on this center.
   16          1
                                   No pseudopotential on this center.
   17          7
                                   No pseudopotential on this center.
   18          7
                                   No pseudopotential on this center.
   19         77           17
                                      G and up 
                                                     1      823.5880147       -0.15780140    0.00000000
                                                     2      364.6613336    -1517.52704460    0.00000000
                                                     2       55.7082801     -316.53065290    0.00000000
                                                     2       12.0464544      -91.88809410    0.00000000
                                                     2        3.5120610       -9.22417730    0.00000000
                                      S - G
                                                     0      188.0490770        3.15780140    0.00000000
                                                     1      340.4194712       26.83225770    0.00000000
                                                     2      128.2373673      800.42500070    0.00000000
                                                     2       33.8644961      369.40506830    0.00000000
                                                     2        4.7560005      242.41718990    0.00000000
                                                     2        3.9649974     -118.21732820    0.00000000
                                      P - G
                                                     0      289.7291139        2.15780140    0.00000000
                                                     1       87.4633789       61.96786100    0.00000000
                                                     2       30.4363766      269.05819860    0.00000000
                                                     2        4.0553412      231.16547930    0.00000000
                                                     2        3.5525341     -133.69526670    0.00000000
                                      D - G
                                                     0      136.4017106        3.15780140    0.00000000
                                                     1       95.0776925       45.93498030    0.00000000
                                                     2       49.2258410      359.03446680    0.00000000
                                                     2       15.0874145      176.47401190    0.00000000
                                                     2        4.0405764       54.51552860    0.00000000
                                      F - G
                                                     0      127.3507908        3.95461970    0.00000000
                                                     1       66.2364374       52.97736550    0.00000000
                                                     2       34.4299229      274.86433830    0.00000000
                                                     2       10.1995721      137.20473380    0.00000000
                                                     2        2.5409702       14.86333050    0.00000000
   20          8
                                   No pseudopotential on this center.
   21          8
                                   No pseudopotential on this center.
   22          8
                                   No pseudopotential on this center.
   23          5
                                   No pseudopotential on this center.
   24          5
                                   No pseudopotential on this center.
   25          5
                                   No pseudopotential on this center.
   26          8
                                   No pseudopotential on this center.
   27          8
                                   No pseudopotential on this center.
   28          6
                                   No pseudopotential on this center.
   29          6
                                   No pseudopotential on this center.
   30          6
                                   No pseudopotential on this center.
   31          6
                                   No pseudopotential on this center.
   32          6
                                   No pseudopotential on this center.
   33          6
                                   No pseudopotential on this center.
   34          8
                                   No pseudopotential on this center.
   35          6
                                   No pseudopotential on this center.
   36          1
                                   No pseudopotential on this center.
   37          1
                                   No pseudopotential on this center.
   38          1
                                   No pseudopotential on this center.
   39          6
                                   No pseudopotential on this center.
   40          1
                                   No pseudopotential on this center.
   41          1
                                   No pseudopotential on this center.
   42          1
                                   No pseudopotential on this center.
   43          6
                                   No pseudopotential on this center.
   44          1
                                   No pseudopotential on this center.
   45          1
                                   No pseudopotential on this center.
   46          1
                                   No pseudopotential on this center.
   47          6
                                   No pseudopotential on this center.
   48          1
                                   No pseudopotential on this center.
   49          1
                                   No pseudopotential on this center.
   50          1
                                   No pseudopotential on this center.
   51          6
                                   No pseudopotential on this center.
   52          1
                                   No pseudopotential on this center.
   53          1
                                   No pseudopotential on this center.
   54          1
                                   No pseudopotential on this center.
   55          6
                                   No pseudopotential on this center.
   56          1
                                   No pseudopotential on this center.
   57          1
                                   No pseudopotential on this center.
   58          1
                                   No pseudopotential on this center.
   59          6
                                   No pseudopotential on this center.
   60          1
                                   No pseudopotential on this center.
   61          1
                                   No pseudopotential on this center.
   62          1
                                   No pseudopotential on this center.
   63          6
                                   No pseudopotential on this center.
   64          1
                                   No pseudopotential on this center.
   65          1
                                   No pseudopotential on this center.
   66          1
                                   No pseudopotential on this center.
   67          6
                                   No pseudopotential on this center.
   68          1
                                   No pseudopotential on this center.
   69          1
                                   No pseudopotential on this center.
   70          1
                                   No pseudopotential on this center.
   71          6
                                   No pseudopotential on this center.
   72          1
                                   No pseudopotential on this center.
   73          1
                                   No pseudopotential on this center.
   74          1
                                   No pseudopotential on this center.
   75          6
                                   No pseudopotential on this center.
   76          1
                                   No pseudopotential on this center.
   77          1
                                   No pseudopotential on this center.
   78          1
                                   No pseudopotential on this center.
   79          6
                                   No pseudopotential on this center.
   80          1
                                   No pseudopotential on this center.
   81          1
                                   No pseudopotential on this center.
   82          1
                                   No pseudopotential on this center.
   83          1
                                   No pseudopotential on this center.
   84          6
                                   No pseudopotential on this center.
   85          8
                                   No pseudopotential on this center.
   86          6
                                   No pseudopotential on this center.
   87          1
                                   No pseudopotential on this center.
   88          1
                                   No pseudopotential on this center.
   89          6
                                   No pseudopotential on this center.
   90          1
                                   No pseudopotential on this center.
   91          1
                                   No pseudopotential on this center.
   92          7
                                   No pseudopotential on this center.
   93          6
                                   No pseudopotential on this center.
   94          1
                                   No pseudopotential on this center.
   95          1
                                   No pseudopotential on this center.
   96          1
                                   No pseudopotential on this center.
   97          6
                                   No pseudopotential on this center.
   98          1
                                   No pseudopotential on this center.
   99          1
                                   No pseudopotential on this center.
  100          6
                                   No pseudopotential on this center.
  101          9
                                   No pseudopotential on this center.
  102          9
                                   No pseudopotential on this center.
  103          9
                                   No pseudopotential on this center.
  104          1
                                   No pseudopotential on this center.
  105          1
                                   No pseudopotential on this center.
 ======================================================================================================
 There are   882 symmetry adapted cartesian basis functions of A   symmetry.
 There are   830 symmetry adapted basis functions of A   symmetry.
   830 basis functions,  1659 primitive gaussians,   882 cartesian basis functions
   197 alpha electrons      197 beta electrons
       nuclear repulsion energy      8571.0440670218 Hartrees.
 NAtoms=  105 NActive=  105 NUniq=  105 SFac= 1.00D+00 NAtFMM=   60 NAOKFM=T Big=T
 Integral buffers will be    131072 words long.
 Raffenetti 2 integral format.
 Two-electron integral symmetry is turned on.
 One-electron integrals computed using PRISM.
   1 Symmetry operations used in ECPInt.
 ECPInt:  NShTT=   50086 NPrTT=  307226 LenC2=   38904 LenP2D=  120811.
 LDataN:  DoStor=T MaxTD1= 6 Len=  172
 NBasis=   830 RedAO= T EigKep=  4.94D-04  NBF=   830
 NBsUse=   830 1.00D-06 EigRej= -1.00D+00 NBFU=   830
 Defaulting to unpruned grid for atomic number  77.
 ExpMin= 2.90D-02 ExpMax= 7.00D+03 ExpMxC= 1.05D+03 IAcc=3 IRadAn=         5 AccDes= 0.00D+00
 Harris functional with IExCor= 1009 and IRadAn=       5 diagonalized for initial guess.
 HarFok:  IExCor= 1009 AccDes= 0.00D+00 IRadAn=         5 IDoV= 1 UseB2=F ITyADJ=14
 ICtDFT=  3500011 ScaDFX=  1.000000  1.000000  1.000000  1.000000
 Defaulting to unpruned grid for atomic number  77.
 FoFCou: FMM=F IPFlag=           0 FMFlag=      100000 FMFlg1=        2001
         NFxFlg=           0 DoJE=T BraDBF=F KetDBF=T FulRan=T
         wScrn=  0.000000 ICntrl=       500 IOpCl=  0 I1Cent=   200000004 NGrid=           0
         NMat0=    1 NMatS0=      1 NMatT0=    0 NMatD0=    1 NMtDS0=    0 NMtDT0=    0
 Petite list used in FoFCou.
 Requested convergence on RMS density matrix=1.00D-08 within 128 cycles.
 Requested convergence on MAX density matrix=1.00D-06.
 Requested convergence on             energy=1.00D-06.
 No special actions if energy rises.
 Defaulting to unpruned grid for atomic number  77.
 Defaulting to unpruned grid for atomic number  77.
 Defaulting to unpruned grid for atomic number  77.
 Defaulting to unpruned grid for atomic number  77.
 Defaulting to unpruned grid for atomic number  77.
 Defaulting to unpruned grid for atomic number  77.
 Defaulting to unpruned grid for atomic number  77.
 Defaulting to unpruned grid for atomic number  77.
 Defaulting to unpruned grid for atomic number  77.
 Defaulting to unpruned grid for atomic number  77.
 Defaulting to unpruned grid for atomic number  77.
 Defaulting to unpruned grid for atomic number  77.
 Defaulting to unpruned grid for atomic number  77.
 Defaulting to unpruned grid for atomic number  77.
 Defaulting to unpruned grid for atomic number  77.
 Defaulting to unpruned grid for atomic number  77.
 SCF Done:  E(RM06) =  -2496.64104791     A.U. after   15 cycles
            NFock= 15  Conv=0.71D-08     -V/T= 2.0358
 DoSCS=F DFT=T ScalE2(SS,OS)=  1.000000  1.000000
 Range of M.O.s used for correlation:     1   830
 NBasis=   830 NAE=   197 NBE=   197 NFC=     0 NFV=     0
 NROrb=    830 NOA=   197 NOB=   197 NVA=   633 NVB=   633

 **** Warning!!: The largest alpha MO coefficient is  0.10346732D+02

   1 Symmetry operations used in ECPInt.
 ECPInt:  NShTT=   50086 NPrTT=  307226 LenC2=   38904 LenP2D=  120811.
 LDataN:  DoStor=T MaxTD1= 7 Len=  274
 Number of processors reduced to   8 by ecpmxn.
 Symmetrizing basis deriv contribution to polar:
 IMax=3 JMax=2 DiffMx= 0.00D+00
 G2DrvN: will do   106 centers at a time, making    1 passes.
 Calling FoFCou, ICntrl=  3107 FMM=T I1Cent=   0 AccDes= 0.00D+00.
 Defaulting to unpruned grid for atomic number  77.
 Defaulting to unpruned grid for atomic number  77.
 Defaulting to unpruned grid for atomic number  77.
 Defaulting to unpruned grid for atomic number  77.
 Defaulting to unpruned grid for atomic number  77.
 Defaulting to unpruned grid for atomic number  77.
 Defaulting to unpruned grid for atomic number  77.
 Defaulting to unpruned grid for atomic number  77.
 Defaulting to unpruned grid for atomic number  77.
 Defaulting to unpruned grid for atomic number  77.
 Defaulting to unpruned grid for atomic number  77.
 Defaulting to unpruned grid for atomic number  77.
 Defaulting to unpruned grid for atomic number  77.
 Defaulting to unpruned grid for atomic number  77.
 Defaulting to unpruned grid for atomic number  77.
 Defaulting to unpruned grid for atomic number  77.
 End of G2Drv F.D. properties file   721 does not exist.
 End of G2Drv F.D. properties file   722 does not exist.
 End of G2Drv F.D. properties file   788 does not exist.
          IDoAtm=11111111111111111111111111111111111111111111111111
          IDoAtm=11111111111111111111111111111111111111111111111111
          IDoAtm=11111
          Differentiating once with respect to electric field.
                with respect to dipole field.
          Differentiating once with respect to nuclear coordinates.
 Defaulting to unpruned grid for atomic number  77.
 CalDSu exits because no D1Ps are significant.
 Defaulting to unpruned grid for atomic number  77.
 Defaulting to unpruned grid for atomic number  77.
 Defaulting to unpruned grid for atomic number  77.
 Defaulting to unpruned grid for atomic number  77.
 Defaulting to unpruned grid for atomic number  77.
 Defaulting to unpruned grid for atomic number  77.
 Defaulting to unpruned grid for atomic number  77.
 Defaulting to unpruned grid for atomic number  77.
 Defaulting to unpruned grid for atomic number  77.
 Defaulting to unpruned grid for atomic number  77.
 Defaulting to unpruned grid for atomic number  77.
 Defaulting to unpruned grid for atomic number  77.
 Defaulting to unpruned grid for atomic number  77.
 Defaulting to unpruned grid for atomic number  77.
 Defaulting to unpruned grid for atomic number  77.
 Defaulting to unpruned grid for atomic number  77.
          There are   318 degrees of freedom in the 1st order CPHF.  IDoFFX=6 NUNeed=     3.
    315 vectors produced by pass  0 Test12= 1.25D-13 1.00D-09 XBig12= 4.75D+02 8.71D+00.
 AX will form    72 AO Fock derivatives at one time.
    315 vectors produced by pass  1 Test12= 1.25D-13 1.00D-09 XBig12= 8.42D+01 1.15D+00.
    315 vectors produced by pass  2 Test12= 1.25D-13 1.00D-09 XBig12= 1.15D+00 8.90D-02.
    315 vectors produced by pass  3 Test12= 1.25D-13 1.00D-09 XBig12= 7.52D-03 6.86D-03.
    315 vectors produced by pass  4 Test12= 1.25D-13 1.00D-09 XBig12= 2.62D-05 3.35D-04.
    283 vectors produced by pass  5 Test12= 1.25D-13 1.00D-09 XBig12= 5.39D-08 1.09D-05.
     79 vectors produced by pass  6 Test12= 1.25D-13 1.00D-09 XBig12= 8.10D-11 4.59D-07.
      3 vectors produced by pass  7 Test12= 1.25D-13 1.00D-09 XBig12= 1.09D-13 1.83D-08.
 InvSVY:  IOpt=1 It=  1 EMax= 2.13D-14
 Solved reduced A of dimension  1940 with   318 vectors.
 Isotropic polarizability for W=    0.000000      470.72 Bohr**3.
 End of Minotr F.D. properties file   721 does not exist.
 End of Minotr F.D. properties file   722 does not exist.
 End of Minotr F.D. properties file   788 does not exist.
 Hyperfine terms turned off by default for NAtoms > 100.

 **********************************************************************

            Population analysis using the SCF Density.

 **********************************************************************

 Orbital symmetries:
       Occupied  (A) (A) (A) (A) (A) (A) (A) (A) (A) (A) (A) (A)
                 (A) (A) (A) (A) (A) (A) (A) (A) (A) (A) (A) (A)
                 (A) (A) (A) (A) (A) (A) (A) (A) (A) (A) (A) (A)
                 (A) (A) (A) (A) (A) (A) (A) (A) (A) (A) (A) (A)
                 (A) (A) (A) (A) (A) (A) (A) (A) (A) (A) (A) (A)
                 (A) (A) (A) (A) (A) (A) (A) (A) (A) (A) (A) (A)
                 (A) (A) (A) (A) (A) (A) (A) (A) (A) (A) (A) (A)
                 (A) (A) (A) (A) (A) (A) (A) (A) (A) (A) (A) (A)
                 (A) (A) (A) (A) (A) (A) (A) (A) (A) (A) (A) (A)
                 (A) (A) (A) (A) (A) (A) (A) (A) (A) (A) (A) (A)
                 (A) (A) (A) (A) (A) (A) (A) (A) (A) (A) (A) (A)
                 (A) (A) (A) (A) (A) (A) (A) (A) (A) (A) (A) (A)
                 (A) (A) (A) (A) (A) (A) (A) (A) (A) (A) (A) (A)
                 (A) (A) (A) (A) (A) (A) (A) (A) (A) (A) (A) (A)
                 (A) (A) (A) (A) (A) (A) (A) (A) (A) (A) (A) (A)
                 (A) (A) (A) (A) (A) (A) (A) (A) (A) (A) (A) (A)
                 (A) (A) (A) (A) (A)
       Virtual   (A) (A) (A) (A) (A) (A) (A) (A) (A) (A) (A) (A)
                 (A) (A) (A) (A) (A) (A) (A) (A) (A) (A) (A) (A)
                 (A) (A) (A) (A) (A) (A) (A) (A) (A) (A) (A) (A)
                 (A) (A) (A) (A) (A) (A) (A) (A) (A) (A) (A) (A)
                 (A) (A) (A) (A) (A) (A) (A) (A) (A) (A) (A) (A)
                 (A) (A) (A) (A) (A) (A) (A) (A) (A) (A) (A) (A)
                 (A) (A) (A) (A) (A) (A) (A) (A) (A) (A) (A) (A)
                 (A) (A) (A) (A) (A) (A) (A) (A) (A) (A) (A) (A)
                 (A) (A) (A) (A) (A) (A) (A) (A) (A) (A) (A) (A)
                 (A) (A) (A) (A) (A) (A) (A) (A) (A) (A) (A) (A)
                 (A) (A) (A) (A) (A) (A) (A) (A) (A) (A) (A) (A)
                 (A) (A) (A) (A) (A) (A) (A) (A) (A) (A) (A) (A)
                 (A) (A) (A) (A) (A) (A) (A) (A) (A) (A) (A) (A)
                 (A) (A) (A) (A) (A) (A) (A) (A) (A) (A) (A) (A)
                 (A) (A) (A) (A) (A) (A) (A) (A) (A) (A) (A) (A)
                 (A) (A) (A) (A) (A) (A) (A) (A) (A) (A) (A) (A)
                 (A) (A) (A) (A) (A) (A) (A) (A) (A) (A) (A) (A)
                 (A) (A) (A) (A) (A) (A) (A) (A) (A) (A) (A) (A)
                 (A) (A) (A) (A) (A) (A) (A) (A) (A) (A) (A) (A)
                 (A) (A) (A) (A) (A) (A) (A) (A) (A) (A) (A) (A)
                 (A) (A) (A) (A) (A) (A) (A) (A) (A) (A) (A) (A)
                 (A) (A) (A) (A) (A) (A) (A) (A) (A) (A) (A) (A)
                 (A) (A) (A) (A) (A) (A) (A) (A) (A) (A) (A) (A)
                 (A) (A) (A) (A) (A) (A) (A) (A) (A) (A) (A) (A)
                 (A) (A) (A) (A) (A) (A) (A) (A) (A) (A) (A) (A)
                 (A) (A) (A) (A) (A) (A) (A) (A) (A) (A) (A) (A)
                 (A) (A) (A) (A) (A) (A) (A) (A) (A) (A) (A) (A)
                 (A) (A) (A) (A) (A) (A) (A) (A) (A) (A) (A) (A)
                 (A) (A) (A) (A) (A) (A) (A) (A) (A) (A) (A) (A)
                 (A) (A) (A) (A) (A) (A) (A) (A) (A) (A) (A) (A)
                 (A) (A) (A) (A) (A) (A) (A) (A) (A) (A) (A) (A)
                 (A) (A) (A) (A) (A) (A) (A) (A) (A) (A) (A) (A)
                 (A) (A) (A) (A) (A) (A) (A) (A) (A) (A) (A) (A)
                 (A) (A) (A) (A) (A) (A) (A) (A) (A) (A) (A) (A)
                 (A) (A) (A) (A) (A) (A) (A) (A) (A) (A) (A) (A)
                 (A) (A) (A) (A) (A) (A) (A) (A) (A) (A) (A) (A)
                 (A) (A) (A) (A) (A) (A) (A) (A) (A) (A) (A) (A)
                 (A) (A) (A) (A) (A) (A) (A) (A) (A) (A) (A) (A)
                 (A) (A) (A) (A) (A) (A) (A) (A) (A) (A) (A) (A)
                 (A) (A) (A) (A) (A) (A) (A) (A) (A) (A) (A) (A)
                 (A) (A) (A) (A) (A) (A) (A) (A) (A) (A) (A) (A)
                 (A) (A) (A) (A) (A) (A) (A) (A) (A) (A) (A) (A)
                 (A) (A) (A) (A) (A) (A) (A) (A) (A) (A) (A) (A)
                 (A) (A) (A) (A) (A) (A) (A) (A) (A) (A) (A) (A)
                 (A) (A) (A) (A) (A) (A) (A) (A) (A) (A) (A) (A)
                 (A) (A) (A) (A) (A) (A) (A) (A) (A) (A) (A) (A)
                 (A) (A) (A) (A) (A) (A) (A) (A) (A) (A) (A) (A)
                 (A) (A) (A) (A) (A) (A) (A) (A) (A) (A) (A) (A)
                 (A) (A) (A) (A) (A) (A) (A) (A) (A) (A) (A) (A)
                 (A) (A) (A) (A) (A) (A) (A) (A) (A) (A) (A) (A)
                 (A) (A) (A) (A) (A) (A) (A) (A) (A) (A) (A) (A)
                 (A) (A) (A) (A) (A) (A) (A) (A) (A) (A) (A) (A)
                 (A) (A) (A) (A) (A) (A) (A) (A) (A)
 The electronic state is 1-A.
 Alpha  occ. eigenvalues --  -24.83435 -24.82780 -24.82718 -19.20045 -19.19875
 Alpha  occ. eigenvalues --  -19.19654 -19.19397 -19.19075 -19.18872 -19.18660
 Alpha  occ. eigenvalues --  -14.45163 -14.44238 -14.42404 -10.51506 -10.34395
 Alpha  occ. eigenvalues --  -10.32784 -10.31743 -10.31253 -10.30206 -10.30116
 Alpha  occ. eigenvalues --  -10.29535 -10.29189 -10.29064 -10.28963 -10.28759
 Alpha  occ. eigenvalues --  -10.28635 -10.28631 -10.28417 -10.28329 -10.28031
 Alpha  occ. eigenvalues --  -10.27586 -10.27263 -10.26489 -10.25391 -10.23538
 Alpha  occ. eigenvalues --  -10.22633 -10.22592 -10.22501 -10.22401 -10.22353
 Alpha  occ. eigenvalues --  -10.22167 -10.22162 -10.22075 -10.22068 -10.21438
 Alpha  occ. eigenvalues --  -10.21010 -10.20765  -6.79937  -6.78130  -6.77861
 Alpha  occ. eigenvalues --   -3.60053  -2.02788  -2.02080  -2.01573  -1.35874
 Alpha  occ. eigenvalues --   -1.27416  -1.26821  -1.05995  -1.05182  -1.04956
 Alpha  occ. eigenvalues --   -1.04568  -1.00301  -0.99040  -0.98331  -0.98099
 Alpha  occ. eigenvalues --   -0.97685  -0.94236  -0.86341  -0.83749  -0.83391
 Alpha  occ. eigenvalues --   -0.80111  -0.79669  -0.79579  -0.79073  -0.78852
 Alpha  occ. eigenvalues --   -0.74595  -0.74116  -0.74065  -0.73786  -0.72318
 Alpha  occ. eigenvalues --   -0.70223  -0.70106  -0.69766  -0.69733  -0.68730
 Alpha  occ. eigenvalues --   -0.68633  -0.67362  -0.66910  -0.66810  -0.65305
 Alpha  occ. eigenvalues --   -0.64237  -0.63482  -0.61823  -0.61762  -0.61443
 Alpha  occ. eigenvalues --   -0.60867  -0.60610  -0.60450  -0.57010  -0.54453
 Alpha  occ. eigenvalues --   -0.53947  -0.53822  -0.53747  -0.53688  -0.53229
 Alpha  occ. eigenvalues --   -0.52646  -0.52318  -0.52051  -0.50893  -0.50406
 Alpha  occ. eigenvalues --   -0.49510  -0.49242  -0.49135  -0.48755  -0.47649
 Alpha  occ. eigenvalues --   -0.47513  -0.47136  -0.46740  -0.46379  -0.46261
 Alpha  occ. eigenvalues --   -0.45999  -0.45734  -0.45662  -0.45449  -0.45284
 Alpha  occ. eigenvalues --   -0.45010  -0.44815  -0.44478  -0.44199  -0.43757
 Alpha  occ. eigenvalues --   -0.43705  -0.43584  -0.43232  -0.43123  -0.42772
 Alpha  occ. eigenvalues --   -0.42672  -0.42548  -0.42107  -0.40710  -0.40586
 Alpha  occ. eigenvalues --   -0.40128  -0.40035  -0.39854  -0.39556  -0.39528
 Alpha  occ. eigenvalues --   -0.39429  -0.39366  -0.39209  -0.39148  -0.39037
 Alpha  occ. eigenvalues --   -0.38969  -0.38753  -0.38608  -0.38392  -0.38268
 Alpha  occ. eigenvalues --   -0.38143  -0.37578  -0.37278  -0.36881  -0.36718
 Alpha  occ. eigenvalues --   -0.36342  -0.36304  -0.36221  -0.35868  -0.35739
 Alpha  occ. eigenvalues --   -0.35520  -0.35407  -0.35303  -0.35234  -0.34710
 Alpha  occ. eigenvalues --   -0.34576  -0.34042  -0.33960  -0.33735  -0.32519
 Alpha  occ. eigenvalues --   -0.32039  -0.31859  -0.31603  -0.31409  -0.31059
 Alpha  occ. eigenvalues --   -0.30680  -0.30603  -0.29771  -0.29447  -0.29282
 Alpha  occ. eigenvalues --   -0.28893  -0.27187  -0.26399  -0.25944  -0.25833
 Alpha  occ. eigenvalues --   -0.25163  -0.24866  -0.24614  -0.24383  -0.20828
 Alpha  occ. eigenvalues --   -0.20560  -0.20327
 Alpha virt. eigenvalues --   -0.07684  -0.04793  -0.03157   0.00331   0.01257
 Alpha virt. eigenvalues --    0.03931   0.04372   0.05508   0.06817   0.07272
 Alpha virt. eigenvalues --    0.07716   0.08809   0.09964   0.10261   0.10461
 Alpha virt. eigenvalues --    0.10825   0.11038   0.11799   0.11980   0.12811
 Alpha virt. eigenvalues --    0.13023   0.13094   0.13350   0.13471   0.13765
 Alpha virt. eigenvalues --    0.13918   0.14228   0.14434   0.14609   0.14687
 Alpha virt. eigenvalues --    0.14926   0.15450   0.15520   0.15676   0.15793
 Alpha virt. eigenvalues --    0.15921   0.16130   0.16355   0.16513   0.16667
 Alpha virt. eigenvalues --    0.16813   0.17173   0.17313   0.17542   0.17711
 Alpha virt. eigenvalues --    0.17890   0.18111   0.18399   0.18497   0.18777
 Alpha virt. eigenvalues --    0.18814   0.18947   0.19294   0.19563   0.19768
 Alpha virt. eigenvalues --    0.19836   0.19999   0.20289   0.20433   0.20768
 Alpha virt. eigenvalues --    0.20838   0.21160   0.21243   0.21387   0.21516
 Alpha virt. eigenvalues --    0.21584   0.21880   0.22042   0.22536   0.22633
 Alpha virt. eigenvalues --    0.22929   0.23094   0.23324   0.23782   0.23942
 Alpha virt. eigenvalues --    0.24156   0.24334   0.24533   0.24803   0.25143
 Alpha virt. eigenvalues --    0.25552   0.25760   0.26156   0.26506   0.26642
 Alpha virt. eigenvalues --    0.27013   0.27104   0.27364   0.27753   0.27983
 Alpha virt. eigenvalues --    0.28275   0.28444   0.28973   0.29094   0.29187
 Alpha virt. eigenvalues --    0.29463   0.30355   0.30393   0.31220   0.31935
 Alpha virt. eigenvalues --    0.32152   0.32845   0.32996   0.33859   0.34902
 Alpha virt. eigenvalues --    0.35635   0.35871   0.36016   0.36853   0.37024
 Alpha virt. eigenvalues --    0.37571   0.38082   0.38694   0.39613   0.40454
 Alpha virt. eigenvalues --    0.41548   0.42784   0.43609   0.44437   0.45758
 Alpha virt. eigenvalues --    0.46196   0.47279   0.48152   0.48783   0.49072
 Alpha virt. eigenvalues --    0.49718   0.50301   0.50327   0.50926   0.51341
 Alpha virt. eigenvalues --    0.51602   0.51868   0.51962   0.52350   0.52468
 Alpha virt. eigenvalues --    0.53163   0.53595   0.54025   0.54649   0.54947
 Alpha virt. eigenvalues --    0.55354   0.55792   0.56348   0.56452   0.56808
 Alpha virt. eigenvalues --    0.57024   0.57629   0.57873   0.58153   0.58330
 Alpha virt. eigenvalues --    0.58410   0.58741   0.58908   0.59106   0.59286
 Alpha virt. eigenvalues --    0.59478   0.59649   0.60473   0.60705   0.61054
 Alpha virt. eigenvalues --    0.61140   0.61438   0.61917   0.62198   0.62526
 Alpha virt. eigenvalues --    0.62967   0.62971   0.63560   0.63844   0.63971
 Alpha virt. eigenvalues --    0.64150   0.64385   0.64833   0.65114   0.65620
 Alpha virt. eigenvalues --    0.66100   0.66583   0.66922   0.67305   0.67591
 Alpha virt. eigenvalues --    0.67883   0.68098   0.68531   0.68967   0.69833
 Alpha virt. eigenvalues --    0.69873   0.69903   0.70343   0.70568   0.70778
 Alpha virt. eigenvalues --    0.71188   0.71538   0.71977   0.72174   0.72445
 Alpha virt. eigenvalues --    0.72986   0.73438   0.73838   0.74132   0.74264
 Alpha virt. eigenvalues --    0.75139   0.75396   0.75659   0.75700   0.76222
 Alpha virt. eigenvalues --    0.76807   0.77166   0.77530   0.78042   0.78107
 Alpha virt. eigenvalues --    0.78563   0.78768   0.79120   0.79859   0.79972
 Alpha virt. eigenvalues --    0.80817   0.80968   0.81861   0.82406   0.82589
 Alpha virt. eigenvalues --    0.82752   0.82964   0.83193   0.83788   0.83989
 Alpha virt. eigenvalues --    0.84119   0.84490   0.84671   0.84941   0.85235
 Alpha virt. eigenvalues --    0.85301   0.85867   0.86175   0.86344   0.86663
 Alpha virt. eigenvalues --    0.87190   0.87350   0.87829   0.87954   0.88067
 Alpha virt. eigenvalues --    0.88450   0.88713   0.88909   0.89070   0.89185
 Alpha virt. eigenvalues --    0.89393   0.89626   0.89946   0.90109   0.90395
 Alpha virt. eigenvalues --    0.90689   0.90976   0.91183   0.91526   0.91967
 Alpha virt. eigenvalues --    0.92124   0.92515   0.92604   0.92845   0.93136
 Alpha virt. eigenvalues --    0.93430   0.93596   0.94194   0.94404   0.94899
 Alpha virt. eigenvalues --    0.95202   0.95743   0.95958   0.96076   0.96165
 Alpha virt. eigenvalues --    0.96846   0.96957   0.97002   0.97423   0.97671
 Alpha virt. eigenvalues --    0.98080   0.98292   0.98403   0.98758   0.99671
 Alpha virt. eigenvalues --    1.00484   1.00616   1.00898   1.01191   1.01641
 Alpha virt. eigenvalues --    1.02420   1.03038   1.03521   1.04038   1.04705
 Alpha virt. eigenvalues --    1.05238   1.05351   1.05694   1.06226   1.06719
 Alpha virt. eigenvalues --    1.07219   1.07337   1.08417   1.08589   1.08675
 Alpha virt. eigenvalues --    1.09951   1.10076   1.10814   1.11583   1.12383
 Alpha virt. eigenvalues --    1.12545   1.13586   1.14374   1.15360   1.16130
 Alpha virt. eigenvalues --    1.16685   1.16924   1.17852   1.18247   1.19000
 Alpha virt. eigenvalues --    1.19354   1.19370   1.19981   1.20289   1.20994
 Alpha virt. eigenvalues --    1.21495   1.21612   1.22530   1.22945   1.23499
 Alpha virt. eigenvalues --    1.24542   1.24867   1.25455   1.26061   1.26517
 Alpha virt. eigenvalues --    1.27564   1.28505   1.29242   1.29963   1.30510
 Alpha virt. eigenvalues --    1.31051   1.32063   1.33174   1.33245   1.33580
 Alpha virt. eigenvalues --    1.34045   1.34928   1.35083   1.35418   1.35954
 Alpha virt. eigenvalues --    1.36605   1.37156   1.37665   1.38240   1.38373
 Alpha virt. eigenvalues --    1.39814   1.39970   1.40266   1.40788   1.41351
 Alpha virt. eigenvalues --    1.41789   1.42407   1.42958   1.43118   1.43452
 Alpha virt. eigenvalues --    1.43959   1.44455   1.44928   1.45392   1.45759
 Alpha virt. eigenvalues --    1.46322   1.46668   1.47117   1.47862   1.48550
 Alpha virt. eigenvalues --    1.48939   1.49192   1.49435   1.50662   1.50886
 Alpha virt. eigenvalues --    1.51232   1.52424   1.52986   1.53608   1.55491
 Alpha virt. eigenvalues --    1.56572   1.57578   1.57691   1.58847   1.59779
 Alpha virt. eigenvalues --    1.60210   1.61603   1.62665   1.63857   1.64379
 Alpha virt. eigenvalues --    1.64745   1.65252   1.65453   1.66169   1.66482
 Alpha virt. eigenvalues --    1.67909   1.68130   1.68551   1.69053   1.69702
 Alpha virt. eigenvalues --    1.70285   1.70601   1.71154   1.71541   1.71691
 Alpha virt. eigenvalues --    1.73673   1.74088   1.75478   1.75687   1.76803
 Alpha virt. eigenvalues --    1.77162   1.77697   1.78045   1.78443   1.78753
 Alpha virt. eigenvalues --    1.78906   1.80392   1.80546   1.80691   1.81146
 Alpha virt. eigenvalues --    1.81723   1.82159   1.83204   1.83345   1.83901
 Alpha virt. eigenvalues --    1.84647   1.84796   1.85038   1.85326   1.85999
 Alpha virt. eigenvalues --    1.86162   1.86735   1.87008   1.87325   1.87678
 Alpha virt. eigenvalues --    1.87972   1.88269   1.89521   1.90282   1.90851
 Alpha virt. eigenvalues --    1.91259   1.91757   1.92163   1.92193   1.92458
 Alpha virt. eigenvalues --    1.92726   1.92835   1.93225   1.93437   1.93744
 Alpha virt. eigenvalues --    1.93957   1.94052   1.94105   1.94518   1.95581
 Alpha virt. eigenvalues --    1.95774   1.96499   1.97108   1.97902   1.98049
 Alpha virt. eigenvalues --    1.98911   1.99116   1.99432   2.00608   2.01067
 Alpha virt. eigenvalues --    2.01597   2.01715   2.02494   2.02940   2.03124
 Alpha virt. eigenvalues --    2.03342   2.03459   2.03856   2.04964   2.05155
 Alpha virt. eigenvalues --    2.05508   2.05878   2.07050   2.07312   2.07385
 Alpha virt. eigenvalues --    2.07874   2.07958   2.08253   2.08707   2.08827
 Alpha virt. eigenvalues --    2.09244   2.09604   2.09838   2.10392   2.10497
 Alpha virt. eigenvalues --    2.11441   2.11548   2.11769   2.12228   2.12556
 Alpha virt. eigenvalues --    2.13527   2.13770   2.14251   2.15216   2.15451
 Alpha virt. eigenvalues --    2.15670   2.16197   2.16358   2.16560   2.16837
 Alpha virt. eigenvalues --    2.17278   2.17954   2.18421   2.19158   2.19224
 Alpha virt. eigenvalues --    2.19580   2.19917   2.20118   2.20270   2.20456
 Alpha virt. eigenvalues --    2.21599   2.21768   2.22320   2.22721   2.22898
 Alpha virt. eigenvalues --    2.23036   2.23613   2.24038   2.24293   2.24569
 Alpha virt. eigenvalues --    2.25667   2.25872   2.26349   2.26609   2.26836
 Alpha virt. eigenvalues --    2.27330   2.27564   2.27917   2.28126   2.28624
 Alpha virt. eigenvalues --    2.29645   2.30065   2.31104   2.31307   2.31849
 Alpha virt. eigenvalues --    2.32295   2.32682   2.32743   2.33428   2.34454
 Alpha virt. eigenvalues --    2.34617   2.35090   2.35945   2.36705   2.37321
 Alpha virt. eigenvalues --    2.39237   2.39569   2.39728   2.39988   2.42717
 Alpha virt. eigenvalues --    2.44299   2.44963   2.46124   2.46738   2.47552
 Alpha virt. eigenvalues --    2.48340   2.48581   2.48811   2.49292   2.49696
 Alpha virt. eigenvalues --    2.49998   2.50708   2.50854   2.51950   2.54171
 Alpha virt. eigenvalues --    2.54524   2.57686   2.59472   2.60091   2.60864
 Alpha virt. eigenvalues --    2.61361   2.61905   2.62612   2.63167   2.65052
 Alpha virt. eigenvalues --    2.65369   2.65665   2.65795   2.66916   2.67750
 Alpha virt. eigenvalues --    2.68413   2.69042   2.70962   2.72062   2.75577
 Alpha virt. eigenvalues --    2.76790   2.77824   2.78058   2.78571   2.78610
 Alpha virt. eigenvalues --    2.80249   2.80554   2.81210   2.81902   2.81971
 Alpha virt. eigenvalues --    2.82330   2.82474   2.82865   2.83639   2.84440
 Alpha virt. eigenvalues --    2.86026   2.87876   2.90108   2.90581   2.91858
 Alpha virt. eigenvalues --    2.93010   2.94951   2.96001   2.96588   2.97705
 Alpha virt. eigenvalues --    2.98133   2.98555   3.04081   3.05435   3.05659
 Alpha virt. eigenvalues --    3.06123   3.06660   3.07611   3.09437   3.12649
 Alpha virt. eigenvalues --    3.13074   3.13308   3.15513   3.19424   3.25459
 Alpha virt. eigenvalues --    3.31822   3.44518  12.37475
          Condensed to atoms (all electrons):
 Mulliken charges:
               1
     1  C    0.279143
     2  C   -0.003498
     3  C   -0.069756
     4  C   -0.160092
     5  C   -0.186459
     6  C    0.328249
     7  C    0.048310
     8  C   -0.164694
     9  C   -0.135678
    10  C   -0.154863
    11  H    0.248273
    12  H    0.199603
    13  H    0.181169
    14  H    0.199968
    15  H    0.182280
    16  H    0.168440
    17  N   -0.471259
    18  N   -0.482466
    19  Ir  -0.109891
    20  O   -0.513175
    21  O   -0.518587
    22  O   -0.510075
    23  B    0.428777
    24  B    0.536111
    25  B    0.467875
    26  O   -0.544435
    27  O   -0.520869
    28  C    0.301070
    29  C    0.288690
    30  C    0.288307
    31  C    0.304174
    32  C    0.292765
    33  C    0.304037
    34  O   -0.533080
    35  C   -0.489593
    36  H    0.186945
    37  H    0.141019
    38  H    0.161077
    39  C   -0.515524
    40  H    0.167921
    41  H    0.150120
    42  H    0.173552
    43  C   -0.511830
    44  H    0.149296
    45  H    0.177915
    46  H    0.165046
    47  C   -0.504108
    48  H    0.156652
    49  H    0.161824
    50  H    0.153988
    51  C   -0.509425
    52  H    0.167639
    53  H    0.146612
    54  H    0.164600
    55  C   -0.499761
    56  H    0.139663
    57  H    0.158014
    58  H    0.189428
    59  C   -0.515103
    60  H    0.173638
    61  H    0.153177
    62  H    0.158062
    63  C   -0.510343
    64  H    0.146562
    65  H    0.177729
    66  H    0.163961
    67  C   -0.504126
    68  H    0.153573
    69  H    0.157375
    70  H    0.160108
    71  C   -0.503304
    72  H    0.146740
    73  H    0.174707
    74  H    0.161687
    75  C   -0.503416
    76  H    0.155541
    77  H    0.193372
    78  H    0.138429
    79  C   -0.508094
    80  H    0.146429
    81  H    0.164748
    82  H    0.167188
    83  H    0.245253
    84  C    0.597802
    85  O   -0.514929
    86  C   -0.413961
    87  H    0.182173
    88  H    0.169478
    89  C   -0.404175
    90  H    0.184408
    91  H    0.224193
    92  N   -0.386623
    93  C   -0.373744
    94  H    0.176093
    95  H    0.178945
    96  H    0.199233
    97  C   -0.469306
    98  H    0.144661
    99  H    0.182547
   100  C    0.972489
   101  F   -0.311961
   102  F   -0.302700
   103  F   -0.318390
   104  H    0.182826
   105  H    0.157611
 Sum of Mulliken charges =  -0.00000
 Mulliken charges with hydrogens summed into heavy atoms:
               1
     1  C    0.279143
     2  C    0.244775
     3  C   -0.069756
     4  C    0.039510
     5  C   -0.005290
     6  C    0.328249
     7  C    0.248278
     8  C    0.018132
     9  C    0.046602
    10  C    0.013578
    17  N   -0.471259
    18  N   -0.482466
    19  Ir  -0.109891
    20  O   -0.513175
    21  O   -0.518587
    22  O   -0.510075
    23  B    0.428777
    24  B    0.536111
    25  B    0.467875
    26  O   -0.544435
    27  O   -0.520869
    28  C    0.301070
    29  C    0.288690
    30  C    0.288307
    31  C    0.304174
    32  C    0.292765
    33  C    0.304037
    34  O   -0.533080
    35  C   -0.000553
    39  C   -0.023932
    43  C   -0.019572
    47  C   -0.031645
    51  C   -0.030574
    55  C   -0.012655
    59  C   -0.030226
    63  C   -0.022092
    67  C   -0.033070
    71  C   -0.020170
    75  C   -0.016073
    79  C   -0.029729
    84  C    0.597802
    85  O   -0.514929
    86  C   -0.062309
    89  C    0.249680
    92  N   -0.386623
    93  C    0.180527
    97  C    0.015513
   100  C    0.972489
   101  F   -0.311961
   102  F   -0.302700
   103  F   -0.318390
 APT charges:
               1
     1  C    0.251375
     2  C    0.055786
     3  C   -0.206097
     4  C    0.090841
     5  C   -0.182851
     6  C    0.138914
     7  C    0.062399
     8  C   -0.036609
     9  C    0.111816
    10  C   -0.150176
    11  H    0.146445
    12  H    0.066588
    13  H    0.050617
    14  H    0.073139
    15  H    0.029586
    16  H    0.042229
    17  N   -0.187488
    18  N   -0.202598
    19  Ir  -0.573794
    20  O   -0.952782
    21  O   -0.982034
    22  O   -0.968297
    23  B    1.275065
    24  B    1.222320
    25  B    1.210094
    26  O   -1.009445
    27  O   -0.939937
    28  C    0.462548
    29  C    0.486760
    30  C    0.475420
    31  C    0.512859
    32  C    0.504343
    33  C    0.503630
    34  O   -1.048270
    35  C   -0.034731
    36  H    0.026282
    37  H   -0.029380
    38  H    0.006170
    39  C   -0.011884
    40  H    0.005260
    41  H   -0.017198
    42  H    0.008289
    43  C   -0.006650
    44  H   -0.016077
    45  H    0.007298
    46  H   -0.007258
    47  C   -0.028922
    48  H   -0.007966
    49  H   -0.004032
    50  H   -0.015880
    51  C   -0.006636
    52  H   -0.001693
    53  H   -0.022090
    54  H    0.000654
    55  C   -0.047957
    56  H   -0.034135
    57  H    0.003085
    58  H    0.038352
    59  C   -0.036384
    60  H   -0.000526
    61  H   -0.023169
    62  H   -0.003941
    63  C   -0.008864
    64  H   -0.024328
    65  H    0.007640
    66  H   -0.008071
    67  C   -0.030947
    68  H   -0.026644
    69  H   -0.004532
    70  H    0.003171
    71  C   -0.006100
    72  H   -0.021883
    73  H   -0.003083
    74  H   -0.006181
    75  C   -0.046474
    76  H   -0.001923
    77  H    0.047086
    78  H   -0.030358
    79  C   -0.001341
    80  H   -0.020953
    81  H   -0.003437
    82  H   -0.005043
    83  H   -0.048816
    84  C    0.858722
    85  O   -0.687169
    86  C    0.012913
    87  H   -0.015468
    88  H   -0.020073
    89  C    0.251915
    90  H   -0.048244
    91  H    0.059268
    92  N   -0.663686
    93  C    0.269967
    94  H    0.000983
    95  H   -0.001389
    96  H   -0.006433
    97  C    0.071360
    98  H   -0.014327
    99  H    0.005530
   100  C    1.756021
   101  F   -0.554334
   102  F   -0.550039
   103  F   -0.572105
   104  H    0.036631
   105  H   -0.020243
 Sum of APT charges =  -0.00000
 APT charges with hydrogens summed into heavy atoms:
               1
     1  C    0.251375
     2  C    0.202231
     3  C   -0.206097
     4  C    0.157429
     5  C   -0.132234
     6  C    0.138914
     7  C    0.135538
     8  C    0.000022
     9  C    0.141402
    10  C   -0.107947
    17  N   -0.187488
    18  N   -0.202598
    19  Ir  -0.573794
    20  O   -0.952782
    21  O   -0.982034
    22  O   -0.968297
    23  B    1.275065
    24  B    1.222320
    25  B    1.210094
    26  O   -1.009445
    27  O   -0.939937
    28  C    0.462548
    29  C    0.486760
    30  C    0.475420
    31  C    0.512859
    32  C    0.504343
    33  C    0.503630
    34  O   -1.048270
    35  C   -0.031659
    39  C   -0.015534
    43  C   -0.022687
    47  C   -0.056799
    51  C   -0.029765
    55  C   -0.040654
    59  C   -0.064020
    63  C   -0.033622
    67  C   -0.058951
    71  C   -0.037247
    75  C   -0.031669
    79  C   -0.030774
    84  C    0.858722
    85  O   -0.687169
    86  C   -0.022628
    89  C    0.214123
    92  N   -0.663686
    93  C    0.263129
    97  C    0.042320
   100  C    1.756021
   101  F   -0.554334
   102  F   -0.550039
   103  F   -0.572105
 Electronic spatial extent (au):  <R**2>=          27159.5934
 Charge=              0.0000 electrons
 Dipole moment (field-independent basis, Debye):
    X=             -3.1604    Y=              2.5452    Z=              1.7803  Tot=              4.4312
 Quadrupole moment (field-independent basis, Debye-Ang):
   XX=           -301.8592   YY=           -305.0806   ZZ=           -301.3914
   XY=             -5.5732   XZ=             -5.6172   YZ=             10.5511
 Traceless Quadrupole moment (field-independent basis, Debye-Ang):
   XX=              0.9179   YY=             -2.3036   ZZ=              1.3857
   XY=             -5.5732   XZ=             -5.6172   YZ=             10.5511
 Octapole moment (field-independent basis, Debye-Ang**2):
  XXX=            -44.6687  YYY=             89.6395  ZZZ=            -45.5487  XYY=             29.4071
  XXY=             59.0010  XXZ=             30.1091  XZZ=            -48.4137  YZZ=              1.5467
  YYZ=             55.5931  XYZ=            -21.1897
 Hexadecapole moment (field-independent basis, Debye-Ang**3):
 XXXX=         -15311.1375 YYYY=         -10818.2264 ZZZZ=          -8215.3961 XXXY=            138.7636
 XXXZ=           -126.0312 YYYX=            214.8569 YYYZ=            337.8563 ZZZX=             14.1758
 ZZZY=           -133.7427 XXYY=          -4573.5275 XXZZ=          -3910.6159 YYZZ=          -3129.1176
 XXYZ=             68.4351 YYXZ=           -122.6561 ZZXY=             -8.1491
 N-N= 8.571044067022D+03 E-N=-2.294923175757D+04  KE= 2.410453992045D+03
  Exact polarizability:     515.511       4.069     492.461     -30.336      33.338     404.196
 Approx polarizability:     731.066      30.513     736.257     -64.807      61.717     600.366
   1 Symmetry operations used in ECPInt.
 ECPInt:  NShTT=   50086 NPrTT=  307226 LenC2=   38904 LenP2D=  120811.
 LDataN:  DoStor=T MaxTD1= 8 Len=  415
 Calling FoFJK, ICntrl=    100127 FMM=F ISym2X=0 I1Cent= 0 IOpClX= 0 NMat=1 NMatS=1 NMatT=0.
 Defaulting to unpruned grid for atomic number  77.
 Defaulting to unpruned grid for atomic number  77.
 Defaulting to unpruned grid for atomic number  77.
 Defaulting to unpruned grid for atomic number  77.
 Defaulting to unpruned grid for atomic number  77.
 Defaulting to unpruned grid for atomic number  77.
 Defaulting to unpruned grid for atomic number  77.
 Defaulting to unpruned grid for atomic number  77.
 Defaulting to unpruned grid for atomic number  77.
 Defaulting to unpruned grid for atomic number  77.
 Defaulting to unpruned grid for atomic number  77.
 Defaulting to unpruned grid for atomic number  77.
 Defaulting to unpruned grid for atomic number  77.
 Defaulting to unpruned grid for atomic number  77.
 Defaulting to unpruned grid for atomic number  77.
 Defaulting to unpruned grid for atomic number  77.
 Full mass-weighted force constant matrix:
 Low frequencies ---   -4.4374   -0.0005   -0.0002    0.0003    1.6013    5.7594
 Low frequencies ---   17.3613   20.4078   23.0268
 Diagonal vibrational polarizability:
      110.1942376      68.7742150      87.2511523
 Harmonic frequencies (cm**-1), IR intensities (KM/Mole), Raman scattering
 activities (A**4/AMU), depolarization ratios for plane and unpolarized
 incident light, reduced masses (AMU), force constants (mDyne/A),
 and normal coordinates:
                      1                      2                      3
                      A                      A                      A
 Frequencies --     17.2225                20.1083                22.9335
 Red. masses --      5.5521                 4.0462                 4.4816
 Frc consts  --      0.0010                 0.0010                 0.0014
 IR Inten    --      0.1898                 0.1413                 0.0595
  Atom AN      X      Y      Z        X      Y      Z        X      Y      Z
     1   6    -0.00  -0.03  -0.01    -0.01  -0.01  -0.00     0.02   0.01  -0.01
     2   6     0.01  -0.01  -0.05    -0.00  -0.01   0.00     0.01   0.01  -0.00
     3   6     0.02  -0.04  -0.05     0.01  -0.02   0.01     0.02   0.00   0.02
     4   6     0.01  -0.06  -0.03     0.01  -0.02   0.01     0.03   0.01   0.02
     5   6    -0.00  -0.06  -0.01    -0.00  -0.01   0.00     0.03   0.01   0.00
     6   6    -0.01  -0.04   0.03    -0.01  -0.00  -0.01     0.02   0.01  -0.03
     7   6    -0.01  -0.02   0.05    -0.01  -0.00   0.00     0.02   0.01  -0.06
     8   6    -0.02  -0.04   0.09    -0.01  -0.00   0.00     0.02   0.01  -0.06
     9   6    -0.01  -0.06   0.10    -0.02  -0.00  -0.01     0.03   0.01  -0.04
    10   6    -0.01  -0.06   0.07    -0.02  -0.00  -0.01     0.03   0.01  -0.02
    11   1     0.02   0.00  -0.06    -0.00  -0.01  -0.00     0.00   0.00  -0.01
    12   1     0.01  -0.08  -0.04     0.01  -0.03   0.02     0.04   0.00   0.03
    13   1    -0.01  -0.07  -0.00    -0.00  -0.01   0.01     0.03   0.01   0.00
    14   1    -0.02   0.00   0.04    -0.01  -0.00   0.01     0.01   0.01  -0.07
    15   1    -0.01  -0.07   0.14    -0.02  -0.00  -0.01     0.04   0.02  -0.04
    16   1    -0.00  -0.07   0.08    -0.02  -0.00  -0.02     0.03   0.02  -0.01
    17   7     0.00  -0.01  -0.03    -0.01  -0.00  -0.01     0.01   0.01  -0.02
    18   7    -0.01  -0.02   0.01    -0.01  -0.00  -0.00     0.02   0.01  -0.04
    19  77     0.00   0.01  -0.02    -0.01   0.00  -0.01     0.01  -0.00  -0.02
    20   8    -0.05   0.02   0.01    -0.05  -0.00  -0.00    -0.04  -0.01  -0.02
    21   8    -0.01   0.02   0.01    -0.00  -0.07  -0.06    -0.00  -0.02   0.00
    22   8     0.02  -0.04   0.04    -0.03   0.02  -0.05     0.04  -0.04   0.05
    23   5     0.01   0.00  -0.02    -0.01  -0.01  -0.00     0.01  -0.00   0.01
    24   5    -0.00   0.04   0.00    -0.01   0.01  -0.01     0.00   0.00  -0.02
    25   5     0.01  -0.00  -0.01    -0.02   0.01  -0.02     0.02  -0.01  -0.01
    26   8    -0.01   0.03  -0.04    -0.02  -0.00   0.01     0.01   0.02  -0.06
    27   8     0.04   0.07   0.00     0.04   0.04   0.00     0.02   0.02  -0.01
    28   6     0.01   0.09   0.02     0.03   0.05   0.02     0.00   0.02  -0.01
    29   6    -0.04   0.04   0.02    -0.02   0.01   0.00    -0.03  -0.01  -0.02
    30   6    -0.01  -0.04   0.04    -0.02   0.01  -0.03     0.03  -0.03   0.03
    31   6    -0.01   0.01  -0.02    -0.03  -0.01   0.01     0.03   0.01  -0.05
    32   6    -0.00  -0.01  -0.00    -0.01  -0.04  -0.04     0.00  -0.01   0.03
    33   6     0.02  -0.03  -0.05    -0.01   0.01   0.09     0.01   0.01   0.08
    34   8     0.02  -0.03  -0.05    -0.01   0.04   0.08     0.02   0.02   0.06
    35   6    -0.03  -0.02  -0.01    -0.00  -0.02  -0.04    -0.02  -0.05  -0.03
    36   1     0.01  -0.03  -0.03     0.02  -0.03  -0.06     0.01  -0.05  -0.03
    37   1    -0.03  -0.01  -0.01     0.01  -0.02  -0.04    -0.02  -0.05  -0.04
    38   1    -0.06  -0.05  -0.01    -0.03  -0.05  -0.05    -0.04  -0.06  -0.04
    39   6    -0.10   0.05   0.04    -0.06   0.02   0.03    -0.07   0.00  -0.01
    40   1    -0.14   0.01   0.04    -0.10  -0.01   0.01    -0.09  -0.02  -0.02
    41   1    -0.10   0.06   0.05    -0.04   0.03   0.03    -0.07  -0.00  -0.01
    42   1    -0.12   0.08   0.06    -0.08   0.04   0.06    -0.08   0.03  -0.01
    43   6     0.05   0.10   0.01     0.08   0.06   0.00     0.03   0.02  -0.01
    44   1     0.03   0.10   0.02     0.07   0.06   0.01     0.02   0.02  -0.01
    45   1     0.07   0.06  -0.02     0.09   0.03  -0.03     0.05  -0.01  -0.03
    46   1     0.09   0.13   0.02     0.11   0.08   0.02     0.06   0.04  -0.01
    47   6    -0.01   0.14   0.07     0.01   0.09   0.07    -0.01   0.06   0.02
    48   1     0.03   0.18   0.06     0.04   0.12   0.07     0.02   0.08   0.02
    49   1    -0.05   0.13   0.08    -0.02   0.08   0.08    -0.03   0.06   0.03
    50   1    -0.03   0.16   0.09     0.00   0.11   0.09    -0.02   0.07   0.03
    51   6    -0.01   0.02   0.00     0.00  -0.13  -0.05    -0.01  -0.06   0.04
    52   1    -0.02   0.02   0.04     0.01  -0.16  -0.14    -0.01  -0.07  -0.00
    53   1    -0.00  -0.00  -0.00    -0.00  -0.11  -0.02    -0.01  -0.04   0.07
    54   1    -0.00   0.05  -0.02     0.00  -0.21  -0.00    -0.03  -0.09   0.06
    55   6    -0.01  -0.05   0.03    -0.01   0.06  -0.12     0.01   0.03   0.00
    56   1    -0.00  -0.08   0.03    -0.01   0.08  -0.11     0.02   0.03   0.03
    57   1    -0.03  -0.04   0.06    -0.00   0.02  -0.20    -0.01   0.01  -0.04
    58   1    -0.00  -0.07   0.02    -0.02   0.12  -0.11     0.03   0.07  -0.01
    59   6     0.03   0.01  -0.09    -0.02  -0.09   0.18    -0.02  -0.04   0.13
    60   1     0.02   0.04  -0.08    -0.02  -0.16   0.15    -0.04  -0.07   0.10
    61   1     0.03   0.01  -0.09    -0.02  -0.12   0.19    -0.03  -0.05   0.15
    62   1     0.04  -0.00  -0.12    -0.02  -0.05   0.26    -0.01  -0.02   0.16
    63   6     0.03  -0.07  -0.06    -0.01   0.11   0.13     0.03   0.05   0.12
    64   1     0.03  -0.08  -0.06    -0.01   0.08   0.13     0.02   0.04   0.14
    65   1     0.02  -0.10  -0.04    -0.01   0.18   0.07     0.05   0.09   0.09
    66   1     0.04  -0.08  -0.10    -0.02   0.13   0.21     0.03   0.06   0.15
    67   6     0.05   0.02  -0.04    -0.06  -0.03   0.01     0.10   0.05  -0.07
    68   1     0.05   0.01  -0.02    -0.07  -0.04   0.02     0.13   0.05  -0.06
    69   1     0.05   0.06  -0.08    -0.06  -0.04   0.04     0.10   0.07  -0.12
    70   1     0.10   0.01  -0.02    -0.08  -0.03  -0.01     0.14   0.04  -0.03
    71   6    -0.08   0.02  -0.03    -0.00  -0.01   0.04    -0.03   0.02  -0.09
    72   1    -0.09   0.00  -0.01    -0.01  -0.01   0.04    -0.01   0.02  -0.07
    73   1    -0.12   0.02  -0.02     0.02   0.01   0.04    -0.09  -0.00  -0.08
    74   1    -0.08   0.07  -0.06    -0.00  -0.02   0.06    -0.02   0.05  -0.15
    75   6    -0.08  -0.06   0.06     0.01   0.04  -0.03    -0.05  -0.06   0.05
    76   1    -0.08  -0.08   0.11     0.01   0.04  -0.07    -0.06  -0.07   0.12
    77   1    -0.12  -0.06   0.04     0.03   0.07  -0.02    -0.10  -0.08   0.02
    78   1    -0.09  -0.06   0.06    -0.01   0.03  -0.00    -0.04  -0.06   0.02
    79   6     0.03  -0.07   0.07    -0.05   0.00  -0.05     0.08  -0.03   0.07
    80   1     0.00  -0.07   0.06    -0.04  -0.01  -0.02     0.07  -0.02   0.04
    81   1     0.09  -0.06   0.06    -0.08  -0.02  -0.05     0.14  -0.00   0.06
    82   1     0.03  -0.12   0.11    -0.05   0.03  -0.07     0.08  -0.07   0.12
    83   1    -0.02  -0.03  -0.04     0.05   0.03   0.01    -0.09   0.00  -0.02
    84   6    -0.02   0.04   0.05     0.04   0.01  -0.03    -0.08  -0.02   0.02
    85   8    -0.01   0.03   0.06     0.02   0.01  -0.02    -0.04  -0.01  -0.00
    86   6    -0.04   0.06   0.04     0.05  -0.01  -0.05    -0.09   0.01   0.06
    87   1    -0.04   0.08   0.05     0.06  -0.00  -0.05    -0.12  -0.01   0.06
    88   1    -0.05   0.06   0.03     0.07  -0.01  -0.06    -0.11   0.01   0.08
    89   6    -0.02   0.01   0.04     0.05   0.03   0.00    -0.10  -0.03  -0.07
    90   1    -0.05   0.08   0.05     0.07   0.04   0.01    -0.11  -0.11  -0.10
    91   1    -0.00  -0.03   0.11     0.03   0.03   0.00    -0.08   0.02  -0.13
    92   7    -0.03   0.03   0.04     0.06   0.02  -0.02    -0.10  -0.04  -0.01
    93   6    -0.05   0.06   0.00     0.07   0.03  -0.03    -0.12  -0.05   0.02
    94   1    -0.07   0.05   0.05     0.09   0.05  -0.09    -0.16  -0.10   0.14
    95   1    -0.10   0.10  -0.04     0.13   0.01   0.02    -0.22  -0.03  -0.07
    96   1     0.00   0.04  -0.04     0.01   0.02  -0.01    -0.01  -0.02  -0.01
    97   6    -0.02   0.07   0.06     0.04  -0.03  -0.05    -0.06   0.04   0.07
    98   1    -0.02   0.05   0.06     0.03  -0.04  -0.04    -0.05   0.06   0.06
    99   1    -0.00   0.08   0.08     0.03  -0.03  -0.04    -0.05   0.04   0.05
   100   6     0.05  -0.06  -0.04     0.02  -0.03   0.03     0.02   0.00   0.03
   101   9     0.18  -0.13  -0.05     0.07  -0.08   0.03    -0.08   0.04   0.04
   102   9     0.02  -0.03   0.09     0.01  -0.01   0.10     0.07   0.00  -0.07
   103   9    -0.00  -0.03  -0.15     0.00  -0.02  -0.01     0.07  -0.04   0.12
   104   1    -0.02  -0.04   0.12    -0.01  -0.00   0.00     0.02   0.01  -0.07
   105   1    -0.03   0.09   0.06     0.05  -0.05  -0.06    -0.08   0.06   0.09
                      4                      5                      6
                      A                      A                      A
 Frequencies --     25.6127                28.3852                33.3640
 Red. masses --      4.2303                 5.6447                 5.0503
 Frc consts  --      0.0016                 0.0027                 0.0033
 IR Inten    --      0.2354                 0.2057                 0.1573
  Atom AN      X      Y      Z        X      Y      Z        X      Y      Z
     1   6    -0.01  -0.00   0.01    -0.03  -0.02  -0.01    -0.01   0.01  -0.00
     2   6     0.00  -0.01   0.02    -0.01  -0.04   0.01     0.00  -0.01   0.03
     3   6     0.01  -0.02   0.04    -0.01  -0.04   0.02    -0.01   0.00   0.01
     4   6     0.02  -0.02   0.05    -0.02  -0.03   0.00    -0.02   0.02  -0.01
     5   6     0.00  -0.01   0.03    -0.03  -0.02  -0.02    -0.02   0.02  -0.02
     6   6    -0.02   0.01  -0.01    -0.02  -0.02  -0.00    -0.01   0.02  -0.03
     7   6    -0.03   0.02  -0.00    -0.02  -0.03  -0.00    -0.02   0.02  -0.05
     8   6    -0.04   0.03  -0.03    -0.01  -0.04   0.04    -0.02   0.03  -0.08
     9   6    -0.05   0.02  -0.05    -0.00  -0.04   0.06    -0.03   0.03  -0.08
    10   6    -0.04   0.01  -0.04    -0.01  -0.04   0.04    -0.02   0.03  -0.06
    11   1    -0.00  -0.00   0.02    -0.00  -0.04   0.02     0.00  -0.02   0.04
    12   1     0.03  -0.03   0.07    -0.02  -0.03   0.00    -0.03   0.03  -0.02
    13   1     0.01  -0.01   0.03    -0.04  -0.02  -0.03    -0.03   0.03  -0.04
    14   1    -0.02   0.02   0.01    -0.03  -0.02  -0.02    -0.02   0.01  -0.04
    15   1    -0.06   0.03  -0.08     0.01  -0.05   0.10    -0.03   0.04  -0.11
    16   1    -0.05   0.01  -0.06    -0.00  -0.04   0.07    -0.02   0.03  -0.06
    17   7    -0.01   0.00   0.01    -0.02  -0.03  -0.00     0.00  -0.01   0.02
    18   7    -0.02   0.01   0.01    -0.03  -0.02  -0.02    -0.01   0.01  -0.02
    19  77    -0.01   0.01   0.01    -0.03  -0.02  -0.01    -0.00  -0.01   0.03
    20   8    -0.04  -0.01  -0.01    -0.00  -0.00   0.00     0.05  -0.02  -0.02
    21   8    -0.02   0.02   0.04    -0.02   0.02   0.01     0.01   0.03   0.01
    22   8    -0.00  -0.00   0.03    -0.00  -0.01   0.01     0.01  -0.06   0.09
    23   5    -0.00   0.00   0.01    -0.03   0.00  -0.01    -0.00   0.02   0.02
    24   5    -0.01   0.00   0.00    -0.01  -0.01  -0.01     0.03  -0.03   0.01
    25   5    -0.01   0.02  -0.00    -0.01  -0.02   0.00    -0.00  -0.02   0.04
    26   8    -0.03   0.05  -0.05     0.00  -0.03   0.00    -0.03   0.03  -0.02
    27   8     0.02   0.00   0.01    -0.02  -0.00  -0.01     0.04  -0.06   0.02
    28   6     0.01  -0.00   0.01    -0.00   0.00   0.00     0.05  -0.07  -0.01
    29   6    -0.02  -0.02  -0.02     0.00   0.01   0.01     0.06  -0.04  -0.03
    30   6    -0.03   0.01  -0.01     0.01  -0.01   0.00    -0.03  -0.04   0.05
    31   6    -0.03   0.05  -0.06     0.01  -0.02  -0.00    -0.04   0.03  -0.02
    32   6    -0.01  -0.01   0.03    -0.03   0.03   0.01     0.00   0.04  -0.01
    33   6     0.01  -0.03  -0.02    -0.04   0.02  -0.01    -0.02   0.05   0.01
    34   8     0.01  -0.03  -0.03    -0.04   0.00  -0.02    -0.02   0.04   0.03
    35   6    -0.01  -0.06  -0.04     0.00   0.02   0.00     0.06  -0.03  -0.03
    36   1     0.01  -0.07  -0.03    -0.01   0.02  -0.00     0.04  -0.02  -0.01
    37   1    -0.01  -0.08  -0.05     0.01   0.03   0.00     0.08  -0.05  -0.05
    38   1    -0.04  -0.07  -0.05     0.01   0.02   0.00     0.06   0.00  -0.05
    39   6    -0.06  -0.01  -0.03     0.02   0.00   0.01     0.09  -0.05  -0.06
    40   1    -0.08  -0.03  -0.05     0.02   0.01   0.02     0.10  -0.03  -0.07
    41   1    -0.06  -0.02  -0.03     0.02   0.01   0.02     0.09  -0.07  -0.07
    42   1    -0.07   0.02  -0.02     0.02  -0.01   0.01     0.09  -0.06  -0.07
    43   6     0.05  -0.02  -0.00    -0.00   0.02  -0.00     0.05  -0.10  -0.00
    44   1     0.05  -0.02  -0.01     0.01   0.02   0.00     0.06  -0.11  -0.02
    45   1     0.06  -0.04  -0.02    -0.01   0.03  -0.01     0.04  -0.09   0.01
    46   1     0.08  -0.00   0.02    -0.01   0.01  -0.01     0.04  -0.12   0.01
    47   6     0.00   0.03   0.04     0.00  -0.01   0.01     0.06  -0.09  -0.02
[...]
 43,0.00000031,-0.00000308,0.00000092,0.00000260,0.00000275,0.00002169,
 -0.00002935,-0.00000850,-0.00000537,0.00000121,-0.00002208,-0.00002802
 ,-0.00001797,0.00001805,0.00000925,0.00002497,-0.00000816,0.00000795,-
 0.00001634,0.00000861,-0.00000213,0.00000617,-0.00000049,0.00000242,-0
 .00000017,-0.00000318,0.00000375,0.00000487,0.00000186,0.00000174,0.00
 000085,0.00000491,0.00000232,-0.00000061,-0.00000389,-0.00000016,0.000
 00191,-0.00000015,0.00002456,0.00006331,-0.00000024,-0.00001029,-0.000
 01832,-0.00001333,-0.00000070,-0.00001899,0.00000221,-0.00001971,-0.00
 001775,0.00000462,0.14784136,0.25142578,-0.00047944,0.00042211,-0.0012
 1823,0.00013374,0.00013334,-0.00002037,-0.00013414,0.00004184,0.000091
 97,-0.00001545,-0.00016208,-0.00009353,0.00014970,0.00015117,0.0000591
 0,0.00080368,-0.00013856,-0.00065449,-0.00863518,-0.00735935,0.0011772
 2,-0.00434337,-0.02001714,-0.04004008,0.00513076,0.00844750,0.00366563
 ,0.00358884,-0.00211974,0.00577224,0.00000049,-0.00000392,-0.00000756,
 -0.00000784,0.00000638,-0.00001269,0.00002729,-0.00002752,0.00004755,-
 0.00083384,0.00108303,-0.00253870,-0.00136262,0.00096374,-0.00313119,0
 .00028951,0.00043127,0.00021284,-0.00004983,-0.00021672,-0.00000851,0.
 00245837,-0.00447353,0.00608291,-0.00011849,0.00018002,-0.00005776,0.0
 0000989,-0.00002030,0.00001260,0.00002783,0.00002854,-0.00002153,0.000
 02503,-0.00002277,-0.00004191,-0.00014910,-0.00000939,0.00007302,-0.00
 000671,0.00000737,-0.00003007,0.00000373,-0.00002470,0.00014958,-0.000
 00489,-0.00004781,-0.00004803,0.00000043,-0.00003797,-0.00000212,0.000
 01183,0.00001130,0.00000305,-0.00000418,-0.00000092,-0.00000443,0.0000
 0006,0.00001008,-0.00000234,-0.00000919,0.00000794,0.00001245,-0.00000
 116,-0.00001433,0.00001816,0.00000823,-0.00001532,-0.00002963,0.000089
 90,0.00008949,-0.00002612,-0.00000027,-0.00000006,0.00000093,-0.000002
 15,-0.00000058,0.00000447,0.00000057,0.00000209,-0.00000044,0.00000047
 ,-0.00000340,-0.00000127,0.00000224,-0.00000014,0.00000199,0.00000100,
 -0.00000150,-0.00000051,-0.00000013,-0.00000028,0.00000003,-0.00000118
 ,0.,0.,-0.00000085,-0.00000137,0.00000012,-0.00000043,-0.00000271,0.00
 000020,-0.00000595,0.00000332,0.00000110,0.00000606,0.00000168,-0.0000
 0094,-0.00000126,0.00000040,-0.00000057,0.00000092,0.00000103,0.000001
 51,0.00000011,-0.00000211,-0.00000273,-0.00000098,0.00000005,0.0000005
 8,-0.00000047,0.00000745,0.00000219,-0.00000147,0.00000364,-0.00000107
 ,0.00000269,-0.00000091,0.00000032,0.00000079,-0.00000288,0.00000058,0
 .00000058,0.00000644,-0.00000539,0.00000346,-0.00000129,0.00000039,-0.
 00000083,0.00000428,-0.00000063,-0.00000244,-0.00000377,-0.00000071,0.
 00000204,-0.00007508,0.00001420,0.00000518,0.00002327,0.00000250,-0.00
 001387,0.00001857,0.00000115,0.00001394,0.00002050,-0.00000026,0.00000
 795,-0.00002210,0.00000620,-0.00000148,0.00000556,-0.00000477,0.000001
 11,0.00000037,-0.00000110,0.00000579,0.00001175,-0.00000476,0.00000172
 ,-0.00000607,-0.00000246,-0.00000096,0.00000038,-0.00000331,-0.0000019
 8,-0.00000128,0.00000057,0.00000305,0.00000189,0.00000010,0.00000151,-
 0.00000105,-0.00000324,0.,-0.00000227,-0.00000032,0.00000008,0.0000010
 9,-0.00000116,-0.00000102,-0.00000036,0.00000035,-0.00000210,-0.000000
 94,-0.00000099,0.00000020,-0.00000020,0.00000019,-0.00000047,0.0000021
 3,0.00000020,0.00000073,-0.00000141,-0.00000016,-0.00000057,-0.0000044
 3,0.00000087,0.00000139,-0.00000067,-0.00000191,-0.00000111,0.00000073
 ,-0.00000181,0.00000106,-0.00000044,0.00000035,-0.00001482,0.00003296,
 0.00000151,0.00001235,-0.00004882,-0.00000842,-0.00001979,0.00008315,-
 0.00003202,0.00000738,-0.00000369,0.00001404,0.00000137,0.00000169,0.0
 0000083,0.00000084,0.00000637,0.00000016,0.00002153,-0.00001903,-0.000
 04109,-0.00000952,-0.00000747,-0.00002715,-0.00001844,-0.00006333,0.00
 002468,-0.00000979,0.00004887,0.00000862,0.00000713,-0.00002945,-0.000
 00324,0.00000169,0.00000502,0.00000037,-0.00000118,-0.00000063,0.00000
 003,0.00000038,0.00000653,0.00000046,-0.00000044,0.00000023,-0.0000055
 8,0.00000301,-0.00000603,0.00000075,-0.00000540,0.00000194,-0.00000336
 ,0.00001964,-0.00002292,0.00004751,0.00000225,0.00001265,-0.00000206,-
 0.00000420,-0.00000215,-0.00000592,-0.00000245,0.00000358,-0.00000572,
 0.00337868,0.02271488,0.03064417,-0.00014397,-0.00001529,0.00008225,-0
 .00004632,-0.00004554,0.00000521,0.00002797,0.00009923,0.00009418,-0.0
 0005943,-0.00007500,-0.00011456,0.00004479,0.00005977,-0.00003411,0.00
 001714,-0.00003524,0.00006555,0.00001422,0.00003387,0.00001309,0.00001
 907,0.00001356,-0.00000319,0.00000040,0.00002689,0.00000487,0.00000686
 ,0.00001874,-0.00001155,-0.00001657,0.00000091,0.00001542,0.00000660,0
 .00002925,-0.00006232,-0.00001361,-0.00001044,0.00000254,0.00000849,-0
 .00000143,0.00000561,0.00000081,-0.00000218,0.00000279,-0.00001584,-0.
 00000114,0.00002589,0.00005704,-0.00001822,-0.00010705,0.00001223,0.00
 001169,-0.00002442,-0.00004788,0.00002274,0.00006688,-0.00001297,0.000
 07659,-0.00006319,-0.00005528,0.00001967,-0.00002028,-0.00002056,0.000
 05344,0.00001439,0.00005492,-0.00002653,0.00001095,0.00001865,-0.00014
 258,0.00011456,0.00003154,-0.00007055,-0.00001145,-0.00000762,0.000077
 08,-0.00000381,0.00001538,0.00006655,-0.00010784,-0.00001417,-0.000043
 43,0.00002575,0.00000544,-0.00001405,0.00003550,0.00000407,-0.00003507
 ,-0.00000778,0.00001840,-0.00003450,-0.00000892,0.00002043,0.00000074,
 -0.00000241,0.00004218,0.00000700,0.00001208,-0.00004615,0.00001524,-0
 .00002689,-0.00000014,0.00000149,-0.00000534,0.00000161,0.00000068,0.0
 0000409,-0.00000233,0.00000178,-0.00000487,0.00000100,-0.00000197,0.00
 000153,-0.00000362,0.00000228,-0.00000407,0.00000025,0.00000024,0.0000
 0210,0.00000001,0.00000283,-0.00000399,0.00000105,-0.00000047,0.000002
 34,0.00000294,0.00000678,-0.00000377,-0.00000145,0.00000320,-0.0000047
 5,0.00000168,-0.00000026,0.00000248,0.00000050,-0.00000342,-0.00000039
 ,0.00000545,0.00000576,-0.00000567,-0.00000076,-0.00000370,0.00000028,
 -0.00000466,-0.00000268,0.00000295,0.00000166,0.00000590,-0.00000385,-
 0.00000128,0.00000243,-0.00000022,-0.00000020,0.00000338,-0.00000136,-
 0.00000246,-0.00000133,0.00000012,0.00000116,-0.00000139,0.00000031,-0
 .00000157,0.00000028,0.00000176,-0.00000342,-0.00000068,0.00000157,0.0
 0000075,0.00000262,-0.00000150,0.00000212,-0.00000192,-0.00000184,-0.0
 0000305,-0.00000363,-0.00000192,0.00000197,-0.00000062,0.00000252,-0.0
 0000580,-0.00000021,-0.00000217,0.00000292,0.00000430,0.00000008,-0.00
 000281,-0.00000185,0.00000155,-0.00000532,0.00000056,-0.00000268,0.000
 00362,-0.00000215,-0.00000017,0.00000360,0.00000317,0.00000112,-0.0000
 1648,-0.00001018,0.00001130,-0.00000519,0.00001254,0.00000091,-0.00000
 360,-0.00001207,-0.00000175,0.00002217,0.00000480,-0.00001172,-0.00000
 902,0.00000154,-0.00000523,-0.00000021,0.00000420,0.00000159,-0.000001
 07,0.00000136,-0.00000368,0.00000560,-0.00000092,0.00000238,-0.0000007
 6,0.00000358,-0.00000035,-0.00000003,-0.00000134,-0.00000071,0.0000006
 7,-0.00000342,-0.00000047,-0.00000154,0.00000644,0.00000073,-0.0000000
 5,-0.00000017,0.00000393,-0.00000025,0.00000509,0.00000147,0.00000088,
 -0.00000123,-0.00000429,-0.00000101,-0.00000160,-0.00000090,-0.0001330
 6,0.00000108,-0.00002522,-0.00059435,0.00265987,0.00239243,-0.00026203
 ,0.00037926,0.00041605,-0.01871389,-0.01108563,-0.00375568,0.00076425,
 -0.00029386,0.00011915,0.00050673,0.00016722,-0.00060803,0.00014065,0.
 00032373,0.00030497,-0.00017782,-0.00000394,0.00000017,0.00007110,0.00
 000808,-0.00000047,-0.00180509,-0.00063441,-0.00002655,-0.00007361,-0.
 00043318,-0.00028825,0.00006172,-0.00002758,-0.00001681,-0.00003502,0.
 00005354,0.00006050,-0.00000789,0.00008484,0.00002134,-0.25502443,-0.1
 0783860,-0.02834991,-0.00544074,-0.00245542,0.00017901,0.00405665,0.00
 232507,0.00073873,-0.00032985,-0.00002095,-0.00022063,0.00009089,0.000
 01804,0.00013449,0.00008300,-0.00001925,0.00004906,0.00011965,0.000014
 62,0.00001056,-0.00000133,-0.00000114,0.00000320,0.27679468,0.00003009
 ,-0.00003965,-0.00000904,0.00001306,-0.00001221,-0.00000289,-0.0000158
 3,-0.00000644,-0.00006302,-0.00008325,0.00001424,-0.00000275,-0.000015
 51,0.00005873,-0.00002635,0.00000374,-0.00002326,0.00000672,0.00000891
 ,-0.00000161,-0.00000060,0.00000450,0.00000906,-0.00000256,-0.00000221
 ,0.00002041,-0.00000011,-0.00000483,-0.00000211,-0.00001452,0.00001358
 ,-0.00000859,-0.00000399,-0.00000577,0.00000683,0.00001182,-0.00001142
 ,-0.00001023,0.00000627,0.00000126,-0.00000166,-0.00000059,0.00000235,
 0.00000215,0.00001013,-0.00001054,-0.00000601,0.00003744,-0.00000089,0
 .00004544,0.00000456,-0.00001086,-0.00000423,-0.00000505,-0.00000461,0
 .00001393,-0.00003065,-0.00001115,0.00002860,-0.00002242,-0.00003760,0
 .00000507,-0.00000772,-0.00002464,0.00002545,0.00001918,0.00005908,-0.
 00000619,0.00001029,0.00001171,-0.00003842,0.00003983,0.00003154,-0.00
 003090,-0.00001950,-0.00002071,0.00002858,0.00001647,-0.00000537,0.000
 01988,-0.00002618,0.00000318,-0.00001349,0.00001179,0.00000470,-0.0000
 0682,0.00001443,0.00000451,-0.00001397,-0.00000442,0.00000771,-0.00001
 643,-0.00001296,0.00001566,0.00000176,-0.00000257,0.00001716,-0.000000
 05,0.00000455,-0.00003953,-0.00000593,0.00000230,-0.00000103,0.0000004
 0,-0.00000084,0.00000090,-0.00000014,0.00000127,-0.00000093,0.00000092
 ,-0.00000270,-0.00000026,-0.00000025,0.00000112,0.00000014,0.00000146,
 -0.00000017,-0.00000084,0.00000047,0.00000131,0.00000003,0.00000073,-0
 .00000224,-0.00000016,-0.00000146,0.00000047,-0.00000142,0.00000006,-0
 .00000109,-0.00000034,0.00000229,-0.00000146,-0.00000052,-0.00000098,0
 .00000010,0.00000048,-0.00000120,0.00000104,0.00000006,0.00000225,0.00
 000147,-0.00000067,-0.00000033,0.00000425,0.00000124,-0.00000399,-0.00
 000286,-0.00000097,0.00000322,-0.00000259,-0.00000130,0.00000060,-0.00
 000017,0.00000055,0.00000139,-0.00000050,-0.00000201,-0.00000092,0.000
 00009,0.00000085,-0.00000030,0.00000053,-0.00000172,0.00000015,0.00000
 057,-0.00000271,-0.00000040,0.00000102,0.00000109,0.00000082,-0.000000
 06,0.00000154,0.00000019,-0.00000127,-0.00000159,-0.00000123,-0.000001
 20,0.00000123,-0.00000129,0.00000300,-0.00000350,0.00000007,-0.0000008
 4,0.00000216,0.00000205,-0.00000117,-0.00000158,-0.00000060,-0.0000000
 6,-0.00000265,-0.00000007,-0.00000028,0.00000065,0.00000058,0.00000041
 ,0.00000111,-0.00000026,0.,0.00000300,0.00000116,0.00000260,-0.0000027
 3,0.00000338,0.00000206,-0.00000219,-0.00000342,-0.00000211,0.00000240
 ,-0.00000049,-0.00000216,0.00000178,0.00000200,0.00000100,-0.00000216,
 0.00000238,0.00000172,0.00000054,-0.00000089,-0.00000074,-0.00000030,-
 0.00000211,-0.00000151,-0.00000121,0.00000140,0.00000029,-0.00000107,-
 0.00000103,-0.00000059,0.00000095,-0.00000181,0.00000036,-0.00000002,0
 .00000282,0.00000019,-0.00000190,0.00000052,0.00000001,0.00000031,0.00
 000197,0.00000104,0.00000107,-0.00000044,-0.00000058,-0.00000177,-0.00
 000078,-0.00000037,0.00003244,0.00002751,-0.00000476,0.00188140,-0.003
 49847,-0.00362625,-0.00162886,0.00118546,0.00080921,0.01647221,0.00728
 536,0.00213281,-0.00079365,0.00036905,0.00038051,-0.00051763,0.0006039
 4,0.00068302,0.00013039,-0.00011994,-0.00015690,0.00006539,0.00001969,
 0.00001364,0.00002366,0.00001091,0.00000296,0.00086148,0.00085128,0.00
 045428,-0.00004310,0.00012430,0.00012695,-0.00004931,0.00000957,-0.000
 02416,-0.00001735,-0.00000749,-0.00000257,0.00001000,0.00000366,0.0000
 0446,-0.10832581,-0.10424204,-0.01363234,0.00229208,-0.00043870,0.0005
 0218,-0.02699564,-0.01097123,-0.00522189,0.00002419,-0.00009685,0.0001
 2162,-0.00001674,0.00002514,-0.00005667,-0.00002101,0.00004173,-0.0000
 2368,0.00001706,0.00002077,-0.00002673,-0.00000055,-0.00000158,0.00000
 332,0.11668682,0.10875711,-0.00021331,0.00001045,0.00005100,0.00006492
 ,0.00006034,0.00000835,-0.00002540,0.00010808,0.00013895,-0.00003315,-
 0.00015003,-0.00004369,0.00010381,0.00006135,-0.00002240,0.00011854,-0
 .00002639,0.00004040,-0.00002161,-0.00000822,0.00000256,-0.00000712,0.
 00000819,0.00001461,0.00000237,0.00005995,0.00000165,0.00010818,0.0000
 0422,-0.00005505,0.00000368,0.00001122,-0.00000319,0.00001040,0.000048
 90,-0.00006190,-0.00003459,-0.00002353,0.00002800,-0.00000167,-0.00000
 307,-0.00000588,0.00000076,0.00000054,0.00000073,-0.00008794,0.0000084
 5,0.00010974,0.00007901,-0.00016646,-0.00014082,-0.00000494,0.00000595
 ,0.00002036,0.00000521,-0.00000152,-0.00005020,0.00000056,0.00000270,-
 0.00000194,0.00000133,0.00000070,0.00000030,-0.00000192,0.00000481,0.0
 0000659,0.00000600,-0.00000276,0.00000039,-0.00000362,0.00000840,0.000
 00909,-0.00000109,-0.00001882,-0.00001199,0.00000894,0.00000456,0.0000
 0718,-0.00000014,0.00000213,0.00000546,-0.00000293,-0.00000407,0.00000
 425,-0.00000110,0.00000018,0.00000156,-0.00000102,0.00000107,-0.000000
 19,-0.00000218,0.00000307,0.00000220,0.00000042,-0.00000102,0.00000045
 ,-0.00000489,-0.00000405,-0.00000297,0.00000059,0.00000197,0.00001100,
 0.00000023,-0.00000018,-0.00000033,0.00000002,0.00000005,0.00000028,-0
 .00000010,0.00000007,-0.00000011,0.00000025,-0.00000023,-0.00000004,-0
 .00000049,0.00000015,-0.00000005,0.00000040,-0.00000001,-0.00000006,-0
 .00000024,0.00000014,-0.00000026,0.00000013,0.00000024,0.00000053,0.00
 000014,-0.00000009,-0.00000017,-0.00000033,0.00000068,0.00000009,0.000
 00101,-0.00000012,0.00000020,-0.00000047,-0.00000090,0.00000025,0.0000
 0329,0.00000014,0.00000008,-0.00000154,-0.00000120,0.00000003,-0.00000
 069,-0.00000077,0.00000064,-0.00000094,0.00000127,-0.00000073,0.000000
 03,-0.00000050,-0.00000016,-0.00000009,0.00000035,0.00000022,0.0000001
 2,0.00000004,-0.00000009,0.00000007,-0.00000020,0.00000055,-0.00000019
 ,0.00000022,-0.00000047,0.00000008,0.00000009,0.00000006,0.00000001,0.
 00000016,0.00000021,-0.00000022,0.00000031,0.00000005,0.00000072,0.000
 00027,-0.00000033,0.00000073,-0.00000210,0.00000209,-0.00000086,0.0000
 0072,0.00000093,0.00000100,0.00000131,-0.00000189,0.00000040,0.0000008
 5,0.00000004,0.00000036,-0.00000025,0.00000058,-0.00000099,0.00000083,
 0.00000070,-0.00000052,-0.00000063,-0.00000069,0.00000266,0.00000397,-
 0.00000376,0.00000143,-0.00000278,0.00000061,0.00000039,0.00000137,0.0
 0000205,-0.00000350,-0.00000004,0.00000203,0.00000017,0.00000024,0.000
 00089,0.00000067,-0.00000011,-0.00000028,-0.00000083,-0.00000029,-0.00
 000030,0.,0.00000027,0.00000113,-0.00000017,0.00000022,0.00000012,0.00
 000017,0.00000001,-0.00000005,-0.00000009,-0.00000013,-0.00000006,-0.0
 0000005,-0.00000003,0.00000001,0.00000015,0.00000083,-0.00000074,-0.00
 000007,-0.00000053,0.00000047,-0.00000004,0.00000050,0.00000057,0.0000
 0008,0.00000006,-0.00000006,0.00007198,0.00000715,0.00001448,0.0016538
 2,-0.00381061,-0.00283141,-0.00102961,0.00032017,0.00113260,0.01726465
 ,0.00939972,0.00159611,-0.00055099,0.00070862,0.00043369,-0.00074756,0
 .00010808,0.00049216,0.00005755,-0.00018399,-0.00021729,0.00009802,0.0
 0002008,0.00001716,-0.00000489,0.00000695,0.00000242,0.00120180,0.0007
 1839,0.00043356,0.00000895,0.00024523,0.00016036,-0.00004327,-0.000007
 24,-0.00000268,0.00000247,-0.00001668,-0.00002644,-0.00000534,-0.00002
 364,-0.00000670,-0.02912371,-0.01394145,-0.05193332,-0.02708976,-0.014
 92655,-0.00130503,0.00929298,0.00375169,0.00012801,-0.00016227,0.00001
 863,0.00002005,0.00002580,0.00000337,-0.00000714,0.00003451,-0.0000087
 7,0.00000446,0.00007926,-0.00000411,-0.00002172,-0.00000755,-0.0000013
 4,0.00000181,0.02890474,0.01760472,0.05184546\\-0.00000352,-0.00000689
 ,-0.00000198,-0.00000861,-0.00000180,0.00000454,0.00000524,-0.00000589
 ,-0.00000796,-0.00000524,-0.00000229,0.00000066,0.00000097,0.00000488,
 -0.00000179,0.00000042,0.00000714,0.00000143,-0.00000436,0.00000236,0.
 00000393,0.00000197,0.00000093,0.00000212,0.00000362,-0.00000261,0.000
 00245,0.00000424,-0.00000672,-0.00000358,0.00000004,-0.00000110,-0.000
 00226,-0.00000005,0.,-0.00000164,-0.00000009,-0.00000158,-0.00000071,0
 .00000306,-0.00000178,0.00000134,-0.00000099,0.00000099,0.00000297,-0.
 00000442,-0.00000045,0.00000347,-0.00000098,0.00000759,0.00000276,0.00
 000060,-0.00000179,0.00000015,0.00000191,-0.00000177,0.00000129,-0.000
 00294,-0.00000218,0.00000252,-0.00000259,0.00000065,-0.00000161,0.0000
 0563,0.00000265,0.00000025,0.00000311,0.00000202,0.00000350,0.00000664
 ,-0.00000394,-0.00000500,-0.00000247,0.00000058,-0.00000022,0.00000269
 ,0.00000097,-0.00000120,-0.00000441,0.00000190,0.00000338,0.00000210,-
 0.00000523,-0.00000413,-0.00000607,-0.00000143,-0.00000450,-0.00000543
 ,0.00000037,0.00000093,-0.00000165,0.00000248,-0.00000305,0.00000192,0
 .00000116,0.00000649,-0.00000153,0.00000458,0.00000459,-0.00000285,-0.
 00000208,0.00000004,0.00000183,-0.00000100,0.00000006,-0.00000140,-0.0
 0000146,0.00000032,-0.00000170,-0.00000318,-0.00000005,-0.00000104,-0.
 00000383,-0.00000288,-0.00000139,0.00000220,-0.00001049,-0.00000163,-0
 .00000064,-0.00000015,-0.00000120,-0.00000460,0.00000351,0.00000050,-0
 .00000107,-0.00000115,-0.00000909,-0.00000574,-0.00000288,-0.00000109,
 -0.00000331,-0.00000031,0.00000182,-0.00000010,0.00000071,0.00000027,-
 0.00000252,-0.00000031,0.00000174,-0.00000197,0.00000667,-0.00000108,-
 0.00000200,-0.00000127,-0.00000265,-0.00000178,-0.00000683,-0.00000163
 ,-0.00000005,-0.00000366,0.00000038,0.00000088,-0.00000407,-0.00000036
 ,-0.00000219,0.00000145,-0.00000070,-0.00000132,0.00000316,-0.00000063
 ,-0.00000164,0.00000236,0.00000433,0.00000134,-0.00000065,-0.00000339,
 -0.00000025,0.00000191,-0.00000118,-0.00000128,0.00000043,0.00000084,-
 0.00000023,0.00000154,0.00000841,-0.00000753,0.00000378,-0.00000125,-0
 .00000131,0.00000359,-0.00000403,-0.00000105,0.00000238,-0.00000167,0.
 00000337,0.00000082,-0.00000057,-0.00000276,0.00000350,0.00000245,0.00
 000020,0.00000245,0.00000160,0.00000036,0.00000219,0.00000013,0.000003
 21,0.00000288,0.00000325,0.00000842,0.00000431,0.00000152,0.00000151,-
 0.00000308,-0.00000235,0.00000138,-0.00000186,0.00000060,-0.00000081,-
 0.00000268,0.00000017,-0.00000496,-0.00000688,-0.00000187,0.00000323,-
 0.00000037,-0.00000003,0.00000078,-0.00000112,0.00000386,0.00000146,-0
 .00000373,0.00000358,0.00000606,0.00000181,-0.00000082,0.00000008,-0.0
 0000068,0.00000029,0.00000035,-0.00000124,0.00000049,-0.00000313,-0.00
 000257,0.00000936,0.00000544,0.00000233,0.00000017,-0.00000213,-0.0000
 0254,0.00000155,0.00000280,-0.00000152,-0.00000417,0.00000128,-0.00000
 199,-0.00000038,0.00000200,0.00000080,-0.00000210,0.00001051,-0.000003
 18,0.00000100,-0.00000524,0.00000218,0.00000361,0.00000369,-0.00000048
 ,0.00000082,0.00000191,0.00000094,0.00000011,-0.00000358,0.00000033,0.
 00000216,0.00000241,-0.00000036,0.00000057,0.00000152,0.00000262,0.000
 00039,-0.00000044,0.00000193,0.00000224,0.00000189,0.00000155,0.000001
 63,-0.00000039,0.00000670,0.00000078,0.00000192,-0.00000115,0.00000241
 ,0.00000243,-0.00000195,-0.00000034,0.00000266,-0.00000479,-0.00000141
 ,0.00000709,-0.00000207,0.00000096,-0.00000128,0.00000507,0.00000187,-
 0.00000156,0.00000088,0.00000016,0.00000499,0.00000443,0.00000040,-0.0
 0000012,-0.00000716,-0.00000226,0.00000165,-0.00000298,0.00000053,-0.0
 0000156,-0.00000210,-0.00000221,-0.00000259,0.00000336,0.00000086,-0.0
 0000015,-0.00000095\\\@
 The archive entry for this job was punched.


            ARSENIC

 FOR SMELTER FUMES HAVE I BEEN NAMED,
    I AM AN EVIL POISONOUS SMOKE...
 BUT WHEN FROM POISON I AM FREED,
    THROUGH ART AND SLEIGHT OF HAND,
 THEN CAN I CURE BOTH MAN AND BEAST,
    FROM DIRE DISEASE OFTTIMES DIRECT THEM;
 BUT PREPARE ME CORRECTLY, AND TAKE GREAT CARE
    THAT YOU FAITHFULLY KEEP WATCHFUL GUARD OVER ME;
 FOR ELSE I AM POISON, AND POISON REMAIN,
    THAT PIERCES THE HEART OF MANY A ONE.

 ATTRIBUTED TO THE PROBABLY MYTHICAL 15TH
 CENTURY MONK, BASILIUS VALENTINUS
 Job cpu time:       1 days 13 hours 19 minutes 40.1 seconds.
 Elapsed time:       0 days  2 hours 23 minutes  7.1 seconds.
 File lengths (MBytes):  RWF=   8253 Int=      0 D2E=      0 Chk=     49 Scr=      1
 Normal termination of Gaussian 16 at Sat Dec  7 21:55:36 2024.
