/mnt/lustre/scratch/nvme/SLURM/9663783/usccqdma.opBaSNt6af
OMP_STACKSIZE=0m
GAUSS_PDEF=16
GAUSS_MDEF=65536MB
GAUSS_RDEF=SCF=Direct
 Entering Gaussian System, Link 0=g16.exe
 Initial command:
 /opt/cesga/2020/software/Core/g16/c1/l1.exe "/mnt/lustre/scratch/nvme/SLURM/9663783/usccqdma.opBaSNt6af/Gau-231166.inp" -scrdir="/mnt/lustre/scratch/nvme/SLURM/9663783/usccqdma.opBaSNt6af/"
 Default is to use a total of  16 processors:
                               16 via shared-memory
                                1 via Linda
 Entering Link 1 = /opt/cesga/2020/software/Core/g16/c1/l1.exe PID=    231192.
  
 Copyright (c) 1988-2019, Gaussian, Inc.  All Rights Reserved.
  
 This is part of the Gaussian(R) 16 program.  It is based on
 the Gaussian(R) 09 system (copyright 2009, Gaussian, Inc.),
 the Gaussian(R) 03 system (copyright 2003, Gaussian, Inc.),
 the Gaussian(R) 98 system (copyright 1998, Gaussian, Inc.),
 the Gaussian(R) 94 system (copyright 1995, Gaussian, Inc.),
 the Gaussian 92(TM) system (copyright 1992, Gaussian, Inc.),
 the Gaussian 90(TM) system (copyright 1990, Gaussian, Inc.),
 the Gaussian 88(TM) system (copyright 1988, Gaussian, Inc.),
 the Gaussian 86(TM) system (copyright 1986, Carnegie Mellon
 University), and the Gaussian 82(TM) system (copyright 1983,
 Carnegie Mellon University). Gaussian is a federally registered
 trademark of Gaussian, Inc.
  
 This software contains proprietary and confidential information,
 including trade secrets, belonging to Gaussian, Inc.
  
 This software is provided under written license and may be
 used, copied, transmitted, or stored only in accord with that
 written license.
  
 The following legend is applicable only to US Government
 contracts under FAR:
  
                    RESTRICTED RIGHTS LEGEND
  
 Use, reproduction and disclosure by the US Government is
 subject to restrictions as set forth in subparagraphs (a)
 and (c) of the Commercial Computer Software - Restricted
 Rights clause in FAR 52.227-19.
  
 Gaussian, Inc.
 340 Quinnipiac St., Bldg. 40, Wallingford CT 06492
  
  
 ---------------------------------------------------------------
 Warning -- This program may not be used in any manner that
 competes with the business of Gaussian, Inc. or will provide
 assistance to any competitor of Gaussian, Inc.  The licensee
 of this program is prohibited from giving any competitor of
 Gaussian, Inc. access to this program.  By using this program,
 the user acknowledges that Gaussian, Inc. is engaged in the
 business of creating and licensing software in the field of
 computational chemistry and represents and warrants to the
 licensee that it is not a competitor of Gaussian, Inc. and that
 it will not use this program in any manner prohibited above.
 ---------------------------------------------------------------
  

 Cite this work as:
 Gaussian 16, Revision C.01,
 M. J. Frisch, G. W. Trucks, H. B. Schlegel, G. E. Scuseria, 
 M. A. Robb, J. R. Cheeseman, G. Scalmani, V. Barone, 
 G. A. Petersson, H. Nakatsuji, X. Li, M. Caricato, A. V. Marenich, 
 J. Bloino, B. G. Janesko, R. Gomperts, B. Mennucci, H. P. Hratchian, 
 J. V. Ortiz, A. F. Izmaylov, J. L. Sonnenberg, D. Williams-Young, 
 F. Ding, F. Lipparini, F. Egidi, J. Goings, B. Peng, A. Petrone, 
 T. Henderson, D. Ranasinghe, V. G. Zakrzewski, J. Gao, N. Rega, 
 G. Zheng, W. Liang, M. Hada, M. Ehara, K. Toyota, R. Fukuda, 
 J. Hasegawa, M. Ishida, T. Nakajima, Y. Honda, O. Kitao, H. Nakai, 
 T. Vreven, K. Throssell, J. A. Montgomery, Jr., J. E. Peralta, 
 F. Ogliaro, M. J. Bearpark, J. J. Heyd, E. N. Brothers, K. N. Kudin, 
 V. N. Staroverov, T. A. Keith, R. Kobayashi, J. Normand, 
 K. Raghavachari, A. P. Rendell, J. C. Burant, S. S. Iyengar, 
 J. Tomasi, M. Cossi, J. M. Millam, M. Klene, C. Adamo, R. Cammi, 
 J. W. Ochterski, R. L. Martin, K. Morokuma, O. Farkas, 
 J. B. Foresman, and D. J. Fox, Gaussian, Inc., Wallingford CT, 2019.
 
 ******************************************
 Gaussian 16:  ES64L-G16RevC.01  3-Jul-2019
                 7-Dec-2024 
 ******************************************
 Default route: SCF=Direct
 ----------------------------------------------------
 # m06/genecp scf=tight int=ultrafine 5d freq=noraman
 ----------------------------------------------------
 1/10=4,30=1,38=1/1,3;
 2/12=2,17=6,18=5,40=1/2;
 3/5=7,8=1,11=2,16=1,17=8,25=1,30=1,71=2,74=-54,75=-5,140=1/1,2,3;
 4//1;
 5/5=2,32=2,38=5,98=1/2;
 8/6=4,10=90,11=11/1;
 11/6=1,8=1,9=11,15=111,16=1/1,2,10;
 10/6=1/2;
 6/7=2,8=2,9=2,10=2,28=1/1;
 7/8=1,10=1,25=1/1,2,3,16;
 1/10=4,30=1/3;
 99//99;
 ------
 OPT-TS
 ------
 Symbolic Z-matrix:
 Charge =  0 Multiplicity = 1
 N                     2.82969   0.5785   -0.52066 
 C                     3.19285   1.85547  -0.69828 
 C                     4.52191   2.23569  -0.81299 
 C                     5.50529   1.2534   -0.72983 
 C                     5.13044  -0.06986  -0.55945 
 C                     3.77577  -0.38237  -0.46875 
 H                     4.7747    3.28272  -0.95925 
 H                     5.84966  -0.88239  -0.49856 
 N                     4.21021  -2.72412  -0.21056 
 C                     3.28524  -1.76545  -0.34649 
 C                     1.89324  -1.98971  -0.39532 
 C                     1.49368  -3.33014  -0.36397 
 C                     2.44007  -4.33589  -0.22018 
 C                     3.78572  -3.98099  -0.14034 
 H                     0.95751  -1.14194  -1.54743 
 H                     0.4346   -3.57281  -0.45372 
 H                     2.1463   -5.3835   -0.17908 
 Ir                    0.73952  -0.19927  -0.25336 
 B                    -1.08467   0.09785  -1.1502 
 O                    -2.27245   0.65319  -0.68504 
 O                    -1.2153   -0.30043  -2.46897 
 C                    -3.17484   0.77807  -1.80271 
 C                    -2.60586  -0.25433  -2.8224 
 C                    -3.08328   2.21177  -2.30373 
 H                    -2.05004   2.47071  -2.57323 
 H                    -3.40332   2.893    -1.50693 
 H                    -3.73306   2.37905  -3.17256 
 C                    -4.58108   0.49107  -1.31714 
 H                    -5.29933   0.52845  -2.14879 
 H                    -4.87647   1.2471   -0.57752 
 H                    -4.65131  -0.49374  -0.84017 
 C                    -2.72331   0.15595  -4.27754 
 H                    -2.19071   1.09082  -4.48204 
 H                    -3.77725   0.2778   -4.56679 
 H                    -2.28687  -0.62522  -4.91248 
 C                    -3.16502  -1.65892  -2.64117 
 H                    -4.2203   -1.71858  -2.94091 
 H                    -3.05847  -1.99735  -1.60355 
 H                    -2.58905  -2.34687  -3.27293 
 B                     0.02444   1.70216   0.34045 
 O                    -0.30078   1.8715    1.67224 
 O                     0.11647   2.92148  -0.31264 
 C                    -0.11725   3.2604    1.98733 
 C                    -0.32893   3.94266   0.607 
 C                     1.30184   3.4117    2.52128 
 C                    -1.11297   3.65445   3.05971 
 H                    -1.06088   4.7329    3.26847 
 H                    -0.88261   3.11708   3.9883 
 H                    -2.13843   3.40002   2.77096 
 C                     0.49145   5.19545   0.37711 
 H                     1.56768   4.99787   0.44598 
 H                     0.23381   5.9711    1.11259 
 H                     0.28452   5.59584  -0.62354 
 C                    -1.7934    4.21581   0.3073 
 H                    -2.19389   5.02136   0.93721 
 H                    -2.39523   3.30923   0.45768 
 H                    -1.89004   4.51969  -0.74274 
 B                    -0.69717  -1.29729   0.68197 
 O                    -0.79092  -1.13181   2.04724 
 O                    -1.55734  -2.28627   0.23244 
 C                    -2.00913  -1.76673   2.46769 
 C                    -2.18392  -2.87754   1.39062 
 C                    -3.09453  -0.69915   2.41919 
 H                    -3.22974  -0.3184    1.39801 
 H                    -2.77044   0.1457    3.04004 
 H                    -4.0554   -1.07048   2.80139 
 C                    -1.83992  -2.2738    3.88488 
 H                    -2.72698  -2.83906   4.20565 
 H                    -1.71631  -1.42231   4.56549 
 H                    -0.95799  -2.91553   3.98607 
 C                    -3.62186  -3.21287   1.0519 
 H                    -4.16498  -2.33509   0.68199 
 H                    -4.14939  -3.60021   1.93536 
 H                    -3.65212  -3.98538   0.27221 
 C                    -1.41672  -4.15088   1.71707 
 H                    -1.87559  -4.69875   2.55077 
 H                    -0.37178  -3.93221   1.97463 
 H                    -1.42228  -4.80624   0.83588 
 H                     2.37656   2.57722  -0.74735 
 H                     2.04677   3.13344   1.76265 
 H                     1.42941   2.73456   3.37456 
 H                     1.50902   4.43693   2.85649 
 H                     4.55597  -4.74663  -0.02894 
 H                     6.55842   1.51915  -0.80445 
 

 GradGradGradGradGradGradGradGradGradGradGradGradGradGradGradGradGradGrad
 Berny optimization.
 Initialization pass.
 Trust Radius=3.00D-01 FncErr=1.00D-07 GrdErr=1.00D-07 EigMax=2.50D+02 EigMin=1.00D-04
 Number of steps in this run=      2 maximum allowed number of steps=      2.
 GradGradGradGradGradGradGradGradGradGradGradGradGradGradGradGradGradGrad

 Stoichiometry    C28H44B3IrN2O6
 Framework group  C1[X(C28H44B3IrN2O6)]
 Deg. of freedom   246
 Full point group                 C1      NOp   1
 Largest Abelian subgroup         C1      NOp   1
 Largest concise Abelian subgroup C1      NOp   1
                         Standard orientation:                         
 ---------------------------------------------------------------------
 Center     Atomic      Atomic             Coordinates (Angstroms)
 Number     Number       Type             X           Y           Z
 ---------------------------------------------------------------------
      1          7           0        2.829690    0.578496   -0.520660
      2          6           0        3.192851    1.855465   -0.698280
      3          6           0        4.521912    2.235684   -0.812990
      4          6           0        5.505291    1.253393   -0.729830
      5          6           0        5.130439   -0.069867   -0.559450
      6          6           0        3.775769   -0.382375   -0.468750
      7          1           0        4.774703    3.282714   -0.959250
      8          1           0        5.849658   -0.882398   -0.498560
      9          7           0        4.210206   -2.724126   -0.210560
     10          6           0        3.285237   -1.765455   -0.346490
     11          6           0        1.893237   -1.989713   -0.395320
     12          6           0        1.493675   -3.330143   -0.363970
     13          6           0        2.440064   -4.335894   -0.220180
     14          6           0        3.785715   -3.980995   -0.140340
     15          1           0        0.957508   -1.141942   -1.547430
     16          1           0        0.434595   -3.572811   -0.453720
     17          1           0        2.146293   -5.383503   -0.179080
     18         77           0        0.739519   -0.199272   -0.253360
     19          5           0       -1.084671    0.097850   -1.150200
     20          8           0       -2.272450    0.653192   -0.685040
     21          8           0       -1.215301   -0.300430   -2.468970
     22          6           0       -3.174840    0.778073   -1.802710
     23          6           0       -2.605861   -0.254328   -2.822400
     24          6           0       -3.083278    2.211773   -2.303730
     25          1           0       -2.050038    2.470711   -2.573230
     26          1           0       -3.403318    2.893003   -1.506930
     27          1           0       -3.733058    2.379053   -3.172560
     28          6           0       -4.581080    0.491074   -1.317140
     29          1           0       -5.299330    0.528455   -2.148790
     30          1           0       -4.876469    1.247105   -0.577520
     31          1           0       -4.651311   -0.493736   -0.840170
     32          6           0       -2.723311    0.155952   -4.277540
     33          1           0       -2.190710    1.090822   -4.482040
     34          1           0       -3.777251    0.277803   -4.566790
     35          1           0       -2.286872   -0.625218   -4.912480
     36          6           0       -3.165023   -1.658917   -2.641170
     37          1           0       -4.220303   -1.718576   -2.940910
     38          1           0       -3.058473   -1.997347   -1.603550
     39          1           0       -2.589054   -2.346868   -3.272930
     40          5           0        0.024441    1.702159    0.340450
     41          8           0       -0.300779    1.871499    1.672240
     42          8           0        0.116472    2.921479   -0.312640
     43          6           0       -0.117247    3.260399    1.987330
     44          6           0       -0.328926    3.942659    0.607000
     45          6           0        1.301843    3.411698    2.521280
     46          6           0       -1.112967    3.654450    3.059710
     47          1           0       -1.060875    4.732900    3.268470
     48          1           0       -0.882607    3.117080    3.988300
     49          1           0       -2.138427    3.400021    2.770960
     50          6           0        0.491455    5.195448    0.377110
     51          1           0        1.567685    4.997867    0.445980
     52          1           0        0.233816    5.971099    1.112590
     53          1           0        0.284526    5.595839   -0.623540
     54          6           0       -1.793396    4.215811    0.307300
     55          1           0       -2.193885    5.021362    0.937210
     56          1           0       -2.395227    3.309232    0.457680
     57          1           0       -1.890036    4.519691   -0.742740
     58          5           0       -0.697172   -1.297290    0.681970
     59          8           0       -0.790922   -1.131810    2.047240
     60          8           0       -1.557344   -2.286269    0.232440
     61          6           0       -2.009133   -1.766729    2.467690
     62          6           0       -2.183924   -2.877538    1.390620
     63          6           0       -3.094532   -0.699147    2.419190
     64          1           0       -3.229741   -0.318397    1.398010
     65          1           0       -2.770441    0.145702    3.040040
     66          1           0       -4.055402   -1.070476    2.801390
     67          6           0       -1.839924   -2.273799    3.884880
     68          1           0       -2.726984   -2.839058    4.205650
     69          1           0       -1.716313   -1.422309    4.565490
     70          1           0       -0.957994   -2.915530    3.986070
     71          6           0       -3.621865   -3.212867    1.051900
     72          1           0       -4.164984   -2.335086    0.681990
     73          1           0       -4.149395   -3.600206    1.935360
     74          1           0       -3.652125   -3.985377    0.272210
     75          6           0       -1.416726   -4.150879    1.717070
     76          1           0       -1.875596   -4.698749    2.550770
     77          1           0       -0.371785   -3.932211    1.974630
     78          1           0       -1.422286   -4.806239    0.835880
     79          1           0        2.376562    2.577216   -0.747350
     80          1           0        2.046773    3.133437    1.762650
     81          1           0        1.429412    2.734557    3.374560
     82          1           0        1.509024    4.436927    2.856490
     83          1           0        4.555964   -4.746636   -0.028940
     84          1           0        6.558421    1.519141   -0.804450
 ---------------------------------------------------------------------
 Rotational constants (GHZ):           0.0971562           0.0880141           0.0673201
 General basis read from cards:  (5D, 7F)
 ======================================================================================================
                                       Pseudopotential Parameters
 ======================================================================================================
  Center     Atomic      Valence      Angular      Power
  Number     Number     Electrons     Momentum     of R      Exponent        Coefficient   SO-Coeffient
 ======================================================================================================
    1          7
                                   No pseudopotential on this center.
    2          6
                                   No pseudopotential on this center.
    3          6
                                   No pseudopotential on this center.
    4          6
                                   No pseudopotential on this center.
    5          6
                                   No pseudopotential on this center.
    6          6
                                   No pseudopotential on this center.
    7          1
                                   No pseudopotential on this center.
    8          1
                                   No pseudopotential on this center.
    9          7
                                   No pseudopotential on this center.
   10          6
                                   No pseudopotential on this center.
   11          6
                                   No pseudopotential on this center.
   12          6
                                   No pseudopotential on this center.
   13          6
                                   No pseudopotential on this center.
   14          6
                                   No pseudopotential on this center.
   15          1
                                   No pseudopotential on this center.
   16          1
                                   No pseudopotential on this center.
   17          1
                                   No pseudopotential on this center.
   18         77           17
                                      G and up 
                                                     1      823.5880147       -0.15780140    0.00000000
                                                     2      364.6613336    -1517.52704460    0.00000000
                                                     2       55.7082801     -316.53065290    0.00000000
                                                     2       12.0464544      -91.88809410    0.00000000
                                                     2        3.5120610       -9.22417730    0.00000000
                                      S - G
                                                     0      188.0490770        3.15780140    0.00000000
                                                     1      340.4194712       26.83225770    0.00000000
                                                     2      128.2373673      800.42500070    0.00000000
                                                     2       33.8644961      369.40506830    0.00000000
                                                     2        4.7560005      242.41718990    0.00000000
                                                     2        3.9649974     -118.21732820    0.00000000
                                      P - G
                                                     0      289.7291139        2.15780140    0.00000000
                                                     1       87.4633789       61.96786100    0.00000000
                                                     2       30.4363766      269.05819860    0.00000000
                                                     2        4.0553412      231.16547930    0.00000000
                                                     2        3.5525341     -133.69526670    0.00000000
                                      D - G
                                                     0      136.4017106        3.15780140    0.00000000
                                                     1       95.0776925       45.93498030    0.00000000
                                                     2       49.2258410      359.03446680    0.00000000
                                                     2       15.0874145      176.47401190    0.00000000
                                                     2        4.0405764       54.51552860    0.00000000
                                      F - G
                                                     0      127.3507908        3.95461970    0.00000000
                                                     1       66.2364374       52.97736550    0.00000000
                                                     2       34.4299229      274.86433830    0.00000000
                                                     2       10.1995721      137.20473380    0.00000000
                                                     2        2.5409702       14.86333050    0.00000000
   19          5
                                   No pseudopotential on this center.
   20          8
                                   No pseudopotential on this center.
   21          8
                                   No pseudopotential on this center.
   22          6
                                   No pseudopotential on this center.
   23          6
                                   No pseudopotential on this center.
   24          6
                                   No pseudopotential on this center.
   25          1
                                   No pseudopotential on this center.
   26          1
                                   No pseudopotential on this center.
   27          1
                                   No pseudopotential on this center.
   28          6
                                   No pseudopotential on this center.
   29          1
                                   No pseudopotential on this center.
   30          1
                                   No pseudopotential on this center.
   31          1
                                   No pseudopotential on this center.
   32          6
                                   No pseudopotential on this center.
   33          1
                                   No pseudopotential on this center.
   34          1
                                   No pseudopotential on this center.
   35          1
                                   No pseudopotential on this center.
   36          6
                                   No pseudopotential on this center.
   37          1
                                   No pseudopotential on this center.
   38          1
                                   No pseudopotential on this center.
   39          1
                                   No pseudopotential on this center.
   40          5
                                   No pseudopotential on this center.
   41          8
                                   No pseudopotential on this center.
   42          8
                                   No pseudopotential on this center.
   43          6
                                   No pseudopotential on this center.
   44          6
                                   No pseudopotential on this center.
   45          6
                                   No pseudopotential on this center.
   46          6
                                   No pseudopotential on this center.
   47          1
                                   No pseudopotential on this center.
   48          1
                                   No pseudopotential on this center.
   49          1
                                   No pseudopotential on this center.
   50          6
                                   No pseudopotential on this center.
   51          1
                                   No pseudopotential on this center.
   52          1
                                   No pseudopotential on this center.
   53          1
                                   No pseudopotential on this center.
   54          6
                                   No pseudopotential on this center.
   55          1
                                   No pseudopotential on this center.
   56          1
                                   No pseudopotential on this center.
   57          1
                                   No pseudopotential on this center.
   58          5
                                   No pseudopotential on this center.
   59          8
                                   No pseudopotential on this center.
   60          8
                                   No pseudopotential on this center.
   61          6
                                   No pseudopotential on this center.
   62          6
                                   No pseudopotential on this center.
   63          6
                                   No pseudopotential on this center.
   64          1
                                   No pseudopotential on this center.
   65          1
                                   No pseudopotential on this center.
   66          1
                                   No pseudopotential on this center.
   67          6
                                   No pseudopotential on this center.
   68          1
                                   No pseudopotential on this center.
   69          1
                                   No pseudopotential on this center.
   70          1
                                   No pseudopotential on this center.
   71          6
                                   No pseudopotential on this center.
   72          1
                                   No pseudopotential on this center.
   73          1
                                   No pseudopotential on this center.
   74          1
                                   No pseudopotential on this center.
   75          6
                                   No pseudopotential on this center.
   76          1
                                   No pseudopotential on this center.
   77          1
                                   No pseudopotential on this center.
   78          1
                                   No pseudopotential on this center.
   79          1
                                   No pseudopotential on this center.
   80          1
                                   No pseudopotential on this center.
   81          1
                                   No pseudopotential on this center.
   82          1
                                   No pseudopotential on this center.
   83          1
                                   No pseudopotential on this center.
   84          1
                                   No pseudopotential on this center.
 ======================================================================================================
 There are   697 symmetry adapted cartesian basis functions of A   symmetry.
 There are   656 symmetry adapted basis functions of A   symmetry.
   656 basis functions,  1311 primitive gaussians,   697 cartesian basis functions
   153 alpha electrons      153 beta electrons
       nuclear repulsion energy      5548.3513067886 Hartrees.
 NAtoms=   84 NActive=   84 NUniq=   84 SFac= 1.00D+00 NAtFMM=   60 NAOKFM=T Big=T
 Integral buffers will be    131072 words long.
 Raffenetti 2 integral format.
 Two-electron integral symmetry is turned on.
 One-electron integrals computed using PRISM.
   1 Symmetry operations used in ECPInt.
 ECPInt:  NShTT=   31878 NPrTT=  193976 LenC2=   25784 LenP2D=   83222.
 LDataN:  DoStor=T MaxTD1= 6 Len=  172
 NBasis=   656 RedAO= T EigKep=  6.08D-04  NBF=   656
 NBsUse=   656 1.00D-06 EigRej= -1.00D+00 NBFU=   656
 Defaulting to unpruned grid for atomic number  77.
 ExpMin= 2.90D-02 ExpMax= 5.48D+03 ExpMxC= 8.25D+02 IAcc=3 IRadAn=         5 AccDes= 0.00D+00
 Harris functional with IExCor= 1009 and IRadAn=       5 diagonalized for initial guess.
 HarFok:  IExCor= 1009 AccDes= 0.00D+00 IRadAn=         5 IDoV= 1 UseB2=F ITyADJ=14
 ICtDFT=  3500011 ScaDFX=  1.000000  1.000000  1.000000  1.000000
 Defaulting to unpruned grid for atomic number  77.
 FoFCou: FMM=F IPFlag=           0 FMFlag=      100000 FMFlg1=        2001
         NFxFlg=           0 DoJE=T BraDBF=F KetDBF=T FulRan=T
         wScrn=  0.000000 ICntrl=       500 IOpCl=  0 I1Cent=   200000004 NGrid=           0
         NMat0=    1 NMatS0=      1 NMatT0=    0 NMatD0=    1 NMtDS0=    0 NMtDT0=    0
 Petite list used in FoFCou.
 Requested convergence on RMS density matrix=1.00D-08 within 128 cycles.
 Requested convergence on MAX density matrix=1.00D-06.
 Requested convergence on             energy=1.00D-06.
 No special actions if energy rises.
 Defaulting to unpruned grid for atomic number  77.
 Defaulting to unpruned grid for atomic number  77.
 Defaulting to unpruned grid for atomic number  77.
 Defaulting to unpruned grid for atomic number  77.
 Defaulting to unpruned grid for atomic number  77.
 Defaulting to unpruned grid for atomic number  77.
 Defaulting to unpruned grid for atomic number  77.
 Defaulting to unpruned grid for atomic number  77.
 Defaulting to unpruned grid for atomic number  77.
 Defaulting to unpruned grid for atomic number  77.
 Defaulting to unpruned grid for atomic number  77.
 Defaulting to unpruned grid for atomic number  77.
 Defaulting to unpruned grid for atomic number  77.
 Defaulting to unpruned grid for atomic number  77.
 Defaulting to unpruned grid for atomic number  77.
 Defaulting to unpruned grid for atomic number  77.
 SCF Done:  E(RM06) =  -1832.72091838     A.U. after   15 cycles
            NFock= 15  Conv=0.57D-08     -V/T= 2.0472
 DoSCS=F DFT=T ScalE2(SS,OS)=  1.000000  1.000000
 Range of M.O.s used for correlation:     1   656
 NBasis=   656 NAE=   153 NBE=   153 NFC=     0 NFV=     0
 NROrb=    656 NOA=   153 NOB=   153 NVA=   503 NVB=   503
   1 Symmetry operations used in ECPInt.
 ECPInt:  NShTT=   31878 NPrTT=  193976 LenC2=   25784 LenP2D=   83222.
 LDataN:  DoStor=T MaxTD1= 7 Len=  274
 Number of processors reduced to  11 by ecpmxn.
 Symmetrizing basis deriv contribution to polar:
 IMax=3 JMax=2 DiffMx= 0.00D+00
 G2DrvN: will do    85 centers at a time, making    1 passes.
 Calling FoFCou, ICntrl=  3107 FMM=T I1Cent=   0 AccDes= 0.00D+00.
 Defaulting to unpruned grid for atomic number  77.
 Defaulting to unpruned grid for atomic number  77.
 Defaulting to unpruned grid for atomic number  77.
 Defaulting to unpruned grid for atomic number  77.
 Defaulting to unpruned grid for atomic number  77.
 Defaulting to unpruned grid for atomic number  77.
 Defaulting to unpruned grid for atomic number  77.
 Defaulting to unpruned grid for atomic number  77.
 Defaulting to unpruned grid for atomic number  77.
 Defaulting to unpruned grid for atomic number  77.
 Defaulting to unpruned grid for atomic number  77.
 Defaulting to unpruned grid for atomic number  77.
 Defaulting to unpruned grid for atomic number  77.
 Defaulting to unpruned grid for atomic number  77.
 Defaulting to unpruned grid for atomic number  77.
 Defaulting to unpruned grid for atomic number  77.
 End of G2Drv F.D. properties file   721 does not exist.
 End of G2Drv F.D. properties file   722 does not exist.
 End of G2Drv F.D. properties file   788 does not exist.
          IDoAtm=11111111111111111111111111111111111111111111111111
          IDoAtm=1111111111111111111111111111111111
          Differentiating once with respect to electric field.
                with respect to dipole field.
          Differentiating once with respect to nuclear coordinates.
 Defaulting to unpruned grid for atomic number  77.
 CalDSu exits because no D1Ps are significant.
 Defaulting to unpruned grid for atomic number  77.
 Defaulting to unpruned grid for atomic number  77.
 Defaulting to unpruned grid for atomic number  77.
 Defaulting to unpruned grid for atomic number  77.
 Defaulting to unpruned grid for atomic number  77.
 Defaulting to unpruned grid for atomic number  77.
 Defaulting to unpruned grid for atomic number  77.
 Defaulting to unpruned grid for atomic number  77.
 Defaulting to unpruned grid for atomic number  77.
 Defaulting to unpruned grid for atomic number  77.
 Defaulting to unpruned grid for atomic number  77.
 Defaulting to unpruned grid for atomic number  77.
 Defaulting to unpruned grid for atomic number  77.
 Defaulting to unpruned grid for atomic number  77.
 Defaulting to unpruned grid for atomic number  77.
 Defaulting to unpruned grid for atomic number  77.
          There are   255 degrees of freedom in the 1st order CPHF.  IDoFFX=6 NUNeed=     3.
    252 vectors produced by pass  0 Test12= 7.70D-14 1.00D-09 XBig12= 4.56D+02 6.53D+00.
 AX will form    72 AO Fock derivatives at one time.
    252 vectors produced by pass  1 Test12= 7.70D-14 1.00D-09 XBig12= 6.78D+01 1.06D+00.
    252 vectors produced by pass  2 Test12= 7.70D-14 1.00D-09 XBig12= 8.81D-01 9.60D-02.
    252 vectors produced by pass  3 Test12= 7.70D-14 1.00D-09 XBig12= 6.55D-03 5.78D-03.
    252 vectors produced by pass  4 Test12= 7.70D-14 1.00D-09 XBig12= 2.10D-05 2.93D-04.
    213 vectors produced by pass  5 Test12= 7.70D-14 1.00D-09 XBig12= 4.57D-08 1.51D-05.
     62 vectors produced by pass  6 Test12= 7.70D-14 1.00D-09 XBig12= 7.02D-11 5.04D-07.
      3 vectors produced by pass  7 Test12= 7.70D-14 1.00D-09 XBig12= 1.01D-13 1.76D-08.
 InvSVY:  IOpt=1 It=  1 EMax= 1.03D-14
 Solved reduced A of dimension  1538 with   255 vectors.
 Isotropic polarizability for W=    0.000000      404.81 Bohr**3.
 End of Minotr F.D. properties file   721 does not exist.
 End of Minotr F.D. properties file   722 does not exist.
 End of Minotr F.D. properties file   788 does not exist.

 **********************************************************************

            Population analysis using the SCF Density.

 **********************************************************************

 Orbital symmetries:
       Occupied  (A) (A) (A) (A) (A) (A) (A) (A) (A) (A) (A) (A)
                 (A) (A) (A) (A) (A) (A) (A) (A) (A) (A) (A) (A)
                 (A) (A) (A) (A) (A) (A) (A) (A) (A) (A) (A) (A)
                 (A) (A) (A) (A) (A) (A) (A) (A) (A) (A) (A) (A)
                 (A) (A) (A) (A) (A) (A) (A) (A) (A) (A) (A) (A)
                 (A) (A) (A) (A) (A) (A) (A) (A) (A) (A) (A) (A)
                 (A) (A) (A) (A) (A) (A) (A) (A) (A) (A) (A) (A)
                 (A) (A) (A) (A) (A) (A) (A) (A) (A) (A) (A) (A)
                 (A) (A) (A) (A) (A) (A) (A) (A) (A) (A) (A) (A)
                 (A) (A) (A) (A) (A) (A) (A) (A) (A) (A) (A) (A)
                 (A) (A) (A) (A) (A) (A) (A) (A) (A) (A) (A) (A)
                 (A) (A) (A) (A) (A) (A) (A) (A) (A) (A) (A) (A)
                 (A) (A) (A) (A) (A) (A) (A) (A) (A)
       Virtual   (A) (A) (A) (A) (A) (A) (A) (A) (A) (A) (A) (A)
                 (A) (A) (A) (A) (A) (A) (A) (A) (A) (A) (A) (A)
                 (A) (A) (A) (A) (A) (A) (A) (A) (A) (A) (A) (A)
                 (A) (A) (A) (A) (A) (A) (A) (A) (A) (A) (A) (A)
                 (A) (A) (A) (A) (A) (A) (A) (A) (A) (A) (A) (A)
                 (A) (A) (A) (A) (A) (A) (A) (A) (A) (A) (A) (A)
                 (A) (A) (A) (A) (A) (A) (A) (A) (A) (A) (A) (A)
                 (A) (A) (A) (A) (A) (A) (A) (A) (A) (A) (A) (A)
                 (A) (A) (A) (A) (A) (A) (A) (A) (A) (A) (A) (A)
                 (A) (A) (A) (A) (A) (A) (A) (A) (A) (A) (A) (A)
                 (A) (A) (A) (A) (A) (A) (A) (A) (A) (A) (A) (A)
                 (A) (A) (A) (A) (A) (A) (A) (A) (A) (A) (A) (A)
                 (A) (A) (A) (A) (A) (A) (A) (A) (A) (A) (A) (A)
                 (A) (A) (A) (A) (A) (A) (A) (A) (A) (A) (A) (A)
                 (A) (A) (A) (A) (A) (A) (A) (A) (A) (A) (A) (A)
                 (A) (A) (A) (A) (A) (A) (A) (A) (A) (A) (A) (A)
                 (A) (A) (A) (A) (A) (A) (A) (A) (A) (A) (A) (A)
                 (A) (A) (A) (A) (A) (A) (A) (A) (A) (A) (A) (A)
                 (A) (A) (A) (A) (A) (A) (A) (A) (A) (A) (A) (A)
                 (A) (A) (A) (A) (A) (A) (A) (A) (A) (A) (A) (A)
                 (A) (A) (A) (A) (A) (A) (A) (A) (A) (A) (A) (A)
                 (A) (A) (A) (A) (A) (A) (A) (A) (A) (A) (A) (A)
                 (A) (A) (A) (A) (A) (A) (A) (A) (A) (A) (A) (A)
                 (A) (A) (A) (A) (A) (A) (A) (A) (A) (A) (A) (A)
                 (A) (A) (A) (A) (A) (A) (A) (A) (A) (A) (A) (A)
                 (A) (A) (A) (A) (A) (A) (A) (A) (A) (A) (A) (A)
                 (A) (A) (A) (A) (A) (A) (A) (A) (A) (A) (A) (A)
                 (A) (A) (A) (A) (A) (A) (A) (A) (A) (A) (A) (A)
                 (A) (A) (A) (A) (A) (A) (A) (A) (A) (A) (A) (A)
                 (A) (A) (A) (A) (A) (A) (A) (A) (A) (A) (A) (A)
                 (A) (A) (A) (A) (A) (A) (A) (A) (A) (A) (A) (A)
                 (A) (A) (A) (A) (A) (A) (A) (A) (A) (A) (A) (A)
                 (A) (A) (A) (A) (A) (A) (A) (A) (A) (A) (A) (A)
                 (A) (A) (A) (A) (A) (A) (A) (A) (A) (A) (A) (A)
                 (A) (A) (A) (A) (A) (A) (A) (A) (A) (A) (A) (A)
                 (A) (A) (A) (A) (A) (A) (A) (A) (A) (A) (A) (A)
                 (A) (A) (A) (A) (A) (A) (A) (A) (A) (A) (A) (A)
                 (A) (A) (A) (A) (A) (A) (A) (A) (A) (A) (A) (A)
                 (A) (A) (A) (A) (A) (A) (A) (A) (A) (A) (A) (A)
                 (A) (A) (A) (A) (A) (A) (A) (A) (A) (A) (A) (A)
                 (A) (A) (A) (A) (A) (A) (A) (A) (A) (A) (A) (A)
                 (A) (A) (A) (A) (A) (A) (A) (A) (A) (A) (A)
 The electronic state is 1-A.
 Alpha  occ. eigenvalues --  -19.21450 -19.21440 -19.21214 -19.20814 -19.20459
 Alpha  occ. eigenvalues --  -19.20434 -14.44781 -14.39905 -10.30790 -10.30253
 Alpha  occ. eigenvalues --  -10.30057 -10.30034 -10.29904 -10.29776 -10.29580
 Alpha  occ. eigenvalues --  -10.29416 -10.28587 -10.28460 -10.27860 -10.27241
 Alpha  occ. eigenvalues --  -10.26706 -10.25909 -10.25494 -10.25307 -10.23635
 Alpha  occ. eigenvalues --  -10.23351 -10.23152 -10.23143 -10.23055 -10.23049
 Alpha  occ. eigenvalues --  -10.22803 -10.22778 -10.22635 -10.22480 -10.21764
 Alpha  occ. eigenvalues --  -10.21729  -6.82231  -6.81130  -6.80220  -3.64896
 Alpha  occ. eigenvalues --   -2.07453  -2.07069  -2.06079  -1.07016  -1.06887
 Alpha  occ. eigenvalues --   -1.06586  -1.00075  -0.99964  -0.99820  -0.98712
 Alpha  occ. eigenvalues --   -0.95028  -0.83335  -0.81167  -0.81100  -0.80885
 Alpha  occ. eigenvalues --   -0.80676  -0.80187  -0.75534  -0.75221  -0.75202
 Alpha  occ. eigenvalues --   -0.74998  -0.71069  -0.70741  -0.70434  -0.68246
 Alpha  occ. eigenvalues --   -0.67818  -0.67500  -0.67022  -0.66410  -0.62525
 Alpha  occ. eigenvalues --   -0.62068  -0.61850  -0.61537  -0.61240  -0.55740
 Alpha  occ. eigenvalues --   -0.55322  -0.55158  -0.55086  -0.54365  -0.53906
 Alpha  occ. eigenvalues --   -0.53557  -0.51889  -0.50883  -0.48601  -0.47936
 Alpha  occ. eigenvalues --   -0.47686  -0.47509  -0.47283  -0.47046  -0.46716
 Alpha  occ. eigenvalues --   -0.46324  -0.45734  -0.45254  -0.44912  -0.44751
 Alpha  occ. eigenvalues --   -0.44506  -0.44390  -0.44104  -0.43899  -0.43578
 Alpha  occ. eigenvalues --   -0.43375  -0.41369  -0.40761  -0.40699  -0.40665
 Alpha  occ. eigenvalues --   -0.40546  -0.40336  -0.40236  -0.40120  -0.39930
 Alpha  occ. eigenvalues --   -0.39828  -0.39727  -0.39570  -0.39467  -0.39033
 Alpha  occ. eigenvalues --   -0.38615  -0.38058  -0.37905  -0.37812  -0.37277
 Alpha  occ. eigenvalues --   -0.37208  -0.36824  -0.36722  -0.36600  -0.36239
 Alpha  occ. eigenvalues --   -0.36197  -0.36055  -0.35309  -0.35214  -0.34858
 Alpha  occ. eigenvalues --   -0.34631  -0.33529  -0.33244  -0.32850  -0.32352
 Alpha  occ. eigenvalues --   -0.32311  -0.32177  -0.31836  -0.31051  -0.30711
 Alpha  occ. eigenvalues --   -0.30564  -0.30321  -0.29418  -0.28463  -0.28080
 Alpha  occ. eigenvalues --   -0.27382  -0.27037  -0.26742  -0.26464  -0.25075
 Alpha  occ. eigenvalues --   -0.24430  -0.22683  -0.22045
 Alpha virt. eigenvalues --   -0.06785  -0.03667  -0.02508   0.01373   0.02953
 Alpha virt. eigenvalues --    0.03565   0.04362   0.05365   0.06038   0.07348
 Alpha virt. eigenvalues --    0.07567   0.08809   0.09345   0.09744   0.10423
 Alpha virt. eigenvalues --    0.11538   0.12115   0.12206   0.12763   0.12851
 Alpha virt. eigenvalues --    0.13350   0.13697   0.13913   0.13997   0.14315
 Alpha virt. eigenvalues --    0.14584   0.15093   0.15230   0.15431   0.15532
 Alpha virt. eigenvalues --    0.15759   0.15937   0.16121   0.16642   0.16763
 Alpha virt. eigenvalues --    0.17006   0.17172   0.17514   0.17837   0.17891
 Alpha virt. eigenvalues --    0.18114   0.18180   0.18338   0.18649   0.18868
 Alpha virt. eigenvalues --    0.18991   0.19119   0.19479   0.19794   0.19925
 Alpha virt. eigenvalues --    0.20069   0.20648   0.20774   0.20961   0.21363
 Alpha virt. eigenvalues --    0.21676   0.22285   0.22811   0.23244   0.23347
 Alpha virt. eigenvalues --    0.23825   0.24031   0.24260   0.24444   0.24679
 Alpha virt. eigenvalues --    0.25230   0.25578   0.25811   0.26002   0.26519
 Alpha virt. eigenvalues --    0.26726   0.27454   0.27555   0.27764   0.28126
 Alpha virt. eigenvalues --    0.28212   0.28803   0.29330   0.29505   0.30241
 Alpha virt. eigenvalues --    0.30827   0.30979   0.31219   0.32146   0.32800
 Alpha virt. eigenvalues --    0.33079   0.33471   0.34431   0.35064   0.35976
 Alpha virt. eigenvalues --    0.36735   0.37235   0.38067   0.39505   0.41158
 Alpha virt. eigenvalues --    0.42460   0.43260   0.46050   0.46271   0.47516
 Alpha virt. eigenvalues --    0.48378   0.48873   0.49720   0.50204   0.50386
 Alpha virt. eigenvalues --    0.50823   0.50962   0.51139   0.51948   0.52025
 Alpha virt. eigenvalues --    0.52222   0.53963   0.54469   0.55065   0.55442
 Alpha virt. eigenvalues --    0.55640   0.56292   0.56508   0.56973   0.57357
 Alpha virt. eigenvalues --    0.57509   0.57589   0.58134   0.58608   0.58739
 Alpha virt. eigenvalues --    0.59114   0.59432   0.59655   0.59939   0.59978
 Alpha virt. eigenvalues --    0.60053   0.60594   0.60854   0.61503   0.61678
 Alpha virt. eigenvalues --    0.61831   0.62811   0.62957   0.63332   0.63965
 Alpha virt. eigenvalues --    0.64187   0.64565   0.65037   0.65371   0.65907
 Alpha virt. eigenvalues --    0.66123   0.66333   0.66775   0.67039   0.67236
 Alpha virt. eigenvalues --    0.67900   0.68206   0.68653   0.68909   0.69386
 Alpha virt. eigenvalues --    0.70000   0.70162   0.70988   0.71316   0.71545
 Alpha virt. eigenvalues --    0.71887   0.72652   0.72882   0.73231   0.73445
 Alpha virt. eigenvalues --    0.73788   0.74283   0.75093   0.75665   0.75894
 Alpha virt. eigenvalues --    0.76892   0.77531   0.77927   0.78562   0.78833
 Alpha virt. eigenvalues --    0.79052   0.80038   0.80659   0.80962   0.81278
 Alpha virt. eigenvalues --    0.81382   0.82198   0.82804   0.82935   0.83364
 Alpha virt. eigenvalues --    0.83532   0.83754   0.84275   0.84449   0.84719
 Alpha virt. eigenvalues --    0.84946   0.85657   0.85704   0.86172   0.86294
 Alpha virt. eigenvalues --    0.86497   0.86876   0.87018   0.87667   0.87977
 Alpha virt. eigenvalues --    0.88080   0.88841   0.89071   0.89166   0.89472
 Alpha virt. eigenvalues --    0.89925   0.90151   0.90376   0.90817   0.90937
 Alpha virt. eigenvalues --    0.91155   0.91658   0.91875   0.92455   0.92509
 Alpha virt. eigenvalues --    0.92688   0.93175   0.93627   0.94038   0.94199
 Alpha virt. eigenvalues --    0.94601   0.94738   0.95050   0.95648   0.95767
 Alpha virt. eigenvalues --    0.96219   0.96952   0.97208   0.97630   0.97966
 Alpha virt. eigenvalues --    0.98423   0.98875   1.00065   1.00996   1.01227
 Alpha virt. eigenvalues --    1.02639   1.02753   1.03080   1.04050   1.04325
 Alpha virt. eigenvalues --    1.04447   1.05268   1.05507   1.06439   1.07010
 Alpha virt. eigenvalues --    1.08057   1.09186   1.10312   1.11171   1.11408
 Alpha virt. eigenvalues --    1.12023   1.13434   1.14066   1.14372   1.15174
 Alpha virt. eigenvalues --    1.16024   1.16943   1.17189   1.17918   1.18837
 Alpha virt. eigenvalues --    1.19348   1.19538   1.21392   1.21921   1.22079
 Alpha virt. eigenvalues --    1.23385   1.23845   1.23953   1.25033   1.25621
 Alpha virt. eigenvalues --    1.26384   1.26900   1.27353   1.28131   1.28774
 Alpha virt. eigenvalues --    1.29914   1.30948   1.31417   1.32278   1.33426
 Alpha virt. eigenvalues --    1.33650   1.34414   1.34940   1.36511   1.37217
 Alpha virt. eigenvalues --    1.39411   1.40598   1.41188   1.42046   1.42880
 Alpha virt. eigenvalues --    1.43830   1.43928   1.44312   1.45588   1.46079
 Alpha virt. eigenvalues --    1.46883   1.47545   1.48132   1.48353   1.49111
 Alpha virt. eigenvalues --    1.49315   1.50246   1.50702   1.51800   1.52511
 Alpha virt. eigenvalues --    1.54487   1.55575   1.56728   1.57079   1.58378
 Alpha virt. eigenvalues --    1.59393   1.60648   1.60993   1.62217   1.63757
 Alpha virt. eigenvalues --    1.64254   1.65257   1.65430   1.66693   1.66860
 Alpha virt. eigenvalues --    1.67490   1.67981   1.68138   1.69228   1.69475
 Alpha virt. eigenvalues --    1.71035   1.71582   1.72543   1.73452   1.74351
 Alpha virt. eigenvalues --    1.75721   1.76288   1.76948   1.77595   1.78239
 Alpha virt. eigenvalues --    1.79962   1.80049   1.80746   1.81000   1.81814
 Alpha virt. eigenvalues --    1.82280   1.82631   1.83006   1.83723   1.84197
 Alpha virt. eigenvalues --    1.85605   1.85966   1.86263   1.87340   1.87539
 Alpha virt. eigenvalues --    1.88265   1.88674   1.89033   1.90273   1.90857
 Alpha virt. eigenvalues --    1.91112   1.91302   1.91523   1.91829   1.91883
 Alpha virt. eigenvalues --    1.92330   1.92632   1.92896   1.93200   1.93578
 Alpha virt. eigenvalues --    1.94348   1.95397   1.95854   1.96157   1.96886
 Alpha virt. eigenvalues --    1.98021   1.98926   1.99755   2.00936   2.01869
 Alpha virt. eigenvalues --    2.02219   2.02642   2.03444   2.05190   2.05592
 Alpha virt. eigenvalues --    2.05918   2.06524   2.06596   2.07016   2.07383
 Alpha virt. eigenvalues --    2.08119   2.08829   2.10163   2.10339   2.10654
 Alpha virt. eigenvalues --    2.11949   2.12096   2.12767   2.13190   2.13642
 Alpha virt. eigenvalues --    2.14451   2.14891   2.15250   2.15708   2.16261
 Alpha virt. eigenvalues --    2.16510   2.17105   2.17576   2.18240   2.18552
 Alpha virt. eigenvalues --    2.18775   2.19465   2.19669   2.20031   2.20645
 Alpha virt. eigenvalues --    2.20882   2.21620   2.21936   2.22167   2.23443
 Alpha virt. eigenvalues --    2.23654   2.23920   2.24502   2.24751   2.25038
 Alpha virt. eigenvalues --    2.25806   2.26133   2.26700   2.26783   2.27981
 Alpha virt. eigenvalues --    2.29115   2.29464   2.30109   2.31642   2.32167
 Alpha virt. eigenvalues --    2.32282   2.32946   2.33112   2.34655   2.35296
 Alpha virt. eigenvalues --    2.35547   2.36117   2.37171   2.38363   2.38655
 Alpha virt. eigenvalues --    2.39416   2.39864   2.43895   2.44477   2.46629
 Alpha virt. eigenvalues --    2.47374   2.48047   2.48141   2.48600   2.48737
 Alpha virt. eigenvalues --    2.49603   2.50135   2.51855   2.53498   2.55751
 Alpha virt. eigenvalues --    2.59327   2.59845   2.60053   2.61329   2.62725
 Alpha virt. eigenvalues --    2.63323   2.63686   2.63857   2.64640   2.65220
 Alpha virt. eigenvalues --    2.67818   2.68504   2.70683   2.72762   2.75519
 Alpha virt. eigenvalues --    2.76914   2.77248   2.77453   2.78199   2.78860
 Alpha virt. eigenvalues --    2.79832   2.80362   2.80931   2.81134   2.81780
 Alpha virt. eigenvalues --    2.82068   2.82964   2.84294   2.86700   2.87369
 Alpha virt. eigenvalues --    2.87784   2.89763   2.93252   2.93613   2.94521
 Alpha virt. eigenvalues --    2.94894   2.96244   3.00865   3.01792   3.05603
 Alpha virt. eigenvalues --    3.08455   3.11690   3.12482   3.13090   3.23262
 Alpha virt. eigenvalues --    3.32987   3.42319   9.20996
          Condensed to atoms (all electrons):
 Mulliken charges:
               1
     1  N   -0.551212
     2  C    0.043423
     3  C   -0.182339
     4  C   -0.127840
     5  C   -0.179256
     6  C    0.304996
     7  H    0.178341
     8  H    0.200816
     9  N   -0.427262
    10  C    0.233806
    11  C   -0.244653
    12  C   -0.166176
    13  C   -0.160592
    14  C   -0.003400
    15  H    0.235120
    16  H    0.182408
    17  H    0.161830
    18  Ir   0.103250
    19  B    0.421724
    20  O   -0.529735
    21  O   -0.501827
    22  C    0.286685
    23  C    0.287800
    24  C   -0.501180
    25  H    0.183864
    26  H    0.155061
    27  H    0.152611
    28  C   -0.503914
    29  H    0.154431
    30  H    0.167169
    31  H    0.163952
    32  C   -0.509994
    33  H    0.172971
    34  H    0.147550
    35  H    0.172455
    36  C   -0.510228
    37  H    0.142755
    38  H    0.186169
    39  H    0.170915
    40  B    0.457440
    41  O   -0.476193
    42  O   -0.523799
    43  C    0.295055
    44  C    0.288119
    45  C   -0.504500
    46  C   -0.512371
    47  H    0.149105
    48  H    0.174309
    49  H    0.175163
    50  C   -0.509218
    51  H    0.159044
    52  H    0.155205
    53  H    0.173878
    54  C   -0.501940
    55  H    0.152011
    56  H    0.179158
    57  H    0.165223
    58  B    0.439601
    59  O   -0.480205
    60  O   -0.529950
    61  C    0.288057
    62  C    0.294895
    63  C   -0.509861
    64  H    0.183137
    65  H    0.179121
    66  H    0.142075
    67  C   -0.514101
    68  H    0.148544
    69  H    0.176109
    70  H    0.172391
    71  C   -0.508926
    72  H    0.166833
    73  H    0.155996
    74  H    0.169680
    75  C   -0.514994
    76  H    0.156926
    77  H    0.176641
    78  H    0.164679
    79  H    0.206546
    80  H    0.153853
    81  H    0.184360
    82  H    0.151391
    83  H    0.158660
    84  H    0.182356
 Sum of Mulliken charges =  -0.00000
 Mulliken charges with hydrogens summed into heavy atoms:
               1
     1  N   -0.551212
     2  C    0.249969
     3  C   -0.003998
     4  C    0.054516
     5  C    0.021560
     6  C    0.304996
     9  N   -0.427262
    10  C    0.233806
    11  C   -0.244653
    12  C    0.016231
    13  C    0.001237
    14  C    0.155260
    18  Ir   0.338370
    19  B    0.421724
    20  O   -0.529735
    21  O   -0.501827
    22  C    0.286685
    23  C    0.287800
    24  C   -0.009644
    28  C   -0.018362
    32  C   -0.017018
    36  C   -0.010389
    40  B    0.457440
    41  O   -0.476193
    42  O   -0.523799
    43  C    0.295055
    44  C    0.288119
    45  C   -0.014896
    46  C   -0.013794
    50  C   -0.021092
    54  C   -0.005547
    58  B    0.439601
    59  O   -0.480205
    60  O   -0.529950
    61  C    0.288057
    62  C    0.294895
    63  C   -0.005527
    67  C   -0.017057
    71  C   -0.016417
    75  C   -0.016747
 APT charges:
               1
     1  N   -0.316048
     2  C    0.089684
     3  C   -0.130869
     4  C    0.201448
     5  C   -0.256994
     6  C    0.325528
     7  H    0.033988
     8  H    0.086381
     9  N   -0.418650
    10  C    0.082179
    11  C    0.025758
    12  C    0.025729
    13  C   -0.046698
    14  C    0.113395
    15  H    0.237058
    16  H    0.062959
    17  H    0.008772
    18  Ir  -0.740745
    19  B    1.418935
    20  O   -1.036726
    21  O   -0.993353
    22  C    0.508467
    23  C    0.520860
    24  C   -0.045872
    25  H    0.013796
    26  H    0.010601
    27  H   -0.020451
    28  C   -0.003107
    29  H   -0.018576
    30  H    0.001946
    31  H   -0.002928
    32  C   -0.010183
    33  H    0.002972
    34  H   -0.018429
    35  H   -0.000384
    36  C   -0.051036
    37  H   -0.023399
    38  H    0.035483
    39  H    0.000121
    40  B    1.157897
    41  O   -0.953204
    42  O   -0.964411
    43  C    0.479959
    44  C    0.466596
    45  C   -0.020359
    46  C   -0.009910
    47  H   -0.021161
    48  H    0.004865
    49  H    0.006702
    50  C   -0.001106
    51  H   -0.004007
    52  H   -0.013014
    53  H   -0.000852
    54  C   -0.042741
    55  H   -0.023998
    56  H    0.016730
    57  H    0.004543
    58  B    1.246560
    59  O   -0.976414
    60  O   -0.978194
    61  C    0.513197
    62  C    0.477203
    63  C   -0.037161
    64  H    0.029624
    65  H    0.005197
    66  H   -0.026760
    67  C   -0.013413
    68  H   -0.015913
    69  H    0.003905
    70  H    0.000899
    71  C   -0.003093
    72  H   -0.000213
    73  H   -0.014875
    74  H    0.001952
    75  C   -0.034383
    76  H   -0.017011
    77  H    0.003779
    78  H    0.003637
    79  H    0.099349
    80  H   -0.013450
    81  H    0.007022
    82  H   -0.021627
    83  H   -0.018587
    84  H    0.024633
 Sum of APT charges =   0.00000
 APT charges with hydrogens summed into heavy atoms:
               1
     1  N   -0.316048
     2  C    0.189032
     3  C   -0.096881
     4  C    0.226082
     5  C   -0.170613
     6  C    0.325528
     9  N   -0.418650
    10  C    0.082179
    11  C    0.025758
    12  C    0.088688
    13  C   -0.037926
    14  C    0.094807
    18  Ir  -0.503687
    19  B    1.418935
    20  O   -1.036726
    21  O   -0.993353
    22  C    0.508467
    23  C    0.520860
    24  C   -0.041925
    28  C   -0.022665
    32  C   -0.026024
    36  C   -0.038831
    40  B    1.157897
    41  O   -0.953204
    42  O   -0.964411
    43  C    0.479959
    44  C    0.466596
    45  C   -0.048414
    46  C   -0.019504
    50  C   -0.018979
    54  C   -0.045467
    58  B    1.246560
    59  O   -0.976414
    60  O   -0.978194
    61  C    0.513197
    62  C    0.477203
    63  C   -0.029101
    67  C   -0.024521
    71  C   -0.016230
    75  C   -0.043979
 Electronic spatial extent (au):  <R**2>=          18870.4810
 Charge=             -0.0000 electrons
 Dipole moment (field-independent basis, Debye):
    X=              0.3258    Y=              1.5851    Z=              0.5724  Tot=              1.7165
 Quadrupole moment (field-independent basis, Debye-Ang):
   XX=           -230.0348   YY=           -229.8877   ZZ=           -255.1786
   XY=             10.0438   XZ=             -1.7783   YZ=             -1.2765
 Traceless Quadrupole moment (field-independent basis, Debye-Ang):
   XX=              8.3322   YY=              8.4793   ZZ=            -16.8115
   XY=             10.0438   XZ=             -1.7783   YZ=             -1.2765
 Octapole moment (field-independent basis, Debye-Ang**2):
  XXX=            137.1489  YYY=            -24.5706  ZZZ=            -14.2206  XYY=             42.4212
  XXY=             40.2041  XXZ=            -36.8868  XZZ=            -13.0348  YZZ=              1.7855
  YYZ=             18.4883  XYZ=              4.2260
 Hexadecapole moment (field-independent basis, Debye-Ang**3):
 XXXX=         -10117.1549 YYYY=          -9155.6373 ZZZZ=          -4946.1320 XXXY=            296.1759
 XXXZ=            -89.5631 YYYX=            -71.8750 YYYZ=             46.1283 ZZZX=             20.8150
 ZZZY=              6.9521 XXYY=          -3277.6509 XXZZ=          -2612.9868 YYZZ=          -2418.8401
 XXYZ=            -90.3127 YYXZ=            -60.3998 ZZXY=             29.3708
 N-N= 5.548351306789D+03 E-N=-1.533864313361D+04  KE= 1.750081834685D+03
  Exact polarizability:     452.120      -5.840     458.454      -5.880      -4.331     303.855
 Approx polarizability:     630.379      -7.278     670.769      -7.765      -8.195     451.112
   1 Symmetry operations used in ECPInt.
 ECPInt:  NShTT=   31878 NPrTT=  193976 LenC2=   25784 LenP2D=   83222.
 LDataN:  DoStor=T MaxTD1= 8 Len=  415
 Calling FoFJK, ICntrl=    100127 FMM=F ISym2X=0 I1Cent= 0 IOpClX= 0 NMat=1 NMatS=1 NMatT=0.
 Defaulting to unpruned grid for atomic number  77.
 Defaulting to unpruned grid for atomic number  77.
 Defaulting to unpruned grid for atomic number  77.
 Defaulting to unpruned grid for atomic number  77.
 Defaulting to unpruned grid for atomic number  77.
 Defaulting to unpruned grid for atomic number  77.
 Defaulting to unpruned grid for atomic number  77.
 Defaulting to unpruned grid for atomic number  77.
 Defaulting to unpruned grid for atomic number  77.
 Defaulting to unpruned grid for atomic number  77.
 Defaulting to unpruned grid for atomic number  77.
 Defaulting to unpruned grid for atomic number  77.
 Defaulting to unpruned grid for atomic number  77.
 Defaulting to unpruned grid for atomic number  77.
 Defaulting to unpruned grid for atomic number  77.
 Defaulting to unpruned grid for atomic number  77.
 Full mass-weighted force constant matrix:
 Low frequencies --- -594.0741   -8.6096   -1.8997    0.0003    0.0005    0.0006
 Low frequencies ---    4.3479   17.9521   25.6661
 ******    1 imaginary frequencies (negative Signs) ****** 
 Diagonal vibrational polarizability:
       79.8564331      60.9125956      78.7671939
 Harmonic frequencies (cm**-1), IR intensities (KM/Mole), Raman scattering
 activities (A**4/AMU), depolarization ratios for plane and unpolarized
 incident light, reduced masses (AMU), force constants (mDyne/A),
 and normal coordinates:
                      1                      2                      3
                      A                      A                      A
 Frequencies --   -594.0739                17.5867                25.2572
 Red. masses --      1.1832                 4.9215                 3.8239
 Frc consts  --      0.2460                 0.0009                 0.0014
 IR Inten    --    432.2636                 0.3500                 0.0567
  Atom AN      X      Y      Z        X      Y      Z        X      Y      Z
     1   7     0.00   0.00   0.00     0.02  -0.01   0.05    -0.01   0.01  -0.02
     2   6     0.00   0.00   0.00     0.04  -0.01   0.12    -0.03   0.02  -0.04
     3   6    -0.00   0.00  -0.00     0.05  -0.02   0.19    -0.04   0.03  -0.07
     4   6    -0.00  -0.00  -0.00     0.04  -0.04   0.20    -0.02   0.04  -0.09
     5   6    -0.00   0.00   0.00     0.01  -0.04   0.13    -0.01   0.04  -0.07
     6   6    -0.00  -0.00   0.01     0.00  -0.03   0.06    -0.00   0.02  -0.03
     7   1    -0.00   0.00  -0.00     0.07  -0.02   0.24    -0.05   0.03  -0.08
     8   1    -0.00  -0.00   0.00    -0.00  -0.05   0.13     0.00   0.05  -0.08
     9   7     0.01  -0.01  -0.01    -0.04  -0.04  -0.02     0.03   0.03  -0.01
    10   6     0.00  -0.01   0.02    -0.02  -0.02  -0.01     0.01   0.02  -0.01
    11   6     0.01   0.02   0.10    -0.02   0.00  -0.05     0.02   0.00   0.01
    12   6     0.01   0.02   0.01    -0.05   0.01  -0.11     0.03   0.00   0.04
    13   6     0.00   0.00  -0.02    -0.07  -0.01  -0.13     0.04   0.01   0.04
    14   6     0.00  -0.00  -0.00    -0.06  -0.04  -0.08     0.04   0.03   0.01
    15   1    -0.63   0.66  -0.38    -0.02   0.05  -0.05     0.00  -0.01   0.01
    16   1     0.00   0.01   0.04    -0.05   0.03  -0.14     0.03  -0.01   0.06
    17   1     0.00   0.00  -0.03    -0.08  -0.01  -0.18     0.06   0.01   0.06
    18  77     0.00  -0.01  -0.00     0.00   0.02  -0.03    -0.00  -0.01   0.01
    19   5    -0.01   0.03   0.01    -0.02  -0.03  -0.01     0.01  -0.02  -0.01
    20   8    -0.01   0.00   0.00    -0.00  -0.00  -0.01     0.01   0.01  -0.04
    21   8    -0.00   0.01   0.01    -0.04  -0.07   0.00     0.02  -0.06  -0.00
    22   6    -0.00   0.00  -0.00    -0.01  -0.01  -0.01     0.04   0.02  -0.06
    23   6    -0.00   0.00   0.00    -0.04  -0.05   0.01     0.02  -0.02  -0.03
    24   6    -0.00   0.00  -0.00     0.01  -0.03  -0.04     0.11   0.00  -0.09
    25   1    -0.00  -0.00  -0.00     0.02  -0.05  -0.05     0.12  -0.04  -0.08
    26   1    -0.00   0.00  -0.00     0.02  -0.00  -0.06     0.11   0.04  -0.12
    27   1     0.00   0.00  -0.00     0.02  -0.04  -0.05     0.13   0.01  -0.11
    28   6    -0.00   0.00  -0.00    -0.01   0.03   0.01     0.02   0.09  -0.09
    29   1    -0.00  -0.00   0.00    -0.02   0.03   0.02     0.04   0.11  -0.10
    30   1    -0.00   0.00  -0.00     0.01   0.05   0.00     0.04   0.11  -0.10
    31   1    -0.00  -0.00  -0.00    -0.03   0.04   0.03    -0.04   0.09  -0.08
    32   6     0.00   0.00   0.00    -0.04  -0.08   0.00     0.06  -0.06  -0.04
    33   1    -0.00   0.00  -0.00    -0.02  -0.09  -0.02     0.10  -0.08  -0.06
    34   1     0.00  -0.00   0.00    -0.04  -0.06   0.01     0.07  -0.03  -0.06
    35   1     0.00  -0.00   0.00    -0.06  -0.10   0.02     0.05  -0.09  -0.01
    36   6     0.00   0.00   0.00    -0.07  -0.03   0.05    -0.03  -0.00  -0.00
    37   1     0.00   0.00  -0.00    -0.07  -0.02   0.05    -0.02   0.03  -0.02
    38   1    -0.00  -0.00   0.00    -0.07  -0.01   0.05    -0.06   0.03   0.01
    39   1     0.00   0.00   0.00    -0.08  -0.06   0.06    -0.03  -0.04   0.03
    40   5    -0.01   0.02  -0.03     0.00   0.02  -0.01    -0.01  -0.02   0.02
    41   8     0.00  -0.01  -0.01    -0.04   0.02  -0.02    -0.02  -0.03   0.02
    42   8    -0.00   0.01  -0.00     0.02   0.02  -0.01    -0.02  -0.01   0.03
    43   6     0.00  -0.00  -0.00    -0.06   0.02  -0.01    -0.02  -0.03   0.03
    44   6    -0.00   0.00   0.00    -0.01   0.02  -0.02    -0.02  -0.02   0.03
    45   6     0.00  -0.00  -0.00    -0.08   0.03   0.04    -0.02  -0.03   0.03
    46   6     0.00  -0.00  -0.00    -0.10   0.01  -0.05    -0.02  -0.04   0.03
    47   1     0.00  -0.00  -0.00    -0.11   0.01  -0.05    -0.02  -0.04   0.04
    48   1     0.00  -0.00   0.00    -0.13   0.01  -0.04    -0.03  -0.05   0.02
    49   1     0.00  -0.00  -0.00    -0.09   0.01  -0.09    -0.02  -0.03   0.02
    50   6     0.00   0.00   0.00    -0.01   0.02   0.01    -0.03  -0.02   0.04
    51   1    -0.00   0.00   0.00    -0.01   0.02   0.04    -0.03  -0.01   0.04
    52   1     0.00   0.00   0.00    -0.04   0.02  -0.00    -0.03  -0.02   0.05
    53   1    -0.00   0.00   0.00     0.02   0.02  -0.00    -0.03  -0.01   0.05
    54   6    -0.00   0.00   0.00    -0.00   0.01  -0.07    -0.02  -0.02   0.03
    55   1    -0.00   0.00   0.00    -0.03   0.01  -0.09    -0.03  -0.03   0.04
    56   1    -0.00   0.00   0.00    -0.01   0.01  -0.09    -0.02  -0.03   0.02
    57   1     0.00   0.00   0.00     0.03   0.01  -0.08    -0.02  -0.01   0.03
    58   5    -0.00  -0.02  -0.01     0.03   0.01  -0.01     0.00  -0.01   0.01
    59   8     0.01   0.00  -0.01     0.09  -0.01  -0.01     0.07  -0.06   0.02
    60   8    -0.00  -0.00  -0.00    -0.00   0.02   0.01    -0.06   0.05   0.01
    61   6     0.00   0.00  -0.00     0.10   0.00   0.04     0.04  -0.01   0.04
    62   6    -0.00  -0.00   0.00     0.03   0.02   0.03    -0.06   0.05   0.01
    63   6     0.00   0.00  -0.00     0.11   0.02   0.10     0.11   0.06   0.13
    64   1    -0.00   0.00  -0.00     0.07   0.04   0.11     0.10   0.12   0.15
    65   1     0.00   0.00  -0.00     0.15   0.01   0.10     0.17   0.01   0.16
    66   1     0.00  -0.00   0.00     0.12   0.03   0.13     0.10   0.10   0.14
    67   6     0.00   0.00  -0.00     0.15  -0.02   0.02     0.06  -0.07   0.02
    68   1     0.00   0.00  -0.00     0.16  -0.01   0.06     0.04  -0.03   0.03
    69   1     0.00   0.00   0.00     0.19  -0.03   0.03     0.14  -0.11   0.05
    70   1     0.00   0.00  -0.00     0.15  -0.03  -0.02     0.03  -0.13  -0.04
    71   6    -0.00   0.00   0.00     0.01   0.05   0.09    -0.10   0.16   0.04
    72   1    -0.00  -0.00   0.00     0.02   0.07   0.11    -0.04   0.21   0.07
    73   1    -0.00  -0.00   0.00     0.04   0.06   0.10    -0.10   0.18   0.04
    74   1     0.00   0.00   0.00    -0.03   0.06   0.08    -0.18   0.19   0.02
    75   6     0.00   0.00  -0.00     0.03   0.00  -0.02    -0.14  -0.02  -0.07
    76   1    -0.00   0.00   0.00     0.05   0.00  -0.01    -0.16  -0.02  -0.08
    77   1     0.00  -0.00  -0.00     0.04  -0.02  -0.06    -0.12  -0.10  -0.09
    78   1     0.00   0.00  -0.00    -0.02   0.02  -0.03    -0.21   0.02  -0.10
    79   1     0.00   0.00  -0.00     0.05   0.00   0.11    -0.04   0.01  -0.02
    80   1     0.00   0.00  -0.00    -0.05   0.03   0.07    -0.02  -0.03   0.02
    81   1     0.00   0.00   0.00    -0.10   0.03   0.04    -0.02  -0.04   0.02
    82   1    -0.00  -0.00   0.00    -0.10   0.03   0.05    -0.02  -0.03   0.03
    83   1    -0.00  -0.01   0.01    -0.08  -0.06  -0.10     0.05   0.04   0.01
    84   1    -0.00  -0.00  -0.00     0.04  -0.05   0.25    -0.03   0.05  -0.11
                      4                      5                      6
                      A                      A                      A
 Frequencies --     30.3550                39.7017                41.5805
 Red. masses --      5.4146                 3.5980                 3.8071
 Frc consts  --      0.0029                 0.0033                 0.0039
 IR Inten    --      0.4901                 0.0884                 0.0118
  Atom AN      X      Y      Z        X      Y      Z        X      Y      Z
     1   7    -0.02   0.01  -0.02    -0.01   0.01  -0.00    -0.00  -0.00   0.01
     2   6    -0.02   0.01  -0.05    -0.02   0.02  -0.01    -0.01   0.00   0.03
     3   6    -0.02   0.02   0.02    -0.02   0.03  -0.01    -0.01   0.01   0.07
     4   6    -0.01   0.04   0.13    -0.01   0.04  -0.01    -0.00   0.02   0.08
     5   6    -0.01   0.04   0.16     0.00   0.03  -0.01    -0.00   0.01   0.05
     6   6    -0.01   0.03   0.08     0.00   0.02  -0.01    -0.00   0.00   0.01
     7   1    -0.03   0.02  -0.00    -0.03   0.03  -0.01    -0.01   0.02   0.09
     8   1     0.00   0.05   0.25     0.01   0.04  -0.01     0.00   0.02   0.05
     9   7    -0.00   0.04   0.21     0.03   0.03   0.01     0.01  -0.00  -0.06
    10   6    -0.00   0.03   0.10     0.02   0.02   0.00     0.00  -0.00  -0.02
    11   6     0.00   0.01   0.01     0.02   0.00   0.00     0.00  -0.00  -0.02
    12   6     0.02   0.00   0.04     0.03   0.00   0.01     0.00  -0.00  -0.05
    13   6     0.02   0.02   0.15     0.04   0.01   0.02     0.01  -0.01  -0.09
    14   6     0.01   0.04   0.23     0.04   0.02   0.02     0.01  -0.01  -0.10
    15   1     0.03  -0.05  -0.03     0.00  -0.01  -0.01    -0.02   0.02  -0.01
    16   1     0.03  -0.01  -0.03     0.04  -0.01   0.01     0.00  -0.00  -0.04
    17   1     0.03   0.02   0.17     0.05   0.01   0.03     0.01  -0.01  -0.12
    18  77    -0.01  -0.00  -0.05     0.00  -0.01  -0.01     0.00  -0.00   0.00
    19   5    -0.03  -0.01  -0.03    -0.01  -0.03   0.00     0.00  -0.03  -0.01
    20   8    -0.01  -0.00   0.01     0.03   0.06  -0.00     0.02   0.01  -0.02
    21   8    -0.06   0.00  -0.02    -0.06  -0.10   0.03    -0.00  -0.07   0.01
    22   6    -0.03   0.02   0.03     0.02   0.06   0.00     0.03   0.00  -0.03
    23   6    -0.06   0.02   0.00    -0.06  -0.03   0.05    -0.00  -0.04  -0.00
    24   6    -0.03   0.02   0.04     0.11   0.03  -0.07     0.08  -0.01  -0.07
    25   1    -0.03   0.01   0.02     0.12  -0.05  -0.10     0.09  -0.05  -0.07
    26   1    -0.00   0.02   0.06     0.16   0.09  -0.11     0.09   0.02  -0.09
    27   1    -0.04   0.04   0.06     0.11   0.02  -0.08     0.09  -0.02  -0.08
    28   6    -0.03   0.03   0.05     0.01   0.18   0.05     0.01   0.06  -0.03
    29   1    -0.04   0.05   0.07    -0.00   0.17   0.06     0.02   0.06  -0.03
    30   1    -0.00   0.03   0.07     0.08   0.24   0.01     0.04   0.09  -0.05
    31   1    -0.03   0.03   0.04    -0.03   0.21   0.12    -0.02   0.08   0.00
    32   6    -0.09   0.04   0.01    -0.05  -0.10   0.03     0.02  -0.08  -0.01
    33   1    -0.08   0.04   0.01     0.01  -0.15  -0.03     0.05  -0.11  -0.04
    34   1    -0.10   0.06   0.04    -0.05  -0.04   0.04     0.02  -0.06  -0.02
    35   1    -0.12   0.04  -0.01    -0.12  -0.16   0.06    -0.01  -0.12   0.01
    36   6    -0.08   0.03   0.00    -0.15   0.02   0.13    -0.05  -0.02   0.04
    37   1    -0.08   0.04   0.02    -0.16   0.08   0.15    -0.05   0.00   0.04
    38   1    -0.06   0.02  -0.00    -0.16   0.07   0.14    -0.06   0.01   0.05
    39   1    -0.10   0.03  -0.02    -0.21  -0.05   0.15    -0.06  -0.06   0.06
    40   5    -0.00  -0.01  -0.04    -0.00  -0.01  -0.01     0.01  -0.01   0.03
    41   8     0.06  -0.02  -0.02    -0.05  -0.02  -0.01     0.11   0.00   0.05
    42   8    -0.03  -0.00  -0.03     0.04  -0.00   0.01    -0.07  -0.01   0.01
    43   6     0.08  -0.03  -0.02    -0.03  -0.03   0.01     0.07   0.01   0.02
    44   6     0.01  -0.01   0.00     0.04  -0.00   0.01    -0.06  -0.02   0.02
    45   6     0.11  -0.04  -0.08    -0.04  -0.07   0.06     0.11   0.09  -0.08
    46   6     0.14  -0.04   0.04    -0.05  -0.02  -0.02     0.14  -0.01   0.09
    47   1     0.15  -0.04   0.05    -0.04  -0.02  -0.00     0.12  -0.01   0.07
    48   1     0.18  -0.05   0.02    -0.10  -0.04  -0.02     0.22   0.00   0.07
    49   1     0.12  -0.03   0.09    -0.05   0.01  -0.06     0.13  -0.05   0.16
    50   6     0.00  -0.01  -0.03     0.08  -0.02   0.06    -0.14   0.02  -0.05
    51   1     0.01  -0.01  -0.08     0.08  -0.05   0.09    -0.12   0.07  -0.13
    52   1     0.04  -0.02  -0.01     0.08  -0.03   0.06    -0.12   0.02  -0.05
    53   1    -0.04  -0.00  -0.01     0.13  -0.00   0.06    -0.23  -0.01  -0.05
    54   6     0.00  -0.01   0.08     0.06   0.05  -0.04    -0.09  -0.09   0.13
    55   1     0.03  -0.02   0.11     0.06   0.05  -0.04    -0.09  -0.11   0.15
    56   1     0.01  -0.01   0.09     0.03   0.06  -0.07    -0.04  -0.12   0.17
    57   1    -0.05   0.00   0.09     0.10   0.06  -0.04    -0.18  -0.09   0.13
    58   5     0.00  -0.02  -0.04    -0.00  -0.01  -0.01    -0.01   0.01   0.00
    59   8     0.04  -0.04  -0.04    -0.03   0.01  -0.02    -0.03   0.03  -0.00
    60   8    -0.01  -0.00  -0.04     0.02  -0.03  -0.01     0.00  -0.00   0.01
    61   6     0.05  -0.03  -0.02    -0.03  -0.00  -0.03    -0.04   0.04  -0.01
    62   6     0.00  -0.01  -0.03     0.02  -0.03  -0.01    -0.01   0.02   0.01
    63   6     0.06  -0.02   0.03    -0.05  -0.03  -0.08    -0.04   0.03  -0.06
    64   1     0.03   0.00   0.04    -0.04  -0.06  -0.10    -0.02   0.02  -0.07
    65   1     0.09  -0.03   0.04    -0.09  -0.00  -0.10    -0.06   0.05  -0.07
    66   1     0.06  -0.01   0.05    -0.05  -0.04  -0.09    -0.05   0.04  -0.08
    67   6     0.08  -0.06  -0.03    -0.06   0.03  -0.02    -0.07   0.07   0.00
    68   1     0.08  -0.06  -0.02    -0.05   0.02  -0.03    -0.08   0.08  -0.00
    69   1     0.10  -0.07  -0.02    -0.09   0.05  -0.03    -0.08   0.09  -0.02
    70   1     0.07  -0.07  -0.07    -0.04   0.06   0.02    -0.07   0.07   0.03
    71   6    -0.01   0.02  -0.01     0.03  -0.08  -0.03    -0.01  -0.00  -0.01
    72   1    -0.00   0.03   0.02     0.00  -0.10  -0.03    -0.01  -0.01  -0.03
    73   1     0.01   0.01  -0.00     0.04  -0.10  -0.03    -0.01   0.01  -0.01
    74   1    -0.04   0.03  -0.02     0.07  -0.08  -0.03     0.01  -0.01   0.00
    75   6    -0.01  -0.03  -0.07     0.05   0.00   0.03    -0.01   0.03   0.05
    76   1     0.00  -0.04  -0.07     0.06   0.01   0.03    -0.02   0.04   0.05
    77   1     0.00  -0.05  -0.09     0.04   0.04   0.04    -0.01   0.04   0.06
    78   1    -0.04  -0.01  -0.09     0.09  -0.02   0.04     0.01   0.01   0.06
    79   1    -0.03  -0.00  -0.13    -0.02   0.01  -0.00    -0.01  -0.00   0.01
    80   1     0.07  -0.03  -0.12    -0.02  -0.08   0.08     0.07   0.11  -0.13
    81   1     0.15  -0.05  -0.10    -0.09  -0.09   0.05     0.20   0.11  -0.08
    82   1     0.13  -0.04  -0.08    -0.02  -0.08   0.08     0.08   0.10  -0.12
    83   1     0.01   0.05   0.33     0.05   0.03   0.02     0.01  -0.01  -0.13
    84   1    -0.01   0.05   0.20    -0.01   0.05  -0.02    -0.00   0.03   0.11
                      7                      8                      9
                      A                      A                      A
 Frequencies --     50.2536                57.6531                69.0031
 Red. masses --      4.9980                 4.3228                 4.5245
 Frc consts  --      0.0074                 0.0085                 0.0127
 IR Inten    --      0.4088                 0.4340                 0.0568
  Atom AN      X      Y      Z        X      Y      Z        X      Y      Z
     1   7     0.03  -0.03   0.01    -0.01   0.01  -0.03     0.04  -0.02  -0.01
     2   6     0.06  -0.04  -0.02    -0.01   0.01  -0.01     0.04  -0.01   0.03
     3   6     0.07  -0.09  -0.11    -0.01   0.02   0.03     0.04  -0.01   0.04
     4   6     0.04  -0.12  -0.15    -0.01   0.02   0.04     0.04  -0.01   0.01
     5   6     0.01  -0.10  -0.09    -0.00   0.02   0.02     0.04  -0.01  -0.02
     6   6     0.00  -0.06  -0.01    -0.00   0.01  -0.01     0.05  -0.02  -0.02
     7   1     0.10  -0.10  -0.14    -0.01   0.02   0.04     0.04  -0.00   0.07
     8   1    -0.01  -0.13  -0.11     0.00   0.03   0.03     0.05  -0.01  -0.04
     9   7    -0.07  -0.06   0.09     0.01   0.01  -0.00     0.05  -0.01  -0.02
    10   6    -0.03  -0.04   0.04     0.00   0.01  -0.02     0.05  -0.02  -0.02
    11   6    -0.04   0.00   0.02     0.00   0.00  -0.02     0.05  -0.02  -0.01
    12   6    -0.08   0.02   0.04     0.01  -0.00   0.00     0.05  -0.02   0.03
    13   6    -0.11  -0.01   0.11     0.02   0.01   0.02     0.06  -0.02   0.05
    14   6    -0.11  -0.05   0.13     0.01   0.01   0.01     0.06  -0.01   0.02
    15   1    -0.02   0.05  -0.03    -0.00  -0.02  -0.03     0.04  -0.07   0.01
    16   1    -0.08   0.05   0.02     0.01  -0.01   0.01     0.05  -0.03   0.05
    17   1    -0.15   0.00   0.13     0.02   0.00   0.03     0.06  -0.02   0.08
    18  77     0.01   0.04  -0.02    -0.00  -0.01  -0.04     0.04  -0.02  -0.02
    19   5     0.01   0.00  -0.02     0.00  -0.01  -0.04     0.03   0.01   0.01
    20   8     0.01   0.02  -0.02    -0.01  -0.05  -0.03     0.05   0.04   0.04
    21   8     0.00  -0.03  -0.01     0.01   0.03  -0.06    -0.02   0.02   0.01
    22   6     0.01   0.01  -0.03    -0.01  -0.04  -0.03    -0.00   0.03   0.09
    23   6     0.00  -0.02  -0.01     0.01  -0.01  -0.05    -0.03   0.05   0.05
    24   6     0.03  -0.00  -0.05    -0.03  -0.03   0.00    -0.07   0.03   0.08
    25   1     0.04  -0.02  -0.05    -0.03  -0.01   0.00    -0.08   0.07   0.06
    26   1     0.03   0.02  -0.07    -0.02  -0.05   0.03    -0.08   0.03   0.08
    27   1     0.04  -0.01  -0.06    -0.04  -0.00   0.02    -0.09  -0.00   0.09
    28   6     0.01   0.03  -0.02    -0.01  -0.07  -0.05     0.03   0.01   0.16
    29   1     0.01   0.03  -0.02    -0.00  -0.08  -0.06    -0.02   0.02   0.21
    30   1     0.02   0.05  -0.03    -0.03  -0.09  -0.04     0.07  -0.01   0.20
    31   1     0.00   0.04   0.00     0.01  -0.08  -0.07     0.06  -0.00   0.15
    32   6     0.01  -0.04  -0.02    -0.02   0.00  -0.04    -0.07   0.08   0.06
    33   1     0.02  -0.05  -0.04    -0.05   0.02  -0.03    -0.07   0.08   0.07
    34   1     0.01  -0.03  -0.02    -0.02  -0.02  -0.03    -0.08   0.09   0.10
    35   1    -0.00  -0.06  -0.00    -0.00   0.02  -0.06    -0.09   0.09   0.03
    36   6    -0.01  -0.01   0.02     0.06  -0.03  -0.05    -0.04   0.05   0.03
    37   1    -0.01   0.00   0.02     0.06  -0.07  -0.04    -0.06   0.07   0.07
    38   1    -0.02   0.01   0.02     0.08  -0.04  -0.05    -0.01   0.02   0.02
    39   1    -0.02  -0.03   0.03     0.08  -0.01  -0.06    -0.08   0.06  -0.01
    40   5     0.02   0.03   0.01    -0.01  -0.02  -0.02     0.02  -0.03  -0.02
    41   8     0.01  -0.01   0.02    -0.04  -0.07  -0.01     0.01  -0.03  -0.02
    42   8    -0.03   0.05   0.05     0.02   0.01   0.04    -0.03  -0.02  -0.02
    43   6    -0.04  -0.01   0.05    -0.01  -0.09   0.05    -0.07  -0.02  -0.02
    44   6    -0.08   0.01   0.07     0.02  -0.03   0.08    -0.08  -0.04  -0.03
    45   6    -0.05   0.04   0.04    -0.01  -0.15   0.07    -0.10   0.06   0.01
    46   6    -0.05  -0.07   0.07    -0.00  -0.11   0.06    -0.12  -0.08  -0.04
    47   1    -0.09  -0.08   0.10     0.05  -0.13   0.13    -0.16  -0.08  -0.02
    48   1    -0.03  -0.09   0.05    -0.04  -0.18   0.03    -0.13  -0.08  -0.05
    49   1    -0.04  -0.10   0.07    -0.01  -0.04   0.03    -0.10  -0.10  -0.08
    50   6    -0.15   0.06   0.10     0.03  -0.03   0.15    -0.13  -0.00  -0.03
    51   1    -0.14   0.11   0.08     0.03  -0.04   0.15    -0.13   0.04  -0.02
    52   1    -0.18   0.02   0.12     0.04  -0.06   0.19    -0.18  -0.01  -0.03
    53   1    -0.18   0.08   0.11     0.05   0.03   0.17    -0.14  -0.02  -0.03
    54   6    -0.10  -0.06   0.08     0.02  -0.00   0.07    -0.09  -0.09  -0.04
    55   1    -0.14  -0.09   0.10     0.02  -0.02   0.09    -0.12  -0.10  -0.04
    56   1    -0.05  -0.09   0.06     0.02  -0.01   0.03    -0.06  -0.11  -0.04
    57   1    -0.11  -0.04   0.08     0.04   0.03   0.08    -0.09  -0.10  -0.04
    58   5     0.02   0.04  -0.02    -0.00   0.02  -0.00     0.01   0.00  -0.01
    59   8     0.01   0.03  -0.02    -0.00   0.09  -0.01    -0.00   0.01  -0.02
    60   8     0.04   0.02  -0.02    -0.00  -0.00   0.05    -0.01   0.02  -0.02
    61   6     0.03  -0.00  -0.02    -0.00   0.11   0.02    -0.03   0.06  -0.03
    62   6     0.06  -0.01  -0.02    -0.00   0.06   0.08    -0.05   0.06  -0.02
    63   6     0.00  -0.03  -0.02    -0.01   0.10  -0.03     0.00   0.09  -0.04
    64   1    -0.00  -0.03  -0.01    -0.00   0.06  -0.05     0.03   0.09  -0.04
    65   1    -0.03  -0.03  -0.01    -0.02   0.13  -0.06     0.01   0.07  -0.03
    66   1     0.01  -0.06  -0.02    -0.01   0.11  -0.02    -0.01   0.11  -0.06
    67   6     0.05   0.00  -0.02    -0.00   0.19   0.05    -0.06   0.06  -0.02
    68   1     0.07  -0.02  -0.01    -0.00   0.21   0.09    -0.09   0.10  -0.03
    69   1     0.03   0.00  -0.02     0.01   0.23  -0.00    -0.04   0.06  -0.03
    70   1     0.07   0.03  -0.02    -0.00   0.19   0.08    -0.09   0.03  -0.01
    71   6     0.07  -0.05  -0.01     0.00   0.03   0.09    -0.06   0.10  -0.04
    72   1     0.04  -0.07  -0.01     0.01   0.01   0.03    -0.04   0.12  -0.03
    73   1     0.09  -0.07  -0.01    -0.00   0.10   0.12    -0.07   0.11  -0.04
    74   1     0.10  -0.05  -0.02     0.00  -0.02   0.15    -0.08   0.11  -0.05
    75   6     0.10   0.02  -0.02     0.01   0.08   0.15    -0.10   0.03  -0.01
    76   1     0.12   0.00  -0.02     0.01   0.12   0.18    -0.14   0.05  -0.01
    77   1     0.10   0.05  -0.02     0.01   0.10   0.14    -0.10  -0.01   0.01
    78   1     0.12   0.01  -0.02     0.01   0.03   0.19    -0.12   0.02  -0.00
    79   1     0.09  -0.01   0.02    -0.01   0.01  -0.01     0.04  -0.01   0.04
    80   1    -0.04   0.09   0.03    -0.01  -0.13   0.06    -0.07   0.09   0.03
    81   1    -0.01   0.03   0.02    -0.03  -0.20   0.03    -0.08   0.08   0.02
    82   1    -0.09   0.04   0.07     0.02  -0.17   0.12    -0.16   0.08   0.00
    83   1    -0.13  -0.06   0.18     0.02   0.02   0.02     0.06  -0.01   0.02
    84   1     0.05  -0.16  -0.22    -0.01   0.03   0.06     0.04  -0.00   0.02
                     10                     11                     12
                      A                      A                      A
 Frequencies --     78.3222                98.8164               100.7740
 Red. masses --      5.1526                 4.6306                 4.5451
 Frc consts  --      0.0186                 0.0266                 0.0272
 IR Inten    --      0.4649                 2.7263                 0.6530
  Atom AN      X      Y      Z        X      Y      Z        X      Y      Z
     1   7    -0.02  -0.02  -0.04     0.02   0.00  -0.02    -0.03   0.00   0.06
     2   6    -0.03  -0.02  -0.03     0.04   0.02   0.13    -0.05   0.02   0.13
     3   6    -0.03  -0.00   0.01     0.05   0.02   0.22    -0.05   0.04   0.08
     4   6    -0.03   0.01   0.05     0.03  -0.00   0.07    -0.05   0.03  -0.06
     5   6    -0.01   0.00   0.03     0.01  -0.02  -0.12    -0.03   0.02  -0.11
     6   6    -0.01  -0.01  -0.01     0.01  -0.01  -0.12    -0.02   0.01  -0.04
     7   1    -0.04  -0.00   0.02     0.06   0.04   0.38    -0.07   0.05   0.14
[...]
 .00000329,0.00000004,0.00000020,-0.00000350,0.00000226,-0.00000163,0.0
 0000160,0.00000149,0.00000037,-0.00000510,0.00000132,-0.00000310,0.000
 00265,-0.00000218,0.00000039,-0.00000901,-0.00000188,0.00000030,-0.000
 00995,0.00000263,-0.00000387,0.00001472,-0.00000127,-0.00000082,0.0000
 0573,0.00000076,0.00000795,0.00003422,-0.00009258,-0.00004601,-0.00001
 653,0.00008086,0.00006350,-0.00002926,0.00009782,0.00002772,-0.0000092
 7,-0.00003710,-0.00001222,0.00001638,-0.00002881,-0.00002285,0.0000054
 1,0.00000528,-0.00000498,0.00000062,0.00000480,-0.00000026,-0.00000114
 ,0.00000533,0.00000253,0.00000008,-0.00000277,0.00000145,-0.00000045,-
 0.00000178,-0.00000093,-0.00000021,0.00000297,0.00000357,-0.00000085,-
 0.00000242,-0.00000159,-0.00000088,0.00000502,0.00000297,0.00000048,-0
 .00000030,-0.00000276,-0.00000249,0.00000375,0.00000572,-0.00000403,0.
 00000488,0.00000264,0.00000315,-0.00000248,-0.00000154,0.00000055,-0.0
 0000144,-0.00000199,0.00007578,-0.00016025,-0.00017983,-0.00005060,-0.
 00000509,0.00012620,-0.00018999,0.00009833,0.00014816,0.00004728,0.000
 01387,-0.00003817,0.00008435,0.00006347,-0.00011262,-0.00000508,-0.000
 00087,0.00000820,0.00000637,-0.00000323,0.00000122,0.00000200,0.000004
 59,-0.00000016,-0.00000921,-0.00000095,0.00000259,-0.00000628,0.000010
 61,0.00000756,-0.00000412,-0.00000407,0.00000269,0.00000138,0.00000434
 ,0.00000523,0.00000187,-0.00000156,-0.00000685,-0.00000425,-0.00000419
 ,0.00001217,-0.00000016,0.00000208,-0.00000199,-0.00001000,-0.00000356
 ,0.00000674,0.00000522,0.00000219,-0.00000393,0.00000397,-0.00004104,0
 .00002563,-0.00003281,0.00000258,0.00002413,-0.00000592,0.00000803,-0.
 00005154,0.00002750,0.00003119,-0.00000150,-0.00000020,-0.00000868,-0.
 00000139,-0.00000339,-0.00000205,0.00000138,-0.00000135,-0.00000274,-0
 .00000026,0.00000154,0.00000616,0.00000291,0.20727828,-0.00000765,-0.0
 0051465,0.00003648,0.00001949,-0.00008595,-0.00001426,0.00007477,-0.00
 008082,0.00000433,0.00000475,0.00011942,-0.00002156,-0.00014064,-0.000
 24549,0.00003584,0.00116288,0.00026042,0.00006012,-0.00000144,-0.00001
 548,0.00000649,0.00011123,0.00002216,-0.00000791,0.01720336,-0.0346738
 6,0.00339488,-0.00196571,-0.00249700,0.00102890,0.00003415,-0.00036724
 ,0.00000120,-0.00196631,0.00030500,0.00032992,-0.00683946,0.00858247,-
 0.00064399,0.13315724,-0.17333372,0.01930852,-0.00006346,0.00012012,-0
 .00008441,-0.00037488,0.00030745,-0.00011196,0.00070519,0.00020853,-0.
 00013619,0.00018246,-0.00004437,0.00004310,-0.00022432,0.00003277,-0.0
 0012180,0.00013216,-0.00002374,0.00004217,0.00011145,0.00000723,0.0001
 0418,-0.00003441,0.00000687,-0.00004027,-0.00006368,-0.00000545,-0.000
 02169,0.00000266,-0.00000097,0.00000765,-0.00000014,0.00000290,-0.0000
 0558,-0.00000243,-0.00000029,-0.00000226,0.00000462,-0.00000258,0.0000
 0565,0.00000398,-0.00000278,0.00000441,0.00000568,0.00000021,0.0000031
 3,-0.00000056,-0.00000109,-0.00000268,-0.00000176,0.00000136,-0.000001
 27,0.00000734,0.00000036,0.00000204,-0.00000165,0.00000028,-0.00000249
 ,0.00000558,-0.00000149,0.00000426,-0.00000313,0.00000214,0.00000107,0
 .00001027,0.00000046,0.00000180,0.00000829,0.00000263,0.00000176,-0.00
 000542,-0.00000258,-0.00000099,-0.00000381,0.00000004,-0.00000011,-0.0
 0015306,0.00011481,0.00002650,0.00004518,-0.00011524,-0.00009584,0.000
 06013,-0.00012151,-0.00003826,0.00001636,0.00005014,0.00001623,-0.0000
 2310,0.00004302,0.00003383,-0.00001165,-0.00000586,0.00001166,-0.00000
 115,-0.00000764,0.00000097,0.00000219,-0.00000680,-0.00000405,-0.00000
 056,0.00000339,-0.00000272,0.00000197,0.00000140,0.00000125,-0.0000019
 7,-0.00000398,-0.00000522,0.00000299,0.00000450,0.00000351,0.00000237,
 -0.00000682,-0.00000440,-0.00000097,0.00000067,0.00000367,0.00000357,-
 0.00000705,-0.00000853,0.00000659,-0.00000650,-0.00000308,-0.00000369,
 0.00000343,0.00000097,-0.00000107,0.00000112,0.00000282,-0.00020821,-0
 .00013096,0.00012758,0.00010508,0.00006584,-0.00012708,0.00009723,0.00
 011480,-0.00004905,-0.00006397,-0.00003241,0.00003038,-0.00001965,-0.0
 0002905,0.00004390,0.00000922,0.00000546,-0.00000532,-0.00000737,-0.00
 000092,0.00000024,-0.00000372,-0.00000160,0.00000377,0.00000939,0.0000
 0099,-0.00000251,0.00001121,0.00000026,-0.00000415,0.00000387,0.000004
 19,-0.00000555,-0.00000138,-0.00000323,-0.00000031,-0.00000295,0.00000
 154,0.00000317,0.00000146,0.00000501,-0.00000588,-0.00000257,-0.000000
 73,0.00000079,0.00000570,0.00000222,-0.00000387,0.00000029,0.00000087,
 0.00000405,0.00000076,0.00000757,-0.00001511,0.00000855,0.00000570,-0.
 00000625,0.00000139,-0.00000604,0.00001634,-0.00000390,-0.00000177,0.0
 0000229,-0.00002819,-0.00003507,0.00000858,0.00000623,0.00000361,-0.00
 000173,0.00000273,0.00000377,-0.00000059,-0.00000034,-0.00000893,-0.00
 000453,-0.14108791,0.20203369,0.00013558,0.00010539,-0.00013926,-0.000
 01708,-0.00006039,-0.00012638,0.00003709,-0.00001527,-0.00001687,-0.00
 001835,0.00003720,-0.00004936,0.00000159,-0.00002330,0.00001599,0.0000
 0097,0.00028831,0.00072238,0.00000512,0.00000785,0.00003068,-0.0000123
 3,0.00001548,-0.00000484,-0.00046585,0.00162586,-0.00483109,-0.0001285
 7,0.00092766,0.01047771,-0.00026834,-0.00026496,-0.00172863,-0.0006006
 8,0.00001050,0.00683827,-0.00140263,0.00147747,0.00580448,-0.02127850,
 0.01948432,-0.04238125,0.00053689,-0.00072043,-0.00019784,0.00001117,0
 .00003290,-0.00047897,0.00026537,-0.00020541,-0.00273772,-0.00038826,0
 .00066667,-0.00086878,0.00021114,-0.00009136,0.00010342,-0.00004096,0.
 00002635,-0.00002914,-0.00007216,0.00000133,-0.00007987,0.00002046,0.0
 0000173,0.00002046,0.00003659,0.00000347,0.00001229,-0.00000441,-0.000
 00033,-0.00000416,0.00000027,-0.00000033,0.00000227,0.00000207,-0.0000
 0026,0.00000071,-0.00000237,0.00000204,-0.00000314,-0.00000145,0.00000
 114,-0.00000051,-0.00000232,0.00000014,-0.00000209,0.00000061,-0.00000
 083,0.00000109,0.00000104,0.00000043,0.00000144,-0.00000652,0.00000010
 ,-0.00000007,0.00000030,0.00000080,0.00000120,-0.00000226,0.00000105,-
 0.00000333,0.00000150,-0.00000229,-0.00000156,-0.00000708,0.00000107,0
 .00000074,-0.00000391,-0.00000189,-0.00000058,0.00000308,0.00000190,0.
 00000142,0.00000249,-0.00000056,-0.00000171,0.00017335,-0.00050269,0.0
 0050249,-0.00006347,0.00027010,0.00010401,0.00002238,0.00000803,-0.000
 08170,-0.00006522,-0.00008671,-0.00000887,0.00000219,-0.00001614,0.000
 01641,0.00000065,0.00000747,0.00000185,0.00000820,0.00002945,-0.000000
 92,-0.00000581,0.00000802,0.00000994,0.00000073,-0.00000292,-0.0000015
 6,0.00000070,-0.00000255,-0.00000142,-0.00000270,-0.00000094,-0.000010
 43,0.00000079,-0.00000109,0.00000197,-0.00000051,-0.00000078,0.0000015
 9,0.00000073,0.00000379,-0.00000372,-0.00000068,0.00000185,-0.00000098
 ,-0.00000061,0.00000174,0.00000145,0.00000422,-0.00000057,0.00000187,-
 0.00000091,0.00000132,-0.00000335,0.00004100,0.00024881,0.00000693,-0.
 00006642,-0.00007140,0.00006285,-0.00005304,-0.00007003,0.00000233,0.0
 0004569,-0.00000758,-0.00000646,-0.00000353,0.00002457,-0.00000725,-0.
 00000165,0.00000132,-0.00000176,0.00000264,0.00000173,0.00000031,0.000
 00266,-0.00000022,-0.00000361,-0.00000401,-0.00000198,0.00000223,-0.00
 000692,-0.00000557,-0.00000042,-0.00000291,-0.00000272,0.00000434,0.00
 000183,0.00000012,-0.00000127,0.00000105,0.00000110,0.00000121,-0.0000
 0010,-0.00000303,0.00000176,0.00000094,0.00000089,0.00000028,-0.000001
 69,-0.00000061,0.00000115,-0.00000151,-0.00000247,-0.00000315,-0.00000
 040,0.00000151,-0.00000206,0.00000634,-0.00000355,0.00000181,0.0000017
 8,-0.00000038,0.00000896,-0.00000369,-0.00000387,-0.00000486,-0.000011
 90,0.00000154,0.00001315,-0.00000109,-0.00000418,0.00000037,-0.0000010
 3,-0.00000266,-0.00000418,0.00000417,0.00000704,0.00000340,0.02342756,
 -0.02316129,0.02904101,0.00048117,0.00022920,-0.00015194,-0.00124994,0
 .00431275,-0.00018254,-0.01568836,-0.00826261,0.00185317,-0.31973147,-
 0.06529783,0.01916705,-0.00376697,0.00000585,0.00035160,0.00175404,-0.
 00123652,0.00040741,0.00089434,-0.00010531,-0.00015456,0.00058423,0.00
 002463,-0.00019403,0.00007710,-0.00003622,0.00002220,-0.00033875,0.000
 44430,-0.00003447,0.00000668,-0.00025497,-0.00002453,-0.00006482,0.000
 08757,-0.00000689,0.00007617,-0.00005798,0.00001432,-0.00012298,-0.000
 01983,-0.00000367,0.00003690,-0.00003868,0.00002935,-0.00000351,-0.000
 02106,-0.00000409,-0.00000659,-0.00001178,-0.00000033,-0.00001899,0.00
 005208,-0.00005847,0.00014856,-0.00001158,0.00010222,-0.00010057,0.000
 01840,-0.00003916,-0.00007616,-0.00000389,-0.00007966,0.00002930,-0.00
 000575,0.00003434,0.00004501,-0.00000024,0.00001932,-0.00000109,0.0000
 0215,-0.00000688,0.00000037,-0.00000267,0.00000606,0.00000257,0.000000
 21,0.00000199,-0.00000512,0.00000140,-0.00000493,-0.00000314,0.0000008
 4,-0.00000340,-0.00000456,-0.00000024,-0.00000285,0.00000076,0.0000008
 8,0.00000226,0.00000166,-0.00000027,0.00000076,-0.00000426,-0.00000056
 ,-0.00000243,0.00000125,0.00000147,0.00000238,-0.00000416,0.00000099,-
 0.00000304,0.00000186,-0.00000270,-0.00000065,-0.00000739,0.00000028,-
 0.00000233,-0.00000653,-0.00000155,-0.00000145,0.00000528,0.00000182,0
 .00000039,0.00000265,-0.00000043,0.00000140,0.00011336,0.00000802,-0.0
 0011577,-0.00002359,0.00007481,0.00011024,-0.00018305,0.00006796,0.000
 10167,-0.00001598,-0.00004620,-0.00002414,0.00003305,-0.00010551,-0.00
 007600,0.00003054,0.00000047,-0.00000888,0.00000332,0.00000087,0.00000
 305,-0.00000195,0.00000686,0.00000227,-0.00000169,-0.00000344,0.000003
 91,-0.00000043,-0.00000085,-0.00000080,0.00001259,0.00001066,0.0000119
 1,-0.00000871,-0.00001290,-0.00000979,-0.00000900,0.00001005,0.0000063
 4,0.00000018,-0.00000348,-0.00000402,-0.00000435,0.00001636,0.00001763
 ,-0.00001125,0.00000838,0.00000332,0.00000393,-0.00000194,-0.00000106,
 0.00000243,-0.00000240,-0.00000270,0.00010665,0.00005769,-0.00009097,-
 0.00006393,-0.00003447,0.00008186,-0.00007731,-0.00005335,0.00004322,0
 .00003974,0.00001663,-0.00001975,0.00002016,0.00001561,-0.00003202,-0.
 00000547,-0.00000173,0.00000264,0.00000424,-0.00000018,-0.00000033,0.0
 0000236,0.00000173,-0.00000154,-0.00000655,-0.00000136,0.00000199,-0.0
 0000403,-0.00000149,0.00000239,-0.00000296,-0.00000292,0.00000300,0.00
 000071,0.00000313,0.00000097,0.00000097,-0.00000029,-0.00000261,-0.000
 00188,-0.00000162,0.00000352,0.00000019,0.00000170,-0.00000106,-0.0000
 0377,-0.00000192,0.00000290,0.00000090,-0.00000071,-0.00000215,-0.0000
 0047,-0.00000252,0.00000755,-0.00000461,-0.00000341,0.00000518,-0.0000
 0121,0.00000067,-0.00000869,0.00000431,0.00000306,-0.00000044,-0.00059
 415,-0.00062270,0.00010151,-0.00001337,-0.00000912,-0.00002132,-0.0000
 0896,-0.00000377,0.00000782,-0.00000681,0.00001432,0.00000934,0.000009
 20,-0.00002382,0.00000087,0.33772215,0.00024715,-0.00098712,-0.0003076
 1,0.00365692,-0.00305221,0.00129214,0.02186663,0.01030792,-0.00148886,
 -0.06527722,-0.07506295,0.00684884,-0.02988208,-0.00173513,0.00217581,
 -0.00078295,-0.00582531,0.00167414,-0.00073773,0.00077458,-0.00054658,
 0.00055363,0.00119173,-0.00064665,0.00019352,0.00000815,-0.00000059,-0
 .00143629,0.00099030,-0.00006216,-0.00012192,-0.00061217,-0.00000872,-
 0.00020339,0.00009570,-0.00003218,0.00006784,-0.00002223,0.00001268,-0
 .00005656,-0.00002880,0.00000903,0.00005187,-0.00004402,0.00002643,-0.
 00000756,-0.00005338,-0.00000022,-0.00000162,-0.00001019,-0.00000104,0
 .00000284,0.00002629,-0.00002032,0.00006119,-0.00001455,0.00002527,-0.
 00002790,0.00001259,-0.00000872,-0.00002302,0.00000075,-0.00002313,0.0
 0000611,-0.00000255,0.00000849,0.00001233,-0.00000279,0.00000522,-0.00
 000200,-0.00000046,-0.00000067,0.00000034,-0.00000018,-0.00000055,-0.0
 0000045,0.00000029,0.00000024,-0.00000005,0.00000134,-0.00000092,-0.00
 000096,0.00000050,-0.00000096,-0.00000109,0.00000006,-0.00000066,-0.00
 000013,0.00000021,0.00000062,0.00000082,0.00000024,0.00000006,-0.00000
 131,0.00000028,-0.00000004,0.00000016,0.00000061,-0.00000008,-0.000000
 92,0.00000038,-0.00000099,0.00000044,-0.00000069,-0.00000002,-0.000002
 75,0.00000027,-0.00000022,-0.00000198,-0.00000020,-0.00000056,0.000002
 20,0.00000015,0.00000004,0.00000093,0.00000009,0.00000087,-0.00000331,
 -0.00012906,0.00004617,-0.00000356,0.00003163,-0.00001194,0.00011554,0
 .00003716,-0.00005483,-0.00000166,-0.00000579,0.00000570,-0.00000765,0
 .00005333,0.00003437,-0.00000673,0.00000436,-0.00000212,-0.00000148,0.
 00000473,-0.00000252,0.00000009,0.00000034,0.00000069,0.00000085,-0.00
 000048,-0.00000135,-0.00000012,-0.00000076,0.00000007,-0.00000608,-0.0
 0000664,-0.00000374,0.00000515,0.00000645,0.00000299,0.00000428,-0.000
 00244,-0.00000172,0.00000090,0.00000236,0.00000079,0.00000077,-0.00000
 915,-0.00000625,0.00000430,-0.00000167,-0.00000021,-0.00000092,-0.0000
 0019,-0.00000052,-0.00000089,0.00000076,0.00000009,0.00003672,0.000005
 18,-0.00003056,-0.00002147,-0.00000905,0.00003146,-0.00003021,-0.00000
 905,0.00001705,0.00001391,0.00000272,-0.00000646,0.00000884,0.00000585
 ,-0.00001247,-0.00000146,-0.00000067,0.00000108,0.00000101,-0.00000069
 ,-0.00000009,0.00000036,0.00000064,0.00000036,-0.00000212,0.00000004,0
 .00000057,-0.00000180,-0.00000005,0.00000112,-0.00000093,-0.00000093,0
 .00000111,0.00000009,0.00000118,0.00000071,0.00000020,-0.00000018,-0.0
 0000143,-0.00000063,-0.00000029,0.00000160,-0.00000036,0.00000065,-0.0
 0000043,-0.00000156,-0.00000068,0.00000097,0.00000054,-0.00000014,-0.0
 0000066,0.00000029,-0.00000168,0.00000353,-0.00000305,-0.00000076,0.00
 000240,-0.00000071,0.00000021,-0.00000548,0.00000281,0.00000243,0.0000
 0004,0.00092284,0.00050119,-0.00021345,0.00000465,0.00000452,0.0000123
 0,0.00000034,-0.00000103,-0.00000261,0.00000461,-0.00000301,-0.0000035
 3,0.00000163,-0.00002911,0.00000198,0.07081097,0.07359028,-0.00020622,
 0.00001529,-0.00302238,0.00004917,0.00142325,0.00807073,-0.00185204,-0
 .00034271,0.00508597,0.01923429,0.00699490,-0.04302186,0.00383997,0.00
 064370,0.00496364,0.00045223,0.00164501,0.00866517,-0.00010292,-0.0005
 7667,-0.00360414,-0.00027027,-0.00058283,-0.00410696,0.00003293,0.0000
 5718,0.00001734,-0.00000973,-0.00028394,-0.00053256,0.00016597,-0.0000
 3126,-0.00020654,-0.00001594,0.00001340,0.00005398,0.00001194,0.000002
 00,-0.00001295,-0.00000853,0.00000507,0.00011895,0.00000863,0.00004610
 ,-0.00000133,-0.00000418,0.00000417,0.00002741,0.00000267,-0.00000129,
 -0.00002878,-0.00006635,-0.00024014,-0.00030025,0.00000902,0.00007414,
 0.00004039,0.00000549,-0.00000628,-0.00000739,0.00002386,-0.00001262,0
 .00000579,0.00000170,0.00000305,0.00000494,-0.00000766,-0.00000956,0.0
 0000750,-0.00000023,0.00000017,-0.00000029,0.00000058,0.00000062,0.000
 00156,0.00000154,-0.00000059,-0.00000064,-0.00000102,-0.00000016,-0.00
 000027,-0.00000009,-0.00000106,-0.00000005,-0.00000022,0.00000031,-0.0
 0000031,0.00000082,-0.00000093,-0.00000059,0.00000014,0.00000089,0.000
 00034,0.00000317,-0.00000027,0.00000002,-0.00000071,0.00000174,0.00000
 058,0.00000123,-0.00000015,0.00000089,-0.00000070,-0.00000177,-0.00000
 079,-0.00000161,0.00000107,-0.00000074,0.00000046,-0.00000028,0.000000
 31,0.00000048,0.00000030,0.00000009,0.00000012,-0.00000092,-0.00000046
 ,-0.00002114,0.00004123,-0.00006589,0.00001323,-0.00005105,-0.00003650
 ,-0.00001713,-0.00001778,-0.00000134,0.00002725,0.00002812,0.00001802,
 0.00000579,0.00000222,0.00000322,-0.00001445,-0.00000122,-0.00000341,-
 0.00000501,-0.00000681,-0.00000232,0.00000212,-0.00000175,-0.00000163,
 0.00000133,0.00000172,-0.00000143,-0.00000322,0.00000029,0.00000082,0.
 00000189,-0.00000145,0.00000241,-0.00000112,-0.00000036,0.00000361,0.0
 0000192,-0.00000093,-0.00000072,-0.00000327,0.00000081,-0.00000192,-0.
 00000045,-0.00000116,-0.00000223,0.00000056,-0.00000087,-0.00000016,-0
 .00000098,-0.00000006,0.00000115,-0.00000071,0.00000126,-0.00000156,-0
 .00000455,0.00005494,0.00008718,-0.00002121,-0.00002136,0.00001323,0.0
 0000079,-0.00000025,-0.00001846,0.00000711,-0.00000512,0.00000804,-0.0
 0000124,0.00000209,0.00000946,0.00000037,0.00000018,-0.00000026,-0.000
 00056,0.00000020,0.00000008,-0.00000001,-0.00000074,-0.00000023,-0.000
 00039,0.00000016,0.00000031,-0.00000311,-0.00000170,-0.00000002,-0.000
 00069,-0.00000045,0.00000125,0.00000102,-0.00000111,-0.00000081,0.,0.0
 0000143,0.00000057,0.00000081,-0.00000026,-0.00000116,-0.00000043,0.00
 000059,0.00000052,0.00000037,0.00000046,-0.00000040,-0.00000048,-0.000
 00116,-0.00000050,-0.00000031,0.00000099,-0.00000010,0.00000089,0.0000
 0051,-0.00000040,-0.00000085,0.00000040,0.00000144,-0.00000056,-0.0000
 0111,-0.00000106,-0.00011027,-0.00013252,-0.00049008,0.00000581,0.0000
 0301,0.00000748,0.00000549,0.00000366,-0.00000308,0.00000278,-0.000006
 10,-0.00000173,-0.00000041,0.00000434,0.00000694,-0.02116496,-0.008732
 20,0.02825535\\-0.00000137,-0.00000253,0.00000169,-0.00000100,0.000001
 71,0.00000029,0.00000227,0.00000521,0.00000023,-0.00000565,-0.00000924
 ,0.00000335,0.00000215,0.00000903,0.00000145,0.00000270,-0.00000591,0.
 00000194,-0.00000036,-0.00000347,0.00000153,0.00000104,-0.00000261,0.0
 0000352,0.00000071,-0.00000016,0.00000400,0.00000274,0.00000283,0.0000
 0131,-0.00000454,-0.00000394,0.00000374,0.00000368,0.00000500,0.000000
 17,-0.00000413,-0.00000357,0.00000423,0.00000418,0.00000131,0.00000384
 ,0.00000015,-0.00000055,0.00000178,-0.00000216,-0.00000174,0.00000236,
 0.00000099,0.00000093,0.00000322,0.00000225,0.00000152,0.00000045,0.00
 000008,-0.00000205,-0.00000627,0.00000021,-0.00000194,0.00000147,0.000
 00198,0.00000041,0.00000623,-0.00000261,-0.00000226,0.00000068,-0.0000
 0048,-0.00000065,-0.00000325,-0.00000214,-0.00000307,-0.00000709,0.000
 00418,0.00000087,-0.00000103,0.00000023,0.00000030,-0.00000182,0.00000
 310,-0.00000103,0.00000064,0.00000367,-0.00000263,-0.00000090,-0.00000
 009,-0.00000113,-0.00000364,0.00000014,0.00000080,-0.00000168,-0.00000
 070,0.00000136,-0.00000413,0.00000487,-0.00000897,-0.00000471,0.000003
 60,0.00000172,-0.00000079,0.00000046,-0.00000176,-0.00000097,-0.000000
 36,0.00000038,0.00000204,0.00000297,0.00000187,0.00000179,0.00000059,-
 0.00000182,-0.00000093,0.00000044,0.00000131,-0.00000218,0.00000144,-0
 .00000204,-0.00000099,0.00000092,-0.00000556,0.00000041,-0.00000184,-0
 .00000303,0.00000089,-0.00000211,0.00000559,-0.00000145,0.00000037,0.0
 0000536,-0.00000602,-0.00000271,-0.00000164,-0.00000260,-0.00000196,0.
 00000815,0.00000625,-0.00000069,-0.00000169,0.00000044,-0.00000076,0.0
 0000353,-0.00000205,-0.00000175,0.00000178,-0.00000095,-0.00000238,0.0
 0000053,-0.00000290,0.00001058,-0.00000117,-0.00000024,-0.00000649,0.0
 0000135,-0.00000171,-0.00000177,0.00000114,-0.00000162,-0.00000025,-0.
 00000022,-0.00000361,0.00000295,-0.00000127,-0.00000576,-0.00000139,0.
 00000157,-0.00000208,-0.00000083,0.00000020,-0.00000177,0.00000062,-0.
 00000079,0.00000090,-0.00000175,-0.00000005,0.00000179,0.00000136,0.00
 000401,0.00000008,0.00000008,-0.00000139,-0.00000002,-0.00000603,-0.00
 000167,0.00000558,0.00000120,-0.00000577,0.00000250,0.00000325,0.00000
 556,-0.00000502,0.00000042,-0.00000176,0.00000490,-0.00000067,0.000001
 36,-0.00000175,-0.00000310,-0.00000055,0.00000018,-0.00000933,0.000002
 31,-0.00000395,0.00000160,0.00000407,-0.00000088,-0.00000146,0.0000034
 2,0.00000152,0.00000262,-0.00000235,0.00000185,-0.00000079,0.00000940,
 -0.00000315,0.00000104,-0.00000310,0.00000163,-0.00000202,-0.00000105,
 0.00000244,-0.00000017,-0.00000211,-0.00000089,0.00000269,0.00000854,-
 0.00000080,-0.00000291,-0.00000095,0.00000493,-0.00000362,-0.00000076,
 0.00000150,0.00000010,-0.00000076,0.00000059,0.00000009,-0.00000049,-0
 .00000009,0.00000263,-0.00000116,-0.00000427,-0.00000116,-0.00000033,0
 .00000107,-0.00000261,-0.00000274,-0.00000322,-0.00000113,-0.00000004,
 0.00000375,0.00000395,0.00000100,0.00000205\\\@
 The archive entry for this job was punched.


 E PUR SI MUOVE    -- GALILEO GALILEI
 Job cpu time:       0 days 21 hours 24 minutes  4.8 seconds.
 Elapsed time:       0 days  1 hours 21 minutes 43.5 seconds.
 File lengths (MBytes):  RWF=   4031 Int=      0 D2E=      0 Chk=     31 Scr=      1
 Normal termination of Gaussian 16 at Sat Dec  7 23:23:39 2024.
