/mnt/lustre/scratch/nvme/SLURM/9663519/usccqdma.JC3owj7Twe
OMP_STACKSIZE=0m
GAUSS_PDEF=16
GAUSS_MDEF=65536MB
GAUSS_RDEF=SCF=Direct
 Entering Gaussian System, Link 0=g16.exe
 Initial command:
 /opt/cesga/2020/software/Core/g16/c1/l1.exe "/mnt/lustre/scratch/nvme/SLURM/9663519/usccqdma.JC3owj7Twe/Gau-801483.inp" -scrdir="/mnt/lustre/scratch/nvme/SLURM/9663519/usccqdma.JC3owj7Twe/"
 Default is to use a total of  16 processors:
                               16 via shared-memory
                                1 via Linda
 Entering Link 1 = /opt/cesga/2020/software/Core/g16/c1/l1.exe PID=    801511.
  
 Copyright (c) 1988-2019, Gaussian, Inc.  All Rights Reserved.
  
 This is part of the Gaussian(R) 16 program.  It is based on
 the Gaussian(R) 09 system (copyright 2009, Gaussian, Inc.),
 the Gaussian(R) 03 system (copyright 2003, Gaussian, Inc.),
 the Gaussian(R) 98 system (copyright 1998, Gaussian, Inc.),
 the Gaussian(R) 94 system (copyright 1995, Gaussian, Inc.),
 the Gaussian 92(TM) system (copyright 1992, Gaussian, Inc.),
 the Gaussian 90(TM) system (copyright 1990, Gaussian, Inc.),
 the Gaussian 88(TM) system (copyright 1988, Gaussian, Inc.),
 the Gaussian 86(TM) system (copyright 1986, Carnegie Mellon
 University), and the Gaussian 82(TM) system (copyright 1983,
 Carnegie Mellon University). Gaussian is a federally registered
 trademark of Gaussian, Inc.
  
 This software contains proprietary and confidential information,
 including trade secrets, belonging to Gaussian, Inc.
  
 This software is provided under written license and may be
 used, copied, transmitted, or stored only in accord with that
 written license.
  
 The following legend is applicable only to US Government
 contracts under FAR:
  
                    RESTRICTED RIGHTS LEGEND
  
 Use, reproduction and disclosure by the US Government is
 subject to restrictions as set forth in subparagraphs (a)
 and (c) of the Commercial Computer Software - Restricted
 Rights clause in FAR 52.227-19.
  
 Gaussian, Inc.
 340 Quinnipiac St., Bldg. 40, Wallingford CT 06492
  
  
 ---------------------------------------------------------------
 Warning -- This program may not be used in any manner that
 competes with the business of Gaussian, Inc. or will provide
 assistance to any competitor of Gaussian, Inc.  The licensee
 of this program is prohibited from giving any competitor of
 Gaussian, Inc. access to this program.  By using this program,
 the user acknowledges that Gaussian, Inc. is engaged in the
 business of creating and licensing software in the field of
 computational chemistry and represents and warrants to the
 licensee that it is not a competitor of Gaussian, Inc. and that
 it will not use this program in any manner prohibited above.
 ---------------------------------------------------------------
  

 Cite this work as:
 Gaussian 16, Revision C.01,
 M. J. Frisch, G. W. Trucks, H. B. Schlegel, G. E. Scuseria, 
 M. A. Robb, J. R. Cheeseman, G. Scalmani, V. Barone, 
 G. A. Petersson, H. Nakatsuji, X. Li, M. Caricato, A. V. Marenich, 
 J. Bloino, B. G. Janesko, R. Gomperts, B. Mennucci, H. P. Hratchian, 
 J. V. Ortiz, A. F. Izmaylov, J. L. Sonnenberg, D. Williams-Young, 
 F. Ding, F. Lipparini, F. Egidi, J. Goings, B. Peng, A. Petrone, 
 T. Henderson, D. Ranasinghe, V. G. Zakrzewski, J. Gao, N. Rega, 
 G. Zheng, W. Liang, M. Hada, M. Ehara, K. Toyota, R. Fukuda, 
 J. Hasegawa, M. Ishida, T. Nakajima, Y. Honda, O. Kitao, H. Nakai, 
 T. Vreven, K. Throssell, J. A. Montgomery, Jr., J. E. Peralta, 
 F. Ogliaro, M. J. Bearpark, J. J. Heyd, E. N. Brothers, K. N. Kudin, 
 V. N. Staroverov, T. A. Keith, R. Kobayashi, J. Normand, 
 K. Raghavachari, A. P. Rendell, J. C. Burant, S. S. Iyengar, 
 J. Tomasi, M. Cossi, J. M. Millam, M. Klene, C. Adamo, R. Cammi, 
 J. W. Ochterski, R. L. Martin, K. Morokuma, O. Farkas, 
 J. B. Foresman, and D. J. Fox, Gaussian, Inc., Wallingford CT, 2019.
 
 ******************************************
 Gaussian 16:  ES64L-G16RevC.01  3-Jul-2019
                 7-Dec-2024 
 ******************************************
 Default route: SCF=Direct
 ----------------------------------------------------
 # m06/genecp scf=tight int=ultrafine 5d freq=noraman
 ----------------------------------------------------
 1/10=4,30=1,38=1/1,3;
 2/12=2,17=6,18=5,40=1/2;
 3/5=7,8=1,11=2,16=1,17=8,25=1,30=1,71=2,74=-54,75=-5,140=1/1,2,3;
 4//1;
 5/5=2,32=2,38=5,98=1/2;
 8/6=4,10=90,11=11/1;
 11/6=1,8=1,9=11,15=111,16=1/1,2,10;
 10/6=1/2;
 6/7=2,8=2,9=2,10=2,28=1/1;
 7/8=1,10=1,25=1/1,2,3,16;
 1/10=4,30=1/3;
 99//99;
 ------
 OPT-TS
 ------
 Symbolic Z-matrix:
 Charge =  0 Multiplicity = 1
 C                    -1.46289  -1.70007  -1.30376 
 C                    -2.63249   0.24238  -0.86387 
 C                    -3.77348  -0.25516  -1.48099 
 C                    -3.73744  -1.52688  -2.03906 
 C                    -2.56521  -2.25646  -1.95196 
 C                    -0.18879  -2.41774  -1.14108 
 C                     1.93936  -2.41647  -0.19973 
 C                     2.2555   -3.61668  -0.81203 
 C                     1.3058   -4.24409  -1.61281 
 C                     0.07307  -3.63822  -1.76831 
 H                    -2.59828   1.24493  -0.43901 
 H                    -4.6209   -1.94592  -2.51518 
 H                    -2.52971  -3.2645   -2.35419 
 H                     2.6399   -1.89724   0.45357 
 H                     1.53161  -5.18826  -2.10379 
 H                    -0.68162  -4.10621  -2.3931 
 N                    -1.50811  -0.4645   -0.77514 
 N                     0.74706  -1.82498  -0.36295 
 Ir                    0.30458   0.10833   0.51127 
 O                     2.98772   0.52855  -0.90834 
 O                     2.68651  -0.73495   2.12587 
 O                     1.30599   3.05699  -0.07162 
 B                     1.8906    0.34579   1.74453 
 B                     1.62302   0.639    -1.08545 
 B                     0.31133   2.09491  -0.12602 
 O                    -0.88034   2.65179  -0.59197 
 O                     1.30514   0.74292  -2.42917 
 C                     2.50517   0.49423  -3.18971 
 C                     3.63048   0.81734  -2.16185 
 C                     0.66784   4.33765  -0.19756 
 C                    -0.59577   3.98994  -1.03307 
 C                     3.84711  -0.20837   2.79059 
 C                     3.30246   1.13577   3.35166 
 O                     2.31091   1.49839   2.38093 
 C                     4.87241  -0.04402  -2.27746 
 H                     5.33434   0.06089  -3.26975 
 H                     5.61008   0.27141  -1.52792 
 H                     4.65278  -1.10418  -2.10234 
 C                     4.01252   2.28971  -2.13048 
 H                     3.1235    2.92435  -2.02654 
 H                     4.64426   2.46975  -1.25106 
 H                     4.57102   2.58818  -3.02786 
 C                     2.47317  -0.97193  -3.6013 
 H                     2.52554  -1.63844  -2.72971 
 H                     1.52971  -1.17017  -4.1266 
 H                     3.30415  -1.22596  -4.27282 
 C                     2.49599   1.37055  -4.42569 
 H                     2.37501   2.43006  -4.1738 
 H                     3.42952   1.25243  -4.99448 
 H                     1.66202   1.0818   -5.07814 
 C                     4.30941  -1.20555   3.83296 
 H                     3.50066  -1.48223   4.51797 
 H                     4.65793  -2.12072   3.33609 
 H                     5.14563  -0.79912   4.41996 
 C                     4.92724  -0.02554   1.7313 
 H                     5.88197   0.29125   2.17273 
 H                     5.08523  -0.98872   1.22407 
 H                     4.61667   0.70142   0.97025 
 C                     2.58133   0.97357   4.68389 
 H                     2.04508   1.90451   4.90735 
 H                     1.84287   0.16139   4.63713 
 H                     3.27669   0.76838   5.50913 
 C                     4.32799   2.247     3.44809 
 H                     5.15141   1.96469   4.12012 
 H                     4.74279   2.49514   2.46518 
 H                     3.85537   3.15182   3.85164 
 C                    -1.8015    4.86509  -0.75751 
 H                    -1.58535   5.91501  -1.00193 
 H                    -2.64644   4.54144  -1.37937 
 H                    -2.11279   4.80767   0.29147 
 C                    -0.32706   3.92359  -2.53005 
 H                     0.53523   3.27946  -2.74766 
 H                    -1.2007    3.48047  -3.02445 
 H                    -0.15571   4.91925  -2.9609 
 C                     1.62371   5.31005  -0.85612 
 H                     1.97303   4.94621  -1.8293 
 H                     1.14285   6.28765  -1.00411 
 H                     2.5019    5.45528  -0.21413 
 C                     0.34531   4.80072   1.21775 
 H                    -0.36807   4.12238   1.7058 
 H                     1.27058   4.78488   1.80695 
 H                    -0.06839   5.81803   1.23569 
 H                    -0.15323   1.39261   1.39846 
 C                    -3.04347  -1.3418    1.88021 
 O                    -2.86535  -2.36412   1.21814 
 C                    -4.44945  -0.81095   2.12533 
 H                    -4.65709  -0.79113   3.20837 
 H                    -4.51056   0.24094   1.79893 
 C                    -0.63396  -1.02279   2.14067 
 H                    -0.06998  -0.92171   3.07918 
 H                    -0.64904  -2.08497   1.87439 
 N                    -2.01212  -0.63115   2.41895 
 C                    -2.1945    0.64182   3.07802 
 H                    -3.10772   0.65837   3.68114 
 H                    -1.34361   0.81552   3.74883 
 H                    -2.22573   1.484     2.36322 
 C                    -5.51413  -1.62759   1.41598 
 H                    -5.2772   -1.67868   0.34117 
 H                    -5.473    -2.6694    1.76729 
 C                    -6.91029  -1.05739   1.60428 
 H                    -7.15031  -1.00108   2.68083 
 H                    -6.93586  -0.01673   1.23609 
 C                    -7.98331  -1.86479   0.88934 
 H                    -7.74502  -1.9036   -0.18631 
 H                    -7.94944  -2.90792   1.2436 
 C                    -9.37686  -1.29335   1.08899 
 H                    -9.64489  -1.27087   2.1547 
 H                    -9.43567  -0.26125   0.71585 
 H                    -10.14216  -1.88046   0.56604 
 C                    -4.99499   0.60538  -1.56564 
 F                    -5.17957   1.30564  -0.4393 
 F                    -4.90084   1.49015  -2.56385 
 F                    -6.09737  -0.12147  -1.77814 
 C                     3.6469   -4.15554  -0.70461 
 F                     3.65793  -5.49139  -0.72009 
 F                     4.38804  -3.74541  -1.74683 
 F                     4.26136  -3.74689   0.40543 
 

 GradGradGradGradGradGradGradGradGradGradGradGradGradGradGradGradGradGrad
 Berny optimization.
 Initialization pass.
 Trust Radius=3.00D-01 FncErr=1.00D-07 GrdErr=1.00D-07 EigMax=2.50D+02 EigMin=1.00D-04
 Number of steps in this run=      2 maximum allowed number of steps=      2.
 GradGradGradGradGradGradGradGradGradGradGradGradGradGradGradGradGradGrad

 Stoichiometry    C38H59B3F6IrN3O7
 Framework group  C1[X(C38H59B3F6IrN3O7)]
 Deg. of freedom   345
 Full point group                 C1      NOp   1
 Largest Abelian subgroup         C1      NOp   1
 Largest concise Abelian subgroup C1      NOp   1
                         Standard orientation:                         
 ---------------------------------------------------------------------
 Center     Atomic      Atomic             Coordinates (Angstroms)
 Number     Number       Type             X           Y           Z
 ---------------------------------------------------------------------
      1          6           0       -1.462889   -1.700071   -1.303760
      2          6           0       -2.632490    0.242379   -0.863870
      3          6           0       -3.773479   -0.255161   -1.480990
      4          6           0       -3.737439   -1.526881   -2.039060
      5          6           0       -2.565209   -2.256461   -1.951960
      6          6           0       -0.188789   -2.417741   -1.141080
      7          6           0        1.939361   -2.416470   -0.199730
      8          6           0        2.255501   -3.616680   -0.812030
      9          6           0        1.305801   -4.244090   -1.612810
     10          6           0        0.073071   -3.638221   -1.768310
     11          1           0       -2.598280    1.244929   -0.439010
     12          1           0       -4.620899   -1.945921   -2.515180
     13          1           0       -2.529709   -3.264501   -2.354190
     14          1           0        2.639901   -1.897240    0.453570
     15          1           0        1.531611   -5.188260   -2.103790
     16          1           0       -0.681619   -4.106211   -2.393100
     17          7           0       -1.508109   -0.464501   -0.775140
     18          7           0        0.747061   -1.824980   -0.362950
     19         77           0        0.304580    0.108329    0.511270
     20          8           0        2.987720    0.528550   -0.908340
     21          8           0        2.686511   -0.734950    2.125870
     22          8           0        1.305990    3.056990   -0.071620
     23          5           0        1.890600    0.345790    1.744530
     24          5           0        1.623020    0.639000   -1.085450
     25          5           0        0.311330    2.094909   -0.126020
     26          8           0       -0.880340    2.651789   -0.591970
     27          8           0        1.305140    0.742920   -2.429170
     28          6           0        2.505170    0.494230   -3.189710
     29          6           0        3.630480    0.817340   -2.161850
     30          6           0        0.667840    4.337650   -0.197560
     31          6           0       -0.595770    3.989939   -1.033070
     32          6           0        3.847111   -0.208370    2.790590
     33          6           0        3.302460    1.135770    3.351660
     34          8           0        2.310910    1.498390    2.380930
     35          6           0        4.872410   -0.044020   -2.277460
     36          1           0        5.334340    0.060890   -3.269750
     37          1           0        5.610080    0.271410   -1.527920
     38          1           0        4.652781   -1.104180   -2.102340
     39          6           0        4.012520    2.289710   -2.130480
     40          1           0        3.123500    2.924350   -2.026540
     41          1           0        4.644260    2.469750   -1.251060
     42          1           0        4.571020    2.588180   -3.027860
     43          6           0        2.473171   -0.971930   -3.601300
     44          1           0        2.525541   -1.638440   -2.729710
     45          1           0        1.529711   -1.170170   -4.126600
     46          1           0        3.304151   -1.225960   -4.272820
     47          6           0        2.495990    1.370550   -4.425690
     48          1           0        2.375010    2.430060   -4.173800
     49          1           0        3.429520    1.252430   -4.994480
     50          1           0        1.662020    1.081800   -5.078140
     51          6           0        4.309411   -1.205550    3.832960
     52          1           0        3.500661   -1.482230    4.517970
     53          1           0        4.657931   -2.120720    3.336090
     54          1           0        5.145631   -0.799120    4.419960
     55          6           0        4.927240   -0.025540    1.731300
     56          1           0        5.881970    0.291250    2.172730
     57          1           0        5.085231   -0.988720    1.224070
     58          1           0        4.616670    0.701420    0.970250
     59          6           0        2.581330    0.973570    4.683890
     60          1           0        2.045080    1.904510    4.907350
     61          1           0        1.842870    0.161390    4.637130
     62          1           0        3.276690    0.768380    5.509130
     63          6           0        4.327990    2.247000    3.448090
     64          1           0        5.151410    1.964690    4.120120
     65          1           0        4.742790    2.495140    2.465180
     66          1           0        3.855370    3.151820    3.851640
     67          6           0       -1.801500    4.865089   -0.757510
     68          1           0       -1.585350    5.915009   -1.001930
     69          1           0       -2.646440    4.541439   -1.379370
     70          1           0       -2.112790    4.807669    0.291470
     71          6           0       -0.327060    3.923589   -2.530050
     72          1           0        0.535230    3.279460   -2.747660
     73          1           0       -1.200700    3.480469   -3.024450
     74          1           0       -0.155710    4.919249   -2.960900
     75          6           0        1.623710    5.310050   -0.856120
     76          1           0        1.973030    4.946210   -1.829300
     77          1           0        1.142850    6.287650   -1.004110
     78          1           0        2.501900    5.455280   -0.214130
     79          6           0        0.345310    4.800719    1.217750
     80          1           0       -0.368070    4.122379    1.705800
     81          1           0        1.270580    4.784880    1.806950
     82          1           0       -0.068390    5.818029    1.235690
     83          1           0       -0.153230    1.392609    1.398460
     84          6           0       -3.043469   -1.341801    1.880210
     85          8           0       -2.865349   -2.364121    1.218140
     86          6           0       -4.449449   -0.810951    2.125330
     87          1           0       -4.657089   -0.791131    3.208370
     88          1           0       -4.510560    0.240939    1.798930
     89          6           0       -0.633959   -1.022791    2.140670
     90          1           0       -0.069979   -0.921711    3.079180
     91          1           0       -0.649039   -2.084971    1.874390
     92          7           0       -2.012119   -0.631151    2.418950
     93          6           0       -2.194500    0.641819    3.078020
     94          1           0       -3.107720    0.658369    3.681140
     95          1           0       -1.343610    0.815519    3.748830
     96          1           0       -2.225730    1.483999    2.363220
     97          6           0       -5.514129   -1.627591    1.415980
     98          1           0       -5.277199   -1.678681    0.341170
     99          1           0       -5.472999   -2.669401    1.767290
    100          6           0       -6.910289   -1.057392    1.604280
    101          1           0       -7.150309   -1.001082    2.680830
    102          1           0       -6.935860   -0.016732    1.236090
    103          6           0       -7.983309   -1.864792    0.889340
    104          1           0       -7.745019   -1.903602   -0.186310
    105          1           0       -7.949439   -2.907922    1.243600
    106          6           0       -9.376859   -1.293352    1.088990
    107          1           0       -9.644889   -1.270872    2.154700
    108          1           0       -9.435669   -0.261252    0.715850
    109          1           0      -10.142159   -1.880462    0.566040
    110          6           0       -4.994990    0.605379   -1.565640
    111          9           0       -5.179570    1.305639   -0.439300
    112          9           0       -4.900840    1.490149   -2.563850
    113          9           0       -6.097369   -0.121471   -1.778140
    114          6           0        3.646901   -4.155540   -0.704610
    115          9           0        3.657931   -5.491390   -0.720090
    116          9           0        4.388041   -3.745410   -1.746830
    117          9           0        4.261361   -3.746890    0.405430
 ---------------------------------------------------------------------
 Rotational constants (GHZ):           0.0592680           0.0353017           0.0318533
 General basis read from cards:  (5D, 7F)
 ======================================================================================================
                                       Pseudopotential Parameters
 ======================================================================================================
  Center     Atomic      Valence      Angular      Power
  Number     Number     Electrons     Momentum     of R      Exponent        Coefficient   SO-Coeffient
 ======================================================================================================
    1          6
                                   No pseudopotential on this center.
    2          6
                                   No pseudopotential on this center.
    3          6
                                   No pseudopotential on this center.
    4          6
                                   No pseudopotential on this center.
    5          6
                                   No pseudopotential on this center.
    6          6
                                   No pseudopotential on this center.
    7          6
                                   No pseudopotential on this center.
    8          6
                                   No pseudopotential on this center.
    9          6
                                   No pseudopotential on this center.
   10          6
                                   No pseudopotential on this center.
   11          1
                                   No pseudopotential on this center.
   12          1
                                   No pseudopotential on this center.
   13          1
                                   No pseudopotential on this center.
   14          1
                                   No pseudopotential on this center.
   15          1
                                   No pseudopotential on this center.
   16          1
                                   No pseudopotential on this center.
   17          7
                                   No pseudopotential on this center.
   18          7
                                   No pseudopotential on this center.
   19         77           17
                                      G and up 
                                                     1      823.5880147       -0.15780140    0.00000000
                                                     2      364.6613336    -1517.52704460    0.00000000
                                                     2       55.7082801     -316.53065290    0.00000000
                                                     2       12.0464544      -91.88809410    0.00000000
                                                     2        3.5120610       -9.22417730    0.00000000
                                      S - G
                                                     0      188.0490770        3.15780140    0.00000000
                                                     1      340.4194712       26.83225770    0.00000000
                                                     2      128.2373673      800.42500070    0.00000000
                                                     2       33.8644961      369.40506830    0.00000000
                                                     2        4.7560005      242.41718990    0.00000000
                                                     2        3.9649974     -118.21732820    0.00000000
                                      P - G
                                                     0      289.7291139        2.15780140    0.00000000
                                                     1       87.4633789       61.96786100    0.00000000
                                                     2       30.4363766      269.05819860    0.00000000
                                                     2        4.0553412      231.16547930    0.00000000
                                                     2        3.5525341     -133.69526670    0.00000000
                                      D - G
                                                     0      136.4017106        3.15780140    0.00000000
                                                     1       95.0776925       45.93498030    0.00000000
                                                     2       49.2258410      359.03446680    0.00000000
                                                     2       15.0874145      176.47401190    0.00000000
                                                     2        4.0405764       54.51552860    0.00000000
                                      F - G
                                                     0      127.3507908        3.95461970    0.00000000
                                                     1       66.2364374       52.97736550    0.00000000
                                                     2       34.4299229      274.86433830    0.00000000
                                                     2       10.1995721      137.20473380    0.00000000
                                                     2        2.5409702       14.86333050    0.00000000
   20          8
                                   No pseudopotential on this center.
   21          8
                                   No pseudopotential on this center.
   22          8
                                   No pseudopotential on this center.
   23          5
                                   No pseudopotential on this center.
   24          5
                                   No pseudopotential on this center.
   25          5
                                   No pseudopotential on this center.
   26          8
                                   No pseudopotential on this center.
   27          8
                                   No pseudopotential on this center.
   28          6
                                   No pseudopotential on this center.
   29          6
                                   No pseudopotential on this center.
   30          6
                                   No pseudopotential on this center.
   31          6
                                   No pseudopotential on this center.
   32          6
                                   No pseudopotential on this center.
   33          6
                                   No pseudopotential on this center.
   34          8
                                   No pseudopotential on this center.
   35          6
                                   No pseudopotential on this center.
   36          1
                                   No pseudopotential on this center.
   37          1
                                   No pseudopotential on this center.
   38          1
                                   No pseudopotential on this center.
   39          6
                                   No pseudopotential on this center.
   40          1
                                   No pseudopotential on this center.
   41          1
                                   No pseudopotential on this center.
   42          1
                                   No pseudopotential on this center.
   43          6
                                   No pseudopotential on this center.
   44          1
                                   No pseudopotential on this center.
   45          1
                                   No pseudopotential on this center.
   46          1
                                   No pseudopotential on this center.
   47          6
                                   No pseudopotential on this center.
   48          1
                                   No pseudopotential on this center.
   49          1
                                   No pseudopotential on this center.
   50          1
                                   No pseudopotential on this center.
   51          6
                                   No pseudopotential on this center.
   52          1
                                   No pseudopotential on this center.
   53          1
                                   No pseudopotential on this center.
   54          1
                                   No pseudopotential on this center.
   55          6
                                   No pseudopotential on this center.
   56          1
                                   No pseudopotential on this center.
   57          1
                                   No pseudopotential on this center.
   58          1
                                   No pseudopotential on this center.
   59          6
                                   No pseudopotential on this center.
   60          1
                                   No pseudopotential on this center.
   61          1
                                   No pseudopotential on this center.
   62          1
                                   No pseudopotential on this center.
   63          6
                                   No pseudopotential on this center.
   64          1
                                   No pseudopotential on this center.
   65          1
                                   No pseudopotential on this center.
   66          1
                                   No pseudopotential on this center.
   67          6
                                   No pseudopotential on this center.
   68          1
                                   No pseudopotential on this center.
   69          1
                                   No pseudopotential on this center.
   70          1
                                   No pseudopotential on this center.
   71          6
                                   No pseudopotential on this center.
   72          1
                                   No pseudopotential on this center.
   73          1
                                   No pseudopotential on this center.
   74          1
                                   No pseudopotential on this center.
   75          6
                                   No pseudopotential on this center.
   76          1
                                   No pseudopotential on this center.
   77          1
                                   No pseudopotential on this center.
   78          1
                                   No pseudopotential on this center.
   79          6
                                   No pseudopotential on this center.
   80          1
                                   No pseudopotential on this center.
   81          1
                                   No pseudopotential on this center.
   82          1
                                   No pseudopotential on this center.
   83          1
                                   No pseudopotential on this center.
   84          6
                                   No pseudopotential on this center.
   85          8
                                   No pseudopotential on this center.
   86          6
                                   No pseudopotential on this center.
   87          1
                                   No pseudopotential on this center.
   88          1
                                   No pseudopotential on this center.
   89          6
                                   No pseudopotential on this center.
   90          1
                                   No pseudopotential on this center.
   91          1
                                   No pseudopotential on this center.
   92          7
                                   No pseudopotential on this center.
   93          6
                                   No pseudopotential on this center.
   94          1
                                   No pseudopotential on this center.
   95          1
                                   No pseudopotential on this center.
   96          1
                                   No pseudopotential on this center.
   97          6
                                   No pseudopotential on this center.
   98          1
                                   No pseudopotential on this center.
   99          1
                                   No pseudopotential on this center.
  100          6
                                   No pseudopotential on this center.
  101          1
                                   No pseudopotential on this center.
  102          1
                                   No pseudopotential on this center.
  103          6
                                   No pseudopotential on this center.
  104          1
                                   No pseudopotential on this center.
  105          1
                                   No pseudopotential on this center.
  106          6
                                   No pseudopotential on this center.
  107          1
                                   No pseudopotential on this center.
  108          1
                                   No pseudopotential on this center.
  109          1
                                   No pseudopotential on this center.
  110          6
                                   No pseudopotential on this center.
  111          9
                                   No pseudopotential on this center.
  112          9
                                   No pseudopotential on this center.
  113          9
                                   No pseudopotential on this center.
  114          6
                                   No pseudopotential on this center.
  115          9
                                   No pseudopotential on this center.
  116          9
                                   No pseudopotential on this center.
  117          9
                                   No pseudopotential on this center.
 ======================================================================================================
 There are   997 symmetry adapted cartesian basis functions of A   symmetry.
 There are   938 symmetry adapted basis functions of A   symmetry.
   938 basis functions,  1875 primitive gaussians,   997 cartesian basis functions
   225 alpha electrons      225 beta electrons
       nuclear repulsion energy     10504.4818010131 Hartrees.
 NAtoms=  117 NActive=  117 NUniq=  117 SFac= 1.00D+00 NAtFMM=   60 NAOKFM=T Big=T
 Integral buffers will be    131072 words long.
 Raffenetti 2 integral format.
 Two-electron integral symmetry is turned on.
 One-electron integrals computed using PRISM.
   1 Symmetry operations used in ECPInt.
 ECPInt:  NShTT=   62835 NPrTT=  387974 LenC2=   44755 LenP2D=  136868.
 LDataN:  DoStor=T MaxTD1= 6 Len=  172
 NBasis=   938 RedAO= T EigKep=  4.44D-04  NBF=   938
 NBsUse=   938 1.00D-06 EigRej= -1.00D+00 NBFU=   938
 Defaulting to unpruned grid for atomic number  77.
 ExpMin= 2.90D-02 ExpMax= 7.00D+03 ExpMxC= 1.05D+03 IAcc=3 IRadAn=         5 AccDes= 0.00D+00
 Harris functional with IExCor= 1009 and IRadAn=       5 diagonalized for initial guess.
 HarFok:  IExCor= 1009 AccDes= 0.00D+00 IRadAn=         5 IDoV= 1 UseB2=F ITyADJ=14
 ICtDFT=  3500011 ScaDFX=  1.000000  1.000000  1.000000  1.000000
 Defaulting to unpruned grid for atomic number  77.
 FoFCou: FMM=F IPFlag=           0 FMFlag=      100000 FMFlg1=        2001
         NFxFlg=           0 DoJE=T BraDBF=F KetDBF=T FulRan=T
         wScrn=  0.000000 ICntrl=       500 IOpCl=  0 I1Cent=   200000004 NGrid=           0
         NMat0=    1 NMatS0=      1 NMatT0=    0 NMatD0=    1 NMtDS0=    0 NMtDT0=    0
 Petite list used in FoFCou.
 Requested convergence on RMS density matrix=1.00D-08 within 128 cycles.
 Requested convergence on MAX density matrix=1.00D-06.
 Requested convergence on             energy=1.00D-06.
 No special actions if energy rises.
 Defaulting to unpruned grid for atomic number  77.
 Defaulting to unpruned grid for atomic number  77.
 Defaulting to unpruned grid for atomic number  77.
 Defaulting to unpruned grid for atomic number  77.
 Defaulting to unpruned grid for atomic number  77.
 Defaulting to unpruned grid for atomic number  77.
 Defaulting to unpruned grid for atomic number  77.
 Defaulting to unpruned grid for atomic number  77.
 Defaulting to unpruned grid for atomic number  77.
 Defaulting to unpruned grid for atomic number  77.
 Defaulting to unpruned grid for atomic number  77.
 Defaulting to unpruned grid for atomic number  77.
 Defaulting to unpruned grid for atomic number  77.
 Defaulting to unpruned grid for atomic number  77.
 Defaulting to unpruned grid for atomic number  77.
 Defaulting to unpruned grid for atomic number  77.
 SCF Done:  E(RM06) =  -2951.40172033     A.U. after   14 cycles
            NFock= 14  Conv=0.81D-08     -V/T= 2.0310
 DoSCS=F DFT=T ScalE2(SS,OS)=  1.000000  1.000000
 Range of M.O.s used for correlation:     1   938
 NBasis=   938 NAE=   225 NBE=   225 NFC=     0 NFV=     0
 NROrb=    938 NOA=   225 NOB=   225 NVA=   713 NVB=   713

 **** Warning!!: The largest alpha MO coefficient is  0.11063702D+02


 **** Warning!!: The smallest alpha delta epsilon is  0.99163019D-01

   1 Symmetry operations used in ECPInt.
 ECPInt:  NShTT=   62835 NPrTT=  387974 LenC2=   44755 LenP2D=  136868.
 LDataN:  DoStor=T MaxTD1= 7 Len=  274
 Number of processors reduced to   6 by ecpmxn.
 Symmetrizing basis deriv contribution to polar:
 IMax=3 JMax=2 DiffMx= 0.00D+00
 G2DrvN: will do   118 centers at a time, making    1 passes.
 Calling FoFCou, ICntrl=  3107 FMM=T I1Cent=   0 AccDes= 0.00D+00.
 Defaulting to unpruned grid for atomic number  77.
 Defaulting to unpruned grid for atomic number  77.
 Defaulting to unpruned grid for atomic number  77.
 Defaulting to unpruned grid for atomic number  77.
 Defaulting to unpruned grid for atomic number  77.
 Defaulting to unpruned grid for atomic number  77.
 Defaulting to unpruned grid for atomic number  77.
 Defaulting to unpruned grid for atomic number  77.
 Defaulting to unpruned grid for atomic number  77.
 Defaulting to unpruned grid for atomic number  77.
 Defaulting to unpruned grid for atomic number  77.
 Defaulting to unpruned grid for atomic number  77.
 Defaulting to unpruned grid for atomic number  77.
 Defaulting to unpruned grid for atomic number  77.
 Defaulting to unpruned grid for atomic number  77.
 Defaulting to unpruned grid for atomic number  77.
 End of G2Drv F.D. properties file   721 does not exist.
 End of G2Drv F.D. properties file   722 does not exist.
 End of G2Drv F.D. properties file   788 does not exist.
          IDoAtm=11111111111111111111111111111111111111111111111111
          IDoAtm=11111111111111111111111111111111111111111111111111
          IDoAtm=11111111111111111
          Differentiating once with respect to electric field.
                with respect to dipole field.
          Differentiating once with respect to nuclear coordinates.
 Defaulting to unpruned grid for atomic number  77.
 CalDSu exits because no D1Ps are significant.
 Defaulting to unpruned grid for atomic number  77.
 Defaulting to unpruned grid for atomic number  77.
 Defaulting to unpruned grid for atomic number  77.
 Defaulting to unpruned grid for atomic number  77.
 Defaulting to unpruned grid for atomic number  77.
 Defaulting to unpruned grid for atomic number  77.
 Defaulting to unpruned grid for atomic number  77.
 Defaulting to unpruned grid for atomic number  77.
 Defaulting to unpruned grid for atomic number  77.
 Defaulting to unpruned grid for atomic number  77.
 Defaulting to unpruned grid for atomic number  77.
 Defaulting to unpruned grid for atomic number  77.
 Defaulting to unpruned grid for atomic number  77.
 Defaulting to unpruned grid for atomic number  77.
 Defaulting to unpruned grid for atomic number  77.
 Defaulting to unpruned grid for atomic number  77.
          There are   354 degrees of freedom in the 1st order CPHF.  IDoFFX=6 NUNeed=     3.
    351 vectors produced by pass  0 Test12= 1.60D-13 1.00D-09 XBig12= 5.08D+02 9.40D+00.
 AX will form    72 AO Fock derivatives at one time.
    351 vectors produced by pass  1 Test12= 1.60D-13 1.00D-09 XBig12= 8.46D+01 1.00D+00.
    351 vectors produced by pass  2 Test12= 1.60D-13 1.00D-09 XBig12= 9.84D-01 6.74D-02.
    351 vectors produced by pass  3 Test12= 1.60D-13 1.00D-09 XBig12= 7.31D-03 5.96D-03.
    351 vectors produced by pass  4 Test12= 1.60D-13 1.00D-09 XBig12= 2.93D-05 3.72D-04.
    308 vectors produced by pass  5 Test12= 1.60D-13 1.00D-09 XBig12= 5.67D-08 1.43D-05.
     85 vectors produced by pass  6 Test12= 1.60D-13 1.00D-09 XBig12= 8.10D-11 4.93D-07.
      3 vectors produced by pass  7 Test12= 1.60D-13 1.00D-09 XBig12= 1.11D-13 2.15D-08.
 InvSVY:  IOpt=1 It=  1 EMax= 2.13D-14
 Solved reduced A of dimension  2151 with   354 vectors.
 Isotropic polarizability for W=    0.000000      523.25 Bohr**3.
 End of Minotr F.D. properties file   721 does not exist.
 End of Minotr F.D. properties file   722 does not exist.
 End of Minotr F.D. properties file   788 does not exist.
 Hyperfine terms turned off by default for NAtoms > 100.

 **********************************************************************

            Population analysis using the SCF Density.

 **********************************************************************

 Orbital symmetries:
       Occupied  (A) (A) (A) (A) (A) (A) (A) (A) (A) (A) (A) (A)
                 (A) (A) (A) (A) (A) (A) (A) (A) (A) (A) (A) (A)
                 (A) (A) (A) (A) (A) (A) (A) (A) (A) (A) (A) (A)
                 (A) (A) (A) (A) (A) (A) (A) (A) (A) (A) (A) (A)
                 (A) (A) (A) (A) (A) (A) (A) (A) (A) (A) (A) (A)
                 (A) (A) (A) (A) (A) (A) (A) (A) (A) (A) (A) (A)
                 (A) (A) (A) (A) (A) (A) (A) (A) (A) (A) (A) (A)
                 (A) (A) (A) (A) (A) (A) (A) (A) (A) (A) (A) (A)
                 (A) (A) (A) (A) (A) (A) (A) (A) (A) (A) (A) (A)
                 (A) (A) (A) (A) (A) (A) (A) (A) (A) (A) (A) (A)
                 (A) (A) (A) (A) (A) (A) (A) (A) (A) (A) (A) (A)
                 (A) (A) (A) (A) (A) (A) (A) (A) (A) (A) (A) (A)
                 (A) (A) (A) (A) (A) (A) (A) (A) (A) (A) (A) (A)
                 (A) (A) (A) (A) (A) (A) (A) (A) (A) (A) (A) (A)
                 (A) (A) (A) (A) (A) (A) (A) (A) (A) (A) (A) (A)
                 (A) (A) (A) (A) (A) (A) (A) (A) (A) (A) (A) (A)
                 (A) (A) (A) (A) (A) (A) (A) (A) (A) (A) (A) (A)
                 (A) (A) (A) (A) (A) (A) (A) (A) (A) (A) (A) (A)
                 (A) (A) (A) (A) (A) (A) (A) (A) (A)
       Virtual   (A) (A) (A) (A) (A) (A) (A) (A) (A) (A) (A) (A)
                 (A) (A) (A) (A) (A) (A) (A) (A) (A) (A) (A) (A)
                 (A) (A) (A) (A) (A) (A) (A) (A) (A) (A) (A) (A)
                 (A) (A) (A) (A) (A) (A) (A) (A) (A) (A) (A) (A)
                 (A) (A) (A) (A) (A) (A) (A) (A) (A) (A) (A) (A)
                 (A) (A) (A) (A) (A) (A) (A) (A) (A) (A) (A) (A)
                 (A) (A) (A) (A) (A) (A) (A) (A) (A) (A) (A) (A)
                 (A) (A) (A) (A) (A) (A) (A) (A) (A) (A) (A) (A)
                 (A) (A) (A) (A) (A) (A) (A) (A) (A) (A) (A) (A)
                 (A) (A) (A) (A) (A) (A) (A) (A) (A) (A) (A) (A)
                 (A) (A) (A) (A) (A) (A) (A) (A) (A) (A) (A) (A)
                 (A) (A) (A) (A) (A) (A) (A) (A) (A) (A) (A) (A)
                 (A) (A) (A) (A) (A) (A) (A) (A) (A) (A) (A) (A)
                 (A) (A) (A) (A) (A) (A) (A) (A) (A) (A) (A) (A)
                 (A) (A) (A) (A) (A) (A) (A) (A) (A) (A) (A) (A)
                 (A) (A) (A) (A) (A) (A) (A) (A) (A) (A) (A) (A)
                 (A) (A) (A) (A) (A) (A) (A) (A) (A) (A) (A) (A)
                 (A) (A) (A) (A) (A) (A) (A) (A) (A) (A) (A) (A)
                 (A) (A) (A) (A) (A) (A) (A) (A) (A) (A) (A) (A)
                 (A) (A) (A) (A) (A) (A) (A) (A) (A) (A) (A) (A)
                 (A) (A) (A) (A) (A) (A) (A) (A) (A) (A) (A) (A)
                 (A) (A) (A) (A) (A) (A) (A) (A) (A) (A) (A) (A)
                 (A) (A) (A) (A) (A) (A) (A) (A) (A) (A) (A) (A)
                 (A) (A) (A) (A) (A) (A) (A) (A) (A) (A) (A) (A)
                 (A) (A) (A) (A) (A) (A) (A) (A) (A) (A) (A) (A)
                 (A) (A) (A) (A) (A) (A) (A) (A) (A) (A) (A) (A)
                 (A) (A) (A) (A) (A) (A) (A) (A) (A) (A) (A) (A)
                 (A) (A) (A) (A) (A) (A) (A) (A) (A) (A) (A) (A)
                 (A) (A) (A) (A) (A) (A) (A) (A) (A) (A) (A) (A)
                 (A) (A) (A) (A) (A) (A) (A) (A) (A) (A) (A) (A)
                 (A) (A) (A) (A) (A) (A) (A) (A) (A) (A) (A) (A)
                 (A) (A) (A) (A) (A) (A) (A) (A) (A) (A) (A) (A)
                 (A) (A) (A) (A) (A) (A) (A) (A) (A) (A) (A) (A)
                 (A) (A) (A) (A) (A) (A) (A) (A) (A) (A) (A) (A)
                 (A) (A) (A) (A) (A) (A) (A) (A) (A) (A) (A) (A)
                 (A) (A) (A) (A) (A) (A) (A) (A) (A) (A) (A) (A)
                 (A) (A) (A) (A) (A) (A) (A) (A) (A) (A) (A) (A)
                 (A) (A) (A) (A) (A) (A) (A) (A) (A) (A) (A) (A)
                 (A) (A) (A) (A) (A) (A) (A) (A) (A) (A) (A) (A)
                 (A) (A) (A) (A) (A) (A) (A) (A) (A) (A) (A) (A)
                 (A) (A) (A) (A) (A) (A) (A) (A) (A) (A) (A) (A)
                 (A) (A) (A) (A) (A) (A) (A) (A) (A) (A) (A) (A)
                 (A) (A) (A) (A) (A) (A) (A) (A) (A) (A) (A) (A)
                 (A) (A) (A) (A) (A) (A) (A) (A) (A) (A) (A) (A)
                 (A) (A) (A) (A) (A) (A) (A) (A) (A) (A) (A) (A)
                 (A) (A) (A) (A) (A) (A) (A) (A) (A) (A) (A) (A)
                 (A) (A) (A) (A) (A) (A) (A) (A) (A) (A) (A) (A)
                 (A) (A) (A) (A) (A) (A) (A) (A) (A) (A) (A) (A)
                 (A) (A) (A) (A) (A) (A) (A) (A) (A) (A) (A) (A)
                 (A) (A) (A) (A) (A) (A) (A) (A) (A) (A) (A) (A)
                 (A) (A) (A) (A) (A) (A) (A) (A) (A) (A) (A) (A)
                 (A) (A) (A) (A) (A) (A) (A) (A) (A) (A) (A) (A)
                 (A) (A) (A) (A) (A) (A) (A) (A) (A) (A) (A) (A)
                 (A) (A) (A) (A) (A) (A) (A) (A) (A) (A) (A) (A)
                 (A) (A) (A) (A) (A) (A) (A) (A) (A) (A) (A) (A)
                 (A) (A) (A) (A) (A) (A) (A) (A) (A) (A) (A) (A)
                 (A) (A) (A) (A) (A) (A) (A) (A) (A) (A) (A) (A)
                 (A) (A) (A) (A) (A) (A) (A) (A) (A) (A) (A) (A)
                 (A) (A) (A) (A) (A) (A) (A) (A) (A) (A) (A) (A)
                 (A) (A) (A) (A) (A)
 The electronic state is 1-A.
 Alpha  occ. eigenvalues --  -24.83608 -24.83565 -24.83487 -24.83272 -24.83146
 Alpha  occ. eigenvalues --  -24.82769 -19.21820 -19.21450 -19.21029 -19.20874
 Alpha  occ. eigenvalues --  -19.20469 -19.19877 -19.16719 -14.47363 -14.44978
 Alpha  occ. eigenvalues --  -14.40612 -10.51972 -10.51644 -10.33715 -10.32862
 Alpha  occ. eigenvalues --  -10.32333 -10.31617 -10.31152 -10.30594 -10.30518
 Alpha  occ. eigenvalues --  -10.30233 -10.30046 -10.29903 -10.29822 -10.29809
 Alpha  occ. eigenvalues --  -10.29695 -10.29503 -10.29290 -10.29153 -10.28956
 Alpha  occ. eigenvalues --  -10.26210 -10.23788 -10.23709 -10.23678 -10.23412
 Alpha  occ. eigenvalues --  -10.23255 -10.23226 -10.23163 -10.22940 -10.22790
 Alpha  occ. eigenvalues --  -10.22734 -10.22709 -10.22672 -10.22592 -10.22548
 Alpha  occ. eigenvalues --  -10.22531 -10.22520 -10.22351 -10.21987  -6.82479
 Alpha  occ. eigenvalues --   -6.81728  -6.79609  -3.65037  -2.07961  -2.06747
 Alpha  occ. eigenvalues --   -2.05880  -1.36297  -1.36009  -1.27821  -1.27490
 Alpha  occ. eigenvalues --   -1.27277  -1.27026  -1.07504  -1.06988  -1.06196
 Alpha  occ. eigenvalues --   -1.02491  -1.01426  -1.00576  -1.00070  -0.99251
 Alpha  occ. eigenvalues --   -0.98756  -0.92057  -0.87248  -0.86102  -0.84606
 Alpha  occ. eigenvalues --   -0.81465  -0.80930  -0.80818  -0.80762  -0.80270
 Alpha  occ. eigenvalues --   -0.76359  -0.76082  -0.75809  -0.75349  -0.74745
 Alpha  occ. eigenvalues --   -0.72867  -0.71310  -0.70738  -0.70230  -0.70186
 Alpha  occ. eigenvalues --   -0.69844  -0.69697  -0.69152  -0.68445  -0.68034
 Alpha  occ. eigenvalues --   -0.67487  -0.66697  -0.65699  -0.65140  -0.62848
 Alpha  occ. eigenvalues --   -0.62428  -0.62326  -0.62035  -0.61997  -0.61755
 Alpha  occ. eigenvalues --   -0.61586  -0.61172  -0.60478  -0.59791  -0.57408
 Alpha  occ. eigenvalues --   -0.57186  -0.55829  -0.55633  -0.55044  -0.54843
 Alpha  occ. eigenvalues --   -0.54473  -0.53993  -0.53316  -0.51884  -0.51662
 Alpha  occ. eigenvalues --   -0.50265  -0.49993  -0.49620  -0.49464  -0.49290
 Alpha  occ. eigenvalues --   -0.48997  -0.48927  -0.48621  -0.48388  -0.48140
 Alpha  occ. eigenvalues --   -0.47786  -0.47715  -0.47208  -0.46997  -0.46864
 Alpha  occ. eigenvalues --   -0.46616  -0.46344  -0.46177  -0.45974  -0.45666
 Alpha  occ. eigenvalues --   -0.45580  -0.45397  -0.45209  -0.45138  -0.44749
 Alpha  occ. eigenvalues --   -0.44670  -0.44514  -0.44149  -0.44082  -0.43652
 Alpha  occ. eigenvalues --   -0.43608  -0.43442  -0.43314  -0.43152  -0.43116
 Alpha  occ. eigenvalues --   -0.42471  -0.42049  -0.40952  -0.40870  -0.40622
 Alpha  occ. eigenvalues --   -0.40536  -0.40458  -0.40431  -0.40214  -0.40066
 Alpha  occ. eigenvalues --   -0.40021  -0.39844  -0.39733  -0.39675  -0.39255
 Alpha  occ. eigenvalues --   -0.39104  -0.38984  -0.38729  -0.38673  -0.38394
 Alpha  occ. eigenvalues --   -0.38076  -0.37967  -0.37428  -0.37370  -0.37307
 Alpha  occ. eigenvalues --   -0.36901  -0.36831  -0.36543  -0.36458  -0.36113
 Alpha  occ. eigenvalues --   -0.35966  -0.35924  -0.35572  -0.35539  -0.35294
 Alpha  occ. eigenvalues --   -0.34841  -0.34797  -0.34573  -0.34065  -0.33822
 Alpha  occ. eigenvalues --   -0.33404  -0.33064  -0.32967  -0.32685  -0.32501
 Alpha  occ. eigenvalues --   -0.32412  -0.32246  -0.31961  -0.31715  -0.31625
 Alpha  occ. eigenvalues --   -0.31157  -0.30703  -0.30191  -0.29973  -0.28668
 Alpha  occ. eigenvalues --   -0.28124  -0.27490  -0.26945  -0.26522  -0.25966
 Alpha  occ. eigenvalues --   -0.25665  -0.24079  -0.23931  -0.23347  -0.18699
 Alpha virt. eigenvalues --   -0.08783  -0.05112  -0.03937  -0.00631   0.02202
 Alpha virt. eigenvalues --    0.03575   0.05047   0.05466   0.06453   0.06539
 Alpha virt. eigenvalues --    0.06990   0.08020   0.08646   0.09085   0.09587
 Alpha virt. eigenvalues --    0.09919   0.10195   0.10510   0.11233   0.11259
 Alpha virt. eigenvalues --    0.11604   0.12046   0.12203   0.12542   0.12869
 Alpha virt. eigenvalues --    0.12977   0.13432   0.13597   0.13728   0.14146
 Alpha virt. eigenvalues --    0.14286   0.14374   0.14563   0.14829   0.15113
 Alpha virt. eigenvalues --    0.15286   0.15437   0.15632   0.15796   0.15882
 Alpha virt. eigenvalues --    0.16138   0.16205   0.16535   0.16575   0.16918
 Alpha virt. eigenvalues --    0.17004   0.17153   0.17390   0.17630   0.17876
 Alpha virt. eigenvalues --    0.18095   0.18349   0.18453   0.18644   0.18808
 Alpha virt. eigenvalues --    0.19063   0.19296   0.19336   0.19506   0.19690
 Alpha virt. eigenvalues --    0.19855   0.19948   0.20084   0.20493   0.20500
 Alpha virt. eigenvalues --    0.20703   0.20824   0.21262   0.21386   0.21458
 Alpha virt. eigenvalues --    0.21578   0.21630   0.21991   0.22078   0.22263
 Alpha virt. eigenvalues --    0.22418   0.22718   0.22804   0.22972   0.23285
 Alpha virt. eigenvalues --    0.23377   0.23401   0.23677   0.23897   0.23992
 Alpha virt. eigenvalues --    0.24230   0.24350   0.24603   0.24891   0.24981
 Alpha virt. eigenvalues --    0.25216   0.25508   0.25666   0.26084   0.26374
 Alpha virt. eigenvalues --    0.26563   0.26658   0.26980   0.27176   0.27261
 Alpha virt. eigenvalues --    0.27520   0.27759   0.28139   0.28581   0.29020
 Alpha virt. eigenvalues --    0.29156   0.30184   0.30576   0.30889   0.31119
 Alpha virt. eigenvalues --    0.31985   0.32158   0.33158   0.33374   0.34020
 Alpha virt. eigenvalues --    0.34744   0.35134   0.35391   0.35906   0.36323
 Alpha virt. eigenvalues --    0.36470   0.37273   0.38341   0.38810   0.39280
 Alpha virt. eigenvalues --    0.39893   0.40813   0.41283   0.42029   0.42562
 Alpha virt. eigenvalues --    0.44825   0.45983   0.46266   0.47037   0.47181
 Alpha virt. eigenvalues --    0.47731   0.48213   0.48586   0.48695   0.49366
 Alpha virt. eigenvalues --    0.49394   0.50502   0.50676   0.51093   0.51424
 Alpha virt. eigenvalues --    0.51584   0.51851   0.52081   0.52506   0.52794
 Alpha virt. eigenvalues --    0.53081   0.53552   0.54112   0.54275   0.54310
 Alpha virt. eigenvalues --    0.54956   0.55339   0.55633   0.55750   0.55846
 Alpha virt. eigenvalues --    0.56134   0.56561   0.56689   0.56934   0.57309
 Alpha virt. eigenvalues --    0.57590   0.57725   0.58001   0.58203   0.58540
 Alpha virt. eigenvalues --    0.58838   0.59078   0.59231   0.59281   0.59903
 Alpha virt. eigenvalues --    0.60302   0.60714   0.60988   0.61442   0.61586
 Alpha virt. eigenvalues --    0.61684   0.62029   0.62456   0.63149   0.63269
 Alpha virt. eigenvalues --    0.63679   0.64303   0.64472   0.64829   0.65102
 Alpha virt. eigenvalues --    0.65316   0.65704   0.65916   0.66259   0.66723
 Alpha virt. eigenvalues --    0.67000   0.67189   0.67268   0.67635   0.68136
 Alpha virt. eigenvalues --    0.68506   0.68760   0.69073   0.69376   0.69769
 Alpha virt. eigenvalues --    0.70127   0.70543   0.70778   0.70934   0.71545
 Alpha virt. eigenvalues --    0.71797   0.71982   0.72114   0.72207   0.72888
 Alpha virt. eigenvalues --    0.73227   0.73574   0.73621   0.74174   0.74417
 Alpha virt. eigenvalues --    0.74717   0.74908   0.75197   0.75532   0.75669
 Alpha virt. eigenvalues --    0.76012   0.76758   0.77136   0.77534   0.77849
 Alpha virt. eigenvalues --    0.78047   0.78798   0.79185   0.79565   0.79802
 Alpha virt. eigenvalues --    0.80496   0.81006   0.81306   0.81728   0.82233
 Alpha virt. eigenvalues --    0.82478   0.82541   0.83027   0.83294   0.83377
 Alpha virt. eigenvalues --    0.83648   0.84093   0.84145   0.84392   0.84403
 Alpha virt. eigenvalues --    0.84562   0.84782   0.85013   0.85310   0.85571
 Alpha virt. eigenvalues --    0.85882   0.86092   0.86300   0.86558   0.86986
 Alpha virt. eigenvalues --    0.87367   0.87461   0.87663   0.87826   0.88256
 Alpha virt. eigenvalues --    0.88458   0.88666   0.88843   0.89123   0.89668
 Alpha virt. eigenvalues --    0.89859   0.90078   0.90283   0.90490   0.90629
 Alpha virt. eigenvalues --    0.90681   0.91125   0.91406   0.91439   0.91522
 Alpha virt. eigenvalues --    0.91830   0.92285   0.92362   0.92722   0.93059
 Alpha virt. eigenvalues --    0.93338   0.93483   0.93885   0.94140   0.94383
 Alpha virt. eigenvalues --    0.94811   0.95046   0.95235   0.95481   0.95880
 Alpha virt. eigenvalues --    0.96091   0.96453   0.96656   0.96899   0.97124
 Alpha virt. eigenvalues --    0.97322   0.97559   0.98153   0.98588   0.98999
 Alpha virt. eigenvalues --    0.99163   0.99435   0.99975   1.00233   1.00656
 Alpha virt. eigenvalues --    1.01183   1.01597   1.01886   1.02287   1.02915
 Alpha virt. eigenvalues --    1.03084   1.03638   1.04637   1.04879   1.05346
 Alpha virt. eigenvalues --    1.06515   1.06724   1.07417   1.07986   1.08411
 Alpha virt. eigenvalues --    1.08700   1.09782   1.10013   1.10687   1.11422
 Alpha virt. eigenvalues --    1.11538   1.12036   1.12926   1.13792   1.14072
 Alpha virt. eigenvalues --    1.14988   1.15578   1.15657   1.16211   1.16904
 Alpha virt. eigenvalues --    1.17039   1.17598   1.18068   1.18174   1.18720
 Alpha virt. eigenvalues --    1.19043   1.19112   1.20034   1.20074   1.20526
 Alpha virt. eigenvalues --    1.20951   1.21374   1.21805   1.22014   1.22265
 Alpha virt. eigenvalues --    1.22840   1.23198   1.24016   1.24342   1.24966
 Alpha virt. eigenvalues --    1.25346   1.25916   1.26301   1.27183   1.27585
 Alpha virt. eigenvalues --    1.28160   1.28917   1.29950   1.30581   1.31670
 Alpha virt. eigenvalues --    1.32104   1.32393   1.33190   1.33738   1.34222
 Alpha virt. eigenvalues --    1.34709   1.34918   1.35509   1.35674   1.36192
 Alpha virt. eigenvalues --    1.36290   1.36613   1.36975   1.37856   1.38322
 Alpha virt. eigenvalues --    1.38398   1.38911   1.39318   1.39674   1.39864
 Alpha virt. eigenvalues --    1.40147   1.40530   1.41030   1.41346   1.42216
 Alpha virt. eigenvalues --    1.42704   1.43363   1.43623   1.43749   1.44220
 Alpha virt. eigenvalues --    1.44618   1.44922   1.45265   1.45575   1.45924
 Alpha virt. eigenvalues --    1.46462   1.46581   1.46754   1.47131   1.47617
 Alpha virt. eigenvalues --    1.48383   1.49480   1.50167   1.51087   1.52075
 Alpha virt. eigenvalues --    1.52103   1.52183   1.52774   1.53671   1.54224
 Alpha virt. eigenvalues --    1.54306   1.55721   1.56588   1.58150   1.58907
 Alpha virt. eigenvalues --    1.59227   1.59691   1.60748   1.61826   1.62450
 Alpha virt. eigenvalues --    1.63330   1.63870   1.64738   1.65116   1.65328
 Alpha virt. eigenvalues --    1.65519   1.66102   1.66384   1.67306   1.67795
 Alpha virt. eigenvalues --    1.68198   1.68884   1.69461   1.69555   1.70207
 Alpha virt. eigenvalues --    1.70337   1.71509   1.72272   1.72564   1.72817
 Alpha virt. eigenvalues --    1.73039   1.73856   1.74222   1.74910   1.75500
 Alpha virt. eigenvalues --    1.75794   1.76756   1.76987   1.77150   1.77705
 Alpha virt. eigenvalues --    1.77888   1.78137   1.78576   1.79091   1.80011
 Alpha virt. eigenvalues --    1.80497   1.81186   1.81433   1.81905   1.82086
 Alpha virt. eigenvalues --    1.82442   1.82987   1.83318   1.83780   1.84554
 Alpha virt. eigenvalues --    1.84867   1.85682   1.85852   1.86620   1.86817
 Alpha virt. eigenvalues --    1.87098   1.87108   1.87425   1.87632   1.88063
 Alpha virt. eigenvalues --    1.88295   1.88645   1.89689   1.89818   1.90001
 Alpha virt. eigenvalues --    1.90562   1.90784   1.91009   1.91151   1.91256
 Alpha virt. eigenvalues --    1.91407   1.91526   1.92006   1.92335   1.92550
 Alpha virt. eigenvalues --    1.92713   1.93003   1.93099   1.93488   1.93712
 Alpha virt. eigenvalues --    1.94210   1.94807   1.95079   1.95807   1.96138
 Alpha virt. eigenvalues --    1.96342   1.96950   1.97438   1.97829   1.98334
 Alpha virt. eigenvalues --    1.98951   1.99657   2.00006   2.00176   2.00451
 Alpha virt. eigenvalues --    2.00625   2.01314   2.01859   2.02078   2.02173
 Alpha virt. eigenvalues --    2.02524   2.02893   2.03106   2.03302   2.03386
 Alpha virt. eigenvalues --    2.03829   2.03943   2.04084   2.04578   2.05083
 Alpha virt. eigenvalues --    2.05552   2.06137   2.06625   2.06834   2.07058
 Alpha virt. eigenvalues --    2.07294   2.07504   2.07908   2.08832   2.08970
 Alpha virt. eigenvalues --    2.09114   2.09544   2.09797   2.09873   2.10345
 Alpha virt. eigenvalues --    2.11060   2.11086   2.11515   2.11912   2.12276
 Alpha virt. eigenvalues --    2.12797   2.13094   2.13353   2.13860   2.14218
 Alpha virt. eigenvalues --    2.14397   2.14763   2.15192   2.15493   2.15955
 Alpha virt. eigenvalues --    2.16091   2.16744   2.17128   2.17316   2.17514
 Alpha virt. eigenvalues --    2.17977   2.18242   2.18597   2.18810   2.19177
 Alpha virt. eigenvalues --    2.19398   2.19805   2.20013   2.20590   2.21187
 Alpha virt. eigenvalues --    2.21365   2.21651   2.21867   2.22747   2.22913
 Alpha virt. eigenvalues --    2.23032   2.23909   2.24367   2.24674   2.24899
 Alpha virt. eigenvalues --    2.25419   2.25640   2.25803   2.26034   2.26139
 Alpha virt. eigenvalues --    2.26498   2.26991   2.27623   2.28207   2.28325
 Alpha virt. eigenvalues --    2.29470   2.29942   2.31134   2.31589   2.32090
 Alpha virt. eigenvalues --    2.32418   2.32570   2.32654   2.33268   2.34169
 Alpha virt. eigenvalues --    2.34380   2.35534   2.36094   2.36488   2.37107
 Alpha virt. eigenvalues --    2.37874   2.38465   2.38818   2.39181   2.39703
 Alpha virt. eigenvalues --    2.39822   2.40785   2.41886   2.43012   2.44130
 Alpha virt. eigenvalues --    2.44862   2.45360   2.46549   2.47052   2.48060
 Alpha virt. eigenvalues --    2.48368   2.48486   2.48794   2.49653   2.49751
 Alpha virt. eigenvalues --    2.51223   2.51918   2.53319   2.54340   2.54656
 Alpha virt. eigenvalues --    2.55261   2.56549   2.58893   2.59416   2.59829
 Alpha virt. eigenvalues --    2.60102   2.60236   2.60929   2.61990   2.63381
 Alpha virt. eigenvalues --    2.63602   2.64417   2.64746   2.65238   2.66682
 Alpha virt. eigenvalues --    2.67375   2.67732   2.69143   2.70135   2.70796
 Alpha virt. eigenvalues --    2.75283   2.76592   2.76831   2.77309   2.77717
 Alpha virt. eigenvalues --    2.77837   2.78174   2.78311   2.78840   2.79577
 Alpha virt. eigenvalues --    2.79926   2.80413   2.80790   2.81124   2.81490
 Alpha virt. eigenvalues --    2.81636   2.82727   2.83565   2.84373   2.84917
 Alpha virt. eigenvalues --    2.86909   2.87843   2.88737   2.90047   2.91566
 Alpha virt. eigenvalues --    2.93113   2.93220   2.94041   2.95184   2.96146
 Alpha virt. eigenvalues --    2.96556   2.96925   3.00612   3.02367   3.04343
 Alpha virt. eigenvalues --    3.06021   3.07007   3.07135   3.08039   3.08998
 Alpha virt. eigenvalues --    3.09278   3.10257   3.11267   3.12122   3.12218
 Alpha virt. eigenvalues --    3.12645   3.13327   3.13769   3.22523   3.27061
 Alpha virt. eigenvalues --    3.32022   3.45187  13.50144
          Condensed to atoms (all electrons):
 Mulliken charges:
               1
     1  C    0.338479
     2  C    0.021075
     3  C   -0.065284
     4  C   -0.149758
     5  C   -0.164026
     6  C    0.326021
     7  C    0.044950
     8  C   -0.074411
     9  C   -0.157701
    10  C   -0.179147
    11  H    0.229604
    12  H    0.199975
    13  H    0.180288
    14  H    0.251225
    15  H    0.203995
    16  H    0.182020
    17  N   -0.469409
    18  N   -0.562509
    19  Ir  -0.108643
    20  O   -0.498828
    21  O   -0.537377
    22  O   -0.512103
    23  B    0.499908
    24  B    0.486831
    25  B    0.465442
    26  O   -0.523549
    27  O   -0.511922
    28  C    0.288828
    29  C    0.285014
    30  C    0.286834
    31  C    0.299707
    32  C    0.292012
    33  C    0.297933
    34  O   -0.501450
    35  C   -0.507078
    36  H    0.152704
    37  H    0.171173
    38  H    0.162029
    39  C   -0.494202
    40  H    0.170959
    41  H    0.171854
    42  H    0.148116
    43  C   -0.490103
    44  H    0.138111
    45  H    0.168922
    46  H    0.158749
    47  C   -0.508252
    48  H    0.169074
    49  H    0.154057
    50  H    0.172661
    51  C   -0.509441
    52  H    0.173156
    53  H    0.167186
    54  H    0.150479
    55  C   -0.504729
    56  H    0.147150
    57  H    0.154691
    58  H    0.186506
    59  C   -0.510279
    60  H    0.172059
    61  H    0.170892
    62  H    0.150736
    63  C   -0.508654
    64  H    0.147502
    65  H    0.175679
    66  H    0.167497
    67  C   -0.514999
    68  H    0.153652
    69  H    0.170347
    70  H    0.171594
    71  C   -0.504356
    72  H    0.172273
    73  H    0.172065
    74  H    0.148232
    75  C   -0.511219
    76  H    0.163074
    77  H    0.153327
    78  H    0.176685
    79  C   -0.509915
    80  H    0.174666
    81  H    0.185557
    82  H    0.149457
    83  H    0.144539
    84  C    0.587671
    85  O   -0.539060
    86  C   -0.419083
    87  H    0.170843
    88  H    0.157942
    89  C   -0.346250
    90  H    0.145154
    91  H    0.185269
    92  N   -0.362971
    93  C   -0.351493
    94  H    0.170256
    95  H    0.185851
    96  H    0.176470
    97  C   -0.253390
    98  H    0.118969
    99  H    0.163244
   100  C   -0.274722
   101  H    0.135788
   102  H    0.135861
   103  C   -0.279878
   104  H    0.141729
   105  H    0.146918
   106  C   -0.497665
   107  H    0.157877
   108  H    0.159854
   109  H    0.161813
   110  C    0.972068
   111  F   -0.307417
   112  F   -0.304180
   113  F   -0.313768
   114  C    0.969055
   115  F   -0.313902
   116  F   -0.303663
   117  F   -0.303392
 Sum of Mulliken charges =  -0.00000
 Mulliken charges with hydrogens summed into heavy atoms:
               1
     1  C    0.338479
     2  C    0.250679
     3  C   -0.065284
     4  C    0.050217
     5  C    0.016262
     6  C    0.326021
     7  C    0.296175
     8  C   -0.074411
     9  C    0.046293
    10  C    0.002873
    17  N   -0.469409
    18  N   -0.562509
    19  Ir   0.035896
    20  O   -0.498828
    21  O   -0.537377
    22  O   -0.512103
    23  B    0.499908
    24  B    0.486831
    25  B    0.465442
    26  O   -0.523549
    27  O   -0.511922
    28  C    0.288828
    29  C    0.285014
    30  C    0.286834
    31  C    0.299707
    32  C    0.292012
    33  C    0.297933
    34  O   -0.501450
    35  C   -0.021173
    39  C   -0.003273
    43  C   -0.024321
    47  C   -0.012461
    51  C   -0.018621
    55  C   -0.016382
    59  C   -0.016593
    63  C   -0.017976
    67  C   -0.019406
    71  C   -0.011787
    75  C   -0.018133
    79  C   -0.000235
    84  C    0.587671
    85  O   -0.539060
    86  C   -0.090298
    89  C   -0.015827
    92  N   -0.362971
    93  C    0.181084
    97  C    0.028823
   100  C   -0.003073
   103  C    0.008769
   106  C   -0.018121
   110  C    0.972068
   111  F   -0.307417
   112  F   -0.304180
   113  F   -0.313768
   114  C    0.969055
   115  F   -0.313902
   116  F   -0.303663
   117  F   -0.303392
 APT charges:
               1
     1  C    0.161000
     2  C    0.054677
     3  C   -0.193955
     4  C    0.092099
     5  C   -0.150997
     6  C    0.255157
     7  C   -0.006644
     8  C   -0.203241
     9  C    0.103498
    10  C   -0.210380
    11  H    0.120082
    12  H    0.067984
    13  H    0.043899
    14  H    0.180924
    15  H    0.066088
    16  H    0.050072
    17  N   -0.207842
    18  N   -0.018117
    19  Ir  -0.878320
    20  O   -0.916257
    21  O   -1.012504
    22  O   -1.010940
    23  B    1.297978
    24  B    1.157154
    25  B    1.349264
    26  O   -0.982184
    27  O   -0.893836
    28  C    0.442300
    29  C    0.463137
    30  C    0.501619
    31  C    0.522628
    32  C    0.508879
    33  C    0.499170
    34  O   -0.971046
    35  C   -0.006915
    36  H   -0.013367
    37  H    0.005835
    38  H    0.012257
    39  C   -0.030095
    40  H    0.020676
    41  H    0.003121
    42  H   -0.023640
    43  C   -0.034990
    44  H   -0.003358
    45  H    0.003009
    46  H   -0.009244
    47  C    0.002703
    48  H    0.005070
    49  H   -0.015254
    50  H    0.000587
    51  C   -0.012540
    52  H    0.003756
    53  H    0.001965
    54  H   -0.017672
    55  C   -0.037303
    56  H   -0.027305
    57  H   -0.009234
    58  H    0.031347
    59  C   -0.032247
    60  H    0.003015
    61  H    0.001919
    62  H   -0.024323
    63  C   -0.008038
    64  H   -0.019149
    65  H    0.005528
    66  H   -0.000442
    67  C   -0.014873
    68  H   -0.013229
    69  H    0.001725
    70  H    0.003828
    71  C   -0.041690
    72  H    0.016691
    73  H    0.002723
    74  H   -0.021083
    75  C   -0.009328
    76  H    0.002029
    77  H   -0.015974
    78  H    0.005102
    79  C   -0.032665
    80  H    0.001740
    81  H    0.006566
    82  H   -0.024602
    83  H   -0.006341
    84  C    0.883113
    85  O   -0.693499
    86  C   -0.015403
    87  H   -0.026531
    88  H   -0.009581
    89  C    0.418176
    90  H   -0.084981
    91  H   -0.027476
    92  N   -0.816159
    93  C    0.284556
    94  H   -0.017225
    95  H    0.008570
    96  H   -0.042121
    97  C    0.101963
    98  H   -0.035808
    99  H   -0.022488
   100  C    0.099789
   101  H   -0.055865
   102  H   -0.037063
   103  C    0.128811
   104  H   -0.058587
   105  H   -0.052135
   106  C    0.064565
   107  H   -0.024375
   108  H   -0.017448
   109  H   -0.042234
   110  C    1.761641
   111  F   -0.521827
   112  F   -0.587885
   113  F   -0.570106
   114  C    1.824994
   115  F   -0.609900
   116  F   -0.601417
   117  F   -0.523700
 Sum of APT charges =  -0.00000
 APT charges with hydrogens summed into heavy atoms:
               1
     1  C    0.161000
     2  C    0.174759
     3  C   -0.193955
     4  C    0.160083
     5  C   -0.107098
     6  C    0.255157
     7  C    0.174280
     8  C   -0.203241
     9  C    0.169585
    10  C   -0.160308
    17  N   -0.207842
    18  N   -0.018117
    19  Ir  -0.884661
    20  O   -0.916257
    21  O   -1.012504
    22  O   -1.010940
    23  B    1.297978
    24  B    1.157154
    25  B    1.349264
    26  O   -0.982184
    27  O   -0.893836
    28  C    0.442300
    29  C    0.463137
    30  C    0.501619
    31  C    0.522628
    32  C    0.508879
    33  C    0.499170
    34  O   -0.971046
    35  C   -0.002190
    39  C   -0.029938
    43  C   -0.044583
    47  C   -0.006894
    51  C   -0.024491
    55  C   -0.042495
    59  C   -0.051635
    63  C   -0.022101
    67  C   -0.022549
    71  C   -0.043359
    75  C   -0.018171
    79  C   -0.048960
    84  C    0.883113
    85  O   -0.693499
    86  C   -0.051515
    89  C    0.305719
    92  N   -0.816159
    93  C    0.233780
    97  C    0.043667
   100  C    0.006861
   103  C    0.018089
   106  C   -0.019492
   110  C    1.761641
   111  F   -0.521827
   112  F   -0.587885
   113  F   -0.570106
   114  C    1.824994
   115  F   -0.609900
   116  F   -0.601417
   117  F   -0.523700
 Electronic spatial extent (au):  <R**2>=          38402.1072
 Charge=             -0.0000 electrons
 Dipole moment (field-independent basis, Debye):
    X=              0.6344    Y=             -0.3119    Z=             -3.5434  Tot=              3.6133
 Quadrupole moment (field-independent basis, Debye-Ang):
   XX=           -358.9051   YY=           -342.5405   ZZ=           -340.6722
   XY=              4.4990   XZ=              0.8305   YZ=             15.8647
 Traceless Quadrupole moment (field-independent basis, Debye-Ang):
   XX=            -11.5324   YY=              4.8321   ZZ=              6.7004
   XY=              4.4990   XZ=              0.8305   YZ=             15.8647
 Octapole moment (field-independent basis, Debye-Ang**2):
  XXX=            112.6477  YYY=             -2.0693  ZZZ=             33.2328  XYY=             -3.7806
  XXY=              8.7966  XXZ=             17.6929  XZZ=             29.8601  YZZ=            -27.0481
  YYZ=            -62.7131  XYZ=            -35.1374
 Hexadecapole moment (field-independent basis, Debye-Ang**3):
 XXXX=         -27527.3407 YYYY=         -12134.2288 ZZZZ=          -9340.4831 XXXY=           -121.2793
 XXXZ=            196.5455 YYYX=           -353.0444 YYYZ=            209.9706 ZZZX=            111.3171
 ZZZY=            105.0201 XXYY=          -6784.6478 XXZZ=          -5826.4625 YYZZ=          -3603.2920
 XXYZ=             69.1772 YYXZ=            118.0270 ZZXY=            -39.3344
 N-N= 1.050448180101D+04 E-N=-2.788777823086D+04  KE= 2.862632075485D+03
  Exact polarizability:     602.791      -6.788     512.378      16.404      34.725     454.566
 Approx polarizability:     806.595     -28.667     780.719      42.699      71.260     673.513
   1 Symmetry operations used in ECPInt.
 ECPInt:  NShTT=   62835 NPrTT=  387974 LenC2=   44755 LenP2D=  136868.
 LDataN:  DoStor=T MaxTD1= 8 Len=  415
 Calling FoFJK, ICntrl=    100127 FMM=F ISym2X=0 I1Cent= 0 IOpClX= 0 NMat=1 NMatS=1 NMatT=0.
 Defaulting to unpruned grid for atomic number  77.
 Defaulting to unpruned grid for atomic number  77.
 Defaulting to unpruned grid for atomic number  77.
 Defaulting to unpruned grid for atomic number  77.
 Defaulting to unpruned grid for atomic number  77.
 Defaulting to unpruned grid for atomic number  77.
 Defaulting to unpruned grid for atomic number  77.
 Defaulting to unpruned grid for atomic number  77.
 Defaulting to unpruned grid for atomic number  77.
 Defaulting to unpruned grid for atomic number  77.
 Defaulting to unpruned grid for atomic number  77.
 Defaulting to unpruned grid for atomic number  77.
 Defaulting to unpruned grid for atomic number  77.
 Defaulting to unpruned grid for atomic number  77.
 Defaulting to unpruned grid for atomic number  77.
 Defaulting to unpruned grid for atomic number  77.
 Full mass-weighted force constant matrix:
 Low frequencies ---   -6.0668   -0.0008    0.0004    0.0007    3.7311    6.2131
 Low frequencies ---   18.0196   21.8193   23.6766
 Diagonal vibrational polarizability:
       91.3580894      76.5165144      78.8036112
 Harmonic frequencies (cm**-1), IR intensities (KM/Mole), Raman scattering
 activities (A**4/AMU), depolarization ratios for plane and unpolarized
 incident light, reduced masses (AMU), force constants (mDyne/A),
 and normal coordinates:
                      1                      2                      3
                      A                      A                      A
 Frequencies --     17.8671                21.6558                23.6676
 Red. masses --      4.9913                 5.1667                 7.5732
 Frc consts  --      0.0009                 0.0014                 0.0025
 IR Inten    --      0.1739                 0.0137                 0.0110
  Atom AN      X      Y      Z        X      Y      Z        X      Y      Z
     1   6     0.01  -0.04   0.00    -0.02   0.03  -0.02     0.00  -0.01  -0.01
     2   6     0.00  -0.04  -0.02    -0.02   0.02   0.01    -0.00  -0.01  -0.00
     3   6     0.00  -0.06  -0.00    -0.03   0.01   0.04     0.00  -0.01  -0.01
     4   6    -0.00  -0.07   0.03    -0.03   0.01   0.04     0.01  -0.00  -0.02
     5   6     0.00  -0.06   0.03    -0.03   0.02   0.01     0.01  -0.00  -0.02
     6   6     0.02  -0.03  -0.01    -0.01   0.03  -0.04     0.00  -0.01  -0.01
     7   6     0.03   0.00  -0.03    -0.02   0.00  -0.02    -0.01  -0.02   0.00
     8   6     0.04   0.01  -0.03    -0.02   0.01  -0.03    -0.01  -0.03   0.02
     9   6     0.05  -0.00  -0.03    -0.02   0.02  -0.05    -0.01  -0.02   0.01
    10   6     0.03  -0.02  -0.02    -0.02   0.03  -0.05    -0.00  -0.01  -0.00
    11   1     0.01  -0.03  -0.04    -0.01   0.02   0.01    -0.01  -0.02   0.01
    12   1    -0.01  -0.09   0.05    -0.04   0.01   0.06     0.01  -0.00  -0.03
    13   1     0.00  -0.08   0.06    -0.03   0.02   0.01     0.01  -0.00  -0.03
    14   1     0.03   0.01  -0.03    -0.02  -0.01  -0.01    -0.01  -0.02   0.01
    15   1     0.06   0.00  -0.03    -0.02   0.03  -0.06    -0.01  -0.03   0.02
    16   1     0.04  -0.03  -0.01    -0.01   0.05  -0.06     0.00  -0.01  -0.00
    17   7     0.01  -0.03  -0.02    -0.01   0.03  -0.02     0.00  -0.01  -0.00
    18   7     0.02  -0.01  -0.02    -0.01   0.02  -0.03     0.00  -0.01  -0.01
    19  77     0.00  -0.02  -0.02    -0.00   0.02  -0.03     0.01  -0.01  -0.01
    20   8     0.01   0.01   0.01     0.03  -0.01   0.04     0.01   0.04   0.01
    21   8    -0.00  -0.01  -0.01    -0.04  -0.01   0.01    -0.02  -0.03   0.01
    22   8    -0.02  -0.01   0.01     0.01   0.02  -0.02    -0.04   0.02   0.00
    23   5    -0.02  -0.01  -0.00    -0.01   0.01  -0.01     0.02  -0.01  -0.02
    24   5     0.02   0.00  -0.00     0.04   0.01  -0.00     0.01   0.01   0.00
    25   5    -0.01  -0.02  -0.01     0.01   0.01  -0.05    -0.02  -0.01   0.00
    26   8    -0.01  -0.02  -0.03     0.03   0.01  -0.09    -0.04  -0.03   0.01
    27   8     0.03   0.01  -0.01     0.08   0.03  -0.01     0.01   0.01   0.00
    28   6     0.04   0.03   0.01     0.10   0.02   0.02     0.02   0.04   0.01
    29   6     0.03   0.02   0.02     0.07  -0.00   0.06     0.00   0.07   0.01
    30   6    -0.03  -0.01   0.01     0.01   0.01  -0.05    -0.07   0.00   0.01
    31   6    -0.01  -0.02  -0.01     0.04   0.00  -0.09    -0.07  -0.02   0.01
    32   6    -0.02  -0.00   0.02    -0.05  -0.02   0.04     0.01  -0.05  -0.02
    33   6    -0.06  -0.02   0.04    -0.03  -0.00   0.01     0.07  -0.01  -0.07
    34   8    -0.05  -0.02   0.03    -0.00   0.01  -0.02     0.08  -0.01  -0.07
    35   6     0.03   0.03   0.03     0.07  -0.01   0.08     0.03   0.11   0.01
    36   1     0.05   0.05   0.04     0.09  -0.01   0.10     0.02   0.11   0.00
    37   1     0.02   0.02   0.04     0.05  -0.03   0.11     0.03   0.14  -0.01
    38   1     0.04   0.03   0.01     0.05  -0.01   0.07     0.07   0.10   0.02
    39   6     0.02   0.03   0.04     0.09  -0.01   0.09    -0.04   0.08   0.02
    40   1     0.01   0.02   0.04     0.09   0.00   0.07    -0.06   0.05   0.01
    41   1     0.01   0.02   0.05     0.06  -0.02   0.11    -0.06   0.09   0.03
    42   1     0.03   0.04   0.05     0.12   0.00   0.11    -0.04   0.10   0.03
    43   6     0.05   0.03  -0.01     0.10   0.03   0.00     0.05   0.03   0.02
    44   1     0.04   0.03  -0.02     0.06   0.02  -0.00     0.07   0.04   0.02
    45   1     0.06   0.04  -0.03     0.11   0.05  -0.03     0.06   0.01   0.01
    46   1     0.06   0.04  -0.00     0.12   0.03   0.03     0.06   0.05   0.02
    47   6     0.05   0.04   0.02     0.15   0.04   0.03     0.00   0.03   0.00
    48   1     0.05   0.04   0.03     0.15   0.04   0.05    -0.02   0.03  -0.00
    49   1     0.06   0.05   0.02     0.16   0.03   0.06     0.01   0.05   0.01
    50   1     0.06   0.05   0.00     0.16   0.06   0.01     0.01   0.01  -0.00
    51   6    -0.02  -0.01   0.01    -0.10  -0.02   0.07    -0.03  -0.03   0.02
    52   1    -0.03  -0.04  -0.01    -0.13   0.01   0.05    -0.04   0.03   0.04
    53   1     0.00   0.00  -0.00    -0.11  -0.03   0.09    -0.08  -0.07   0.06
    54   1    -0.04  -0.01   0.03    -0.11  -0.03   0.09    -0.01  -0.05   0.00
    55   6    -0.01   0.04   0.04    -0.01  -0.06   0.07     0.01  -0.14  -0.03
    56   1    -0.02   0.05   0.06    -0.02  -0.08   0.09     0.03  -0.17  -0.04
    57   1     0.01   0.05   0.02    -0.02  -0.07   0.08    -0.03  -0.17   0.01
    58   1    -0.01   0.04   0.05     0.02  -0.06   0.05     0.04  -0.15  -0.05
    59   6    -0.07  -0.06   0.02    -0.07   0.03  -0.01     0.07   0.07  -0.06
    60   1    -0.09  -0.07   0.03    -0.05   0.05  -0.04     0.11   0.11  -0.09
    61   1    -0.06  -0.07  -0.01    -0.09   0.05  -0.01     0.03   0.11  -0.02
    62   1    -0.08  -0.06   0.03    -0.09   0.03   0.01     0.06   0.07  -0.05
    63   6    -0.08  -0.01   0.07    -0.01  -0.02   0.02     0.12  -0.05  -0.12
    64   1    -0.08  -0.01   0.08    -0.03  -0.03   0.04     0.11  -0.06  -0.12
    65   1    -0.06   0.02   0.08     0.02  -0.05   0.02     0.12  -0.10  -0.13
    66   1    -0.10  -0.02   0.08     0.00  -0.01  -0.00     0.16  -0.01  -0.15
    67   6    -0.03  -0.03  -0.03     0.03   0.00  -0.13    -0.09  -0.05   0.02
    68   1    -0.03  -0.03  -0.01     0.03   0.00  -0.14    -0.11  -0.04   0.02
    69   1    -0.01  -0.04  -0.04     0.05  -0.00  -0.16    -0.08  -0.07   0.02
    70   1    -0.04  -0.04  -0.03    -0.01   0.01  -0.14    -0.08  -0.06   0.02
    71   6     0.01  -0.00  -0.01     0.09  -0.01  -0.08    -0.07  -0.01   0.01
    72   1     0.02   0.01   0.00     0.10  -0.01  -0.04    -0.06   0.01   0.01
    73   1     0.03  -0.01  -0.03     0.10  -0.02  -0.10    -0.06  -0.03   0.01
    74   1     0.01   0.00   0.00     0.10  -0.01  -0.08    -0.09  -0.01   0.01
    75   6    -0.03   0.00   0.04     0.03   0.01  -0.03    -0.10   0.03   0.01
    76   1    -0.01   0.01   0.04     0.06   0.00  -0.01    -0.09   0.04   0.01
    77   1    -0.04  -0.00   0.03     0.03   0.01  -0.05    -0.12   0.02   0.02
    78   1    -0.04   0.01   0.05     0.01   0.02   0.00    -0.10   0.04   0.01
    79   6    -0.06  -0.03   0.01    -0.04   0.02  -0.06    -0.08  -0.01   0.01
    80   1    -0.06  -0.04  -0.01    -0.05   0.02  -0.09    -0.07  -0.03   0.01
    81   1    -0.07  -0.02   0.03    -0.06   0.02  -0.03    -0.08  -0.00   0.01
    82   1    -0.07  -0.03   0.01    -0.04   0.02  -0.08    -0.10  -0.02   0.02
    83   1    -0.01  -0.02  -0.03    -0.01   0.02  -0.04     0.02  -0.01   0.00
    84   6    -0.03   0.02   0.02     0.00  -0.02   0.01     0.01   0.01  -0.00
    85   8    -0.07   0.01   0.04     0.01  -0.02   0.00    -0.00   0.01  -0.00
    86   6    -0.01   0.07   0.03    -0.00  -0.05   0.04     0.01   0.03  -0.00
    87   1     0.01   0.10   0.03     0.02  -0.08   0.04     0.02   0.04  -0.00
[...]
 ,-0.00012320,0.00023069,0.00020948,-0.00004290,-0.00001998,0.00011344,
 0.00005452,0.00000202,-0.00036393,0.00000003,-0.00063504,-0.00067854,0
 .00032531,-0.00004768,-0.00001607,0.00007015,0.00009182,0.00028283,-0.
 00002437,0.00039508,-0.00081380,-0.00042041,-0.00034206,0.00009103,0.0
 0015597,-0.00000533,0.00015329,-0.00003817,0.00006485,0.00000243,-0.00
 000791,-0.00001682,-0.00007963,0.00004126,-0.00012236,0.00024029,0.000
 36144,-0.00003826,0.00069491,-0.00085081,-0.00013144,0.00015283,-0.000
 14910,-0.00001159,-0.00034533,0.00049891,-0.00004932,0.00015932,0.0001
 1152,0.00001232,0.00010608,-0.00003725,-0.00004307,-0.00004510,0.00007
 482,0.00000710,-0.00003952,-0.00001049,-0.00022518,0.00027645,0.000147
 86,0.00000505,-0.00002584,0.00003286,0.00020535,-0.00006605,0.00008610
 ,-0.00000441,-0.00010963,-0.00006109,-0.00016099,0.00028576,0.00026879
 ,-0.00001383,-0.00007321,-0.00004383,0.00013413,0.00002366,-0.00019769
 ,0.00002574,-0.00016399,-0.00007827,0.00000924,-0.00002358,-0.00000611
 ,0.00001592,-0.00002969,-0.00000428,-0.00003684,-0.00000024,0.00001324
 ,0.00000026,0.00001685,0.00001455,0.00003796,-0.00002776,-0.00003308,-
 0.00000028,0.00001233,0.00000459,-0.00001164,0.00000580,0.00001335,0.0
 0000231,-0.00003275,-0.00001198,-0.00000300,-0.00002310,0.00002909,0.0
 0000241,-0.00001902,-0.00000047,0.00000301,0.00000767,-0.00000976,-0.0
 0001011,0.00001376,0.00001557,0.00002885,-0.00003224,0.00002980,-0.000
 00569,-0.00000184,-0.00001398,0.00000067,0.00000575,-0.00000719,-0.000
 00574,-0.00001436,0.00001754,-0.00000149,-0.00000894,-0.00003887,0.000
 00738,-0.00000971,0.00003668,-0.00001099,-0.00000358,0.00001270,-0.000
 00191,-0.00000705,-0.00001186,0.00000607,-0.00001283,0.00000196,-0.000
 02307,-0.00000033,0.00001406,0.00000731,0.00001257,-0.00000189,0.00000
 535,-0.00001048,0.00000253,0.00003863,-0.00015791,-0.00009474,-0.00013
 704,0.00006561,0.00003713,0.00011125,-0.00006824,-0.00006792,0.0000243
 3,-0.00001419,-0.00000301,0.00000385,0.00000216,-0.00000805,0.00000462
 ,-0.00000162,0.00001032,-0.00016310,0.00000317,0.00025049,-0.00000403,
 0.00001684,0.00002162,-0.00005446,-0.00004843,-0.00000909,0.00015581,-
 0.00009333,-0.00004571,0.00000929,0.00007950,0.00003804,0.00001738,-0.
 00000871,-0.00001098,-0.00000758,0.00000550,0.00000087,-0.00000077,-0.
 00002556,0.00000811,-0.00000563,-0.00000258,0.00000872,-0.00000702,-0.
 00000041,-0.00001203,-0.00000403,-0.00000091,-0.00000286,-0.00000929,0
 .00001209,0.00000518,0.00000668,-0.00000016,-0.00000679,0.00000046,-0.
 00000300,0.00000451,-0.00000175,-0.00001119,-0.00000497,-0.00000192,-0
 .00000071,-0.00000282,0.00000017,-0.00000003,-0.00000004,-0.00000047,0
 .00000871,0.00000409,0.00000031,-0.00000178,-0.00000457,-0.00000202,-0
 .00000565,-0.00000004,0.00001254,0.00000434,0.00000407,-0.00035562,0.0
 0029949,-0.00013834,0.00007731,-0.00009231,-0.00000650,0.00009026,-0.0
 0016794,0.00012147,0.00011838,-0.00002313,0.00003872,0.09593693,0.0393
 5048,-0.18630666,0.01355862,0.03493269,-0.00622189,-0.14440302,-0.0816
 4622,0.28308120,0.00025719,0.00002083,0.00014911,-0.00012795,-0.000103
 02,-0.00006837,-0.00024968,0.00028689,0.00010652,0.00025204,-0.0000434
 2,0.00000246,-0.00036050,0.00019655,-0.00010114,0.00052169,-0.00057591
 ,-0.00028807,-0.00081853,-0.00075468,-0.00087416,-0.02325492,-0.013606
 57,-0.04171284,-0.00343737,0.00685850,0.00116071,-0.00234865,-0.000878
 67,-0.00018485,-0.00004845,-0.00003417,0.00000524,-0.00002384,-0.00000
 353,-0.00001336,0.00010033,0.00003429,0.00008457,-0.00251263,0.0008955
 9,-0.00142114,0.00054937,0.00003093,-0.00012960,-0.00069616,0.00025986
 ,0.00002159,-0.00025898,0.00016268,-0.00011166,-0.00040640,-0.00082263
 ,-0.00008780,0.00058432,0.00030517,0.00047801,0.00102906,0.00011980,-0
 .00018164,0.00161728,-0.00025578,0.00103181,0.00023430,0.00051134,-0.0
 0001731,-0.00158329,0.00005855,-0.00114738,-0.00130912,-0.00034322,0.0
 0024473,-0.00019651,-0.00084381,0.00001845,0.00002071,0.00045722,-0.00
 012299,0.00058094,0.00013173,-0.00027649,-0.00028136,-0.00011721,-0.00
 004233,-0.00044864,0.00003117,0.00022523,0.00003877,-0.00014927,0.0000
 1179,-0.00005993,-0.00023510,0.00007379,-0.00096961,-0.00009783,-0.000
 21505,-0.00025394,0.00034533,-0.00018824,0.00084449,-0.00003158,0.0005
 8126,0.00011006,0.00007674,0.00000361,0.00002823,-0.00006854,0.0000342
 7,0.00009622,0.00015484,0.00003000,-0.00017405,-0.00004573,-0.00018651
 ,0.00011010,-0.00003862,-0.00006457,0.00000503,-0.00006219,0.00001398,
 0.00001930,0.00003972,0.00003899,0.00001022,0.00003827,-0.00001858,0.0
 0009610,-0.00001915,0.00009741,-0.00019709,-0.00005981,0.00002023,0.00
 006013,-0.00002999,0.00008543,0.00003483,0.00003639,-0.00011167,0.0000
 3289,0.00005638,0.00002704,-0.00001427,0.00002846,-0.00001418,0.000021
 23,0.00000082,-0.00004163,0.00001287,-0.00000869,0.00003280,-0.0002131
 1,0.00059119,0.00027036,0.00004122,-0.00006399,-0.00008822,0.00025396,
 -0.00011758,0.00038883,0.00005721,-0.00013745,-0.00001613,0.00002732,0
 .00066336,0.00035827,0.00007893,-0.00005170,-0.00005759,-0.00040754,-0
 .00150998,-0.00061395,-0.00004278,-0.00016710,-0.00008028,0.00006477,-
 0.00013825,0.00002232,0.00002601,-0.00005121,-0.00003983,-0.00003317,0
 .00004231,-0.00002400,0.00002770,0.00002677,0.00007322,0.00004949,-0.0
 0003279,0.00002265,0.00004182,0.00002900,0.00005150,-0.00001624,0.0000
 5523,-0.00002209,0.00002072,-0.00003402,-0.00004158,0.00000055,0.00002
 561,-0.00001417,-0.00000055,0.00002742,-0.00000537,0.00000578,-0.00001
 207,0.00001314,-0.00000440,-0.00001395,-0.00000206,0.00000462,0.000030
 43,-0.00001475,-0.00001249,-0.00001862,0.00000744,0.00001337,-0.000011
 94,0.00001670,0.00000363,0.00002795,-0.00001769,-0.00000661,0.00001091
 ,0.00001185,-0.00001011,-0.00000290,-0.00001010,0.00000326,0.00001215,
 -0.00000839,0.00001926,0.00000946,0.00001350,-0.00003675,0.00002240,-0
 .00000191,0.00000675,-0.00000403,-0.00002197,0.00002198,0.00000501,0.0
 0000669,-0.00000661,0.00001863,0.00001132,-0.00012578,0.00019450,0.000
 07773,0.00017241,-0.00008722,-0.00010928,-0.00012661,0.00004200,0.0002
 4050,-0.00002477,0.00004709,-0.00001929,-0.00001175,-0.00000118,0.0000
 3016,-0.00001023,-0.00000855,-0.00002636,0.00031517,-0.00006380,-0.000
 69531,-0.00005044,-0.00002048,0.00018422,0.00000885,-0.00001496,0.0000
 1233,-0.00031922,0.00007402,0.00025372,-0.00003459,-0.00011821,-0.0001
 5093,-0.00003555,0.00001048,0.00001921,0.00002771,0.00000088,0.0000170
 7,0.00000757,0.00003020,0.00001299,0.00000928,0.00000930,-0.00004435,0
 .00001549,0.00000349,0.00004124,-0.00000007,-0.00000736,0.00000817,0.0
 0001547,-0.00001069,-0.00001068,-0.00001701,0.00000241,0.00002356,0.00
 000433,-0.00000407,-0.00000855,0.00000726,0.00002014,-0.00001207,0.000
 00099,0.00000272,0.00001999,-0.00000129,-0.00000639,0.00000149,0.00000
 215,-0.00001128,-0.00000602,-0.00000345,0.00000378,0.00001391,0.000003
 82,0.00000346,-0.00000124,-0.00001614,-0.00000463,-0.00000759,0.000709
 76,-0.00049688,0.00005755,-0.00016644,0.00019873,0.00010251,-0.0001742
 5,0.00024482,-0.00013118,-0.00023722,0.00002761,-0.00003984,-0.1514245
 2,-0.02566503,-0.09999473,0.00805295,-0.01969958,-0.00871017,0.0213883
 8,0.00390268,0.01462912,0.15482391,0.00001839,0.00015088,0.00004709,-0
 .00001516,0.00001476,0.00000185,0.00000762,-0.00000715,-0.00000498,0.0
 0000886,0.00003747,0.00001577,0.00007439,-0.00003866,0.00000419,0.0003
 1137,0.00010480,0.00023110,0.00033672,-0.00333075,-0.00086038,0.003032
 32,0.01028070,0.00219428,0.00086082,-0.00077798,-0.00073748,0.00049221
 ,0.00030243,0.00055447,-0.00001448,-0.00000823,-0.00000091,0.00000592,
 -0.00000304,0.00000024,-0.00000579,0.00000108,0.00000948,0.00136454,0.
 00063873,0.00145262,0.00051987,0.00018254,0.00036280,0.00005982,-0.000
 08492,0.00006873,-0.00000715,0.00003637,0.00002338,0.00011658,0.000799
 66,0.00095471,0.00014434,-0.00006515,0.00003945,0.00026287,-0.00016997
 ,0.00013810,0.00038192,-0.00041209,0.00008077,0.00004800,-0.00011101,0
 .00002562,-0.00057594,0.00047395,-0.00021027,-0.00041561,0.00010986,-0
 .00017043,-0.00008457,0.00016804,-0.00010859,0.00008163,-0.00010536,0.
 00006028,0.00011580,0.00000551,0.00019061,-0.00002662,-0.00005506,-0.0
 0009947,-0.00005110,0.00011903,-0.00012146,-0.00003374,0.00007035,-0.0
 0000943,-0.00000143,0.00004664,-0.00001967,-0.00000448,0.00031605,0.00
 025407,-0.00001797,0.00009773,0.00005820,0.00010692,-0.00025487,-0.000
 02060,0.00000876,0.00007054,0.00002180,0.00000135,-0.00007923,0.000075
 15,0.00006453,0.00009893,-0.00001491,0.00000245,-0.00011648,-0.0002475
 8,0.00003667,-0.00002742,-0.00000032,0.00000584,-0.00002010,0.00000088
 ,0.00000964,0.00002129,0.00000630,-0.00001079,-0.00000419,0.00001371,0
 .00002682,0.00006480,0.00000344,-0.00004657,-0.00005140,-0.00005867,0.
 00002695,-0.00001084,0.00002258,-0.00002179,-0.00002396,0.00001327,0.0
 0001982,0.00001621,0.00001152,-0.00000422,0.00000185,-0.00000531,-0.00
 000975,-0.00000236,-0.00000548,0.00001697,-0.00000333,0.00001490,-0.00
 016548,0.00020883,0.00000818,0.00003608,-0.00003910,-0.00004033,0.0001
 9207,0.00040792,0.00081192,0.00000267,-0.00007427,-0.00004852,0.000228
 76,-0.00057539,-0.00041649,-0.00006209,0.00007697,-0.00000248,-0.00123
 791,-0.00311879,-0.00077763,-0.00000154,0.00011041,0.00007811,0.000016
 18,-0.00004252,-0.00000751,0.00001484,-0.00002605,-0.00001027,-0.00001
 873,0.00000838,0.00001132,-0.00000486,0.00001106,0.00000599,0.00002428
 ,-0.00002995,-0.00001412,0.00000003,0.00001159,0.00000554,-0.00000205,
 0.00001880,0.00000270,0.00000436,-0.00003029,-0.00001014,0.00000204,-0
 .00000240,0.00000277,-0.00000069,-0.00000577,0.,0.00000579,0.00000282,
 0.00000364,-0.00000266,0.00000091,-0.00000226,-0.00000502,-0.00000374,
 0.00000428,0.00000095,0.00000334,-0.00000668,0.00000533,0.00000355,0.0
 0000056,-0.00000179,-0.00000736,0.00000343,-0.00000086,-0.00000740,0.0
 0000408,-0.00000426,0.00000590,-0.00000463,0.00000595,-0.00000951,-0.0
 0000008,-0.00000007,0.00000759,0.00000198,0.00000004,-0.00000787,-0.00
 000437,-0.00000630,0.00000335,0.00000111,0.00000405,0.00000960,0.00000
 314,0.00000513,-0.00001154,0.00000096,-0.00000890,-0.00002992,-0.00000
 212,-0.00010942,-0.00014371,-0.00009088,0.00003653,0.00010987,0.000049
 96,0.00001037,-0.00000114,0.00000278,0.00000431,-0.00000229,-0.0000012
 5,0.00000260,0.00000420,-0.00000112,-0.00008108,-0.00000155,-0.0000227
 1,-0.00000707,0.00000066,0.00001938,-0.00001017,-0.00000771,0.00000276
 ,0.00013164,0.00005467,0.00003078,0.00000310,-0.00000640,-0.00000450,0
 .00001032,0.00000195,-0.00000670,-0.00000343,0.00000175,0.00001234,-0.
 00000632,0.00000905,-0.00000257,-0.00000214,-0.00001431,0.00000016,-0.
 00000150,-0.00000024,-0.00000005,0.00000129,0.00000534,-0.00000275,-0.
 00000149,0.00000635,0.00000500,0.00000138,-0.00000091,-0.00000158,-0.0
 0000105,0.00000322,-0.00000020,0.00000015,-0.00000971,-0.00000066,-0.0
 0000048,-0.00000124,-0.00000013,0.00000062,0.00000449,-0.00000237,0.00
 000083,0.00000298,0.00000204,-0.00000034,-0.00000133,-0.00000148,-0.00
 000131,0.00000083,-0.00000092,0.00000537,0.00000109,0.00000215,-0.0000
 7705,0.00000475,-0.00002045,0.00001674,-0.00000002,0.00000614,0.000016
 37,-0.00000802,0.00001065,0.00004208,0.00000935,0.00000838,-0.02908323
 ,-0.09306767,-0.04847145,-0.03071574,-0.04509991,-0.05117324,0.0033063
 7,0.01468558,0.00357296,0.05026286,0.11812420,0.00024685,0.00011088,0.
 00012443,-0.00006988,-0.00003479,-0.00002334,-0.00012809,0.00014260,0.
 00005522,0.00013331,-0.00000383,0.00003789,-0.00016226,0.00005890,-0.0
 0004635,0.00078602,0.00014491,0.00028895,0.00067219,-0.00391214,-0.001
 85410,-0.01605873,-0.00843982,-0.01454448,-0.00311593,0.00328091,0.001
 31619,-0.00037300,-0.00077538,-0.00057314,-0.00002937,-0.00001817,-0.0
 0000874,-0.00000506,-0.00000339,-0.00001245,0.00007384,0.00004253,0.00
 002353,-0.00073168,0.00198730,0.00008995,0.00055034,0.00018730,0.00018
 740,-0.00034577,0.00021470,-0.00007785,-0.00010019,0.00018250,0.000023
 36,-0.00069306,0.00052021,0.00063389,0.00031451,0.00002315,0.00059019,
 0.00026315,0.00007582,0.00045731,0.00169254,-0.00101606,0.00104696,0.0
 0010169,0.00017733,0.00009961,-0.00183778,0.00074606,-0.00134268,-0.00
 047451,-0.00014816,-0.00060972,-0.00009938,-0.00023883,-0.00021010,0.0
 0006008,0.00011094,0.00004107,0.00000465,0.00022978,0.00047902,0.00006
 550,-0.00036167,-0.00027981,0.00016788,0.00002488,-0.00029838,0.000012
 90,-0.00004553,-0.00002448,-0.00002156,-0.00006907,-0.00002090,-0.0005
 7229,0.00026443,-0.00012520,-0.00023708,0.00040172,-0.00008596,0.00076
 554,-0.00042507,0.00047664,-0.00021373,-0.00024332,0.00010154,-0.00000
 008,-0.00005961,0.00007207,0.00012510,0.00022581,-0.00000200,0.0000061
 8,-0.00032195,-0.00021157,-0.00009313,0.00001483,0.00002558,0.00000242
 ,0.00002803,-0.00000984,0.00005547,0.00003672,0.00002514,-0.00000352,-
 0.00001367,0.00001606,0.00003230,0.00012103,0.00019496,0.00013714,-0.0
 0009721,-0.00020787,-0.00000776,0.00004437,-0.00000557,-0.00003160,-0.
 00008520,0.00013299,0.00000822,0.00012046,0.00007326,-0.00000562,0.000
 07243,-0.00002902,-0.00001015,-0.00002232,0.00000593,0.00001869,-0.000
 02605,0.00002355,-0.00052739,0.00084162,0.00025586,0.00004712,-0.00008
 696,-0.00005163,0.00056743,0.00011148,0.00073856,0.00005496,-0.0002699
 5,-0.00010066,-0.00013286,0.00074124,0.00055450,0.00003773,-0.00011431
 ,-0.00009215,-0.00009265,-0.00101518,-0.00084408,-0.00002314,-0.000265
 99,-0.00011185,0.00006916,-0.00014413,0.00001070,0.00003813,-0.0000782
 8,-0.00003817,-0.00006715,0.00004023,-0.00000458,0.00002222,0.00004056
 ,0.00007608,0.00008155,-0.00006258,-0.00000701,0.00003505,0.00003988,0
 .00004675,-0.00002169,0.00005623,-0.00000619,0.00001984,-0.00006570,-0
 .00004730,0.00000001,0.00000605,0.00000570,0.00000053,0.00000813,-0.00
 000445,0.00000942,-0.00000372,0.00000708,-0.00001067,-0.00000260,0.000
 00617,0.00001738,0.00000543,0.00000667,-0.00001238,-0.00001382,-0.0000
 0460,0.00001348,-0.00000378,0.00000995,-0.00000114,0.00001030,-0.00000
 263,-0.00000700,0.00000023,-0.00001036,-0.00000574,-0.00000480,0.00001
 146,-0.00000050,0.00000287,0.00000058,0.00001472,0.00000763,0.00000426
 ,-0.00002707,0.00000699,-0.00000318,-0.00001241,-0.00000130,-0.0000107
 8,0.00002532,0.00001771,0.00000551,0.00000083,0.00000271,0.00001171,-0
 .00009106,0.00009308,0.00001380,-0.00001623,-0.00011622,-0.00012791,-0
 .00000975,0.00005079,0.00020129,0.00000258,0.00003032,-0.00001819,-0.0
 0000504,-0.00000049,0.00002031,-0.00000279,-0.00000674,-0.00001686,0.0
 0010821,-0.00002291,-0.00043803,-0.00004755,0.00000902,0.00019413,-0.0
 0005015,-0.00005615,-0.00001762,-0.00008517,0.00002000,0.00021484,-0.0
 0001888,-0.00005040,-0.00010067,-0.00001225,0.00000258,0.00000496,0.00
 001598,0.00000749,0.00002109,0.00000471,0.00000951,0.00001228,0.000003
 41,-0.00000246,-0.00003454,0.00000786,0.00000274,0.00002886,-0.0000026
 7,-0.00000443,0.00000415,0.00000633,0.00000300,-0.00000210,-0.00000978
 ,0.00000158,0.00001497,0.00000375,-0.00000408,-0.00000448,0.00000533,0
 .00000423,-0.00001443,-0.00000052,0.00000126,0.00001539,-0.00000076,-0
 .00000316,-0.00000003,0.00000206,-0.00000207,-0.00000107,-0.00000305,0
 .00000132,0.00000793,0.00000123,-0.00000044,-0.00000156,-0.00000234,-0
 .00000045,-0.00000249,0.00035201,-0.00023388,-0.00005865,-0.00008401,0
 .00011101,0.00008739,-0.00008711,0.00010544,-0.00003426,-0.00010652,0.
 00001400,-0.00000461,-0.10395361,-0.04499522,-0.22486810,-0.01120158,-
 0.03751827,-0.00885275,-0.00278797,-0.00270756,-0.08513499,0.13707694,
 0.09222203,0.33244089\\-0.00000486,-0.00000085,0.00000165,0.00000181,-
 0.00000340,-0.00000062,-0.00000522,0.00000206,-0.00000341,-0.00000026,
 -0.00000467,0.00000067,0.00000724,-0.00000072,0.00000211,0.00000794,0.
 00000490,0.00000735,-0.00000152,-0.00000862,-0.00000003,-0.00000196,0.
 00001455,0.00000664,0.00000909,-0.00000390,-0.00000442,-0.00001377,0.0
 0000062,-0.00000493,0.00000171,0.00000113,0.00000077,0.00000088,-0.000
 00022,0.00000121,-0.00000277,0.00000195,-0.00000206,-0.00000220,-0.000
 00037,-0.00000052,-0.00000063,0.00000053,0.00000175,0.00000450,-0.0000
 0064,0.00000410,-0.00000160,0.00000507,0.00000428,-0.00000043,-0.00000
 541,-0.00001116,-0.00001291,0.00001744,0.00002207,0.00000446,-0.000001
 99,0.00000703,0.00000242,-0.00000184,0.00000332,0.00000082,-0.00000466
 ,0.00000997,-0.00001043,0.00001726,-0.00000002,-0.00000967,-0.00000196
 ,-0.00001051,0.00000301,-0.00000452,-0.00001618,0.00000479,-0.00000317
 ,0.00000560,0.00001165,-0.00000441,-0.00000596,-0.00001033,0.00000037,
 0.00000213,-0.00000060,0.00000496,-0.00000471,0.00000639,0.00000868,0.
 00000533,-0.00000267,0.00000010,-0.00000878,0.00000288,-0.00001430,0.0
 0000154,-0.00000373,0.00000759,-0.00000064,-0.00000107,-0.00000922,-0.
 00000970,0.00000495,-0.00000098,0.00000524,-0.00000216,-0.00000057,0.0
 0000276,-0.00000129,-0.00000224,-0.00000266,0.00000076,-0.00000021,-0.
 00000032,0.00000073,-0.00000102,0.00000178,0.00000051,-0.00000276,0.00
 000071,0.00000026,0.,-0.00000400,0.00000057,-0.00000324,0.00000497,0.0
 0000202,-0.00000707,0.00000247,0.00000228,-0.00000373,0.00000142,-0.00
 000027,0.00000042,-0.00000036,-0.00000242,-0.00000101,0.00000140,0.000
 00278,-0.00000021,-0.00000102,0.00000106,-0.00000168,0.00000164,-0.000
 00063,-0.00000103,0.00000092,-0.00000042,-0.00000123,-0.00000121,-0.00
 000009,0.00000398,0.00000457,0.00000026,0.00000120,-0.00000046,-0.0000
 0200,0.00000067,-0.00000096,-0.00000216,-0.00000109,-0.00000041,0.0000
 0377,0.00001036,0.00000220,-0.00000162,-0.00000124,0.00000029,-0.00000
 071,-0.00000072,0.00000181,0.00000151,-0.00000327,0.00000226,-0.000006
 28,0.00000016,0.00000175,0.00000323,-0.00000292,-0.00000257,0.00000182
 ,0.00000171,0.00000101,0.00000183,-0.00000131,0.00000111,0.00001054,-0
 .00000454,-0.00000337,-0.00000204,-0.00000021,-0.00000159,-0.00000184,
 -0.00000237,0.00000351,-0.00000303,0.00000402,0.00000171,0.00000326,0.
 00000089,0.00000059,0.00000164,-0.00000063,-0.00000138,-0.00000004,-0.
 00000043,-0.00000106,-0.00000002,0.00000073,0.00000036,0.00000065,-0.0
 0000057,-0.00000064,0.00000408,-0.00000194,0.00000193,0.00000002,0.000
 00046,-0.00000011,0.00000005,0.00000078,-0.00000197,-0.00000158,-0.000
 00069,-0.00000549,-0.00000082,-0.00000193,-0.00000017,0.00000090,-0.00
 000032,-0.00000075,0.00000222,0.00000017,0.00000128,-0.00001091,-0.000
 00004,0.00000205,0.00000564,0.00000252,-0.00000351,0.00000232,0.000000
 24,-0.00000069,0.00000267,-0.00000184,-0.00000159,0.00000001,-0.000003
 12,-0.00000202,0.00001004,-0.00000084,0.00000894,-0.00000325,-0.000001
 63,-0.00000154,0.00000481,0.00001335,-0.00001136,0.00000021,-0.0000021
 6,0.00000661,-0.00000146,-0.00000151,0.00000325,0.00000798,-0.00001882
 ,-0.00000413,0.00000266,0.00000053,-0.00000264,-0.00000154,0.00000241,
 0.00000512,-0.00002116,0.00001317,-0.00001232,0.00000661,-0.00000125,0
 .00000065,-0.00000488,-0.00000235,-0.00000175,-0.00000122,0.00000174,-
 0.00000096,0.00000070,0.00000022,0.00000079,0.00000017,-0.00000129,-0.
 00000535,0.00000104,0.00000018,0.00001048,-0.00000208,-0.00000154,-0.0
 0000002,-0.00000322,0.00000197,-0.00000199,0.00000201,0.00000197,-0.00
 000086,-0.00000210,-0.00000090,0.00000115,0.00000439,0.00000193,-0.000
 00334,-0.00000112,0.00000140,-0.00000081,-0.00000007,0.00000194,0.0000
 0066,-0.00000051,0.00000053,0.00000563,-0.00000049,0.00000152,-0.00000
 449,-0.00000030,0.00000348,-0.00000149,-0.00000014,0.00000127,-0.00000
 076,0.00001255,-0.00000595,-0.00000428,-0.00000502,0.00000357,0.000007
 67,-0.00000276,0.00000164,-0.00000391,-0.00000137,0.00000579,-0.000003
 30,-0.00000312,-0.00000206,0.00000012,-0.00000001,-0.00000458,0.000003
 17,-0.00000325,0.00000085,-0.00000504,0.00000094,0.00000097,0.00000080
 \\\@
 The archive entry for this job was punched.


 WHEN ALL ELSE FAILS, TRY THE BOSS'S SUGGESTION.
 Job cpu time:       1 days 22 hours 51 minutes 59.4 seconds.
 Elapsed time:       0 days  2 hours 59 minutes 28.4 seconds.
 File lengths (MBytes):  RWF=  11754 Int=      0 D2E=      0 Chk=     62 Scr=      1
 Normal termination of Gaussian 16 at Sat Dec  7 21:47:06 2024.
