/mnt/lustre/scratch/nvme/SLURM/9663598/usccqdma.e1mClgWTWj
OMP_STACKSIZE=0m
GAUSS_PDEF=16
GAUSS_MDEF=65536MB
GAUSS_RDEF=SCF=Direct
 Entering Gaussian System, Link 0=g16.exe
 Initial command:
 /opt/cesga/2020/software/Core/g16/c1/l1.exe "/mnt/lustre/scratch/nvme/SLURM/9663598/usccqdma.e1mClgWTWj/Gau-1176331.inp" -scrdir="/mnt/lustre/scratch/nvme/SLURM/9663598/usccqdma.e1mClgWTWj/"
 Default is to use a total of  16 processors:
                               16 via shared-memory
                                1 via Linda
 Entering Link 1 = /opt/cesga/2020/software/Core/g16/c1/l1.exe PID=   1176357.
  
 Copyright (c) 1988-2019, Gaussian, Inc.  All Rights Reserved.
  
 This is part of the Gaussian(R) 16 program.  It is based on
 the Gaussian(R) 09 system (copyright 2009, Gaussian, Inc.),
 the Gaussian(R) 03 system (copyright 2003, Gaussian, Inc.),
 the Gaussian(R) 98 system (copyright 1998, Gaussian, Inc.),
 the Gaussian(R) 94 system (copyright 1995, Gaussian, Inc.),
 the Gaussian 92(TM) system (copyright 1992, Gaussian, Inc.),
 the Gaussian 90(TM) system (copyright 1990, Gaussian, Inc.),
 the Gaussian 88(TM) system (copyright 1988, Gaussian, Inc.),
 the Gaussian 86(TM) system (copyright 1986, Carnegie Mellon
 University), and the Gaussian 82(TM) system (copyright 1983,
 Carnegie Mellon University). Gaussian is a federally registered
 trademark of Gaussian, Inc.
  
 This software contains proprietary and confidential information,
 including trade secrets, belonging to Gaussian, Inc.
  
 This software is provided under written license and may be
 used, copied, transmitted, or stored only in accord with that
 written license.
  
 The following legend is applicable only to US Government
 contracts under FAR:
  
                    RESTRICTED RIGHTS LEGEND
  
 Use, reproduction and disclosure by the US Government is
 subject to restrictions as set forth in subparagraphs (a)
 and (c) of the Commercial Computer Software - Restricted
 Rights clause in FAR 52.227-19.
  
 Gaussian, Inc.
 340 Quinnipiac St., Bldg. 40, Wallingford CT 06492
  
  
 ---------------------------------------------------------------
 Warning -- This program may not be used in any manner that
 competes with the business of Gaussian, Inc. or will provide
 assistance to any competitor of Gaussian, Inc.  The licensee
 of this program is prohibited from giving any competitor of
 Gaussian, Inc. access to this program.  By using this program,
 the user acknowledges that Gaussian, Inc. is engaged in the
 business of creating and licensing software in the field of
 computational chemistry and represents and warrants to the
 licensee that it is not a competitor of Gaussian, Inc. and that
 it will not use this program in any manner prohibited above.
 ---------------------------------------------------------------
  

 Cite this work as:
 Gaussian 16, Revision C.01,
 M. J. Frisch, G. W. Trucks, H. B. Schlegel, G. E. Scuseria, 
 M. A. Robb, J. R. Cheeseman, G. Scalmani, V. Barone, 
 G. A. Petersson, H. Nakatsuji, X. Li, M. Caricato, A. V. Marenich, 
 J. Bloino, B. G. Janesko, R. Gomperts, B. Mennucci, H. P. Hratchian, 
 J. V. Ortiz, A. F. Izmaylov, J. L. Sonnenberg, D. Williams-Young, 
 F. Ding, F. Lipparini, F. Egidi, J. Goings, B. Peng, A. Petrone, 
 T. Henderson, D. Ranasinghe, V. G. Zakrzewski, J. Gao, N. Rega, 
 G. Zheng, W. Liang, M. Hada, M. Ehara, K. Toyota, R. Fukuda, 
 J. Hasegawa, M. Ishida, T. Nakajima, Y. Honda, O. Kitao, H. Nakai, 
 T. Vreven, K. Throssell, J. A. Montgomery, Jr., J. E. Peralta, 
 F. Ogliaro, M. J. Bearpark, J. J. Heyd, E. N. Brothers, K. N. Kudin, 
 V. N. Staroverov, T. A. Keith, R. Kobayashi, J. Normand, 
 K. Raghavachari, A. P. Rendell, J. C. Burant, S. S. Iyengar, 
 J. Tomasi, M. Cossi, J. M. Millam, M. Klene, C. Adamo, R. Cammi, 
 J. W. Ochterski, R. L. Martin, K. Morokuma, O. Farkas, 
 J. B. Foresman, and D. J. Fox, Gaussian, Inc., Wallingford CT, 2019.
 
 ******************************************
 Gaussian 16:  ES64L-G16RevC.01  3-Jul-2019
                 7-Dec-2024 
 ******************************************
 Default route: SCF=Direct
 ----------------------------------------------------
 # m06/genecp scf=tight int=ultrafine 5d freq=noraman
 ----------------------------------------------------
 1/10=4,30=1,38=1/1,3;
 2/12=2,17=6,18=5,40=1/2;
 3/5=7,8=1,11=2,16=1,17=8,25=1,30=1,71=2,74=-54,75=-5,140=1/1,2,3;
 4//1;
 5/5=2,32=2,38=5,98=1/2;
 8/6=4,10=90,11=11/1;
 11/6=1,8=1,9=11,15=111,16=1/1,2,10;
 10/6=1/2;
 6/7=2,8=2,9=2,10=2,28=1/1;
 7/8=1,10=1,25=1/1,2,3,16;
 1/10=4,30=1/3;
 99//99;
 ------
 OPT-TS
 ------
 Symbolic Z-matrix:
 Charge =  0 Multiplicity = 1
 N                    -1.52559   1.89182  -0.36605 
 C                    -2.85066   1.76955  -0.43803 
 C                    -3.69316   2.87374  -0.41497 
 C                    -3.13684   4.1458   -0.32925 
 C                    -1.75706   4.27149  -0.28597 
 C                    -0.97069   3.12223  -0.30538 
 H                    -1.26067   5.2364   -0.22961 
 N                     1.07245   4.36006  -0.14182 
 C                     0.50063   3.15673  -0.2772 
 C                     1.20065   1.93603  -0.39208 
 C                     2.59304   2.04176  -0.41721 
 C                     3.19821   3.28036  -0.25549 
 C                     2.39726   4.4152   -0.11964 
 H                     0.711     0.81186  -1.49768 
 H                     3.19643   1.14541  -0.55664 
 Ir                   -0.04565   0.21159  -0.18974 
 B                     0.27371  -1.60451  -1.10093 
 O                     0.2603   -2.90597  -0.61584 
 O                     0.56652  -1.58152  -2.45118 
 C                     0.38357  -3.7982   -1.74473 
 C                     1.03117  -2.88802  -2.83024 
 C                    -1.01958  -4.25289  -2.11588 
 H                    -1.66251  -3.39575  -2.35805 
 H                    -1.46532  -4.77748  -1.26217 
 H                    -1.0079   -4.94281  -2.96973 
 C                     1.21881  -4.99291  -1.33186 
 H                     1.36922  -5.67491  -2.18097 
 H                     0.70302  -5.54768  -0.53725 
 H                     2.20191  -4.69198  -0.95134 
 C                     0.58258  -3.17092  -4.25023 
 H                    -0.49821  -3.04059  -4.37003 
 H                     0.85121  -4.19437  -4.54928 
 H                     1.08317  -2.47636  -4.93637 
 C                     2.5519   -2.85813  -2.76669 
 H                     2.99207  -3.80883  -3.09682 
 H                     2.90262  -2.6251   -1.75349 
 H                     2.91335  -2.06338  -3.43118 
 B                    -1.56279  -1.10858   0.45076 
 O                    -1.60934  -1.42778   1.79023 
 O                    -2.7457   -1.43301  -0.19214 
 C                    -2.98333  -1.70437   2.11824 
 C                    -3.56508  -2.16314   0.75143 
 C                    -3.59369  -0.40426   2.62665 
 C                    -3.0216   -2.74858   3.21571 
 H                    -4.05595  -3.05307   3.43111 
 H                    -2.59208  -2.33051   4.13462 
 H                    -2.44     -3.63708   2.94837 
 C                    -5.01796  -1.80455   0.51501 
 H                    -5.19264  -0.72284   0.55252 
 H                    -5.66243  -2.28367   1.26594 
 H                    -5.33033  -2.1612   -0.47462 
 C                    -3.34195  -3.64256   0.48698 
 H                    -3.96913  -4.2702    1.13382 
 H                    -2.2879   -3.90875   0.64268 
 H                    -3.5984   -3.86055  -0.55741 
 B                     1.54604  -0.76273   0.63745 
 O                     1.48482  -1.05068   1.98002 
 O                     2.7906   -1.05629   0.10493 
 C                     2.64414  -1.83902   2.30639 
 C                     3.65944  -1.40706   1.20576 
 C                     2.22162  -3.29778   2.20306 
 H                     1.89308  -3.54353   1.18519 
 H                     1.36386  -3.45583   2.86877 
 H                     3.02836  -3.98055   2.50253 
 C                     3.071    -1.52195   3.72477 
 H                     4.00047  -2.05138   3.97941 
 H                     2.29143  -1.85039   4.42321 
 H                     3.22605  -0.44811   3.87458 
 C                     4.60905  -2.49586   0.7506 
 H                     4.07259  -3.36911   0.36161 
 H                     5.24995  -2.82437   1.58119 
 H                     5.25782  -2.11222  -0.04755 
 C                     4.4465   -0.15719   1.57524 
 H                     5.17683  -0.36002   2.36948 
 H                     3.78451   0.65123   1.9139 
 H                     4.99882   0.2017    0.69608 
 H                    -3.23909   0.75112  -0.51091 
 H                    -3.60289   0.37446   1.85157 
 H                    -2.98743  -0.03585   3.46317 
 H                    -4.62388  -0.54602   2.97985 
 H                     2.84851   5.40137  -0.00578 
 H                    -3.77894   5.02337  -0.30235 
 C                     4.68773   3.37267  -0.15472 
 C                    -5.16934   2.62902  -0.41828 
 F                    -5.52615   1.81285  -1.4132 
 F                    -5.86355   3.76134  -0.53982 
 F                    -5.55408   2.03697   0.72332 
 F                     5.13992   4.58678  -0.48295 
 F                     5.09965   3.12161   1.09671 
 F                     5.29376   2.48151  -0.94757 
 

 GradGradGradGradGradGradGradGradGradGradGradGradGradGradGradGradGradGrad
 Berny optimization.
 Initialization pass.
 Trust Radius=3.00D-01 FncErr=1.00D-07 GrdErr=1.00D-07 EigMax=2.50D+02 EigMin=1.00D-04
 Number of steps in this run=      2 maximum allowed number of steps=      2.
 GradGradGradGradGradGradGradGradGradGradGradGradGradGradGradGradGradGrad

 Stoichiometry    C30H42B3F6IrN2O6
 Framework group  C1[X(C30H42B3F6IrN2O6)]
 Deg. of freedom   264
 Full point group                 C1      NOp   1
 Largest Abelian subgroup         C1      NOp   1
 Largest concise Abelian subgroup C1      NOp   1
                         Standard orientation:                         
 ---------------------------------------------------------------------
 Center     Atomic      Atomic             Coordinates (Angstroms)
 Number     Number       Type             X           Y           Z
 ---------------------------------------------------------------------
      1          7           0       -1.525591    1.891820   -0.366050
      2          6           0       -2.850661    1.769550   -0.438030
      3          6           0       -3.693162    2.873739   -0.414970
      4          6           0       -3.136842    4.145799   -0.329250
      5          6           0       -1.757062    4.271490   -0.285970
      6          6           0       -0.970692    3.122230   -0.305380
      7          1           0       -1.260673    5.236400   -0.229610
      8          7           0        1.072448    4.360061   -0.141820
      9          6           0        0.500628    3.156731   -0.277200
     10          6           0        1.200649    1.936032   -0.392080
     11          6           0        2.593039    2.041762   -0.417210
     12          6           0        3.198208    3.280363   -0.255490
     13          6           0        2.397258    4.415202   -0.119640
     14          1           0        0.710999    0.811861   -1.497680
     15          1           0        3.196429    1.145413   -0.556640
     16         77           0       -0.045650    0.211591   -0.189740
     17          5           0        0.273711   -1.604509   -1.100930
     18          8           0        0.260301   -2.905969   -0.615840
     19          8           0        0.566521   -1.581519   -2.451180
     20          6           0        0.383572   -3.798199   -1.744730
     21          6           0        1.031171   -2.888019   -2.830240
     22          6           0       -1.019578   -4.252890   -2.115880
     23          1           0       -1.662508   -3.395750   -2.358050
     24          1           0       -1.465318   -4.777480   -1.262170
     25          1           0       -1.007898   -4.942810   -2.969730
     26          6           0        1.218812   -4.992908   -1.331860
     27          1           0        1.369223   -5.674908   -2.180970
     28          1           0        0.703023   -5.547679   -0.537250
     29          1           0        2.201912   -4.691978   -0.951340
     30          6           0        0.582581   -3.170919   -4.250230
     31          1           0       -0.498209   -3.040589   -4.370030
     32          1           0        0.851212   -4.194369   -4.549280
     33          1           0        1.083171   -2.476359   -4.936370
     34          6           0        2.551901   -2.858128   -2.766690
     35          1           0        2.992072   -3.808828   -3.096820
     36          1           0        2.902621   -2.625098   -1.753490
     37          1           0        2.913351   -2.063378   -3.431180
     38          5           0       -1.562790   -1.108580    0.450760
     39          8           0       -1.609339   -1.427780    1.790230
     40          8           0       -2.745699   -1.433010   -0.192140
     41          6           0       -2.983329   -1.704371    2.118240
     42          6           0       -3.565079   -2.163141    0.751430
     43          6           0       -3.593690   -0.404261    2.626650
     44          6           0       -3.021599   -2.748581    3.215710
     45          1           0       -4.055949   -3.053071    3.431110
     46          1           0       -2.592079   -2.330510    4.134620
     47          1           0       -2.439998   -3.637080    2.948370
     48          6           0       -5.017959   -1.804552    0.515010
     49          1           0       -5.192640   -0.722842    0.552520
     50          1           0       -5.662429   -2.283672    1.265940
     51          1           0       -5.330329   -2.161202   -0.474620
     52          6           0       -3.341948   -3.642561    0.486980
     53          1           0       -3.969128   -4.270201    1.133820
     54          1           0       -2.287898   -3.908750    0.642680
     55          1           0       -3.598398   -3.860551   -0.557410
     56          5           0        1.546040   -0.762728    0.637450
     57          8           0        1.484820   -1.050678    1.980020
     58          8           0        2.790600   -1.056288    0.104930
     59          6           0        2.644141   -1.839018    2.306390
     60          6           0        3.659441   -1.407057    1.205760
     61          6           0        2.221621   -3.297778    2.203060
     62          1           0        1.893082   -3.543528    1.185190
     63          1           0        1.363862   -3.455828    2.868770
     64          1           0        3.028362   -3.980548    2.502530
     65          6           0        3.071001   -1.521948    3.724770
     66          1           0        4.000471   -2.051377    3.979410
     67          1           0        2.291431   -1.850388    4.423210
     68          1           0        3.226050   -0.448107    3.874580
     69          6           0        4.609051   -2.495857    0.750600
     70          1           0        4.072592   -3.369107    0.361610
     71          1           0        5.249951   -2.824366    1.581190
     72          1           0        5.257821   -2.112216   -0.047550
     73          6           0        4.446500   -0.157187    1.575240
     74          1           0        5.176830   -0.360017    2.369480
     75          1           0        3.784510    0.651233    1.913900
     76          1           0        4.998820    0.201703    0.696080
     77          1           0       -3.239091    0.751119   -0.510910
     78          1           0       -3.602890    0.374459    1.851570
     79          1           0       -2.987430   -0.035851    3.463170
     80          1           0       -4.623880   -0.546021    2.979850
     81          1           0        2.848507    5.401372   -0.005780
     82          1           0       -3.778943    5.023369   -0.302350
     83          6           0        4.687728    3.372673   -0.154720
     84          6           0       -5.169341    2.629018   -0.418280
     85          9           0       -5.526151    1.812848   -1.413200
     86          9           0       -5.863552    3.761338   -0.539820
     87          9           0       -5.554081    2.036968    0.723320
     88          9           0        5.139918    4.586783   -0.482950
     89          9           0        5.099648    3.121613    1.096710
     90          9           0        5.293759    2.481514   -0.947570
 ---------------------------------------------------------------------
 Rotational constants (GHZ):           0.0710346           0.0543424           0.0391424
 General basis read from cards:  (5D, 7F)
 ======================================================================================================
                                       Pseudopotential Parameters
 ======================================================================================================
  Center     Atomic      Valence      Angular      Power
  Number     Number     Electrons     Momentum     of R      Exponent        Coefficient   SO-Coeffient
 ======================================================================================================
    1          7
                                   No pseudopotential on this center.
    2          6
                                   No pseudopotential on this center.
    3          6
                                   No pseudopotential on this center.
    4          6
                                   No pseudopotential on this center.
    5          6
                                   No pseudopotential on this center.
    6          6
                                   No pseudopotential on this center.
    7          1
                                   No pseudopotential on this center.
    8          7
                                   No pseudopotential on this center.
    9          6
                                   No pseudopotential on this center.
   10          6
                                   No pseudopotential on this center.
   11          6
                                   No pseudopotential on this center.
   12          6
                                   No pseudopotential on this center.
   13          6
                                   No pseudopotential on this center.
   14          1
                                   No pseudopotential on this center.
   15          1
                                   No pseudopotential on this center.
   16         77           17
                                      G and up 
                                                     1      823.5880147       -0.15780140    0.00000000
                                                     2      364.6613336    -1517.52704460    0.00000000
                                                     2       55.7082801     -316.53065290    0.00000000
                                                     2       12.0464544      -91.88809410    0.00000000
                                                     2        3.5120610       -9.22417730    0.00000000
                                      S - G
                                                     0      188.0490770        3.15780140    0.00000000
                                                     1      340.4194712       26.83225770    0.00000000
                                                     2      128.2373673      800.42500070    0.00000000
                                                     2       33.8644961      369.40506830    0.00000000
                                                     2        4.7560005      242.41718990    0.00000000
                                                     2        3.9649974     -118.21732820    0.00000000
                                      P - G
                                                     0      289.7291139        2.15780140    0.00000000
                                                     1       87.4633789       61.96786100    0.00000000
                                                     2       30.4363766      269.05819860    0.00000000
                                                     2        4.0553412      231.16547930    0.00000000
                                                     2        3.5525341     -133.69526670    0.00000000
                                      D - G
                                                     0      136.4017106        3.15780140    0.00000000
                                                     1       95.0776925       45.93498030    0.00000000
                                                     2       49.2258410      359.03446680    0.00000000
                                                     2       15.0874145      176.47401190    0.00000000
                                                     2        4.0405764       54.51552860    0.00000000
                                      F - G
                                                     0      127.3507908        3.95461970    0.00000000
                                                     1       66.2364374       52.97736550    0.00000000
                                                     2       34.4299229      274.86433830    0.00000000
                                                     2       10.1995721      137.20473380    0.00000000
                                                     2        2.5409702       14.86333050    0.00000000
   17          5
                                   No pseudopotential on this center.
   18          8
                                   No pseudopotential on this center.
   19          8
                                   No pseudopotential on this center.
   20          6
                                   No pseudopotential on this center.
   21          6
                                   No pseudopotential on this center.
   22          6
                                   No pseudopotential on this center.
   23          1
                                   No pseudopotential on this center.
   24          1
                                   No pseudopotential on this center.
   25          1
                                   No pseudopotential on this center.
   26          6
                                   No pseudopotential on this center.
   27          1
                                   No pseudopotential on this center.
   28          1
                                   No pseudopotential on this center.
   29          1
                                   No pseudopotential on this center.
   30          6
                                   No pseudopotential on this center.
   31          1
                                   No pseudopotential on this center.
   32          1
                                   No pseudopotential on this center.
   33          1
                                   No pseudopotential on this center.
   34          6
                                   No pseudopotential on this center.
   35          1
                                   No pseudopotential on this center.
   36          1
                                   No pseudopotential on this center.
   37          1
                                   No pseudopotential on this center.
   38          5
                                   No pseudopotential on this center.
   39          8
                                   No pseudopotential on this center.
   40          8
                                   No pseudopotential on this center.
   41          6
                                   No pseudopotential on this center.
   42          6
                                   No pseudopotential on this center.
   43          6
                                   No pseudopotential on this center.
   44          6
                                   No pseudopotential on this center.
   45          1
                                   No pseudopotential on this center.
   46          1
                                   No pseudopotential on this center.
   47          1
                                   No pseudopotential on this center.
   48          6
                                   No pseudopotential on this center.
   49          1
                                   No pseudopotential on this center.
   50          1
                                   No pseudopotential on this center.
   51          1
                                   No pseudopotential on this center.
   52          6
                                   No pseudopotential on this center.
   53          1
                                   No pseudopotential on this center.
   54          1
                                   No pseudopotential on this center.
   55          1
                                   No pseudopotential on this center.
   56          5
                                   No pseudopotential on this center.
   57          8
                                   No pseudopotential on this center.
   58          8
                                   No pseudopotential on this center.
   59          6
                                   No pseudopotential on this center.
   60          6
                                   No pseudopotential on this center.
   61          6
                                   No pseudopotential on this center.
   62          1
                                   No pseudopotential on this center.
   63          1
                                   No pseudopotential on this center.
   64          1
                                   No pseudopotential on this center.
   65          6
                                   No pseudopotential on this center.
   66          1
                                   No pseudopotential on this center.
   67          1
                                   No pseudopotential on this center.
   68          1
                                   No pseudopotential on this center.
   69          6
                                   No pseudopotential on this center.
   70          1
                                   No pseudopotential on this center.
   71          1
                                   No pseudopotential on this center.
   72          1
                                   No pseudopotential on this center.
   73          6
                                   No pseudopotential on this center.
   74          1
                                   No pseudopotential on this center.
   75          1
                                   No pseudopotential on this center.
   76          1
                                   No pseudopotential on this center.
   77          1
                                   No pseudopotential on this center.
   78          1
                                   No pseudopotential on this center.
   79          1
                                   No pseudopotential on this center.
   80          1
                                   No pseudopotential on this center.
   81          1
                                   No pseudopotential on this center.
   82          1
                                   No pseudopotential on this center.
   83          6
                                   No pseudopotential on this center.
   84          6
                                   No pseudopotential on this center.
   85          9
                                   No pseudopotential on this center.
   86          9
                                   No pseudopotential on this center.
   87          9
                                   No pseudopotential on this center.
   88          9
                                   No pseudopotential on this center.
   89          9
                                   No pseudopotential on this center.
   90          9
                                   No pseudopotential on this center.
 ======================================================================================================
 There are   813 symmetry adapted cartesian basis functions of A   symmetry.
 There are   764 symmetry adapted basis functions of A   symmetry.
   764 basis functions,  1527 primitive gaussians,   813 cartesian basis functions
   185 alpha electrons      185 beta electrons
       nuclear repulsion energy      7455.2426041415 Hartrees.
 NAtoms=   90 NActive=   90 NUniq=   90 SFac= 1.00D+00 NAtFMM=   60 NAOKFM=T Big=T
 Integral buffers will be    131072 words long.
 Raffenetti 2 integral format.
 Two-electron integral symmetry is turned on.
 One-electron integrals computed using PRISM.
   1 Symmetry operations used in ECPInt.
 ECPInt:  NShTT=   39340 NPrTT=  247034 LenC2=   29348 LenP2D=   93677.
 LDataN:  DoStor=T MaxTD1= 6 Len=  172
 NBasis=   764 RedAO= T EigKep=  5.03D-04  NBF=   764
 NBsUse=   764 1.00D-06 EigRej= -1.00D+00 NBFU=   764
 Defaulting to unpruned grid for atomic number  77.
 ExpMin= 2.90D-02 ExpMax= 7.00D+03 ExpMxC= 1.05D+03 IAcc=3 IRadAn=         5 AccDes= 0.00D+00
 Harris functional with IExCor= 1009 and IRadAn=       5 diagonalized for initial guess.
 HarFok:  IExCor= 1009 AccDes= 0.00D+00 IRadAn=         5 IDoV= 1 UseB2=F ITyADJ=14
 ICtDFT=  3500011 ScaDFX=  1.000000  1.000000  1.000000  1.000000
 Defaulting to unpruned grid for atomic number  77.
 FoFCou: FMM=F IPFlag=           0 FMFlag=      100000 FMFlg1=        2001
         NFxFlg=           0 DoJE=T BraDBF=F KetDBF=T FulRan=T
         wScrn=  0.000000 ICntrl=       500 IOpCl=  0 I1Cent=   200000004 NGrid=           0
         NMat0=    1 NMatS0=      1 NMatT0=    0 NMatD0=    1 NMtDS0=    0 NMtDT0=    0
 Petite list used in FoFCou.
 Requested convergence on RMS density matrix=1.00D-08 within 128 cycles.
 Requested convergence on MAX density matrix=1.00D-06.
 Requested convergence on             energy=1.00D-06.
 No special actions if energy rises.
 Defaulting to unpruned grid for atomic number  77.
 Defaulting to unpruned grid for atomic number  77.
 Defaulting to unpruned grid for atomic number  77.
 Defaulting to unpruned grid for atomic number  77.
 Defaulting to unpruned grid for atomic number  77.
 Defaulting to unpruned grid for atomic number  77.
 Defaulting to unpruned grid for atomic number  77.
 Defaulting to unpruned grid for atomic number  77.
 Defaulting to unpruned grid for atomic number  77.
 Defaulting to unpruned grid for atomic number  77.
 Defaulting to unpruned grid for atomic number  77.
 Defaulting to unpruned grid for atomic number  77.
 Defaulting to unpruned grid for atomic number  77.
 Defaulting to unpruned grid for atomic number  77.
 Defaulting to unpruned grid for atomic number  77.
 Defaulting to unpruned grid for atomic number  77.
 SCF Done:  E(RM06) =  -2506.59839674     A.U. after   16 cycles
            NFock= 16  Conv=0.46D-08     -V/T= 2.0354
 DoSCS=F DFT=T ScalE2(SS,OS)=  1.000000  1.000000
 Range of M.O.s used for correlation:     1   764
 NBasis=   764 NAE=   185 NBE=   185 NFC=     0 NFV=     0
 NROrb=    764 NOA=   185 NOB=   185 NVA=   579 NVB=   579
   1 Symmetry operations used in ECPInt.
 ECPInt:  NShTT=   39340 NPrTT=  247034 LenC2=   29348 LenP2D=   93677.
 LDataN:  DoStor=T MaxTD1= 7 Len=  274
 Number of processors reduced to   9 by ecpmxn.
 Symmetrizing basis deriv contribution to polar:
 IMax=3 JMax=2 DiffMx= 0.00D+00
 G2DrvN: will do    91 centers at a time, making    1 passes.
 Calling FoFCou, ICntrl=  3107 FMM=T I1Cent=   0 AccDes= 0.00D+00.
 Defaulting to unpruned grid for atomic number  77.
 Defaulting to unpruned grid for atomic number  77.
 Defaulting to unpruned grid for atomic number  77.
 Defaulting to unpruned grid for atomic number  77.
 Defaulting to unpruned grid for atomic number  77.
 Defaulting to unpruned grid for atomic number  77.
 Defaulting to unpruned grid for atomic number  77.
 Defaulting to unpruned grid for atomic number  77.
 Defaulting to unpruned grid for atomic number  77.
 Defaulting to unpruned grid for atomic number  77.
 Defaulting to unpruned grid for atomic number  77.
 Defaulting to unpruned grid for atomic number  77.
 Defaulting to unpruned grid for atomic number  77.
 Defaulting to unpruned grid for atomic number  77.
 Defaulting to unpruned grid for atomic number  77.
 Defaulting to unpruned grid for atomic number  77.
 End of G2Drv F.D. properties file   721 does not exist.
 End of G2Drv F.D. properties file   722 does not exist.
 End of G2Drv F.D. properties file   788 does not exist.
          IDoAtm=11111111111111111111111111111111111111111111111111
          IDoAtm=1111111111111111111111111111111111111111
          Differentiating once with respect to electric field.
                with respect to dipole field.
          Differentiating once with respect to nuclear coordinates.
 Defaulting to unpruned grid for atomic number  77.
 CalDSu exits because no D1Ps are significant.
 Defaulting to unpruned grid for atomic number  77.
 Defaulting to unpruned grid for atomic number  77.
 Defaulting to unpruned grid for atomic number  77.
 Defaulting to unpruned grid for atomic number  77.
 Defaulting to unpruned grid for atomic number  77.
 Defaulting to unpruned grid for atomic number  77.
 Defaulting to unpruned grid for atomic number  77.
 Defaulting to unpruned grid for atomic number  77.
 Defaulting to unpruned grid for atomic number  77.
 Defaulting to unpruned grid for atomic number  77.
 Defaulting to unpruned grid for atomic number  77.
 Defaulting to unpruned grid for atomic number  77.
 Defaulting to unpruned grid for atomic number  77.
 Defaulting to unpruned grid for atomic number  77.
 Defaulting to unpruned grid for atomic number  77.
 Defaulting to unpruned grid for atomic number  77.
          There are   273 degrees of freedom in the 1st order CPHF.  IDoFFX=6 NUNeed=     3.
    270 vectors produced by pass  0 Test12= 1.07D-13 1.00D-09 XBig12= 4.79D+02 7.18D+00.
 AX will form    72 AO Fock derivatives at one time.
    270 vectors produced by pass  1 Test12= 1.07D-13 1.00D-09 XBig12= 7.37D+01 9.54D-01.
    270 vectors produced by pass  2 Test12= 1.07D-13 1.00D-09 XBig12= 1.01D+00 8.74D-02.
    270 vectors produced by pass  3 Test12= 1.07D-13 1.00D-09 XBig12= 9.36D-03 6.51D-03.
    270 vectors produced by pass  4 Test12= 1.07D-13 1.00D-09 XBig12= 4.79D-05 4.83D-04.
    248 vectors produced by pass  5 Test12= 1.07D-13 1.00D-09 XBig12= 1.09D-07 1.67D-05.
     79 vectors produced by pass  6 Test12= 1.07D-13 1.00D-09 XBig12= 1.73D-10 8.00D-07.
      3 vectors produced by pass  7 Test12= 1.07D-13 1.00D-09 XBig12= 2.26D-13 3.10D-08.
      1 vectors produced by pass  8 Test12= 1.07D-13 1.00D-09 XBig12= 3.50D-16 1.24D-09.
 InvSVY:  IOpt=1 It=  1 EMax= 5.98D-15
 Solved reduced A of dimension  1681 with   273 vectors.
 Isotropic polarizability for W=    0.000000      430.88 Bohr**3.
 End of Minotr F.D. properties file   721 does not exist.
 End of Minotr F.D. properties file   722 does not exist.
 End of Minotr F.D. properties file   788 does not exist.

 **********************************************************************

            Population analysis using the SCF Density.

 **********************************************************************

 Orbital symmetries:
       Occupied  (A) (A) (A) (A) (A) (A) (A) (A) (A) (A) (A) (A)
                 (A) (A) (A) (A) (A) (A) (A) (A) (A) (A) (A) (A)
                 (A) (A) (A) (A) (A) (A) (A) (A) (A) (A) (A) (A)
                 (A) (A) (A) (A) (A) (A) (A) (A) (A) (A) (A) (A)
                 (A) (A) (A) (A) (A) (A) (A) (A) (A) (A) (A) (A)
                 (A) (A) (A) (A) (A) (A) (A) (A) (A) (A) (A) (A)
                 (A) (A) (A) (A) (A) (A) (A) (A) (A) (A) (A) (A)
                 (A) (A) (A) (A) (A) (A) (A) (A) (A) (A) (A) (A)
                 (A) (A) (A) (A) (A) (A) (A) (A) (A) (A) (A) (A)
                 (A) (A) (A) (A) (A) (A) (A) (A) (A) (A) (A) (A)
                 (A) (A) (A) (A) (A) (A) (A) (A) (A) (A) (A) (A)
                 (A) (A) (A) (A) (A) (A) (A) (A) (A) (A) (A) (A)
                 (A) (A) (A) (A) (A) (A) (A) (A) (A) (A) (A) (A)
                 (A) (A) (A) (A) (A) (A) (A) (A) (A) (A) (A) (A)
                 (A) (A) (A) (A) (A) (A) (A) (A) (A) (A) (A) (A)
                 (A) (A) (A) (A) (A)
       Virtual   (A) (A) (A) (A) (A) (A) (A) (A) (A) (A) (A) (A)
                 (A) (A) (A) (A) (A) (A) (A) (A) (A) (A) (A) (A)
                 (A) (A) (A) (A) (A) (A) (A) (A) (A) (A) (A) (A)
                 (A) (A) (A) (A) (A) (A) (A) (A) (A) (A) (A) (A)
                 (A) (A) (A) (A) (A) (A) (A) (A) (A) (A) (A) (A)
                 (A) (A) (A) (A) (A) (A) (A) (A) (A) (A) (A) (A)
                 (A) (A) (A) (A) (A) (A) (A) (A) (A) (A) (A) (A)
                 (A) (A) (A) (A) (A) (A) (A) (A) (A) (A) (A) (A)
                 (A) (A) (A) (A) (A) (A) (A) (A) (A) (A) (A) (A)
                 (A) (A) (A) (A) (A) (A) (A) (A) (A) (A) (A) (A)
                 (A) (A) (A) (A) (A) (A) (A) (A) (A) (A) (A) (A)
                 (A) (A) (A) (A) (A) (A) (A) (A) (A) (A) (A) (A)
                 (A) (A) (A) (A) (A) (A) (A) (A) (A) (A) (A) (A)
                 (A) (A) (A) (A) (A) (A) (A) (A) (A) (A) (A) (A)
                 (A) (A) (A) (A) (A) (A) (A) (A) (A) (A) (A) (A)
                 (A) (A) (A) (A) (A) (A) (A) (A) (A) (A) (A) (A)
                 (A) (A) (A) (A) (A) (A) (A) (A) (A) (A) (A) (A)
                 (A) (A) (A) (A) (A) (A) (A) (A) (A) (A) (A) (A)
                 (A) (A) (A) (A) (A) (A) (A) (A) (A) (A) (A) (A)
                 (A) (A) (A) (A) (A) (A) (A) (A) (A) (A) (A) (A)
                 (A) (A) (A) (A) (A) (A) (A) (A) (A) (A) (A) (A)
                 (A) (A) (A) (A) (A) (A) (A) (A) (A) (A) (A) (A)
                 (A) (A) (A) (A) (A) (A) (A) (A) (A) (A) (A) (A)
                 (A) (A) (A) (A) (A) (A) (A) (A) (A) (A) (A) (A)
                 (A) (A) (A) (A) (A) (A) (A) (A) (A) (A) (A) (A)
                 (A) (A) (A) (A) (A) (A) (A) (A) (A) (A) (A) (A)
                 (A) (A) (A) (A) (A) (A) (A) (A) (A) (A) (A) (A)
                 (A) (A) (A) (A) (A) (A) (A) (A) (A) (A) (A) (A)
                 (A) (A) (A) (A) (A) (A) (A) (A) (A) (A) (A) (A)
                 (A) (A) (A) (A) (A) (A) (A) (A) (A) (A) (A) (A)
                 (A) (A) (A) (A) (A) (A) (A) (A) (A) (A) (A) (A)
                 (A) (A) (A) (A) (A) (A) (A) (A) (A) (A) (A) (A)
                 (A) (A) (A) (A) (A) (A) (A) (A) (A) (A) (A) (A)
                 (A) (A) (A) (A) (A) (A) (A) (A) (A) (A) (A) (A)
                 (A) (A) (A) (A) (A) (A) (A) (A) (A) (A) (A) (A)
                 (A) (A) (A) (A) (A) (A) (A) (A) (A) (A) (A) (A)
                 (A) (A) (A) (A) (A) (A) (A) (A) (A) (A) (A) (A)
                 (A) (A) (A) (A) (A) (A) (A) (A) (A) (A) (A) (A)
                 (A) (A) (A) (A) (A) (A) (A) (A) (A) (A) (A) (A)
                 (A) (A) (A) (A) (A) (A) (A) (A) (A) (A) (A) (A)
                 (A) (A) (A) (A) (A) (A) (A) (A) (A) (A) (A) (A)
                 (A) (A) (A) (A) (A) (A) (A) (A) (A) (A) (A) (A)
                 (A) (A) (A) (A) (A) (A) (A) (A) (A) (A) (A) (A)
                 (A) (A) (A) (A) (A) (A) (A) (A) (A) (A) (A) (A)
                 (A) (A) (A) (A) (A) (A) (A) (A) (A) (A) (A) (A)
                 (A) (A) (A) (A) (A) (A) (A) (A) (A) (A) (A) (A)
                 (A) (A) (A) (A) (A) (A) (A) (A) (A) (A) (A) (A)
                 (A) (A) (A) (A) (A) (A) (A) (A) (A) (A) (A) (A)
                 (A) (A) (A)
 The electronic state is 1-A.
 Alpha  occ. eigenvalues --  -24.84089 -24.83483 -24.83414 -24.82480 -24.82331
 Alpha  occ. eigenvalues --  -24.81840 -19.22234 -19.22077 -19.21940 -19.21572
 Alpha  occ. eigenvalues --  -19.21173 -19.21135 -14.46888 -14.42068 -10.52209
 Alpha  occ. eigenvalues --  -10.50626 -10.33063 -10.32628 -10.30874 -10.30810
 Alpha  occ. eigenvalues --  -10.30578 -10.30510 -10.30463 -10.30339 -10.30256
 Alpha  occ. eigenvalues --  -10.30254 -10.30108 -10.29988 -10.28859 -10.28288
 Alpha  occ. eigenvalues --  -10.27978 -10.27665 -10.23796 -10.23657 -10.23601
 Alpha  occ. eigenvalues --  -10.23502 -10.23463 -10.23263 -10.23216 -10.23148
 Alpha  occ. eigenvalues --  -10.23103 -10.22972 -10.22313 -10.22278  -6.82991
 Alpha  occ. eigenvalues --   -6.81885  -6.81069  -3.65778  -2.08444  -2.07977
 Alpha  occ. eigenvalues --   -2.06903  -1.36549  -1.35067  -1.28123  -1.27453
 Alpha  occ. eigenvalues --   -1.26593  -1.26036  -1.07652  -1.07516  -1.07242
 Alpha  occ. eigenvalues --   -1.01103  -1.00755  -1.00629  -1.00489  -0.97414
 Alpha  occ. eigenvalues --   -0.87160  -0.84905  -0.83189  -0.81640  -0.81363
 Alpha  occ. eigenvalues --   -0.81216  -0.79768  -0.75985  -0.75640  -0.75537
 Alpha  occ. eigenvalues --   -0.75346  -0.72308  -0.71424  -0.71127  -0.70890
 Alpha  occ. eigenvalues --   -0.69107  -0.68652  -0.68603  -0.68215  -0.67986
 Alpha  occ. eigenvalues --   -0.65377  -0.64627  -0.63010  -0.62533  -0.62456
 Alpha  occ. eigenvalues --   -0.62403  -0.62045  -0.61221  -0.61077  -0.60781
 Alpha  occ. eigenvalues --   -0.58480  -0.56192  -0.55906  -0.55724  -0.55639
 Alpha  occ. eigenvalues --   -0.55032  -0.54511  -0.54380  -0.54051  -0.50587
 Alpha  occ. eigenvalues --   -0.50035  -0.49910  -0.49060  -0.48856  -0.48654
 Alpha  occ. eigenvalues --   -0.48392  -0.48179  -0.47947  -0.47758  -0.47526
 Alpha  occ. eigenvalues --   -0.47430  -0.47174  -0.46905  -0.46820  -0.46140
 Alpha  occ. eigenvalues --   -0.45744  -0.45624  -0.45295  -0.45178  -0.45024
 Alpha  occ. eigenvalues --   -0.44755  -0.44542  -0.44352  -0.44185  -0.44118
 Alpha  occ. eigenvalues --   -0.43799  -0.42728  -0.42538  -0.42434  -0.42005
 Alpha  occ. eigenvalues --   -0.41937  -0.41117  -0.40941  -0.40795  -0.40707
 Alpha  occ. eigenvalues --   -0.40591  -0.40357  -0.40330  -0.40281  -0.40134
 Alpha  occ. eigenvalues --   -0.40045  -0.39598  -0.39397  -0.39062  -0.38406
 Alpha  occ. eigenvalues --   -0.38311  -0.38230  -0.37819  -0.37607  -0.37278
 Alpha  occ. eigenvalues --   -0.37068  -0.36915  -0.36735  -0.36562  -0.35935
 Alpha  occ. eigenvalues --   -0.35710  -0.35559  -0.35309  -0.34890  -0.34421
 Alpha  occ. eigenvalues --   -0.33745  -0.33561  -0.33073  -0.33022  -0.32765
 Alpha  occ. eigenvalues --   -0.32610  -0.31565  -0.31269  -0.31032  -0.30398
 Alpha  occ. eigenvalues --   -0.29930  -0.29428  -0.28893  -0.27849  -0.27441
 Alpha  occ. eigenvalues --   -0.27231  -0.26657  -0.25659  -0.24017  -0.23277
 Alpha virt. eigenvalues --   -0.08926  -0.06031  -0.04319  -0.00703   0.00208
 Alpha virt. eigenvalues --    0.02583   0.03424   0.04365   0.05090   0.06549
 Alpha virt. eigenvalues --    0.07058   0.08105   0.08742   0.09418   0.09825
 Alpha virt. eigenvalues --    0.10430   0.10948   0.11471   0.11637   0.12473
 Alpha virt. eigenvalues --    0.12917   0.13173   0.13237   0.13709   0.13930
 Alpha virt. eigenvalues --    0.14054   0.14265   0.14549   0.14858   0.14917
 Alpha virt. eigenvalues --    0.15164   0.15235   0.15334   0.15669   0.15719
 Alpha virt. eigenvalues --    0.15994   0.16327   0.16539   0.16758   0.17021
 Alpha virt. eigenvalues --    0.17375   0.17533   0.17781   0.18119   0.18192
 Alpha virt. eigenvalues --    0.18398   0.18554   0.18722   0.18818   0.19394
 Alpha virt. eigenvalues --    0.19667   0.19747   0.20071   0.20260   0.20609
 Alpha virt. eigenvalues --    0.20860   0.21671   0.21886   0.22161   0.22574
 Alpha virt. eigenvalues --    0.22781   0.22994   0.23212   0.23298   0.23666
 Alpha virt. eigenvalues --    0.23771   0.23986   0.24163   0.24281   0.24543
 Alpha virt. eigenvalues --    0.24639   0.24894   0.24995   0.25554   0.25904
 Alpha virt. eigenvalues --    0.26138   0.26689   0.26774   0.27136   0.27461
 Alpha virt. eigenvalues --    0.27668   0.28326   0.28563   0.28730   0.29294
 Alpha virt. eigenvalues --    0.30111   0.30595   0.31111   0.31708   0.32684
 Alpha virt. eigenvalues --    0.33122   0.33510   0.34490   0.34888   0.34917
 Alpha virt. eigenvalues --    0.35636   0.35944   0.37034   0.38316   0.39883
 Alpha virt. eigenvalues --    0.40108   0.41335   0.42109   0.42949   0.44886
 Alpha virt. eigenvalues --    0.45808   0.46917   0.47130   0.47356   0.48072
 Alpha virt. eigenvalues --    0.48189   0.48419   0.49168   0.49567   0.50052
 Alpha virt. eigenvalues --    0.50530   0.50615   0.50920   0.51471   0.51566
 Alpha virt. eigenvalues --    0.52353   0.52761   0.53804   0.54497   0.54725
 Alpha virt. eigenvalues --    0.55309   0.55536   0.56001   0.56092   0.56358
 Alpha virt. eigenvalues --    0.56855   0.57051   0.57276   0.57774   0.58080
 Alpha virt. eigenvalues --    0.58270   0.58389   0.58973   0.58998   0.59332
 Alpha virt. eigenvalues --    0.59516   0.59989   0.60297   0.60418   0.60973
 Alpha virt. eigenvalues --    0.61033   0.62083   0.62583   0.62896   0.63332
 Alpha virt. eigenvalues --    0.63346   0.63621   0.64106   0.64894   0.65369
 Alpha virt. eigenvalues --    0.65747   0.65916   0.66601   0.66781   0.66971
 Alpha virt. eigenvalues --    0.67172   0.67403   0.68555   0.68679   0.69207
 Alpha virt. eigenvalues --    0.69708   0.70299   0.70480   0.70563   0.71191
 Alpha virt. eigenvalues --    0.71378   0.71775   0.72149   0.72325   0.72818
 Alpha virt. eigenvalues --    0.73155   0.73490   0.73743   0.74252   0.74700
 Alpha virt. eigenvalues --    0.75227   0.75629   0.76069   0.76171   0.76617
 Alpha virt. eigenvalues --    0.77657   0.78046   0.78680   0.79491   0.79889
 Alpha virt. eigenvalues --    0.80770   0.81049   0.81673   0.82054   0.82188
 Alpha virt. eigenvalues --    0.82969   0.83342   0.83516   0.83863   0.84082
 Alpha virt. eigenvalues --    0.84245   0.84765   0.85068   0.85224   0.85667
 Alpha virt. eigenvalues --    0.85738   0.86189   0.86492   0.86685   0.87065
 Alpha virt. eigenvalues --    0.87440   0.87784   0.88316   0.88729   0.88761
 Alpha virt. eigenvalues --    0.88988   0.89272   0.89418   0.89914   0.90481
 Alpha virt. eigenvalues --    0.90562   0.90744   0.90815   0.91260   0.91337
 Alpha virt. eigenvalues --    0.92307   0.92472   0.92924   0.93101   0.93497
 Alpha virt. eigenvalues --    0.93683   0.94018   0.94376   0.94652   0.95656
 Alpha virt. eigenvalues --    0.95895   0.96033   0.96671   0.96952   0.97163
 Alpha virt. eigenvalues --    0.97754   0.97959   0.98801   0.99781   0.99956
 Alpha virt. eigenvalues --    1.00429   1.00987   1.01691   1.02452   1.03062
 Alpha virt. eigenvalues --    1.03445   1.03958   1.04437   1.04991   1.05381
 Alpha virt. eigenvalues --    1.06043   1.06286   1.07640   1.07980   1.09452
 Alpha virt. eigenvalues --    1.09809   1.11201   1.11495   1.11904   1.12379
 Alpha virt. eigenvalues --    1.12858   1.13431   1.14194   1.14513   1.14886
 Alpha virt. eigenvalues --    1.15351   1.15884   1.16501   1.16967   1.17551
 Alpha virt. eigenvalues --    1.17883   1.18334   1.18802   1.19540   1.20118
 Alpha virt. eigenvalues --    1.20493   1.21145   1.21416   1.21861   1.22333
 Alpha virt. eigenvalues --    1.22681   1.23525   1.23915   1.24636   1.25078
 Alpha virt. eigenvalues --    1.25849   1.26391   1.26868   1.27541   1.27576
 Alpha virt. eigenvalues --    1.29087   1.29912   1.30887   1.31413   1.32022
 Alpha virt. eigenvalues --    1.32303   1.33276   1.33502   1.34244   1.34481
 Alpha virt. eigenvalues --    1.35210   1.36208   1.36584   1.36898   1.36921
 Alpha virt. eigenvalues --    1.37891   1.38096   1.38857   1.39329   1.40307
 Alpha virt. eigenvalues --    1.40512   1.40936   1.41584   1.42024   1.42423
 Alpha virt. eigenvalues --    1.42865   1.43227   1.43745   1.44455   1.45137
 Alpha virt. eigenvalues --    1.45352   1.46062   1.47074   1.47347   1.48057
 Alpha virt. eigenvalues --    1.48134   1.49142   1.50541   1.51120   1.51536
 Alpha virt. eigenvalues --    1.52625   1.53040   1.55141   1.55545   1.56249
 Alpha virt. eigenvalues --    1.57374   1.58534   1.58911   1.60765   1.61631
 Alpha virt. eigenvalues --    1.61960   1.63579   1.63593   1.64015   1.64387
 Alpha virt. eigenvalues --    1.65035   1.65610   1.65958   1.66623   1.66763
 Alpha virt. eigenvalues --    1.67107   1.67493   1.68757   1.69112   1.69676
 Alpha virt. eigenvalues --    1.70041   1.70673   1.71095   1.72314   1.72750
 Alpha virt. eigenvalues --    1.73109   1.73797   1.74689   1.75097   1.75356
 Alpha virt. eigenvalues --    1.75830   1.76994   1.77768   1.77853   1.78699
 Alpha virt. eigenvalues --    1.78996   1.79381   1.79708   1.80029   1.81045
 Alpha virt. eigenvalues --    1.81636   1.82161   1.82656   1.82969   1.83463
 Alpha virt. eigenvalues --    1.84175   1.84597   1.85042   1.85718   1.86013
 Alpha virt. eigenvalues --    1.87180   1.87452   1.87688   1.87893   1.88304
 Alpha virt. eigenvalues --    1.88555   1.89976   1.90180   1.90477   1.90633
 Alpha virt. eigenvalues --    1.90768   1.91048   1.91142   1.91765   1.92247
 Alpha virt. eigenvalues --    1.92415   1.92752   1.92998   1.93625   1.94274
 Alpha virt. eigenvalues --    1.94675   1.94832   1.95978   1.96657   1.97065
 Alpha virt. eigenvalues --    1.97466   1.98327   1.99206   1.99918   2.00984
 Alpha virt. eigenvalues --    2.01401   2.01700   2.01809   2.02172   2.02300
 Alpha virt. eigenvalues --    2.02518   2.03715   2.03849   2.04157   2.04460
 Alpha virt. eigenvalues --    2.05005   2.05711   2.05861   2.06075   2.06500
 Alpha virt. eigenvalues --    2.06821   2.07430   2.07649   2.08304   2.08694
 Alpha virt. eigenvalues --    2.09050   2.09270   2.09627   2.09964   2.10222
 Alpha virt. eigenvalues --    2.10482   2.10969   2.11584   2.12003   2.12214
 Alpha virt. eigenvalues --    2.12706   2.12985   2.14072   2.14637   2.14883
 Alpha virt. eigenvalues --    2.15356   2.15601   2.16256   2.16434   2.17277
 Alpha virt. eigenvalues --    2.17835   2.18008   2.18513   2.19018   2.19254
 Alpha virt. eigenvalues --    2.19799   2.19898   2.20341   2.20877   2.21283
 Alpha virt. eigenvalues --    2.21378   2.21732   2.22041   2.23030   2.23199
 Alpha virt. eigenvalues --    2.23645   2.24044   2.24327   2.24813   2.25516
 Alpha virt. eigenvalues --    2.25658   2.26637   2.27148   2.27732   2.28754
 Alpha virt. eigenvalues --    2.28907   2.29957   2.31396   2.31504   2.31812
 Alpha virt. eigenvalues --    2.31822   2.32201   2.32928   2.33841   2.34429
 Alpha virt. eigenvalues --    2.35194   2.36389   2.36859   2.38104   2.38397
 Alpha virt. eigenvalues --    2.39118   2.39472   2.42602   2.43474   2.43757
 Alpha virt. eigenvalues --    2.44229   2.44449   2.46143   2.46529   2.47414
 Alpha virt. eigenvalues --    2.47950   2.48265   2.48737   2.48964   2.50523
 Alpha virt. eigenvalues --    2.51685   2.51822   2.53325   2.58705   2.59264
 Alpha virt. eigenvalues --    2.59507   2.60402   2.60793   2.61906   2.62804
 Alpha virt. eigenvalues --    2.63174   2.63584   2.64186   2.64586   2.65052
 Alpha virt. eigenvalues --    2.68833   2.71472   2.74620   2.76324   2.76663
 Alpha virt. eigenvalues --    2.76803   2.77035   2.77485   2.77976   2.78493
 Alpha virt. eigenvalues --    2.78546   2.79500   2.79974   2.80337   2.80661
 Alpha virt. eigenvalues --    2.80976   2.81243   2.82409   2.83249   2.84673
 Alpha virt. eigenvalues --    2.86279   2.86909   2.87841   2.89482   2.90595
 Alpha virt. eigenvalues --    2.91067   2.92444   2.93189   2.93710   2.94492
 Alpha virt. eigenvalues --    2.95867   3.00499   3.03892   3.05021   3.05356
 Alpha virt. eigenvalues --    3.07009   3.07457   3.07889   3.08628   3.10748
 Alpha virt. eigenvalues --    3.10999   3.11871   3.12607   3.14433   3.15844
 Alpha virt. eigenvalues --    3.24486   3.33184   3.42371   9.20014
          Condensed to atoms (all electrons):
 Mulliken charges:
               1
     1  N   -0.559733
     2  C    0.031587
     3  C   -0.082451
     4  C   -0.140075
     5  C   -0.187346
     6  C    0.312436
     7  H    0.212236
     8  N   -0.431687
     9  C    0.244095
    10  C   -0.273156
    11  C   -0.181978
    12  C   -0.058083
    13  C   -0.021380
    14  H    0.236219
    15  H    0.208000
    16  Ir   0.123100
    17  B    0.411698
    18  O   -0.528437
    19  O   -0.499537
    20  C    0.284682
    21  C    0.286380
    22  C   -0.502672
    23  H    0.183945
    24  H    0.157439
    25  H    0.154640
    26  C   -0.504668
    27  H    0.156412
    28  H    0.170797
    29  H    0.163490
    30  C   -0.511436
    31  H    0.174483
    32  H    0.149784
    33  H    0.174045
    34  C   -0.509984
    35  H    0.145937
    36  H    0.182765
    37  H    0.174246
    38  B    0.459193
    39  O   -0.472238
    40  O   -0.522217
    41  C    0.292036
    42  C    0.283897
    43  C   -0.499724
    44  C   -0.512710
    45  H    0.151230
    46  H    0.176452
    47  H    0.176809
    48  C   -0.510388
    49  H    0.161449
    50  H    0.156920
    51  H    0.176515
    52  C   -0.504198
    53  H    0.155037
    54  H    0.180076
    55  H    0.167484
    56  B    0.447580
    57  O   -0.477445
    58  O   -0.531493
    59  C    0.285800
    60  C    0.290716
    61  C   -0.505072
    62  H    0.178013
    63  H    0.178441
    64  H    0.145035
    65  C   -0.513024
    66  H    0.150506
    67  H    0.176859
    68  H    0.174173
    69  C   -0.507774
    70  H    0.165001
    71  H    0.157573
    72  H    0.174179
    73  C   -0.517681
    74  H    0.161493
    75  H    0.172609
    76  H    0.167782
    77  H    0.227732
    78  H    0.142800
    79  H    0.184211
    80  H    0.157496
    81  H    0.185189
    82  H    0.205423
    83  C    0.961565
    84  C    0.972477
    85  F   -0.308503
    86  F   -0.314019
    87  F   -0.307952
    88  F   -0.316531
    89  F   -0.308918
    90  F   -0.315662
 Sum of Mulliken charges =  -0.00000
 Mulliken charges with hydrogens summed into heavy atoms:
               1
     1  N   -0.559733
     2  C    0.259319
     3  C   -0.082451
     4  C    0.065348
     5  C    0.024890
     6  C    0.312436
     8  N   -0.431687
     9  C    0.244095
    10  C   -0.273156
    11  C    0.026022
    12  C   -0.058083
    13  C    0.163809
    16  Ir   0.359319
    17  B    0.411698
    18  O   -0.528437
    19  O   -0.499537
    20  C    0.284682
    21  C    0.286380
    22  C   -0.006648
    26  C   -0.013969
    30  C   -0.013124
    34  C   -0.007035
    38  B    0.459193
    39  O   -0.472238
    40  O   -0.522217
    41  C    0.292036
    42  C    0.283897
    43  C   -0.015217
    44  C   -0.008218
    48  C   -0.015503
    52  C   -0.001602
    56  B    0.447580
    57  O   -0.477445
    58  O   -0.531493
    59  C    0.285800
    60  C    0.290716
    61  C   -0.003583
    65  C   -0.011487
    69  C   -0.011020
    73  C   -0.015798
    83  C    0.961565
    84  C    0.972477
    85  F   -0.308503
    86  F   -0.314019
    87  F   -0.307952
    88  F   -0.316531
    89  F   -0.308918
    90  F   -0.315662
 APT charges:
               1
     1  N   -0.322629
     2  C    0.108740
     3  C   -0.290990
     4  C    0.203409
     5  C   -0.281045
     6  C    0.366909
     7  H    0.091919
     8  N   -0.422342
     9  C    0.095625
    10  C    0.019037
    11  C    0.035887
    12  C   -0.205942
    13  C    0.090507
    14  H    0.232852
    15  H    0.098570
    16  Ir  -0.757825
    17  B    1.415003
    18  O   -1.039560
    19  O   -0.995135
    20  C    0.509363
    21  C    0.522413
    22  C   -0.047018
    23  H    0.013421
    24  H    0.011904
    25  H   -0.019164
    26  C   -0.015967
    27  H   -0.014281
    28  H    0.005152
    29  H    0.003693
    30  C   -0.011224
    31  H    0.003632
    32  H   -0.015965
    33  H    0.000950
    34  C   -0.051772
    35  H   -0.020259
    36  H    0.031149
    37  H    0.002783
    38  B    1.147302
    39  O   -0.948352
    40  O   -0.961385
    41  C    0.477273
    42  C    0.466626
    43  C   -0.017550
    44  C   -0.009740
    45  H   -0.018284
    46  H    0.005002
    47  H    0.006838
    48  C   -0.000993
    49  H   -0.002685
    50  H   -0.010899
    51  H    0.002964
    52  C   -0.039595
    53  H   -0.021876
    54  H    0.019396
    55  H    0.004946
    56  B    1.246517
    57  O   -0.968836
    58  O   -0.977106
    59  C    0.516812
    60  C    0.478637
    61  C   -0.042843
    62  H    0.029528
    63  H    0.007027
    64  H   -0.024392
    65  C   -0.014787
    66  H   -0.013426
    67  H    0.005132
    68  H    0.002975
    69  C   -0.010498
    70  H    0.004536
    71  H   -0.011598
    72  H    0.006499
    73  C   -0.029671
    74  H   -0.013104
    75  H   -0.002799
    76  H    0.007884
    77  H    0.125956
    78  H   -0.018602
    79  H    0.006453
    80  H   -0.014759
    81  H    0.024794
    82  H    0.067164
    83  C    1.833200
    84  C    1.826984
    85  F   -0.554607
    86  F   -0.596878
    87  F   -0.587396
    88  F   -0.611026
    89  F   -0.595311
    90  F   -0.553248
 Sum of APT charges =   0.00000
 APT charges with hydrogens summed into heavy atoms:
               1
     1  N   -0.322629
     2  C    0.234696
     3  C   -0.290990
     4  C    0.270573
     5  C   -0.189126
     6  C    0.366909
     8  N   -0.422342
     9  C    0.095625
    10  C    0.019037
    11  C    0.134457
    12  C   -0.205942
    13  C    0.115301
    16  Ir  -0.524972
    17  B    1.415003
    18  O   -1.039560
    19  O   -0.995135
    20  C    0.509363
    21  C    0.522413
    22  C   -0.040856
    26  C   -0.021403
    30  C   -0.022606
    34  C   -0.038099
    38  B    1.147302
    39  O   -0.948352
    40  O   -0.961385
    41  C    0.477273
    42  C    0.466626
    43  C   -0.044458
    44  C   -0.016185
    48  C   -0.011613
    52  C   -0.037129
    56  B    1.246517
    57  O   -0.968836
    58  O   -0.977106
    59  C    0.516812
    60  C    0.478637
    61  C   -0.030681
    65  C   -0.020106
    69  C   -0.011061
    73  C   -0.037690
    83  C    1.833200
    84  C    1.826984
    85  F   -0.554607
    86  F   -0.596878
    87  F   -0.587396
    88  F   -0.611026
    89  F   -0.595311
    90  F   -0.553248
 Electronic spatial extent (au):  <R**2>=          28440.5655
 Charge=             -0.0000 electrons
 Dipole moment (field-independent basis, Debye):
    X=             -1.6747    Y=             -0.8914    Z=              0.6852  Tot=              2.0171
 Quadrupole moment (field-independent basis, Debye-Ang):
   XX=           -292.8708   YY=           -271.6922   ZZ=           -292.8367
   XY=            -10.5612   XZ=             -1.3895   YZ=              0.2268
 Traceless Quadrupole moment (field-independent basis, Debye-Ang):
   XX=             -7.0709   YY=             14.1077   ZZ=             -7.0368
   XY=            -10.5612   XZ=             -1.3895   YZ=              0.2268
 Octapole moment (field-independent basis, Debye-Ang**2):
  XXX=            -22.6740  YYY=            114.2167  ZZZ=            -21.6657  XYY=            -55.6302
  XXY=            -37.7194  XXZ=             33.9067  XZZ=              1.8341  YZZ=              1.6782
  YYZ=            -29.5207  XYZ=              6.9014
 Hexadecapole moment (field-independent basis, Debye-Ang**3):
 XXXX=         -17388.7724 YYYY=         -12934.1004 ZZZZ=          -4914.3815 XXXY=            -22.1076
 XXXZ=             26.5517 YYYX=           -176.8777 YYYZ=             53.4078 ZZZX=              7.7707
 ZZZY=             -7.9628 XXYY=          -4994.7989 XXZZ=          -3586.9984 YYZZ=          -2998.9326
 XXYZ=            -95.0204 YYXZ=              1.4300 ZZXY=              6.4971
 N-N= 7.455242604141D+03 E-N=-2.075380118578D+04  KE= 2.420853095404D+03
  Exact polarizability:     500.116       7.826     475.232      -1.926      -0.692     317.297
 Approx polarizability:     703.554      17.046     673.653      -2.639       0.268     482.242
   1 Symmetry operations used in ECPInt.
 ECPInt:  NShTT=   39340 NPrTT=  247034 LenC2=   29348 LenP2D=   93677.
 LDataN:  DoStor=T MaxTD1= 8 Len=  415
 Calling FoFJK, ICntrl=    100127 FMM=F ISym2X=0 I1Cent= 0 IOpClX= 0 NMat=1 NMatS=1 NMatT=0.
 Defaulting to unpruned grid for atomic number  77.
 Defaulting to unpruned grid for atomic number  77.
 Defaulting to unpruned grid for atomic number  77.
 Defaulting to unpruned grid for atomic number  77.
 Defaulting to unpruned grid for atomic number  77.
 Defaulting to unpruned grid for atomic number  77.
 Defaulting to unpruned grid for atomic number  77.
 Defaulting to unpruned grid for atomic number  77.
 Defaulting to unpruned grid for atomic number  77.
 Defaulting to unpruned grid for atomic number  77.
 Defaulting to unpruned grid for atomic number  77.
 Defaulting to unpruned grid for atomic number  77.
 Defaulting to unpruned grid for atomic number  77.
 Defaulting to unpruned grid for atomic number  77.
 Defaulting to unpruned grid for atomic number  77.
 Defaulting to unpruned grid for atomic number  77.
 Full mass-weighted force constant matrix:
 Low frequencies --- -608.6023   -1.7360   -0.0006   -0.0005    0.0004    3.1862
 Low frequencies ---    5.9184   16.4619   27.6481
 ******    1 imaginary frequencies (negative Signs) ****** 
 Diagonal vibrational polarizability:
       74.9303964      93.2926561      65.5439283
 Harmonic frequencies (cm**-1), IR intensities (KM/Mole), Raman scattering
 activities (A**4/AMU), depolarization ratios for plane and unpolarized
 incident light, reduced masses (AMU), force constants (mDyne/A),
 and normal coordinates:
                      1                      2                      3
                      A                      A                      A
 Frequencies --   -608.6018                16.0209                27.5586
 Red. masses --      1.1812                 5.8840                 4.2606
 Frc consts  --      0.2578                 0.0009                 0.0019
 IR Inten    --    433.6387                 0.0792                 0.0771
  Atom AN      X      Y      Z        X      Y      Z        X      Y      Z
     1   7     0.00  -0.00  -0.00    -0.00   0.01   0.01    -0.00  -0.01   0.02
     2   6     0.00  -0.00  -0.00    -0.00   0.02   0.05    -0.00   0.01   0.01
     3   6     0.00  -0.00   0.00     0.00   0.03   0.08     0.00   0.01   0.03
     4   6    -0.00  -0.00   0.00     0.01   0.02   0.07     0.01   0.01   0.07
     5   6     0.00   0.00   0.00     0.02   0.01   0.03     0.01  -0.01   0.09
     6   6    -0.00  -0.00  -0.00     0.01   0.01   0.01     0.00  -0.01   0.06
     7   1    -0.00   0.00  -0.00     0.02   0.01   0.03     0.02  -0.01   0.12
     8   7    -0.00  -0.01   0.01     0.02  -0.01  -0.04     0.00  -0.02   0.07
     9   6    -0.01  -0.00  -0.02     0.01  -0.00  -0.02     0.00  -0.02   0.05
    10   6     0.02  -0.00  -0.10    -0.00  -0.01  -0.02     0.00  -0.01   0.02
    11   6     0.02   0.00  -0.01    -0.00  -0.02  -0.04     0.00  -0.01  -0.01
    12   6     0.01  -0.00   0.01     0.01  -0.02  -0.06     0.00  -0.01   0.00
    13   6     0.00  -0.00   0.00     0.02  -0.02  -0.06     0.00  -0.02   0.05
    14   1     0.39   0.83   0.38    -0.01  -0.02  -0.02    -0.00   0.02   0.02
    15   1     0.01  -0.00  -0.04    -0.01  -0.03  -0.04    -0.00  -0.01  -0.04
    16  77    -0.01  -0.01   0.00    -0.01   0.00  -0.02    -0.00  -0.02   0.01
    17   5     0.02   0.02  -0.01     0.04   0.00  -0.00    -0.00  -0.02   0.01
    18   8     0.00   0.01  -0.00    -0.00   0.00  -0.00     0.10  -0.01   0.04
    19   8     0.00   0.00  -0.01     0.10  -0.00   0.01    -0.09  -0.03  -0.01
    20   6    -0.00   0.00   0.00     0.04   0.00   0.00     0.09  -0.02   0.05
    21   6    -0.00   0.00  -0.00     0.09  -0.01   0.03    -0.03  -0.00  -0.00
    22   6    -0.00   0.00  -0.00     0.05   0.01  -0.06     0.09  -0.11   0.14
    23   1    -0.00   0.00   0.00     0.06   0.02  -0.07     0.03  -0.15   0.15
    24   1     0.00   0.00   0.00     0.01   0.00  -0.09     0.16  -0.10   0.19
    25   1     0.00   0.00   0.00     0.08   0.03  -0.07     0.08  -0.14   0.16
    26   6    -0.00   0.00   0.00     0.01  -0.01   0.04     0.18   0.03   0.02
    27   1    -0.00   0.00  -0.00     0.03  -0.01   0.04     0.17   0.03   0.01
    28   1    -0.00   0.00   0.00    -0.03   0.00   0.02     0.26   0.01   0.05
    29   1    -0.00   0.00   0.00    -0.00  -0.02   0.07     0.18   0.09  -0.05
    30   6     0.00  -0.00  -0.00     0.14   0.00   0.01    -0.09  -0.06   0.03
    31   1     0.00   0.00   0.00     0.15   0.02  -0.03    -0.10  -0.14   0.08
    32   1    -0.00  -0.00  -0.00     0.13  -0.00   0.02    -0.03  -0.05   0.03
    33   1     0.00  -0.00  -0.00     0.18  -0.00   0.03    -0.17  -0.04  -0.02
    34   6     0.00  -0.00  -0.00     0.09  -0.03   0.08    -0.03   0.10  -0.08
    35   1     0.00  -0.00   0.00     0.09  -0.04   0.09     0.02   0.12  -0.09
    36   1    -0.00   0.00  -0.00     0.06  -0.04   0.09     0.01   0.14  -0.10
    37   1     0.00  -0.00  -0.00     0.13  -0.04   0.09    -0.11   0.11  -0.12
    38   5     0.01   0.02   0.03    -0.01  -0.01  -0.03    -0.02  -0.02  -0.02
    39   8    -0.00  -0.01   0.01    -0.01  -0.07  -0.04    -0.05  -0.02  -0.02
    40   8     0.01   0.01   0.00    -0.01   0.01  -0.04    -0.00  -0.01  -0.04
    41   6     0.00  -0.00   0.00    -0.01  -0.08  -0.05    -0.06   0.01  -0.05
    42   6     0.00   0.00  -0.00    -0.01  -0.02  -0.07    -0.05   0.02  -0.06
    43   6    -0.00  -0.00   0.00    -0.01  -0.10  -0.00    -0.05   0.02  -0.05
    44   6    -0.00  -0.00   0.00    -0.01  -0.13  -0.10    -0.10   0.01  -0.05
    45   1    -0.00  -0.00   0.00    -0.01  -0.13  -0.11    -0.11   0.03  -0.07
    46   1    -0.00  -0.00  -0.00    -0.01  -0.17  -0.08    -0.12  -0.00  -0.04
    47   1    -0.00  -0.00   0.00    -0.02  -0.12  -0.14    -0.12  -0.00  -0.04
    48   6     0.00   0.00  -0.00    -0.01  -0.01  -0.06    -0.03   0.07  -0.09
    49   1     0.00   0.00  -0.00    -0.01  -0.02  -0.02     0.00   0.07  -0.10
    50   1     0.00  -0.00  -0.00    -0.01  -0.04  -0.08    -0.06   0.09  -0.11
    51   1     0.00   0.00  -0.00    -0.01   0.03  -0.07    -0.02   0.08  -0.10
    52   6     0.00   0.00  -0.00    -0.01  -0.01  -0.13    -0.10   0.01  -0.05
    53   1    -0.00   0.00  -0.00    -0.01  -0.04  -0.16    -0.16   0.04  -0.08
    54   1     0.00   0.00  -0.00    -0.01  -0.01  -0.15    -0.12  -0.04   0.02
    55   1     0.00   0.00  -0.00    -0.01   0.03  -0.14    -0.05   0.02  -0.06
    56   5    -0.02  -0.00   0.01    -0.02   0.03   0.02     0.00  -0.01   0.00
    57   8     0.00  -0.01   0.01    -0.04   0.08   0.03     0.01  -0.03  -0.00
    58   8    -0.00   0.00   0.00    -0.02  -0.01   0.04     0.01   0.02   0.00
    59   6     0.00  -0.00   0.00    -0.06   0.07   0.07     0.03   0.01  -0.00
    60   6    -0.00   0.00  -0.00    -0.04   0.02   0.07     0.02   0.03  -0.00
    61   6     0.00  -0.00   0.00    -0.08   0.07   0.10     0.08  -0.01   0.01
    62   1    -0.00   0.00   0.00    -0.07   0.05   0.10     0.08  -0.02   0.01
    63   1     0.00   0.00  -0.00    -0.10   0.11   0.08     0.09  -0.03   0.01
    64   1     0.00  -0.00  -0.00    -0.10   0.07   0.13     0.10   0.02   0.01
    65   6     0.00  -0.00   0.00    -0.07   0.10   0.06     0.02   0.03  -0.00
    66   1     0.00  -0.00   0.00    -0.08   0.09   0.09     0.04   0.05  -0.00
    67   1     0.00  -0.00  -0.00    -0.09   0.13   0.06     0.03   0.01  -0.00
    68   1     0.00  -0.00   0.00    -0.05   0.10   0.04    -0.01   0.03  -0.01
    69   6    -0.00   0.00  -0.00    -0.04  -0.00   0.12     0.04   0.05  -0.02
    70   1    -0.00   0.00  -0.00    -0.04  -0.01   0.14     0.05   0.05  -0.02
    71   1    -0.00   0.00  -0.00    -0.06   0.02   0.14     0.05   0.06  -0.02
    72   1     0.00  -0.00  -0.00    -0.02  -0.04   0.12     0.03   0.07  -0.01
    73   6    -0.00   0.00   0.00    -0.03   0.03   0.04     0.00   0.04  -0.00
    74   1     0.00   0.00  -0.00    -0.04   0.05   0.05    -0.00   0.05   0.00
    75   1    -0.00  -0.00   0.00    -0.03   0.05   0.00    -0.01   0.04  -0.01
    76   1     0.00   0.00  -0.00    -0.02  -0.00   0.03     0.01   0.04   0.00
    77   1     0.00  -0.00   0.00    -0.01   0.02   0.05    -0.01   0.01  -0.03
    78   1     0.00  -0.00  -0.00    -0.01  -0.07   0.03    -0.01   0.02  -0.05
    79   1     0.00  -0.00  -0.00    -0.02  -0.14   0.02    -0.06   0.00  -0.04
    80   1    -0.00   0.00   0.00    -0.02  -0.12  -0.01    -0.06   0.04  -0.08
    81   1    -0.00   0.00  -0.02     0.03  -0.02  -0.07     0.01  -0.02   0.06
    82   1    -0.00  -0.00   0.00     0.02   0.03   0.09     0.02   0.01   0.09
    83   6     0.01  -0.00   0.00     0.01  -0.03  -0.08     0.00  -0.00  -0.04
    84   6    -0.00  -0.00   0.00     0.00   0.03   0.11     0.00   0.03  -0.00
    85   9     0.00   0.00  -0.00    -0.03   0.07   0.09     0.01   0.06  -0.03
    86   9     0.00   0.00  -0.00     0.01   0.04   0.16     0.02   0.04   0.00
    87   9     0.00   0.00  -0.00     0.03   0.00   0.10    -0.03   0.02  -0.02
    88   9    -0.00   0.00   0.00     0.02  -0.04  -0.12    -0.01  -0.00  -0.07
    89   9     0.00   0.00   0.00     0.02   0.01  -0.08     0.04   0.02  -0.05
    90   9    -0.00   0.00   0.00    -0.00  -0.06  -0.06    -0.01  -0.01  -0.04
                      4                      5                      6
                      A                      A                      A
 Frequencies --     33.2280                37.3830                45.2592
 Red. masses --      8.1596                 5.9050                 4.4673
 Frc consts  --      0.0053                 0.0049                 0.0054
 IR Inten    --      0.2311                 0.3909                 0.2090
  Atom AN      X      Y      Z        X      Y      Z        X      Y      Z
     1   7     0.01   0.01   0.07    -0.00  -0.01   0.04    -0.00   0.00  -0.00
     2   6     0.01   0.00   0.05     0.00  -0.01  -0.01    -0.00   0.01   0.01
     3   6     0.01   0.00  -0.04    -0.00  -0.01   0.04     0.00   0.01   0.00
     4   6     0.00   0.01  -0.10    -0.01  -0.02   0.16     0.00   0.01  -0.02
     5   6     0.00   0.01  -0.07    -0.01  -0.01   0.21     0.00   0.01  -0.04
     6   6     0.01   0.02   0.01    -0.00  -0.01   0.14    -0.00   0.01  -0.02
     7   1    -0.00   0.02  -0.11    -0.01  -0.02   0.30     0.01   0.01  -0.06
     8   7     0.02   0.02  -0.06    -0.00  -0.02   0.21    -0.01   0.02  -0.05
     9   6     0.01   0.01   0.01    -0.00  -0.01   0.13    -0.00   0.01  -0.03
    10   6    -0.00   0.00   0.05    -0.00  -0.00   0.03     0.01   0.01  -0.00
    11   6    -0.01  -0.01   0.01    -0.00   0.00  -0.02     0.01   0.02   0.00
    12   6     0.01  -0.01  -0.06    -0.00  -0.01   0.04    -0.00   0.03  -0.02
    13   6     0.02   0.01  -0.09    -0.00  -0.02   0.16    -0.01   0.03  -0.04
    14   1    -0.04  -0.02   0.08    -0.01   0.03  -0.01     0.01  -0.00   0.02
    15   1    -0.02  -0.02   0.03    -0.01   0.01  -0.10     0.01   0.03   0.01
    16  77    -0.01   0.01   0.10    -0.01  -0.00  -0.02     0.01   0.00   0.02
    17   5    -0.01   0.04   0.04     0.02  -0.00  -0.01    -0.03  -0.02   0.04
    18   8    -0.03   0.02  -0.02    -0.05  -0.00  -0.00    -0.09  -0.02   0.05
    19   8     0.00   0.10   0.05     0.10  -0.02   0.01     0.03  -0.04   0.05
    20   6    -0.02   0.07  -0.06    -0.05  -0.01   0.00    -0.06  -0.03   0.06
    21   6    -0.00   0.11  -0.01     0.05  -0.04   0.03     0.00  -0.06   0.08
    22   6    -0.01   0.08  -0.09    -0.05   0.06  -0.06    -0.05  -0.01  -0.00
    23   1    -0.01   0.09  -0.06    -0.00   0.09  -0.09    -0.03  -0.01  -0.02
    24   1    -0.02   0.04  -0.12    -0.11   0.07  -0.08    -0.09  -0.02  -0.03
    25   1     0.00   0.12  -0.13    -0.04   0.06  -0.06    -0.02  -0.00  -0.01
    26   6    -0.02   0.05  -0.10    -0.12  -0.05   0.05    -0.10  -0.04   0.12
    27   1    -0.01   0.09  -0.13    -0.12  -0.06   0.06    -0.09  -0.06   0.14
    28   1    -0.03   0.02  -0.13    -0.18  -0.02   0.03    -0.15  -0.01   0.11
    29   1    -0.02   0.04  -0.07    -0.12  -0.10   0.09    -0.11  -0.06   0.15
    30   6    -0.00   0.19  -0.03     0.09  -0.02   0.01     0.04  -0.05   0.06
    31   1     0.00   0.20  -0.02     0.10   0.05  -0.03     0.05  -0.02   0.03
    32   1    -0.01   0.20  -0.08     0.04  -0.03   0.02     0.02  -0.06   0.08
    33   1     0.01   0.22   0.01     0.15  -0.04   0.03     0.09  -0.07   0.08
    34   6    -0.01   0.10  -0.00     0.04  -0.13   0.09     0.00  -0.11   0.13
    35   1    -0.01   0.12  -0.05     0.00  -0.15   0.11    -0.02  -0.13   0.15
    36   1    -0.01   0.05   0.01     0.02  -0.14   0.10    -0.03  -0.11   0.13
    37   1     0.00   0.13   0.04     0.12  -0.15   0.10     0.05  -0.13   0.13
    38   5    -0.01   0.00   0.07    -0.01   0.01  -0.00    -0.01   0.01  -0.01
    39   8    -0.05  -0.03   0.07    -0.01   0.05   0.01    -0.04  -0.01  -0.02
    40   8     0.01   0.01   0.03    -0.00  -0.01  -0.00    -0.00   0.04  -0.03
    41   6    -0.05  -0.07   0.02    -0.01   0.04   0.00    -0.04  -0.02  -0.04
    42   6     0.00  -0.04  -0.01     0.00  -0.00   0.01    -0.02   0.02  -0.07
    43   6    -0.10  -0.09   0.03    -0.04   0.05  -0.04    -0.05  -0.04  -0.01
    44   6    -0.06  -0.10  -0.01    -0.01   0.07   0.03    -0.05  -0.06  -0.08
    45   1    -0.06  -0.13  -0.06    -0.01   0.06   0.03    -0.06  -0.07  -0.11
    46   1    -0.11  -0.11   0.01    -0.03   0.10   0.03    -0.07  -0.09  -0.06
    47   1    -0.03  -0.07  -0.02     0.01   0.07   0.06    -0.04  -0.04  -0.10
    48   6    -0.00  -0.07  -0.05     0.00  -0.04  -0.01    -0.02   0.03  -0.08
    49   1    -0.03  -0.08  -0.04    -0.02  -0.04  -0.05    -0.02   0.03  -0.04
    50   1    -0.01  -0.10  -0.07     0.00  -0.02   0.00    -0.03  -0.00  -0.11
    51   1     0.04  -0.07  -0.06     0.01  -0.07   0.00     0.00   0.07  -0.10
    52   6     0.05  -0.03  -0.05     0.03  -0.01   0.05    -0.02   0.03  -0.11
    53   1     0.06  -0.07  -0.07     0.05  -0.00   0.07    -0.01   0.01  -0.12
    54   1     0.06  -0.00  -0.05     0.04   0.02   0.05    -0.01   0.03  -0.13
    55   1     0.07  -0.01  -0.06     0.03  -0.04   0.06    -0.02   0.06  -0.11
    56   5     0.00  -0.01   0.06     0.00   0.01  -0.02     0.01  -0.02  -0.00
    57   8     0.03  -0.02   0.06     0.02   0.03  -0.02     0.03  -0.10  -0.02
    58   8    -0.01  -0.01   0.03    -0.00  -0.00  -0.03     0.02   0.04  -0.02
    59   6     0.03  -0.03   0.02     0.02   0.04  -0.02     0.06  -0.06  -0.06
    60   6     0.01  -0.02   0.01     0.01   0.01  -0.04     0.04   0.03  -0.04
    61   6     0.02  -0.03   0.01     0.01   0.04   0.01     0.14  -0.07  -0.11
    62   1    -0.00  -0.01   0.02     0.00   0.02   0.02     0.15  -0.05  -0.12
    63   1     0.04  -0.03   0.03     0.02   0.05   0.02     0.14  -0.14  -0.12
    64   1     0.03  -0.04  -0.02     0.01   0.04   0.01     0.17  -0.04  -0.13
    65   6     0.07  -0.05   0.02     0.04   0.06  -0.03     0.06  -0.09  -0.05
    66   1     0.07  -0.06  -0.01     0.04   0.06  -0.03     0.09  -0.05  -0.07
    67   1     0.08  -0.05   0.03     0.04   0.07  -0.01     0.08  -0.15  -0.05
    68   1     0.08  -0.05   0.03     0.04   0.06  -0.05     0.00  -0.09  -0.01
    69   6    -0.00  -0.02  -0.02     0.00   0.00  -0.02     0.09   0.09  -0.09
    70   1    -0.01  -0.02  -0.02    -0.00  -0.01   0.00     0.12   0.07  -0.11
    71   1     0.01  -0.03  -0.04     0.01   0.02  -0.02     0.12   0.09  -0.11
    72   1    -0.02  -0.02  -0.03    -0.01  -0.02  -0.04     0.05   0.14  -0.09
    73   6     0.03  -0.03  -0.00     0.02   0.02  -0.07    -0.00   0.04   0.00
    74   1     0.04  -0.03  -0.02     0.03   0.03  -0.08    -0.01   0.04   0.01
    75   1     0.04  -0.02   0.01     0.02   0.02  -0.07    -0.03   0.02   0.01
    76   1     0.01  -0.03  -0.01     0.00   0.00  -0.09     0.01   0.08   0.02
    77   1     0.01  -0.00   0.09     0.01  -0.00  -0.08    -0.01   0.01   0.02
    78   1    -0.11  -0.08   0.04    -0.04   0.02  -0.06    -0.03  -0.01   0.01
    79   1    -0.13  -0.09   0.05    -0.05   0.08  -0.04    -0.07  -0.07   0.01
    80   1    -0.10  -0.13   0.00    -0.04   0.04  -0.04    -0.06  -0.05  -0.04
    81   1     0.03   0.01  -0.15     0.00  -0.03   0.22    -0.02   0.03  -0.06
    82   1     0.00   0.01  -0.16    -0.01  -0.02   0.20     0.00   0.01  -0.03
    83   6     0.01  -0.03  -0.12     0.00   0.00  -0.05    -0.01   0.05   0.00
    84   6     0.01  -0.02  -0.10    -0.00  -0.01  -0.06    -0.00   0.02   0.02
    85   9     0.06  -0.01  -0.12     0.06   0.03  -0.11    -0.02   0.02   0.03
    86   9    -0.00  -0.02  -0.10     0.01  -0.00  -0.06     0.00   0.02   0.03
    87   9    -0.02  -0.04  -0.12    -0.07  -0.05  -0.10     0.01   0.02   0.03
    88   9     0.03  -0.05  -0.16    -0.03   0.01  -0.06    -0.01   0.05   0.01
    89   9     0.05  -0.02  -0.13     0.08  -0.01  -0.07    -0.02   0.05   0.01
    90   9    -0.03  -0.06  -0.13    -0.04   0.02  -0.09     0.01   0.05   0.01
                      7                      8                      9
                      A                      A                      A
 Frequencies --     48.5843                51.9313                59.8554
 Red. masses --      6.2591                 4.4849                 6.0832
 Frc consts  --      0.0087                 0.0071                 0.0128
 IR Inten    --      0.1299                 0.0602                 0.1023
  Atom AN      X      Y      Z        X      Y      Z        X      Y      Z
     1   7     0.00   0.03  -0.01     0.01   0.01  -0.00    -0.03  -0.03  -0.01
     2   6     0.00   0.03   0.01     0.01   0.00  -0.01    -0.04  -0.02  -0.00
     3   6     0.01   0.04   0.02     0.01  -0.00  -0.02    -0.03  -0.00  -0.01
     4   6     0.01   0.03   0.01    -0.00   0.00  -0.03    -0.01  -0.01  -0.06
     5   6     0.02   0.03  -0.00    -0.00   0.01  -0.01    -0.01  -0.02  -0.08
     6   6     0.01   0.02  -0.02     0.00   0.01   0.00    -0.03  -0.03  -0.05
     7   1     0.02   0.02  -0.01    -0.01   0.01  -0.01     0.00  -0.03  -0.11
     8   7     0.02   0.01  -0.03     0.00   0.01   0.04    -0.04  -0.01  -0.07
     9   6     0.01   0.02  -0.03     0.00   0.02   0.02    -0.03  -0.02  -0.04
    10   6     0.01   0.01  -0.02     0.01   0.02   0.01    -0.01  -0.02  -0.00
    11   6     0.01   0.00  -0.01     0.01   0.02   0.01    -0.02  -0.00   0.01
    12   6     0.01   0.00  -0.01     0.01   0.02   0.04    -0.03   0.01  -0.00
    13   6     0.02   0.01  -0.02     0.00   0.01   0.05    -0.04   0.00  -0.05
    14   1     0.01   0.01  -0.01     0.02   0.05   0.02    -0.02  -0.05   0.00
    15   1     0.00   0.00  -0.00     0.01   0.02  -0.00    -0.00   0.01   0.03
    16  77    -0.00   0.02  -0.01     0.01   0.01   0.01     0.01  -0.03   0.02
    17   5    -0.06  -0.00   0.01    -0.04  -0.01   0.02     0.06  -0.01   0.00
    18   8    -0.06   0.00   0.03    -0.06  -0.00   0.03     0.08  -0.02  -0.01
    19   8    -0.08  -0.02   0.00    -0.06  -0.02   0.02     0.08   0.01   0.01
    20   6    -0.02  -0.02   0.04    -0.05  -0.02   0.04     0.03   0.00  -0.03
    21   6    -0.06  -0.02   0.02    -0.07  -0.02   0.02     0.06   0.00  -0.01
    22   6     0.00  -0.10   0.05    -0.04  -0.06   0.05     0.01   0.07  -0.02
    23   1    -0.05  -0.14   0.05    -0.07  -0.08   0.06     0.05   0.10  -0.03
    24   1     0.04  -0.14   0.04    -0.02  -0.08   0.04    -0.02   0.11  -0.01
    25   1     0.05  -0.10   0.05    -0.02  -0.05   0.04    -0.03   0.06  -0.01
    26   6     0.03   0.03   0.08    -0.03   0.00   0.06    -0.01  -0.04  -0.06
    27   1     0.05   0.01   0.10    -0.03  -0.01   0.07    -0.04  -0.02  -0.08
    28   1     0.06   0.03   0.10    -0.01   0.01   0.08    -0.03  -0.04  -0.08
    29   1     0.02   0.08   0.06    -0.03   0.03   0.04     0.00  -0.09  -0.05
    30   6    -0.08  -0.05   0.03    -0.11  -0.03   0.03     0.06   0.03  -0.02
    31   1    -0.08  -0.09   0.05    -0.11  -0.04   0.05     0.06   0.06  -0.02
    32   1    -0.05  -0.05   0.04    -0.11  -0.03   0.03     0.03   0.03  -0.03
[...]
 ,-0.00023096,0.00015716,-0.00152368,-0.00190908,0.00038038,-0.00011600
 ,-0.00034667,-0.00037863,-0.00001784,0.00006963,-0.00000763,0.00001944
 ,-0.00002050,0.00002593,0.00001445,0.00000241,-0.00000307,-0.00002952,
 -0.00000601,0.00001441,-0.00001867,0.00049702,-0.00056335,-0.00002401,
 0.00002072,-0.00001336,-0.11554016,0.01425284,-0.08195103,0.00123598,0
 .00017744,-0.00002050,-0.00033519,-0.00018462,-0.00012094,-0.00031884,
 0.00012285,-0.00000676,-0.00039518,-0.00017533,0.00020063,0.01731342,-
 0.00194909,0.00958811,0.10424213,0.00004570,0.00011302,-0.00001253,0.0
 0003298,-0.00002344,0.00001377,0.00005385,0.00005876,0.00001327,-0.000
 06311,-0.00001109,-0.00001353,0.00007400,-0.00002312,-0.00000409,-0.00
 022240,0.00003398,0.00002637,-0.00001264,0.00000243,0.00001011,-0.0010
 0606,0.00023906,0.00012363,0.00018612,0.00106665,0.00017562,0.00122607
 ,0.00029014,-0.00038042,0.00089574,-0.00163823,0.00096790,0.00144638,0
 .01272573,0.00391991,-0.00057888,-0.00146840,-0.00144129,-0.00010554,-
 0.00014524,-0.00006938,0.00035418,0.00027308,0.00037252,-0.00008168,0.
 00010733,0.00000260,0.00015794,-0.00017683,-0.00000935,-0.00009105,0.0
 0008050,-0.00003284,-0.00006211,0.00007339,0.00002183,0.00001422,0.000
 00461,0.00000918,0.00006037,-0.00003676,0.00000083,-0.00000608,0.00000
 235,0.00000339,-0.00000501,0.00000369,-0.00000347,0.00000113,-0.000003
 43,0.00000082,-0.00000010,-0.00000233,-0.00000181,0.00001699,0.0000047
 9,0.00000408,-0.00000442,0.00000089,-0.00000804,0.00000133,0.00000395,
 0.00000256,-0.00001086,0.00000374,0.00000405,-0.00001936,0.00000773,0.
 00000237,-0.00001130,-0.00000342,-0.00000580,0.00000177,0.00000151,0.0
 0000304,0.00000681,-0.00000001,0.00000055,-0.00001547,0.00000231,0.000
 02022,-0.00000610,-0.00000226,-0.00000112,0.00000923,0.00001702,-0.000
 00257,0.00000513,0.00000055,0.00000822,0.00003319,-0.00006415,-0.00001
 343,-0.00001034,0.00004486,-0.00005076,-0.00002681,0.00003235,-0.00002
 236,0.00002362,-0.00000085,-0.00000972,0.00000508,-0.00001272,0.000004
 08,0.00000189,0.00000013,0.00001197,0.00000355,-0.00000156,0.00000427,
 -0.00000542,0.00000136,-0.00000299,0.00000511,-0.00000389,-0.00000583,
 0.00000306,0.00000963,0.00000299,0.00000070,-0.00000240,-0.00000408,-0
 .00000229,0.00000439,0.00000239,0.00000078,0.00000089,-0.00000001,-0.0
 0000054,-0.00000195,-0.00000144,0.00000423,0.00000102,0.00000026,-0.00
 000002,0.00000199,0.00000186,-0.00000210,0.00000256,-0.00000184,0.0000
 0220,0.00000018,-0.00000102,0.00093862,-0.00029833,0.00025197,-0.00042
 585,0.00010116,-0.00019564,-0.00077880,0.00007570,-0.00027987,0.000230
 64,-0.00010541,-0.00011220,0.00067762,0.00024936,0.00052797,-0.0000990
 3,0.00001963,0.00004782,0.00002476,-0.00000820,-0.00000235,-0.00002454
 ,-0.00003636,0.00002309,0.00000456,0.00001287,-0.00000939,-0.00004331,
 0.00004162,0.00002855,-0.00000612,0.00001848,-0.00002885,-0.00003318,-
 0.00004210,0.00002158,0.00004026,-0.00002795,-0.00006432,-0.00014762,-
 0.00010565,-0.00008314,0.00000909,-0.00010068,-0.00002863,-0.00001013,
 0.00002781,0.00000201,-0.00000923,0.00004937,0.00004531,-0.00046704,-0
 .00015747,-0.00006212,0.00005092,0.00000814,-0.00001802,-0.00192316,-0
 .00551724,0.00125961,0.00004992,-0.00427738,-0.00022715,0.00000734,-0.
 00002034,0.00000312,-0.00000048,0.00000362,-0.00000584,0.00000258,-0.0
 0000218,-0.00000265,-0.00000308,-0.00000011,-0.00000022,-0.00040202,0.
 00028912,0.00017595,-0.00000154,-0.00000268,0.00000035,0.01403850,-0.0
 8114037,0.03302976,-0.00010629,-0.00006015,0.00002038,0.00003167,0.000
 02910,0.00001143,0.00001470,0.00001058,-0.00000378,0.00003970,0.000032
 06,-0.00003232,0.00668018,-0.02959729,0.05864656,-0.01725207,0.1005931
 4,-0.00010547,-0.00018745,0.00002432,-0.00020623,0.00016705,0.00000720
 ,-0.00027809,-0.00035491,-0.00005647,0.00041116,0.00013690,0.00002842,
 -0.00062046,0.00010364,0.00002775,0.00077385,-0.00007125,-0.00031909,0
 .00008619,-0.00006101,-0.00001410,-0.00246989,-0.00014510,0.00151123,-
 0.00018646,0.00059707,-0.00023997,-0.00037090,-0.00014925,0.00079006,-
 0.00025160,0.00171150,0.00052393,-0.01845740,0.00606004,-0.01808955,-0
 .00035629,-0.00288381,-0.00145377,0.00037770,0.00051458,0.00022267,0.0
 0009435,0.00023727,-0.00105348,-0.00007151,-0.00060686,-0.00004352,-0.
 00022254,0.00071657,0.00002562,0.00014889,-0.00043667,0.00006617,0.000
 04638,-0.00031101,-0.00007278,-0.00002029,0.00008728,0.00001932,-0.000
 05228,0.00015514,0.00003266,0.00000261,-0.00001931,-0.00000037,0.00002
 040,-0.00000205,0.00000715,-0.00001142,-0.00000209,0.00001045,-0.00000
 095,-0.00000226,-0.00001050,-0.00003335,-0.00001756,-0.00000224,0.0000
 1522,-0.00000440,0.00000671,-0.00001775,-0.00001795,0.00001030,0.00001
 853,0.00000667,-0.00002144,0.00002366,-0.00000940,-0.00001670,0.000004
 38,0.00000896,0.00000645,0.00000252,-0.00002035,-0.00000963,-0.0000095
 8,0.00000326,0.00001824,0.00000923,0.00001013,-0.00007317,0.00000653,-
 0.00002942,-0.00000544,-0.00000550,0.00001650,-0.00002742,0.00000176,0
 .00000245,0.00006355,0.00030462,0.00046952,-0.00018327,-0.00026566,-0.
 00024262,0.00039424,-0.00022396,-0.00025001,0.00016965,0.00011972,-0.0
 0000037,-0.00004376,0.00006839,0.00010301,-0.00010683,-0.00003473,0.00
 001275,-0.00004468,-0.00003099,-0.00000407,-0.00001146,-0.00000453,-0.
 00001374,0.00001585,-0.00000017,0.00001270,0.00002200,-0.00000193,-0.0
 0001550,-0.00001108,-0.00001153,0.00000392,0.00001964,0.00001104,-0.00
 000602,-0.00001316,-0.00001694,-0.00001243,0.00001075,0.00000379,0.000
 00742,-0.00000313,-0.00001616,-0.00001300,0.00002287,-0.00001489,-0.00
 002190,0.00000748,0.00000614,0.00000656,-0.00001043,0.00000619,0.00000
 453,0.00000102,-0.00150935,0.00081890,-0.00111929,0.00089007,-0.000332
 18,0.00094789,0.00128445,-0.00045491,0.00102265,-0.00055971,0.00030243
 ,-0.00003797,-0.00137446,-0.00036063,-0.00123172,0.00018790,-0.0000487
 9,-0.00000625,-0.00003295,0.00005189,0.00001702,0.00001504,0.00005595,
 -0.00003747,0.00000676,-0.00004418,0.00000856,0.00003953,-0.00020083,-
 0.00000255,0.00002774,-0.00003892,0.00005479,0.00003907,0.00007870,-0.
 00000956,-0.00008112,0.00007083,0.00009886,0.00038769,0.00024508,0.000
 10234,-0.00004161,0.00018379,0.00006356,0.00003123,-0.00008651,0.00004
 118,-0.00005020,-0.00003964,-0.00005190,0.00106948,0.00029497,0.000431
 49,0.00002754,-0.00029399,0.00016333,-0.00021764,0.00175565,-0.0004585
 0,-0.00001777,-0.00114075,-0.00080470,-0.00001342,0.00004947,-0.000010
 82,0.00000939,-0.00001794,0.00001552,0.00000873,0.00000081,0.00001171,
 -0.00001605,0.00000058,0.00001025,0.00012731,0.00021402,-0.00065406,-0
 .00001535,0.00001385,-0.00001680,-0.07778194,0.03252715,-0.24810952,0.
 00072597,0.00012301,-0.00010353,-0.00019212,-0.00010061,-0.00004327,-0
 .00018274,0.00006004,0.00001180,-0.00024264,-0.00012050,0.00016001,0.0
 0028218,0.04511511,-0.03705036,0.09516875,-0.06026091,0.38093750,-0.00
 024448,-0.00032257,-0.00002096,-0.00023239,0.00021020,0.00000978,-0.00
 040664,-0.00049001,-0.00008179,0.00059497,0.00019818,0.00007810,-0.000
 91586,0.00024388,-0.00003035,0.00133971,-0.00020429,0.00031686,0.00015
 330,-0.00011420,-0.00002643,-0.00383920,0.00182706,-0.00152832,-0.0003
 0776,0.00128684,0.00005628,0.00067207,0.00073611,-0.00115999,-0.000414
 27,0.00131572,0.00052292,-0.02568611,0.03513489,0.02787982,-0.00437132
 ,-0.00705929,0.00130423,0.00032273,0.00061082,0.00034302,-0.00269128,-
 0.00104277,0.00150907,0.00000091,-0.00101351,-0.00020161,-0.00051683,0
 .00129083,0.00068665,0.00020732,-0.00070574,-0.00024080,0.00032753,-0.
 00059631,-0.00063611,-0.00002888,0.00017232,0.00023523,-0.00025077,0.0
 0035954,0.00012327,0.00001202,-0.00001567,-0.00005371,0.00001831,-0.00
 000164,0.00002858,-0.00000110,0.00002118,0.00000610,-0.00000923,-0.000
 02641,-0.00002438,-0.00001666,-0.00002917,-0.00003131,0.00000766,-0.00
 003170,-0.00001191,0.00000315,0.00000367,0.00000652,0.00001106,0.00000
 605,0.00001643,0.00004091,-0.00004815,-0.00000726,0.00002045,0.0000128
 1,0.00001824,-0.00000409,-0.00003045,-0.00002396,-0.00000886,0.0000243
 0,-0.00001750,0.00007468,-0.00007714,0.00000629,0.00003370,-0.00003489
 ,-0.00001391,-0.00004852,0.00000406,0.00003556,-0.00003625,0.00002955,
 -0.00004855,0.00044767,0.00067309,-0.00010193,-0.00037933,-0.00032897,
 0.00036692,-0.00036818,-0.00037754,0.00013791,0.00018092,0.00002683,-0
 .00003769,0.00011019,0.00016338,-0.00011995,-0.00003311,0.00001626,-0.
 00004323,-0.00003310,-0.00000587,-0.00000361,-0.00001795,-0.00001622,0
 .00001850,0.00000497,0.00001164,0.00000863,0.00000766,-0.00001765,-0.0
 0000726,-0.00001673,0.00000136,0.00002199,0.00001963,-0.00001070,-0.00
 001016,-0.00002046,-0.00001321,0.00001626,-0.00000094,0.00000336,-0.00
 001642,-0.00002156,-0.00002257,0.00002240,-0.00001409,-0.00002990,0.00
 001153,0.00000870,0.00001375,0.00000352,-0.00000413,0.00000310,-0.0000
 1462,-0.00138320,0.00099822,-0.00059427,0.00079869,-0.00048516,0.00053
 213,0.00126049,-0.00067806,0.00041293,-0.00045426,0.00034426,0.0000540
 8,-0.00052443,-0.00005943,-0.00081233,0.00013112,-0.00004063,-0.000049
 44,-0.00004029,0.00002552,-0.00000038,0.00001725,0.00004489,-0.0000299
 9,0.00002338,-0.00005568,0.00002691,0.00007038,-0.00001945,0.00000595,
 0.00003382,-0.00004453,0.00004690,0.00001659,0.00003668,-0.00001813,-0
 .00005232,0.00002975,0.00002396,-0.00000990,-0.00002851,0.00014862,0.0
 0002092,0.00005117,-0.00001238,0.00003545,-0.00004250,0.00001020,0.000
 03652,-0.00004964,-0.00010497,-0.00058717,0.00012517,0.00106757,0.0001
 4478,-0.00000382,-0.00004094,0.00010314,-0.00005113,-0.00020326,-0.000
 32323,-0.00039601,-0.00031336,-0.00001801,0.00006385,-0.00000952,0.000
 02079,-0.00001914,0.00002541,0.00001185,0.00000369,-0.00000893,-0.0000
 2802,-0.00000669,0.00001405,0.00013418,0.00025126,0.00009592,-0.000018
 43,0.00001847,0.00000848,-0.15027231,0.07091508,0.06664571,0.00107168,
 0.00016772,0.00000064,-0.00030577,-0.00017428,-0.00012825,-0.00028102,
 0.00009976,-0.00001176,-0.00032930,-0.00014490,0.00015488,0.01867317,0
 .00123063,-0.00543817,0.01844083,-0.00343120,0.00380646,0.14990246,0.0
 0010493,0.00023460,0.00000042,0.00017472,-0.00009050,-0.00001326,0.000
 16929,0.00026042,0.00003809,-0.00028780,-0.00007031,-0.00003287,0.0003
 3981,-0.00012728,0.00001739,-0.00066469,0.00025328,-0.00018191,-0.0000
 7297,0.00004216,0.00000905,0.00118044,0.00018662,0.00073829,0.00001732
 ,-0.00031723,-0.00009420,0.00009623,0.00093837,0.00117738,-0.00163669,
 -0.00363383,0.00075133,0.01140189,-0.00399860,-0.01156584,0.00091521,0
 .00134264,-0.00068544,-0.00000064,-0.00022864,-0.00013295,-0.00100549,
 -0.00002988,0.00101270,-0.00018203,0.00036500,0.00011779,0.00038638,-0
 .00051264,-0.00035307,-0.00016668,0.00022430,0.00010322,-0.00025213,0.
 00023389,0.00030997,0.00002832,-0.00002454,-0.00009059,0.00020677,-0.0
 0014725,-0.00003527,-0.00001490,-0.00000055,0.00003417,-0.00000583,0.0
 0000691,-0.00001560,-0.00000490,-0.00001763,0.00000401,0.00000379,0.00
 000740,0.00000278,0.00001613,0.00001141,0.00002172,-0.00000208,0.00001
 443,-0.00000368,-0.00000962,-0.00000589,0.00000723,-0.00001417,0.00000
 752,-0.00001517,-0.00004238,0.00003105,-0.00000091,-0.00002852,-0.0000
 0785,-0.00001597,0.00000605,0.00000556,0.00001105,0.00001213,-0.000009
 46,0.00002080,-0.00005923,0.00004686,-0.00001542,-0.00002655,-0.000009
 92,0.00000085,0.00003949,0.00004872,-0.00004602,0.00002931,-0.00000881
 ,0.00009006,0.00004716,-0.00018536,-0.00002803,0.00000553,0.00009343,-
 0.00005009,-0.00000441,0.00011368,-0.00002770,0.00002159,-0.00001796,-
 0.00002039,-0.00000849,-0.00004743,0.00001575,0.00000176,-0.00000457,0
 .00002354,0.00000255,0.00000005,0.00000424,-0.00000275,0.00000205,-0.0
 0000447,0.00000559,-0.00000546,-0.00000304,0.00000028,0.00001657,0.000
 00200,0.00000395,-0.00000624,-0.00000833,-0.00000828,0.00001025,0.0000
 0369,0.00000213,0.00000276,-0.00000262,0.00000107,-0.00000163,0.000003
 19,0.00000799,0.00000607,0.00000085,-0.00000093,0.00000668,0.00000164,
 -0.00000516,0.00000159,-0.00001053,0.00000934,0.00000074,0.00000537,0.
 00140072,-0.00055094,0.00001411,-0.00058678,0.00024478,-0.00003325,-0.
 00115126,0.00018841,0.00002913,0.00027707,-0.00018858,-0.00020464,0.00
 029375,0.00028982,0.00040269,-0.00012061,0.00002238,0.00008489,0.00004
 090,0.00000296,0.00000569,-0.00003547,-0.00004600,0.00003143,-0.000001
 22,0.00002473,-0.00002151,-0.00008271,-0.00002041,0.00002379,-0.000008
 98,0.00002818,-0.00003670,-0.00003206,-0.00003552,0.00003647,0.0000397
 8,-0.00001993,-0.00004313,0.00006266,0.00003728,-0.00015040,-0.0000336
 6,-0.00006292,0.00001506,-0.00001693,0.00000596,0.00003097,-0.00008062
 ,0.00009048,0.00010090,0.00029031,-0.00008775,-0.00074386,-0.00003847,
 -0.00011435,0.00010603,-0.00015963,-0.00003153,0.00007735,-0.00071450,
 -0.00236779,0.00166690,0.00001944,-0.00004927,0.00000492,-0.00000489,0
 .00000689,-0.00001466,0.00000248,-0.00000343,0.00000375,-0.00000032,0.
 00000410,-0.00000173,-0.00056353,0.00062955,0.00002869,-0.00000255,-0.
 00000899,-0.00000563,0.07544331,-0.16282006,-0.07825711,-0.00040980,-0
 .00013050,-0.00000082,0.00012478,0.00009376,0.00006224,0.00008644,-0.0
 0000636,0.00000223,0.00013250,0.00007674,-0.00006841,0.01548566,-0.077
 61791,-0.02641995,0.00002398,0.00834359,-0.02366459,-0.10040960,0.2390
 6705,0.00011443,0.00010595,0.00000480,0.00004623,-0.00004166,-0.000007
 12,0.00011114,0.00011605,0.00002464,-0.00014307,-0.00003307,-0.0000036
 3,0.00020541,-0.00008578,0.00001935,-0.00037833,0.00013234,0.00000345,
 -0.00005410,0.00003519,-0.00002503,0.00068679,-0.00096643,-0.00026015,
 -0.00013476,0.00016588,-0.00009283,0.00044254,0.00020653,0.00033538,-0
 .00146889,-0.00188010,0.00034699,0.00828826,-0.01107837,0.00107985,0.0
 0211817,0.00188232,0.00057530,0.00001046,-0.00014016,-0.00012092,0.000
 66829,0.00184659,-0.00141273,-0.00001385,0.00028677,0.00019110,0.00023
 909,-0.00039547,-0.00043555,-0.00007665,0.00018485,0.00017770,-0.00020
 538,0.00018490,0.00036074,0.00001153,-0.00004046,-0.00012533,0.0001482
 1,-0.00012659,-0.00004697,-0.00000911,-0.00000246,0.00003528,-0.000000
 15,0.00000263,-0.00001419,-0.00000663,-0.00001586,0.00000383,0.0000050
 4,0.00001332,0.00000649,-0.00000424,0.00000735,0.00002072,0.00000263,0
 .00001683,0.00000639,-0.00001209,-0.00001163,0.00000477,-0.00000129,0.
 00000282,-0.00002150,-0.00001734,0.00002831,-0.00000747,-0.00001533,-0
 .00000348,-0.00000940,0.00000464,0.00000405,0.00001019,0.00000205,-0.0
 0001134,0.00002478,-0.00003995,0.00005829,-0.00005045,-0.00002172,-0.0
 0000516,0.00000444,0.00002721,0.00001910,-0.00004047,0.00002275,-0.000
 01146,0.00008196,-0.00006192,-0.00014318,-0.00007519,0.00007011,0.0000
 7241,-0.00002048,0.00006541,0.00008858,0.00000653,-0.00002406,-0.00001
 359,-0.00000818,-0.00001780,-0.00003875,0.00000909,0.00000194,-0.00000
 250,0.00000764,0.00000416,0.00000119,-0.00000118,0.00000474,0.00000216
 ,-0.00000332,-0.00000040,-0.00000113,0.00000416,-0.00000379,0.00000567
 ,-0.00000108,0.00000314,-0.00000062,-0.00000363,-0.00000596,0.00000485
 ,-0.00000018,0.00000236,0.00000116,-0.00000290,0.00000282,0.00000143,0
 .00000632,0.00000500,0.00000597,-0.00000048,-0.00000071,0.00000571,-0.
 00000085,-0.00000239,-0.00000265,-0.00000934,0.00000766,0.00000098,0.0
 0000814,0.00034641,-0.00023111,-0.00015817,-0.00012798,0.00012388,0.00
 012120,-0.00027571,0.00014773,0.00023912,0.00004388,-0.00007369,-0.000
 07870,-0.00027790,-0.00007645,0.00004331,-0.00001186,0.00000425,0.0000
 3211,0.00001207,0.00000912,0.00000609,-0.00000910,-0.00000796,0.000004
 98,-0.00000634,0.00001062,-0.00001147,-0.00003160,-0.00005583,-0.00000
 172,-0.00000374,0.00000741,-0.00000756,0.00000046,0.00000356,0.0000119
 0,0.00000047,0.00001228,0.00000892,0.00015420,0.00010530,-0.00005075,-
 0.00002220,0.00003900,0.00002504,-0.00000824,-0.00001642,0.00002444,-0
 .00005579,0.00000713,0.00002776,0.00107411,0.00016997,-0.00088563,-0.0
 0012005,-0.00012414,0.00019408,-0.00039255,-0.00002167,0.00019561,0.00
 015440,0.00200930,-0.00128479,0.00000757,-0.00001924,-0.00000482,-0.00
 000574,0.00000284,-0.00000792,-0.00000019,-0.00000156,0.00000843,0.000
 00504,0.00000351,-0.00000263,-0.00006426,0.00012078,-0.00001822,0.0000
 0102,-0.00000556,-0.00000624,0.06874265,-0.07594483,-0.14442208,-0.000
 26698,-0.00006020,-0.00005740,0.00008127,0.00005801,0.00005466,0.00006
 626,-0.00001720,0.00001157,0.00007993,0.00003521,-0.00002044,-0.002985
 69,-0.01620326,0.01251169,0.01787551,-0.03631301,-0.07647848,-0.094581
 63,0.13586393,0.20941664\\0.00000343,0.00000337,-0.00000014,0.00000197
 ,-0.00000248,0.00000209,-0.00000895,0.00000184,-0.00000036,-0.00000063
 ,-0.00000495,0.00000201,-0.00000681,-0.00000529,0.00000130,-0.00000941
 ,-0.00000596,-0.00000134,-0.00000017,0.00000362,0.00000003,0.00000346,
 0.00000785,0.00000032,-0.00000317,-0.00000502,0.00000213,0.00000238,0.
 00000229,-0.00000080,-0.00000678,-0.00000490,-0.00000064,0.00000376,0.
 00000451,0.00000023,-0.00000685,0.00000103,0.00000073,0.00000030,0.000
 00053,-0.00000147,-0.00000035,0.00000349,0.00000054,-0.00000307,-0.000
 00072,0.00000210,0.00000089,0.00000323,-0.00000006,0.00000184,-0.00000
 116,-0.00000191,0.00000030,0.00000066,0.00000041,0.00000356,-0.0000027
 5,0.00000368,0.00000015,0.00000139,-0.00000259,0.00000383,0.00000178,-
 0.00000217,0.00000015,-0.00000108,0.00000028,0.00000025,-0.00000076,0.
 00000086,0.00000084,-0.00000028,-0.00000020,-0.00000048,0.,-0.00000334
 ,0.00000132,0.00000096,0.00000058,0.00000163,0.00000108,-0.00000095,0.
 00000253,0.00000140,0.00000035,0.00000936,-0.00000068,0.00000067,-0.00
 000437,0.00000090,-0.00000136,-0.00000011,0.00000171,-0.00000002,-0.00
 000136,-0.00000021,0.00000089,0.00000273,0.00000104,-0.00000728,-0.000
 00021,0.00000291,0.00000019,0.00000089,0.00000207,0.00000245,-0.000000
 85,-0.00000122,0.00000182,0.00000357,0.00000004,0.00000181,0.00000323,
 -0.00000067,-0.00000018,-0.00000246,-0.00000393,-0.00000172,0.00000038
 ,-0.00000411,0.00000256,-0.00000370,-0.00000297,-0.00000296,0.00000064
 ,-0.00000120,0.00000169,0.00000194,-0.00000637,-0.00000190,0.00000168,
 -0.00000070,-0.00000017,0.00000134,0.00000052,0.00000040,-0.00000117,0
 .00000180,0.00000076,0.00000670,-0.00000269,-0.00000055,-0.00000093,-0
 .00000342,0.00000167,-0.00000127,-0.00000180,0.00000189,0.00000085,-0.
 00000110,0.00000025,0.00000402,-0.00000092,-0.00000039,0.00000096,-0.0
 0000112,0.00000037,0.00000085,-0.00000145,-0.00000012,0.00000078,-0.00
 000083,0.00000014,0.00000246,-0.00000010,0.00000026,0.00000296,-0.0000
 0106,-0.00000066,-0.00000198,0.00000227,-0.00000016,0.00000254,0.00000
 867,0.00000529,0.00000391,0.00000538,-0.00000145,0.00000021,-0.0000043
 1,0.00000134,0.00000065,0.00000017,-0.00000106,0.00000324,0.00000029,-
 0.00000165,-0.00000090,0.00000244,-0.00000062,-0.00000166,0.00000083,-
 0.00000423,0.00000140,0.00000047,-0.00000034,0.00000082,0.00000068,-0.
 00000056,0.00000004,-0.00000015,-0.00000075,0.,0.,-0.00000679,0.000002
 48,0.00000224,0.00000122,0.00000219,0.00000066,0.00000269,-0.00000095,
 0.00000140,0.00000095,0.00000037,0.00000442,0.00000113,-0.00000093,0.0
 0000101,-0.00000156,0.00000018,0.00000032,-0.00000085,-0.00000130,-0.0
 0000478,0.00000016,-0.00000096,-0.00000130,-0.00000026,0.00000217,-0.0
 0000208,0.00000045,0.00000045,-0.00000021,0.00000113,-0.00000049,-0.00
 000209,0.00000026,-0.00000290,0.00000054,0.00000007,-0.00000175,-0.000
 00069,0.00000026,-0.00000021,0.00000018,0.00000938,0.00000426,-0.00000
 646,-0.00000397,-0.00000095,-0.00000092,0.00000191,-0.00000540,-0.0000
 0176,0.00000193,-0.00000512,-0.00000372,0.00000394,-0.00000549,-0.0000
 0165,0.00000153,-0.00000612,0.00001276,-0.00001317,-0.00000267,0.00000
 732,0.00000161\\\@
 The archive entry for this job was punched.


 FORGIVE MY NONSENSE AS I ALSO FORGIVE THOSE WHO THINK THEY TALK SENSE

                                                       -- ROBERT FROST
 Job cpu time:       1 days  0 hours 40 minutes 30.5 seconds.
 Elapsed time:       0 days  1 hours 34 minutes 44.8 seconds.
 File lengths (MBytes):  RWF=   6117 Int=      0 D2E=      0 Chk=     41 Scr=      1
 Normal termination of Gaussian 16 at Sat Dec  7 20:26:40 2024.
