/mnt/lustre/scratch/nvme/SLURM/9663629/usccqdma.3ECF71CuXz
OMP_STACKSIZE=0m
GAUSS_PDEF=16
GAUSS_MDEF=65536MB
GAUSS_RDEF=SCF=Direct
 Entering Gaussian System, Link 0=g16.exe
 Initial command:
 /opt/cesga/2020/software/Core/g16/c1/l1.exe "/mnt/lustre/scratch/nvme/SLURM/9663629/usccqdma.3ECF71CuXz/Gau-578327.inp" -scrdir="/mnt/lustre/scratch/nvme/SLURM/9663629/usccqdma.3ECF71CuXz/"
 Default is to use a total of  16 processors:
                               16 via shared-memory
                                1 via Linda
 Entering Link 1 = /opt/cesga/2020/software/Core/g16/c1/l1.exe PID=    578353.
  
 Copyright (c) 1988-2019, Gaussian, Inc.  All Rights Reserved.
  
 This is part of the Gaussian(R) 16 program.  It is based on
 the Gaussian(R) 09 system (copyright 2009, Gaussian, Inc.),
 the Gaussian(R) 03 system (copyright 2003, Gaussian, Inc.),
 the Gaussian(R) 98 system (copyright 1998, Gaussian, Inc.),
 the Gaussian(R) 94 system (copyright 1995, Gaussian, Inc.),
 the Gaussian 92(TM) system (copyright 1992, Gaussian, Inc.),
 the Gaussian 90(TM) system (copyright 1990, Gaussian, Inc.),
 the Gaussian 88(TM) system (copyright 1988, Gaussian, Inc.),
 the Gaussian 86(TM) system (copyright 1986, Carnegie Mellon
 University), and the Gaussian 82(TM) system (copyright 1983,
 Carnegie Mellon University). Gaussian is a federally registered
 trademark of Gaussian, Inc.
  
 This software contains proprietary and confidential information,
 including trade secrets, belonging to Gaussian, Inc.
  
 This software is provided under written license and may be
 used, copied, transmitted, or stored only in accord with that
 written license.
  
 The following legend is applicable only to US Government
 contracts under FAR:
  
                    RESTRICTED RIGHTS LEGEND
  
 Use, reproduction and disclosure by the US Government is
 subject to restrictions as set forth in subparagraphs (a)
 and (c) of the Commercial Computer Software - Restricted
 Rights clause in FAR 52.227-19.
  
 Gaussian, Inc.
 340 Quinnipiac St., Bldg. 40, Wallingford CT 06492
  
  
 ---------------------------------------------------------------
 Warning -- This program may not be used in any manner that
 competes with the business of Gaussian, Inc. or will provide
 assistance to any competitor of Gaussian, Inc.  The licensee
 of this program is prohibited from giving any competitor of
 Gaussian, Inc. access to this program.  By using this program,
 the user acknowledges that Gaussian, Inc. is engaged in the
 business of creating and licensing software in the field of
 computational chemistry and represents and warrants to the
 licensee that it is not a competitor of Gaussian, Inc. and that
 it will not use this program in any manner prohibited above.
 ---------------------------------------------------------------
  

 Cite this work as:
 Gaussian 16, Revision C.01,
 M. J. Frisch, G. W. Trucks, H. B. Schlegel, G. E. Scuseria, 
 M. A. Robb, J. R. Cheeseman, G. Scalmani, V. Barone, 
 G. A. Petersson, H. Nakatsuji, X. Li, M. Caricato, A. V. Marenich, 
 J. Bloino, B. G. Janesko, R. Gomperts, B. Mennucci, H. P. Hratchian, 
 J. V. Ortiz, A. F. Izmaylov, J. L. Sonnenberg, D. Williams-Young, 
 F. Ding, F. Lipparini, F. Egidi, J. Goings, B. Peng, A. Petrone, 
 T. Henderson, D. Ranasinghe, V. G. Zakrzewski, J. Gao, N. Rega, 
 G. Zheng, W. Liang, M. Hada, M. Ehara, K. Toyota, R. Fukuda, 
 J. Hasegawa, M. Ishida, T. Nakajima, Y. Honda, O. Kitao, H. Nakai, 
 T. Vreven, K. Throssell, J. A. Montgomery, Jr., J. E. Peralta, 
 F. Ogliaro, M. J. Bearpark, J. J. Heyd, E. N. Brothers, K. N. Kudin, 
 V. N. Staroverov, T. A. Keith, R. Kobayashi, J. Normand, 
 K. Raghavachari, A. P. Rendell, J. C. Burant, S. S. Iyengar, 
 J. Tomasi, M. Cossi, J. M. Millam, M. Klene, C. Adamo, R. Cammi, 
 J. W. Ochterski, R. L. Martin, K. Morokuma, O. Farkas, 
 J. B. Foresman, and D. J. Fox, Gaussian, Inc., Wallingford CT, 2019.
 
 ******************************************
 Gaussian 16:  ES64L-G16RevC.01  3-Jul-2019
                 7-Dec-2024 
 ******************************************
 Default route: SCF=Direct
 ----------------------------------------------------
 # m06/genecp scf=tight int=ultrafine 5d freq=noraman
 ----------------------------------------------------
 1/10=4,30=1,38=1/1,3;
 2/12=2,17=6,18=5,40=1/2;
 3/5=7,8=1,11=2,16=1,17=8,25=1,30=1,71=2,74=-54,75=-5,140=1/1,2,3;
 4//1;
 5/5=2,32=2,38=5,98=1/2;
 8/6=4,10=90,11=11/1;
 11/6=1,8=1,9=11,15=111,16=1/1,2,10;
 10/6=1/2;
 6/7=2,8=2,9=2,10=2,28=1/1;
 7/8=1,10=1,25=1/1,2,3,16;
 1/10=4,30=1/3;
 99//99;
 ------
 OPT-TS
 ------
 Symbolic Z-matrix:
 Charge =  0 Multiplicity = 1
 C                     1.10515  -2.60613   0.32628 
 C                     2.87503  -1.81691  -0.90977 
 C                     3.74926  -2.72028  -0.32066 
 C                     3.26223  -3.59991   0.64107 
 C                     1.91923  -3.54624   0.96749 
 C                    -0.32451  -2.47067   0.65358 
 C                    -2.22254  -1.12867   0.66542 
 C                    -2.95952  -2.10469   1.31574 
 C                    -2.3561   -3.31688   1.63204 
 C                    -1.02368  -3.48981   1.30271 
 H                     3.22151  -1.08971  -1.63881 
 H                     3.93215  -4.30301   1.13365 
 H                     1.52147  -4.20075   1.73887 
 H                    -2.65463  -0.16018   0.41104 
 H                    -2.92168  -4.10863   2.1201 
 H                    -0.5287   -4.43211   1.51957 
 N                     1.58629  -1.75012  -0.58221 
 N                    -0.93757  -1.31213   0.31742 
 Ir                    0.05667   0.23225  -0.81299 
 O                    -0.64889   1.52549   1.81338 
 O                    -2.75189   1.43622  -0.69237 
 O                     1.84136   2.65877   0.07398 
 B                    -1.56141   1.3619   -1.44964 
 B                     0.3315    0.82949   1.13465 
 B                     1.72643   1.44616  -0.59508 
 O                     2.9612    1.05089  -1.09616 
 O                     1.2801    0.32589   2.01553 
 C                     0.80292   0.53648   3.35556 
 C                    -0.22347   1.6974    3.17481 
 C                     3.17257   3.15998  -0.1461 
 C                     3.96811   1.86291  -0.47195 
 C                    -3.30038   2.75554  -0.80483 
 C                    -2.12745   3.56725  -1.44545 
 O                    -1.41959   2.56588  -2.17372 
 C                    -1.44204   1.61292   4.07344 
 H                    -2.02395   0.70214   3.88501 
 H                    -1.1529    1.63532   5.13414 
 H                    -2.09908   2.4719    3.88551 
 C                     0.40199   3.08141   3.26429 
 H                     1.2564    3.16806   2.58039 
 H                    -0.3462    3.82192   2.95066 
 H                     0.72348   3.32619   4.28558 
 C                     0.16191  -0.77238   3.79978 
 H                    -0.16114  -0.74048   4.84865 
 H                    -0.70825  -1.02242   3.17717 
 H                     0.89942  -1.57914   3.68871 
 C                     1.98131   0.85981   4.25159 
 H                     2.65903  -0.00267   4.29815 
 H                     2.55193   1.71665   3.8746 
 H                     1.64752   1.08662   5.27437 
 C                    -4.5279    2.67937  -1.70164 
 H                    -4.25699   2.39151  -2.72627 
 H                    -5.2192    1.92579  -1.30098 
 H                    -5.05871   3.64003  -1.74574 
 C                    -3.70835   3.21158   0.58386 
 H                    -4.536     2.58639   0.94686 
 H                    -2.87281   3.10629   1.28537 
 H                    -4.04851   4.25725   0.5772 
 C                    -2.56364   4.65872  -2.40533 
 H                    -1.67689   5.16882  -2.80258 
 H                    -3.12735   4.25814  -3.25505 
 H                    -3.18365   5.40846  -1.89255 
 C                    -1.17424   4.15954  -0.41208 
 H                    -1.63226   4.99713   0.13333 
 H                    -0.83566   3.40436   0.3073 
 H                    -0.28493   4.5314   -0.93785 
 C                     5.11882   2.03696  -1.44221 
 H                     5.88256   2.71016  -1.02719 
 H                     5.59007   1.06223  -1.62615 
 H                     4.78296   2.43713  -2.40493 
 C                     4.44479   1.11829   0.7692 
 H                     3.61503   0.93125   1.4648 
 H                     4.85293   0.14605   0.46102 
 H                     5.24163   1.66371   1.29261 
 C                     3.63497   3.89264   1.09617 
 H                     3.00711   4.77815   1.26048 
 H                     3.56736   3.25771   1.98796 
 H                     4.67598   4.22883   0.98645 
 C                     3.09135   4.12336  -1.32183 
 H                     2.74799   3.61144  -2.23049 
 H                     2.36352   4.90917  -1.08387 
 H                     4.05865   4.60019  -1.52931 
 H                     0.7057    1.40007  -1.77562 
 C                    -2.1913   -2.44357  -2.27238 
 O                    -1.01924  -2.81013  -2.26359 
 C                    -3.32813  -3.43821  -2.08606 
 H                    -3.99955  -3.09129  -1.28333 
 H                    -3.94983  -3.45067  -2.99544 
 C                    -1.49572  -0.13387  -2.60834 
 H                    -0.6002   -0.66458  -2.9705 
 H                    -1.77123   0.53794  -3.43146 
 N                    -2.54078  -1.13289  -2.43228 
 C                    -3.9266   -0.71105  -2.50703 
 H                    -3.96735   0.28313  -2.95906 
 H                    -4.51332  -1.38908  -3.13861 
 H                    -4.40521  -0.64233  -1.51959 
 C                    -2.81627  -4.83437  -1.78994 
 H                    -2.1618   -5.1894   -2.5931 
 H                    -2.22323  -4.84762  -0.86666 
 C                     5.20155  -2.74808  -0.67534 
 F                     5.54123  -1.74498  -1.4893 
 F                     5.96019  -2.65053   0.42539 
 F                     5.53794  -3.89476  -1.27588 
 C                    -4.37701  -1.83919   1.71391 
 F                    -5.15032  -2.90388   1.46235 
 F                    -4.46942  -1.58881   3.02516 
 F                    -4.89669  -0.79454   1.06571 
 H                    -3.64957  -5.5383   -1.67733 
 

 GradGradGradGradGradGradGradGradGradGradGradGradGradGradGradGradGradGrad
 Berny optimization.
 Initialization pass.
 Trust Radius=3.00D-01 FncErr=1.00D-07 GrdErr=1.00D-07 EigMax=2.50D+02 EigMin=1.00D-04
 Number of steps in this run=      2 maximum allowed number of steps=      2.
 GradGradGradGradGradGradGradGradGradGradGradGradGradGradGradGradGradGrad

 Stoichiometry    C35H53B3F6IrN3O7
 Framework group  C1[X(C35H53B3F6IrN3O7)]
 Deg. of freedom   318
 Full point group                 C1      NOp   1
 Largest Abelian subgroup         C1      NOp   1
 Largest concise Abelian subgroup C1      NOp   1
                         Standard orientation:                         
 ---------------------------------------------------------------------
 Center     Atomic      Atomic             Coordinates (Angstroms)
 Number     Number       Type             X           Y           Z
 ---------------------------------------------------------------------
      1          6           0        1.105151   -2.606130    0.326279
      2          6           0        2.875031   -1.816909   -0.909771
      3          6           0        3.749261   -2.720279   -0.320661
      4          6           0        3.262231   -3.599909    0.641069
      5          6           0        1.919231   -3.546240    0.967489
      6          6           0       -0.324509   -2.470671    0.653579
      7          6           0       -2.222540   -1.128672    0.665419
      8          6           0       -2.959519   -2.104692    1.315739
      9          6           0       -2.356099   -3.316882    1.632039
     10          6           0       -1.023679   -3.489811    1.302709
     11          1           0        3.221510   -1.089709   -1.638811
     12          1           0        3.932152   -4.303009    1.133649
     13          1           0        1.521472   -4.200750    1.738869
     14          1           0       -2.654630   -0.160182    0.411039
     15          1           0       -2.921678   -4.108632    2.120099
     16          1           0       -0.528698   -4.432111    1.519569
     17          7           0        1.586290   -1.750120   -0.582211
     18          7           0       -0.937570   -1.312131    0.317419
     19         77           0        0.056669    0.232249   -0.812991
     20          8           0       -0.648891    1.525489    1.813379
     21          8           0       -2.751891    1.436218   -0.692371
     22          8           0        1.841358    2.658770    0.073979
     23          5           0       -1.561411    1.361899   -1.449641
     24          5           0        0.331499    0.829490    1.134649
     25          5           0        1.726429    1.446160   -0.595081
     26          8           0        2.961199    1.050891   -1.096161
     27          8           0        1.280099    0.325890    2.015529
     28          6           0        0.802919    0.536480    3.355559
     29          6           0       -0.223471    1.697399    3.174809
     30          6           0        3.172568    3.159981   -0.146101
     31          6           0        3.968109    1.862911   -0.471951
     32          6           0       -3.300382    2.755538   -0.804831
     33          6           0       -2.127452    3.567248   -1.445451
     34          8           0       -1.419592    2.565879   -2.173721
     35          6           0       -1.442041    1.612919    4.073439
     36          1           0       -2.023951    0.702138    3.885009
     37          1           0       -1.152901    1.635319    5.134139
     38          1           0       -2.099082    2.471898    3.885509
     39          6           0        0.401988    3.081410    3.264289
     40          1           0        1.256398    3.168060    2.580389
     41          1           0       -0.346202    3.821919    2.950659
     42          1           0        0.723478    3.326190    4.285579
     43          6           0        0.161910   -0.772380    3.799779
     44          1           0       -0.161140   -0.740481    4.848649
     45          1           0       -0.708250   -1.022421    3.177169
     46          1           0        0.899420   -1.579140    3.688709
     47          6           0        1.981309    0.859810    4.251589
     48          1           0        2.659030   -0.002669    4.298149
     49          1           0        2.551929    1.716651    3.874599
     50          1           0        1.647519    1.086620    5.274369
     51          6           0       -4.527902    2.679367   -1.701641
     52          1           0       -4.256992    2.391507   -2.726271
     53          1           0       -5.219201    1.925787   -1.300981
     54          1           0       -5.058712    3.640027   -1.745741
     55          6           0       -3.708352    3.211578    0.583859
     56          1           0       -4.536002    2.586387    0.946859
     57          1           0       -2.872812    3.106288    1.285369
     58          1           0       -4.048513    4.257247    0.577199
     59          6           0       -2.563643    4.658718   -2.405331
     60          1           0       -1.676893    5.168819   -2.802581
     61          1           0       -3.127353    4.258138   -3.255051
     62          1           0       -3.183653    5.408458   -1.892551
     63          6           0       -1.174243    4.159539   -0.412081
     64          1           0       -1.632263    4.997129    0.133329
     65          1           0       -0.835662    3.404359    0.307299
     66          1           0       -0.284933    4.531399   -0.937851
     67          6           0        5.118819    2.036962   -1.442211
     68          1           0        5.882558    2.710162   -1.027191
     69          1           0        5.590069    1.062232   -1.626151
     70          1           0        4.782958    2.437132   -2.404931
     71          6           0        4.444789    1.118292    0.769199
     72          1           0        3.615029    0.931251    1.464799
     73          1           0        4.852930    0.146052    0.461019
     74          1           0        5.241629    1.663712    1.292609
     75          6           0        3.634968    3.892641    1.096169
     76          1           0        3.007107    4.778151    1.260479
     77          1           0        3.567358    3.257711    1.987959
     78          1           0        4.675977    4.228832    0.986449
     79          6           0        3.091347    4.123361   -1.321831
     80          1           0        2.747988    3.611441   -2.230491
     81          1           0        2.363517    4.909171   -1.083871
     82          1           0        4.058647    4.600192   -1.529311
     83          1           0        0.705699    1.400070   -1.775621
     84          6           0       -2.191299   -2.443572   -2.272381
     85          8           0       -1.019239   -2.810131   -2.263591
     86          6           0       -3.328129   -3.438212   -2.086061
     87          1           0       -3.999549   -3.091293   -1.283331
     88          1           0       -3.949829   -3.450673   -2.995441
     89          6           0       -1.495720   -0.133871   -2.608341
     90          1           0       -0.600200   -0.664581   -2.970501
     91          1           0       -1.771231    0.537939   -3.431461
     92          7           0       -2.540780   -1.132892   -2.432281
     93          6           0       -3.926600   -0.711053   -2.507031
     94          1           0       -3.967351    0.283127   -2.959061
     95          1           0       -4.513320   -1.389083   -3.138611
     96          1           0       -4.405210   -0.642333   -1.519591
     97          6           0       -2.816268   -4.834372   -1.789941
     98          1           0       -2.161798   -5.189402   -2.593101
     99          1           0       -2.223228   -4.847622   -0.866661
    100          6           0        5.201551   -2.748078   -0.675341
    101          9           0        5.541230   -1.744978   -1.489301
    102          9           0        5.960191   -2.650527    0.425389
    103          9           0        5.537942   -3.894758   -1.275881
    104          6           0       -4.377009   -1.839193    1.713909
    105          9           0       -5.150319   -2.903883    1.462349
    106          9           0       -4.469420   -1.588813    3.025159
    107          9           0       -4.896690   -0.794543    1.065709
    108          1           0       -3.649568   -5.538302   -1.677331
 ---------------------------------------------------------------------
 Rotational constants (GHZ):           0.0632196           0.0465071           0.0384772
 General basis read from cards:  (5D, 7F)
 ======================================================================================================
                                       Pseudopotential Parameters
 ======================================================================================================
  Center     Atomic      Valence      Angular      Power
  Number     Number     Electrons     Momentum     of R      Exponent        Coefficient   SO-Coeffient
 ======================================================================================================
    1          6
                                   No pseudopotential on this center.
    2          6
                                   No pseudopotential on this center.
    3          6
                                   No pseudopotential on this center.
    4          6
                                   No pseudopotential on this center.
    5          6
                                   No pseudopotential on this center.
    6          6
                                   No pseudopotential on this center.
    7          6
                                   No pseudopotential on this center.
    8          6
                                   No pseudopotential on this center.
    9          6
                                   No pseudopotential on this center.
   10          6
                                   No pseudopotential on this center.
   11          1
                                   No pseudopotential on this center.
   12          1
                                   No pseudopotential on this center.
   13          1
                                   No pseudopotential on this center.
   14          1
                                   No pseudopotential on this center.
   15          1
                                   No pseudopotential on this center.
   16          1
                                   No pseudopotential on this center.
   17          7
                                   No pseudopotential on this center.
   18          7
                                   No pseudopotential on this center.
   19         77           17
                                      G and up 
                                                     1      823.5880147       -0.15780140    0.00000000
                                                     2      364.6613336    -1517.52704460    0.00000000
                                                     2       55.7082801     -316.53065290    0.00000000
                                                     2       12.0464544      -91.88809410    0.00000000
                                                     2        3.5120610       -9.22417730    0.00000000
                                      S - G
                                                     0      188.0490770        3.15780140    0.00000000
                                                     1      340.4194712       26.83225770    0.00000000
                                                     2      128.2373673      800.42500070    0.00000000
                                                     2       33.8644961      369.40506830    0.00000000
                                                     2        4.7560005      242.41718990    0.00000000
                                                     2        3.9649974     -118.21732820    0.00000000
                                      P - G
                                                     0      289.7291139        2.15780140    0.00000000
                                                     1       87.4633789       61.96786100    0.00000000
                                                     2       30.4363766      269.05819860    0.00000000
                                                     2        4.0553412      231.16547930    0.00000000
                                                     2        3.5525341     -133.69526670    0.00000000
                                      D - G
                                                     0      136.4017106        3.15780140    0.00000000
                                                     1       95.0776925       45.93498030    0.00000000
                                                     2       49.2258410      359.03446680    0.00000000
                                                     2       15.0874145      176.47401190    0.00000000
                                                     2        4.0405764       54.51552860    0.00000000
                                      F - G
                                                     0      127.3507908        3.95461970    0.00000000
                                                     1       66.2364374       52.97736550    0.00000000
                                                     2       34.4299229      274.86433830    0.00000000
                                                     2       10.1995721      137.20473380    0.00000000
                                                     2        2.5409702       14.86333050    0.00000000
   20          8
                                   No pseudopotential on this center.
   21          8
                                   No pseudopotential on this center.
   22          8
                                   No pseudopotential on this center.
   23          5
                                   No pseudopotential on this center.
   24          5
                                   No pseudopotential on this center.
   25          5
                                   No pseudopotential on this center.
   26          8
                                   No pseudopotential on this center.
   27          8
                                   No pseudopotential on this center.
   28          6
                                   No pseudopotential on this center.
   29          6
                                   No pseudopotential on this center.
   30          6
                                   No pseudopotential on this center.
   31          6
                                   No pseudopotential on this center.
   32          6
                                   No pseudopotential on this center.
   33          6
                                   No pseudopotential on this center.
   34          8
                                   No pseudopotential on this center.
   35          6
                                   No pseudopotential on this center.
   36          1
                                   No pseudopotential on this center.
   37          1
                                   No pseudopotential on this center.
   38          1
                                   No pseudopotential on this center.
   39          6
                                   No pseudopotential on this center.
   40          1
                                   No pseudopotential on this center.
   41          1
                                   No pseudopotential on this center.
   42          1
                                   No pseudopotential on this center.
   43          6
                                   No pseudopotential on this center.
   44          1
                                   No pseudopotential on this center.
   45          1
                                   No pseudopotential on this center.
   46          1
                                   No pseudopotential on this center.
   47          6
                                   No pseudopotential on this center.
   48          1
                                   No pseudopotential on this center.
   49          1
                                   No pseudopotential on this center.
   50          1
                                   No pseudopotential on this center.
   51          6
                                   No pseudopotential on this center.
   52          1
                                   No pseudopotential on this center.
   53          1
                                   No pseudopotential on this center.
   54          1
                                   No pseudopotential on this center.
   55          6
                                   No pseudopotential on this center.
   56          1
                                   No pseudopotential on this center.
   57          1
                                   No pseudopotential on this center.
   58          1
                                   No pseudopotential on this center.
   59          6
                                   No pseudopotential on this center.
   60          1
                                   No pseudopotential on this center.
   61          1
                                   No pseudopotential on this center.
   62          1
                                   No pseudopotential on this center.
   63          6
                                   No pseudopotential on this center.
   64          1
                                   No pseudopotential on this center.
   65          1
                                   No pseudopotential on this center.
   66          1
                                   No pseudopotential on this center.
   67          6
                                   No pseudopotential on this center.
   68          1
                                   No pseudopotential on this center.
   69          1
                                   No pseudopotential on this center.
   70          1
                                   No pseudopotential on this center.
   71          6
                                   No pseudopotential on this center.
   72          1
                                   No pseudopotential on this center.
   73          1
                                   No pseudopotential on this center.
   74          1
                                   No pseudopotential on this center.
   75          6
                                   No pseudopotential on this center.
   76          1
                                   No pseudopotential on this center.
   77          1
                                   No pseudopotential on this center.
   78          1
                                   No pseudopotential on this center.
   79          6
                                   No pseudopotential on this center.
   80          1
                                   No pseudopotential on this center.
   81          1
                                   No pseudopotential on this center.
   82          1
                                   No pseudopotential on this center.
   83          1
                                   No pseudopotential on this center.
   84          6
                                   No pseudopotential on this center.
   85          8
                                   No pseudopotential on this center.
   86          6
                                   No pseudopotential on this center.
   87          1
                                   No pseudopotential on this center.
   88          1
                                   No pseudopotential on this center.
   89          6
                                   No pseudopotential on this center.
   90          1
                                   No pseudopotential on this center.
   91          1
                                   No pseudopotential on this center.
   92          7
                                   No pseudopotential on this center.
   93          6
                                   No pseudopotential on this center.
   94          1
                                   No pseudopotential on this center.
   95          1
                                   No pseudopotential on this center.
   96          1
                                   No pseudopotential on this center.
   97          6
                                   No pseudopotential on this center.
   98          1
                                   No pseudopotential on this center.
   99          1
                                   No pseudopotential on this center.
  100          6
                                   No pseudopotential on this center.
  101          9
                                   No pseudopotential on this center.
  102          9
                                   No pseudopotential on this center.
  103          9
                                   No pseudopotential on this center.
  104          6
                                   No pseudopotential on this center.
  105          9
                                   No pseudopotential on this center.
  106          9
                                   No pseudopotential on this center.
  107          9
                                   No pseudopotential on this center.
  108          1
                                   No pseudopotential on this center.
 ======================================================================================================
 There are   940 symmetry adapted cartesian basis functions of A   symmetry.
 There are   884 symmetry adapted basis functions of A   symmetry.
   884 basis functions,  1767 primitive gaussians,   940 cartesian basis functions
   213 alpha electrons      213 beta electrons
       nuclear repulsion energy      9844.8298633666 Hartrees.
 NAtoms=  108 NActive=  108 NUniq=  108 SFac= 1.00D+00 NAtFMM=   60 NAOKFM=T Big=T
 Integral buffers will be    131072 words long.
 Raffenetti 2 integral format.
 Two-electron integral symmetry is turned on.
 One-electron integrals computed using PRISM.
   1 Symmetry operations used in ECPInt.
 ECPInt:  NShTT=   54615 NPrTT=  339395 LenC2=   41580 LenP2D=  129459.
 LDataN:  DoStor=T MaxTD1= 6 Len=  172
 NBasis=   884 RedAO= T EigKep=  4.80D-04  NBF=   884
 NBsUse=   884 1.00D-06 EigRej= -1.00D+00 NBFU=   884
 Defaulting to unpruned grid for atomic number  77.
 ExpMin= 2.90D-02 ExpMax= 7.00D+03 ExpMxC= 1.05D+03 IAcc=3 IRadAn=         5 AccDes= 0.00D+00
 Harris functional with IExCor= 1009 and IRadAn=       5 diagonalized for initial guess.
 HarFok:  IExCor= 1009 AccDes= 0.00D+00 IRadAn=         5 IDoV= 1 UseB2=F ITyADJ=14
 ICtDFT=  3500011 ScaDFX=  1.000000  1.000000  1.000000  1.000000
 Defaulting to unpruned grid for atomic number  77.
 FoFCou: FMM=F IPFlag=           0 FMFlag=      100000 FMFlg1=        2001
         NFxFlg=           0 DoJE=T BraDBF=F KetDBF=T FulRan=T
         wScrn=  0.000000 ICntrl=       500 IOpCl=  0 I1Cent=   200000004 NGrid=           0
         NMat0=    1 NMatS0=      1 NMatT0=    0 NMatD0=    1 NMtDS0=    0 NMtDT0=    0
 Petite list used in FoFCou.
 Requested convergence on RMS density matrix=1.00D-08 within 128 cycles.
 Requested convergence on MAX density matrix=1.00D-06.
 Requested convergence on             energy=1.00D-06.
 No special actions if energy rises.
 Defaulting to unpruned grid for atomic number  77.
 Defaulting to unpruned grid for atomic number  77.
 Defaulting to unpruned grid for atomic number  77.
 Defaulting to unpruned grid for atomic number  77.
 Defaulting to unpruned grid for atomic number  77.
 Defaulting to unpruned grid for atomic number  77.
 Defaulting to unpruned grid for atomic number  77.
 Defaulting to unpruned grid for atomic number  77.
 Defaulting to unpruned grid for atomic number  77.
 Defaulting to unpruned grid for atomic number  77.
 Defaulting to unpruned grid for atomic number  77.
 Defaulting to unpruned grid for atomic number  77.
 Defaulting to unpruned grid for atomic number  77.
 Defaulting to unpruned grid for atomic number  77.
 Defaulting to unpruned grid for atomic number  77.
 Defaulting to unpruned grid for atomic number  77.
 SCF Done:  E(RM06) =  -2833.52961172     A.U. after   16 cycles
            NFock= 16  Conv=0.62D-08     -V/T= 2.0320
 DoSCS=F DFT=T ScalE2(SS,OS)=  1.000000  1.000000
 Range of M.O.s used for correlation:     1   884
 NBasis=   884 NAE=   213 NBE=   213 NFC=     0 NFV=     0
 NROrb=    884 NOA=   213 NOB=   213 NVA=   671 NVB=   671

 **** Warning!!: The smallest alpha delta epsilon is  0.96588854D-01

   1 Symmetry operations used in ECPInt.
 ECPInt:  NShTT=   54615 NPrTT=  339395 LenC2=   41580 LenP2D=  129459.
 LDataN:  DoStor=T MaxTD1= 7 Len=  274
 Number of processors reduced to   7 by ecpmxn.
 Symmetrizing basis deriv contribution to polar:
 IMax=3 JMax=2 DiffMx= 0.00D+00
 G2DrvN: will do   109 centers at a time, making    1 passes.
 Calling FoFCou, ICntrl=  3107 FMM=T I1Cent=   0 AccDes= 0.00D+00.
 Defaulting to unpruned grid for atomic number  77.
 Defaulting to unpruned grid for atomic number  77.
 Defaulting to unpruned grid for atomic number  77.
 Defaulting to unpruned grid for atomic number  77.
 Defaulting to unpruned grid for atomic number  77.
 Defaulting to unpruned grid for atomic number  77.
 Defaulting to unpruned grid for atomic number  77.
 Defaulting to unpruned grid for atomic number  77.
 Defaulting to unpruned grid for atomic number  77.
 Defaulting to unpruned grid for atomic number  77.
 Defaulting to unpruned grid for atomic number  77.
 Defaulting to unpruned grid for atomic number  77.
 Defaulting to unpruned grid for atomic number  77.
 Defaulting to unpruned grid for atomic number  77.
 Defaulting to unpruned grid for atomic number  77.
 Defaulting to unpruned grid for atomic number  77.
 End of G2Drv F.D. properties file   721 does not exist.
 End of G2Drv F.D. properties file   722 does not exist.
 End of G2Drv F.D. properties file   788 does not exist.
          IDoAtm=11111111111111111111111111111111111111111111111111
          IDoAtm=11111111111111111111111111111111111111111111111111
          IDoAtm=11111111
          Differentiating once with respect to electric field.
                with respect to dipole field.
          Differentiating once with respect to nuclear coordinates.
 Defaulting to unpruned grid for atomic number  77.
 CalDSu exits because no D1Ps are significant.
 Defaulting to unpruned grid for atomic number  77.
 Defaulting to unpruned grid for atomic number  77.
 Defaulting to unpruned grid for atomic number  77.
 Defaulting to unpruned grid for atomic number  77.
 Defaulting to unpruned grid for atomic number  77.
 Defaulting to unpruned grid for atomic number  77.
 Defaulting to unpruned grid for atomic number  77.
 Defaulting to unpruned grid for atomic number  77.
 Defaulting to unpruned grid for atomic number  77.
 Defaulting to unpruned grid for atomic number  77.
 Defaulting to unpruned grid for atomic number  77.
 Defaulting to unpruned grid for atomic number  77.
 Defaulting to unpruned grid for atomic number  77.
 Defaulting to unpruned grid for atomic number  77.
 Defaulting to unpruned grid for atomic number  77.
 Defaulting to unpruned grid for atomic number  77.
          There are   327 degrees of freedom in the 1st order CPHF.  IDoFFX=6 NUNeed=     3.
    324 vectors produced by pass  0 Test12= 1.43D-13 1.00D-09 XBig12= 5.43D+02 1.04D+01.
 AX will form    72 AO Fock derivatives at one time.
    324 vectors produced by pass  1 Test12= 1.43D-13 1.00D-09 XBig12= 9.01D+01 9.76D-01.
    324 vectors produced by pass  2 Test12= 1.43D-13 1.00D-09 XBig12= 1.05D+00 1.11D-01.
    324 vectors produced by pass  3 Test12= 1.43D-13 1.00D-09 XBig12= 8.32D-03 7.70D-03.
    324 vectors produced by pass  4 Test12= 1.43D-13 1.00D-09 XBig12= 3.42D-05 2.75D-04.
    293 vectors produced by pass  5 Test12= 1.43D-13 1.00D-09 XBig12= 7.13D-08 1.58D-05.
     86 vectors produced by pass  6 Test12= 1.43D-13 1.00D-09 XBig12= 1.03D-10 5.11D-07.
      3 vectors produced by pass  7 Test12= 1.43D-13 1.00D-09 XBig12= 1.34D-13 2.62D-08.
 InvSVY:  IOpt=1 It=  1 EMax= 2.13D-14
 Solved reduced A of dimension  2002 with   327 vectors.
 Isotropic polarizability for W=    0.000000      487.11 Bohr**3.
 End of Minotr F.D. properties file   721 does not exist.
 End of Minotr F.D. properties file   722 does not exist.
 End of Minotr F.D. properties file   788 does not exist.
 Hyperfine terms turned off by default for NAtoms > 100.

 **********************************************************************

            Population analysis using the SCF Density.

 **********************************************************************

 Orbital symmetries:
       Occupied  (A) (A) (A) (A) (A) (A) (A) (A) (A) (A) (A) (A)
                 (A) (A) (A) (A) (A) (A) (A) (A) (A) (A) (A) (A)
                 (A) (A) (A) (A) (A) (A) (A) (A) (A) (A) (A) (A)
                 (A) (A) (A) (A) (A) (A) (A) (A) (A) (A) (A) (A)
                 (A) (A) (A) (A) (A) (A) (A) (A) (A) (A) (A) (A)
                 (A) (A) (A) (A) (A) (A) (A) (A) (A) (A) (A) (A)
                 (A) (A) (A) (A) (A) (A) (A) (A) (A) (A) (A) (A)
                 (A) (A) (A) (A) (A) (A) (A) (A) (A) (A) (A) (A)
                 (A) (A) (A) (A) (A) (A) (A) (A) (A) (A) (A) (A)
                 (A) (A) (A) (A) (A) (A) (A) (A) (A) (A) (A) (A)
                 (A) (A) (A) (A) (A) (A) (A) (A) (A) (A) (A) (A)
                 (A) (A) (A) (A) (A) (A) (A) (A) (A) (A) (A) (A)
                 (A) (A) (A) (A) (A) (A) (A) (A) (A) (A) (A) (A)
                 (A) (A) (A) (A) (A) (A) (A) (A) (A) (A) (A) (A)
                 (A) (A) (A) (A) (A) (A) (A) (A) (A) (A) (A) (A)
                 (A) (A) (A) (A) (A) (A) (A) (A) (A) (A) (A) (A)
                 (A) (A) (A) (A) (A) (A) (A) (A) (A) (A) (A) (A)
                 (A) (A) (A) (A) (A) (A) (A) (A) (A)
       Virtual   (A) (A) (A) (A) (A) (A) (A) (A) (A) (A) (A) (A)
                 (A) (A) (A) (A) (A) (A) (A) (A) (A) (A) (A) (A)
                 (A) (A) (A) (A) (A) (A) (A) (A) (A) (A) (A) (A)
                 (A) (A) (A) (A) (A) (A) (A) (A) (A) (A) (A) (A)
                 (A) (A) (A) (A) (A) (A) (A) (A) (A) (A) (A) (A)
                 (A) (A) (A) (A) (A) (A) (A) (A) (A) (A) (A) (A)
                 (A) (A) (A) (A) (A) (A) (A) (A) (A) (A) (A) (A)
                 (A) (A) (A) (A) (A) (A) (A) (A) (A) (A) (A) (A)
                 (A) (A) (A) (A) (A) (A) (A) (A) (A) (A) (A) (A)
                 (A) (A) (A) (A) (A) (A) (A) (A) (A) (A) (A) (A)
                 (A) (A) (A) (A) (A) (A) (A) (A) (A) (A) (A) (A)
                 (A) (A) (A) (A) (A) (A) (A) (A) (A) (A) (A) (A)
                 (A) (A) (A) (A) (A) (A) (A) (A) (A) (A) (A) (A)
                 (A) (A) (A) (A) (A) (A) (A) (A) (A) (A) (A) (A)
                 (A) (A) (A) (A) (A) (A) (A) (A) (A) (A) (A) (A)
                 (A) (A) (A) (A) (A) (A) (A) (A) (A) (A) (A) (A)
                 (A) (A) (A) (A) (A) (A) (A) (A) (A) (A) (A) (A)
                 (A) (A) (A) (A) (A) (A) (A) (A) (A) (A) (A) (A)
                 (A) (A) (A) (A) (A) (A) (A) (A) (A) (A) (A) (A)
                 (A) (A) (A) (A) (A) (A) (A) (A) (A) (A) (A) (A)
                 (A) (A) (A) (A) (A) (A) (A) (A) (A) (A) (A) (A)
                 (A) (A) (A) (A) (A) (A) (A) (A) (A) (A) (A) (A)
                 (A) (A) (A) (A) (A) (A) (A) (A) (A) (A) (A) (A)
                 (A) (A) (A) (A) (A) (A) (A) (A) (A) (A) (A) (A)
                 (A) (A) (A) (A) (A) (A) (A) (A) (A) (A) (A) (A)
                 (A) (A) (A) (A) (A) (A) (A) (A) (A) (A) (A) (A)
                 (A) (A) (A) (A) (A) (A) (A) (A) (A) (A) (A) (A)
                 (A) (A) (A) (A) (A) (A) (A) (A) (A) (A) (A) (A)
                 (A) (A) (A) (A) (A) (A) (A) (A) (A) (A) (A) (A)
                 (A) (A) (A) (A) (A) (A) (A) (A) (A) (A) (A) (A)
                 (A) (A) (A) (A) (A) (A) (A) (A) (A) (A) (A) (A)
                 (A) (A) (A) (A) (A) (A) (A) (A) (A) (A) (A) (A)
                 (A) (A) (A) (A) (A) (A) (A) (A) (A) (A) (A) (A)
                 (A) (A) (A) (A) (A) (A) (A) (A) (A) (A) (A) (A)
                 (A) (A) (A) (A) (A) (A) (A) (A) (A) (A) (A) (A)
                 (A) (A) (A) (A) (A) (A) (A) (A) (A) (A) (A) (A)
                 (A) (A) (A) (A) (A) (A) (A) (A) (A) (A) (A) (A)
                 (A) (A) (A) (A) (A) (A) (A) (A) (A) (A) (A) (A)
                 (A) (A) (A) (A) (A) (A) (A) (A) (A) (A) (A) (A)
                 (A) (A) (A) (A) (A) (A) (A) (A) (A) (A) (A) (A)
                 (A) (A) (A) (A) (A) (A) (A) (A) (A) (A) (A) (A)
                 (A) (A) (A) (A) (A) (A) (A) (A) (A) (A) (A) (A)
                 (A) (A) (A) (A) (A) (A) (A) (A) (A) (A) (A) (A)
                 (A) (A) (A) (A) (A) (A) (A) (A) (A) (A) (A) (A)
                 (A) (A) (A) (A) (A) (A) (A) (A) (A) (A) (A) (A)
                 (A) (A) (A) (A) (A) (A) (A) (A) (A) (A) (A) (A)
                 (A) (A) (A) (A) (A) (A) (A) (A) (A) (A) (A) (A)
                 (A) (A) (A) (A) (A) (A) (A) (A) (A) (A) (A) (A)
                 (A) (A) (A) (A) (A) (A) (A) (A) (A) (A) (A) (A)
                 (A) (A) (A) (A) (A) (A) (A) (A) (A) (A) (A) (A)
                 (A) (A) (A) (A) (A) (A) (A) (A) (A) (A) (A) (A)
                 (A) (A) (A) (A) (A) (A) (A) (A) (A) (A) (A) (A)
                 (A) (A) (A) (A) (A) (A) (A) (A) (A) (A) (A) (A)
                 (A) (A) (A) (A) (A) (A) (A) (A) (A) (A) (A) (A)
                 (A) (A) (A) (A) (A) (A) (A) (A) (A) (A) (A) (A)
                 (A) (A) (A) (A) (A) (A) (A) (A) (A) (A) (A)
 The electronic state is 1-A.
 Alpha  occ. eigenvalues --  -24.83796 -24.83544 -24.83193 -24.83175 -24.82629
 Alpha  occ. eigenvalues --  -24.82534 -19.21710 -19.21408 -19.21318 -19.21199
 Alpha  occ. eigenvalues --  -19.19553 -19.18374 -19.17928 -14.47311 -14.43462
 Alpha  occ. eigenvalues --  -14.42184 -10.52010 -10.51242 -10.33621 -10.33388
 Alpha  occ. eigenvalues --  -10.32400 -10.31443 -10.30660 -10.30635 -10.30518
 Alpha  occ. eigenvalues --  -10.30283 -10.30122 -10.30039 -10.29993 -10.29674
 Alpha  occ. eigenvalues --  -10.29487 -10.29062 -10.28859 -10.28799 -10.28322
 Alpha  occ. eigenvalues --  -10.26884 -10.25434 -10.25000 -10.23973 -10.23888
 Alpha  occ. eigenvalues --  -10.23560 -10.23501 -10.23126 -10.23099 -10.22813
 Alpha  occ. eigenvalues --  -10.22743 -10.22545 -10.22395 -10.21944 -10.21902
 Alpha  occ. eigenvalues --  -10.20424  -6.82875  -6.82012  -6.80579  -3.63550
 Alpha  occ. eigenvalues --   -2.07048  -2.06144  -2.03576  -1.36350  -1.35643
 Alpha  occ. eigenvalues --   -1.27826  -1.27395  -1.27146  -1.26641  -1.07561
 Alpha  occ. eigenvalues --   -1.07211  -1.05042  -1.03818  -1.01064  -1.00629
 Alpha  occ. eigenvalues --   -1.00388  -0.98278  -0.98154  -0.93414  -0.87174
 Alpha  occ. eigenvalues --   -0.85790  -0.84336  -0.81523  -0.81100  -0.80489
 Alpha  occ. eigenvalues --   -0.79591  -0.78328  -0.75899  -0.75812  -0.75492
 Alpha  occ. eigenvalues --   -0.73953  -0.72645  -0.71605  -0.71480  -0.70856
 Alpha  occ. eigenvalues --   -0.69732  -0.69497  -0.69172  -0.68900  -0.68563
 Alpha  occ. eigenvalues --   -0.68084  -0.66598  -0.66466  -0.65360  -0.63109
 Alpha  occ. eigenvalues --   -0.62783  -0.62397  -0.62371  -0.62203  -0.61638
 Alpha  occ. eigenvalues --   -0.61478  -0.61333  -0.60453  -0.59973  -0.56857
 Alpha  occ. eigenvalues --   -0.56023  -0.55720  -0.55192  -0.54596  -0.54351
 Alpha  occ. eigenvalues --   -0.54083  -0.53351  -0.52673  -0.51789  -0.50293
 Alpha  occ. eigenvalues --   -0.50139  -0.49818  -0.49466  -0.49417  -0.49098
 Alpha  occ. eigenvalues --   -0.48994  -0.48876  -0.48420  -0.48181  -0.47920
 Alpha  occ. eigenvalues --   -0.47473  -0.47184  -0.47086  -0.47009  -0.46454
 Alpha  occ. eigenvalues --   -0.45958  -0.45942  -0.45631  -0.45502  -0.45326
 Alpha  occ. eigenvalues --   -0.45222  -0.44938  -0.44821  -0.44442  -0.44389
 Alpha  occ. eigenvalues --   -0.44197  -0.43999  -0.43748  -0.43616  -0.43243
 Alpha  occ. eigenvalues --   -0.43149  -0.42963  -0.42771  -0.42376  -0.41703
 Alpha  occ. eigenvalues --   -0.41062  -0.41057  -0.40698  -0.40642  -0.40411
 Alpha  occ. eigenvalues --   -0.40335  -0.40137  -0.40042  -0.39897  -0.39826
 Alpha  occ. eigenvalues --   -0.39671  -0.39248  -0.39164  -0.38790  -0.38641
 Alpha  occ. eigenvalues --   -0.38504  -0.38265  -0.38225  -0.38129  -0.37525
 Alpha  occ. eigenvalues --   -0.37502  -0.37324  -0.37027  -0.36647  -0.36567
 Alpha  occ. eigenvalues --   -0.36000  -0.35831  -0.35754  -0.35551  -0.35449
 Alpha  occ. eigenvalues --   -0.35368  -0.35083  -0.34780  -0.34525  -0.33925
 Alpha  occ. eigenvalues --   -0.33832  -0.33263  -0.33132  -0.32847  -0.32703
 Alpha  occ. eigenvalues --   -0.32127  -0.31755  -0.31194  -0.31002  -0.30870
 Alpha  occ. eigenvalues --   -0.30771  -0.29583  -0.29062  -0.28119  -0.27737
 Alpha  occ. eigenvalues --   -0.27453  -0.26714  -0.25592  -0.25284  -0.24590
 Alpha  occ. eigenvalues --   -0.22661  -0.20472  -0.18208
 Alpha virt. eigenvalues --   -0.08549  -0.05045  -0.03624  -0.00469   0.00947
 Alpha virt. eigenvalues --    0.03616   0.04893   0.05016   0.06059   0.06359
 Alpha virt. eigenvalues --    0.07104   0.08054   0.08327   0.09079   0.09545
 Alpha virt. eigenvalues --    0.10111   0.10322   0.10918   0.11234   0.11432
 Alpha virt. eigenvalues --    0.11634   0.12042   0.12290   0.12374   0.12762
 Alpha virt. eigenvalues --    0.12840   0.13244   0.13561   0.13870   0.14023
 Alpha virt. eigenvalues --    0.14305   0.14852   0.14956   0.15181   0.15262
 Alpha virt. eigenvalues --    0.15564   0.15818   0.15908   0.16114   0.16151
 Alpha virt. eigenvalues --    0.16569   0.16772   0.17027   0.17076   0.17447
 Alpha virt. eigenvalues --    0.17533   0.17694   0.18014   0.18304   0.18614
 Alpha virt. eigenvalues --    0.18676   0.18760   0.18919   0.19032   0.19143
 Alpha virt. eigenvalues --    0.19436   0.19809   0.20044   0.20106   0.20406
 Alpha virt. eigenvalues --    0.20496   0.20889   0.21084   0.21321   0.21430
 Alpha virt. eigenvalues --    0.21678   0.21975   0.22077   0.22318   0.22424
 Alpha virt. eigenvalues --    0.22651   0.22891   0.22987   0.23245   0.23374
 Alpha virt. eigenvalues --    0.23586   0.23859   0.23920   0.24174   0.24262
 Alpha virt. eigenvalues --    0.24517   0.24876   0.25190   0.25489   0.25639
 Alpha virt. eigenvalues --    0.25849   0.25885   0.26313   0.26518   0.26625
 Alpha virt. eigenvalues --    0.26801   0.27284   0.27569   0.27630   0.28307
 Alpha virt. eigenvalues --    0.28381   0.28609   0.29443   0.30152   0.30556
 Alpha virt. eigenvalues --    0.31236   0.31788   0.31960   0.32605   0.33210
 Alpha virt. eigenvalues --    0.33754   0.33936   0.34514   0.35195   0.35417
 Alpha virt. eigenvalues --    0.35827   0.36552   0.36952   0.37845   0.38408
 Alpha virt. eigenvalues --    0.38550   0.39105   0.39256   0.41307   0.41770
 Alpha virt. eigenvalues --    0.42101   0.43294   0.45004   0.45973   0.46248
 Alpha virt. eigenvalues --    0.47028   0.47319   0.48266   0.48381   0.48742
 Alpha virt. eigenvalues --    0.48936   0.49704   0.49914   0.50244   0.50843
 Alpha virt. eigenvalues --    0.51082   0.51596   0.52019   0.52304   0.52607
 Alpha virt. eigenvalues --    0.53018   0.53546   0.53935   0.54492   0.54536
 Alpha virt. eigenvalues --    0.54853   0.55274   0.55666   0.55867   0.56140
 Alpha virt. eigenvalues --    0.56867   0.57009   0.57302   0.57549   0.57833
 Alpha virt. eigenvalues --    0.58070   0.58339   0.58477   0.59015   0.59228
 Alpha virt. eigenvalues --    0.59681   0.59728   0.59999   0.60219   0.60688
 Alpha virt. eigenvalues --    0.60999   0.61169   0.61397   0.61881   0.62196
 Alpha virt. eigenvalues --    0.62742   0.63212   0.63341   0.63827   0.64045
 Alpha virt. eigenvalues --    0.64643   0.64881   0.65223   0.65521   0.65688
 Alpha virt. eigenvalues --    0.65937   0.66557   0.66671   0.66775   0.67141
 Alpha virt. eigenvalues --    0.67428   0.67795   0.68160   0.68879   0.69323
 Alpha virt. eigenvalues --    0.69434   0.70128   0.70434   0.70606   0.70928
 Alpha virt. eigenvalues --    0.71209   0.71446   0.71966   0.72079   0.72625
 Alpha virt. eigenvalues --    0.73053   0.73208   0.73690   0.73753   0.74119
 Alpha virt. eigenvalues --    0.74316   0.74740   0.75187   0.75247   0.76159
 Alpha virt. eigenvalues --    0.76500   0.77036   0.77407   0.77555   0.78272
 Alpha virt. eigenvalues --    0.78927   0.79192   0.79735   0.80128   0.80255
 Alpha virt. eigenvalues --    0.80647   0.80916   0.81276   0.81887   0.82259
 Alpha virt. eigenvalues --    0.82486   0.82584   0.82929   0.83270   0.83549
 Alpha virt. eigenvalues --    0.83810   0.84099   0.84212   0.84547   0.85038
 Alpha virt. eigenvalues --    0.85091   0.85315   0.85583   0.85777   0.86111
 Alpha virt. eigenvalues --    0.86705   0.86795   0.87045   0.87660   0.87916
 Alpha virt. eigenvalues --    0.88134   0.88535   0.88776   0.88948   0.89203
 Alpha virt. eigenvalues --    0.89419   0.89654   0.89763   0.90109   0.90233
 Alpha virt. eigenvalues --    0.90621   0.90781   0.91158   0.91363   0.91588
 Alpha virt. eigenvalues --    0.91877   0.92373   0.92451   0.92954   0.93084
 Alpha virt. eigenvalues --    0.93464   0.94056   0.94289   0.94473   0.94870
 Alpha virt. eigenvalues --    0.95081   0.95742   0.96024   0.96453   0.96602
 Alpha virt. eigenvalues --    0.97262   0.97392   0.97716   0.98089   0.98827
 Alpha virt. eigenvalues --    0.99153   0.99579   0.99774   1.00026   1.00532
 Alpha virt. eigenvalues --    1.01271   1.01417   1.01786   1.02379   1.02791
 Alpha virt. eigenvalues --    1.03194   1.04216   1.04512   1.05099   1.05625
 Alpha virt. eigenvalues --    1.06048   1.06661   1.06938   1.07339   1.08427
 Alpha virt. eigenvalues --    1.08816   1.09641   1.09740   1.10324   1.10762
 Alpha virt. eigenvalues --    1.11293   1.11514   1.12262   1.12544   1.13522
 Alpha virt. eigenvalues --    1.13896   1.14376   1.14947   1.15480   1.15609
 Alpha virt. eigenvalues --    1.16260   1.16911   1.17300   1.17716   1.17965
 Alpha virt. eigenvalues --    1.18467   1.18735   1.19216   1.19588   1.20107
 Alpha virt. eigenvalues --    1.20625   1.20859   1.21345   1.21467   1.22157
 Alpha virt. eigenvalues --    1.22841   1.23174   1.23897   1.23928   1.24972
 Alpha virt. eigenvalues --    1.25618   1.26205   1.26779   1.27228   1.27518
 Alpha virt. eigenvalues --    1.28382   1.28987   1.29360   1.30160   1.30755
 Alpha virt. eigenvalues --    1.31613   1.32060   1.32603   1.33137   1.33871
 Alpha virt. eigenvalues --    1.34177   1.34259   1.34525   1.34766   1.34985
 Alpha virt. eigenvalues --    1.35554   1.35935   1.36487   1.37345   1.37606
 Alpha virt. eigenvalues --    1.38182   1.38537   1.38925   1.39597   1.39680
 Alpha virt. eigenvalues --    1.40255   1.40494   1.41105   1.41336   1.41998
 Alpha virt. eigenvalues --    1.42132   1.42690   1.43165   1.43697   1.44103
 Alpha virt. eigenvalues --    1.44622   1.44855   1.45407   1.46062   1.46483
 Alpha virt. eigenvalues --    1.46741   1.46961   1.48236   1.49211   1.49348
 Alpha virt. eigenvalues --    1.50521   1.51124   1.51703   1.52481   1.52985
 Alpha virt. eigenvalues --    1.54218   1.54585   1.54854   1.56026   1.56894
 Alpha virt. eigenvalues --    1.57318   1.58916   1.59387   1.60351   1.60621
 Alpha virt. eigenvalues --    1.61826   1.62052   1.63825   1.64103   1.64465
 Alpha virt. eigenvalues --    1.64801   1.64817   1.65772   1.66250   1.66750
 Alpha virt. eigenvalues --    1.67072   1.67504   1.67942   1.68287   1.68983
 Alpha virt. eigenvalues --    1.69465   1.70031   1.71415   1.71489   1.71697
 Alpha virt. eigenvalues --    1.72239   1.72949   1.73429   1.73964   1.74310
 Alpha virt. eigenvalues --    1.74576   1.75344   1.75470   1.76231   1.76981
 Alpha virt. eigenvalues --    1.77804   1.78564   1.78790   1.78865   1.79557
 Alpha virt. eigenvalues --    1.79974   1.80257   1.81062   1.81245   1.81707
 Alpha virt. eigenvalues --    1.81756   1.82224   1.82898   1.83556   1.83825
 Alpha virt. eigenvalues --    1.84242   1.84781   1.84916   1.84993   1.85830
 Alpha virt. eigenvalues --    1.86050   1.86644   1.87033   1.87538   1.87772
 Alpha virt. eigenvalues --    1.87998   1.88075   1.88587   1.89026   1.89387
 Alpha virt. eigenvalues --    1.89983   1.90388   1.90935   1.91121   1.91422
 Alpha virt. eigenvalues --    1.91562   1.91827   1.92311   1.92475   1.92583
 Alpha virt. eigenvalues --    1.93064   1.93652   1.93725   1.94027   1.94463
 Alpha virt. eigenvalues --    1.94833   1.95338   1.95541   1.96573   1.96995
 Alpha virt. eigenvalues --    1.97314   1.97585   1.98075   1.98618   1.98922
 Alpha virt. eigenvalues --    1.99824   2.00875   2.01325   2.01515   2.02146
 Alpha virt. eigenvalues --    2.02360   2.02647   2.02938   2.03178   2.03286
 Alpha virt. eigenvalues --    2.03656   2.03879   2.04351   2.04782   2.05028
 Alpha virt. eigenvalues --    2.05581   2.05620   2.06004   2.06647   2.07006
 Alpha virt. eigenvalues --    2.07680   2.07715   2.08086   2.08453   2.08866
 Alpha virt. eigenvalues --    2.08994   2.09308   2.09589   2.09830   2.10212
 Alpha virt. eigenvalues --    2.10512   2.11084   2.11259   2.11702   2.11775
 Alpha virt. eigenvalues --    2.12710   2.13210   2.13385   2.14043   2.14447
 Alpha virt. eigenvalues --    2.14579   2.14652   2.15255   2.15572   2.15956
 Alpha virt. eigenvalues --    2.16085   2.17377   2.17654   2.17885   2.18055
 Alpha virt. eigenvalues --    2.18430   2.18724   2.19248   2.19509   2.19854
 Alpha virt. eigenvalues --    2.20117   2.20705   2.21401   2.21529   2.22171
 Alpha virt. eigenvalues --    2.22360   2.22750   2.23114   2.23507   2.23903
 Alpha virt. eigenvalues --    2.24026   2.24403   2.24767   2.25086   2.25540
 Alpha virt. eigenvalues --    2.25747   2.26207   2.26735   2.26898   2.27467
 Alpha virt. eigenvalues --    2.27591   2.28222   2.28454   2.28866   2.29712
 Alpha virt. eigenvalues --    2.30639   2.30825   2.31544   2.32043   2.32639
 Alpha virt. eigenvalues --    2.32740   2.33196   2.33508   2.34230   2.35315
 Alpha virt. eigenvalues --    2.37205   2.37230   2.38674   2.38753   2.39126
 Alpha virt. eigenvalues --    2.39393   2.41225   2.41503   2.42943   2.43492
 Alpha virt. eigenvalues --    2.43911   2.44023   2.44967   2.46384   2.46706
 Alpha virt. eigenvalues --    2.47904   2.47937   2.48300   2.48690   2.49678
 Alpha virt. eigenvalues --    2.50516   2.51415   2.51466   2.52557   2.52666
 Alpha virt. eigenvalues --    2.53338   2.55553   2.58741   2.59200   2.59627
 Alpha virt. eigenvalues --    2.60661   2.61331   2.61901   2.62404   2.63242
 Alpha virt. eigenvalues --    2.63941   2.64386   2.65163   2.66269   2.66706
 Alpha virt. eigenvalues --    2.67331   2.68126   2.69562   2.71164   2.72799
 Alpha virt. eigenvalues --    2.74851   2.76130   2.76637   2.76984   2.77111
 Alpha virt. eigenvalues --    2.77335   2.77897   2.78384   2.78763   2.79345
 Alpha virt. eigenvalues --    2.79771   2.80186   2.80732   2.80925   2.81904
 Alpha virt. eigenvalues --    2.82096   2.83202   2.83447   2.84869   2.87782
 Alpha virt. eigenvalues --    2.88868   2.89189   2.91271   2.91641   2.93250
 Alpha virt. eigenvalues --    2.93653   2.94438   2.94679   2.96517   2.97228
 Alpha virt. eigenvalues --    2.98789   3.02624   3.02857   3.04653   3.06311
 Alpha virt. eigenvalues --    3.06701   3.07419   3.08239   3.09520   3.11187
 Alpha virt. eigenvalues --    3.11658   3.12111   3.12441   3.13562   3.13865
 Alpha virt. eigenvalues --    3.14498   3.20363   3.25698   3.32484   3.44967
 Alpha virt. eigenvalues --   12.77914
          Condensed to atoms (all electrons):
 Mulliken charges:
               1
     1  C    0.292927
     2  C    0.031620
     3  C   -0.072638
     4  C   -0.155650
     5  C   -0.189331
     6  C    0.332094
     7  C    0.017276
     8  C   -0.071082
     9  C   -0.164192
    10  C   -0.185695
    11  H    0.221436
    12  H    0.197143
    13  H    0.171830
    14  H    0.273475
    15  H    0.204583
    16  H    0.183613
    17  N   -0.406165
    18  N   -0.566583
    19  Ir  -0.018963
    20  O   -0.496294
    21  O   -0.562243
    22  O   -0.518120
    23  B    0.601996
    24  B    0.461698
    25  B    0.332487
    26  O   -0.507034
    27  O   -0.518871
    28  C    0.288363
    29  C    0.284150
    30  C    0.293889
    31  C    0.291157
    32  C    0.319513
    33  C    0.287846
    34  O   -0.537581
    35  C   -0.502725
    36  H    0.162237
    37  H    0.151798
    38  H    0.172995
    39  C   -0.499838
    40  H    0.176737
    41  H    0.166610
    42  H    0.148760
    43  C   -0.493026
    44  H    0.158827
    45  H    0.145992
    46  H    0.159741
    47  C   -0.506541
    48  H    0.170421
    49  H    0.167465
    50  H    0.154852
    51  C   -0.502224
    52  H    0.157474
    53  H    0.155736
    54  H    0.154108
    55  C   -0.502252
    56  H    0.157023
    57  H    0.176937
    58  H    0.144227
    59  C   -0.509567
    60  H    0.169776
    61  H    0.161911
    62  H    0.144401
    63  C   -0.503163
    64  H    0.132211
    65  H    0.202583
    66  H    0.159404
    67  C   -0.513115
    68  H    0.152227
    69  H    0.172173
    70  H    0.175277
    71  C   -0.503371
    72  H    0.191264
    73  H    0.143562
    74  H    0.150777
    75  C   -0.508040
    76  H    0.172870
    77  H    0.161354
    78  H    0.156324
    79  C   -0.512776
    80  H    0.183929
    81  H    0.174330
    82  H    0.153274
    83  H    0.162034
    84  C    0.575405
    85  O   -0.510235
    86  C   -0.396238
    87  H    0.151406
    88  H    0.179576
    89  C   -0.443227
    90  H    0.267173
    91  H    0.217419
    92  N   -0.358836
    93  C   -0.343177
    94  H    0.174450
    95  H    0.165035
    96  H    0.168912
    97  C   -0.473502
    98  H    0.186740
    99  H    0.146528
   100  C    0.974198
   101  F   -0.312466
   102  F   -0.319227
   103  F   -0.310877
   104  C    0.969900
   105  F   -0.316323
   106  F   -0.307004
   107  F   -0.303063
   108  H    0.155798
 Sum of Mulliken charges =  -0.00000
 Mulliken charges with hydrogens summed into heavy atoms:
               1
     1  C    0.292927
     2  C    0.253056
     3  C   -0.072638
     4  C    0.041493
     5  C   -0.017501
     6  C    0.332094
     7  C    0.290751
     8  C   -0.071082
     9  C    0.040391
    10  C   -0.002082
    17  N   -0.406165
    18  N   -0.566583
    19  Ir  -0.018963
    20  O   -0.496294
    21  O   -0.562243
    22  O   -0.518120
    23  B    0.601996
    24  B    0.461698
    25  B    0.494521
    26  O   -0.507034
    27  O   -0.518871
    28  C    0.288363
    29  C    0.284150
    30  C    0.293889
    31  C    0.291157
    32  C    0.319513
    33  C    0.287846
    34  O   -0.537581
    35  C   -0.015695
    39  C   -0.007731
    43  C   -0.028466
    47  C   -0.013803
    51  C   -0.034907
    55  C   -0.024064
    59  C   -0.033478
    63  C   -0.008965
    67  C   -0.013439
    71  C   -0.017768
    75  C   -0.017492
    79  C   -0.001244
    84  C    0.575405
    85  O   -0.510235
    86  C   -0.065257
    89  C    0.041365
    92  N   -0.358836
    93  C    0.165219
    97  C    0.015565
   100  C    0.974198
   101  F   -0.312466
   102  F   -0.319227
   103  F   -0.310877
   104  C    0.969900
   105  F   -0.316323
   106  F   -0.307004
   107  F   -0.303063
 APT charges:
               1
     1  C    0.209391
     2  C    0.065151
     3  C   -0.195690
     4  C    0.103274
     5  C   -0.191773
     6  C    0.205902
     7  C    0.038873
     8  C   -0.209053
     9  C    0.089662
    10  C   -0.189377
    11  H    0.107513
    12  H    0.053842
    13  H    0.047124
    14  H    0.188256
    15  H    0.064434
    16  H    0.053089
    17  N   -0.202332
    18  N   -0.097258
    19  Ir  -0.704149
    20  O   -0.887029
    21  O   -1.076530
    22  O   -1.017914
    23  B    1.542786
    24  B    1.170239
    25  B    1.338498
    26  O   -0.992446
    27  O   -0.879948
    28  C    0.422531
    29  C    0.454798
    30  C    0.519646
    31  C    0.500496
    32  C    0.550079
    33  C    0.503364
    34  O   -1.037451
    35  C    0.000831
    36  H   -0.011161
    37  H   -0.012274
    38  H    0.006289
    39  C   -0.027282
    40  H    0.025448
    41  H    0.005416
    42  H   -0.022553
    43  C   -0.003465
    44  H   -0.014502
    45  H   -0.020098
    46  H   -0.006611
    47  C   -0.002507
    48  H    0.002220
    49  H    0.005009
    50  H   -0.012389
    51  C   -0.050074
    52  H    0.001975
    53  H   -0.001008
    54  H   -0.029689
    55  C   -0.018213
    56  H   -0.003384
    57  H    0.013802
    58  H   -0.021243
    59  C   -0.001281
    60  H   -0.003269
    61  H   -0.006810
    62  H   -0.019880
    63  C   -0.047577
    64  H   -0.026745
    65  H    0.039769
    66  H   -0.007216
    67  C   -0.006996
    68  H   -0.014935
    69  H    0.004567
    70  H    0.004346
    71  C   -0.041000
    72  H    0.026031
    73  H   -0.008872
    74  H   -0.015890
    75  C   -0.014219
    76  H    0.006456
    77  H   -0.000029
    78  H   -0.013769
    79  C   -0.046710
    80  H    0.013145
    81  H    0.011857
    82  H   -0.021708
    83  H   -0.042376
    84  C    0.756748
    85  O   -0.641996
    86  C    0.009973
    87  H   -0.023647
    88  H   -0.019709
    89  C   -0.093270
    90  H    0.076815
    91  H   -0.012946
    92  N   -0.666445
    93  C    0.291305
    94  H    0.030180
    95  H   -0.035394
    96  H   -0.003823
    97  C    0.063799
    98  H    0.014304
    99  H   -0.012026
   100  C    1.863135
   101  F   -0.536818
   102  F   -0.590983
   103  F   -0.645559
   104  C    1.732441
   105  F   -0.579674
   106  F   -0.573317
   107  F   -0.494763
   108  H   -0.027754
 Sum of APT charges =  -0.00000
 APT charges with hydrogens summed into heavy atoms:
               1
     1  C    0.209391
     2  C    0.172664
     3  C   -0.195690
     4  C    0.157116
     5  C   -0.144649
     6  C    0.205902
     7  C    0.227129
     8  C   -0.209053
     9  C    0.154096
    10  C   -0.136288
    17  N   -0.202332
    18  N   -0.097258
    19  Ir  -0.704149
    20  O   -0.887029
    21  O   -1.076530
    22  O   -1.017914
    23  B    1.542786
    24  B    1.170239
    25  B    1.296122
    26  O   -0.992446
    27  O   -0.879948
    28  C    0.422531
    29  C    0.454798
    30  C    0.519646
    31  C    0.500496
    32  C    0.550079
    33  C    0.503364
    34  O   -1.037451
    35  C   -0.016314
    39  C   -0.018971
    43  C   -0.044675
    47  C   -0.007667
    51  C   -0.078796
    55  C   -0.029038
    59  C   -0.031239
    63  C   -0.041769
    67  C   -0.013017
    71  C   -0.039732
    75  C   -0.021561
    79  C   -0.043416
    84  C    0.756748
    85  O   -0.641996
    86  C   -0.033382
    89  C   -0.029401
    92  N   -0.666445
    93  C    0.282268
    97  C    0.038323
   100  C    1.863135
   101  F   -0.536818
   102  F   -0.590983
   103  F   -0.645559
   104  C    1.732441
   105  F   -0.579674
   106  F   -0.573317
   107  F   -0.494763
 Electronic spatial extent (au):  <R**2>=          31256.8524
 Charge=             -0.0000 electrons
 Dipole moment (field-independent basis, Debye):
    X=             -0.4987    Y=             -2.2503    Z=              4.4923  Tot=              5.0491
 Quadrupole moment (field-independent basis, Debye-Ang):
   XX=           -335.0594   YY=           -318.3480   ZZ=           -332.2394
   XY=              8.9244   XZ=             10.5335   YZ=             -9.6538
 Traceless Quadrupole moment (field-independent basis, Debye-Ang):
   XX=             -6.5105   YY=             10.2009   ZZ=             -3.6905
   XY=              8.9244   XZ=             10.5335   YZ=             -9.6538
 Octapole moment (field-independent basis, Debye-Ang**2):
  XXX=             -6.1380  YYY=            -83.7476  ZZZ=            -44.6169  XYY=              9.9016
  XXY=             35.8412  XXZ=            -64.0768  XZZ=             -2.9287  YZZ=            -15.1795
  YYZ=             38.4195  XYZ=            -23.0713
 Hexadecapole moment (field-independent basis, Debye-Ang**3):
 XXXX=         -18778.9865 YYYY=         -13053.7804 ZZZZ=          -7382.5867 XXXY=            156.4157
 XXXZ=              3.3728 YYYX=            -82.2380 YYYZ=           -280.7091 ZZZX=           -158.0268
 ZZZY=             41.1759 XXYY=          -5125.0142 XXZZ=          -4298.2523 YYZZ=          -3477.3110
 XXYZ=            -24.3322 YYXZ=            -22.3279 ZZXY=              1.2550
 N-N= 9.844829863367D+03 E-N=-2.629586272612D+04  KE= 2.745701684118D+03
  Exact polarizability:     553.039     -10.078     505.541       4.119     -33.160     402.763
 Approx polarizability:     806.488     -37.941     724.958     -21.451     -76.313     629.582
   1 Symmetry operations used in ECPInt.
 ECPInt:  NShTT=   54615 NPrTT=  339395 LenC2=   41580 LenP2D=  129459.
 LDataN:  DoStor=T MaxTD1= 8 Len=  415
 Calling FoFJK, ICntrl=    100127 FMM=F ISym2X=0 I1Cent= 0 IOpClX= 0 NMat=1 NMatS=1 NMatT=0.
 Defaulting to unpruned grid for atomic number  77.
 Defaulting to unpruned grid for atomic number  77.
 Defaulting to unpruned grid for atomic number  77.
 Defaulting to unpruned grid for atomic number  77.
 Defaulting to unpruned grid for atomic number  77.
 Defaulting to unpruned grid for atomic number  77.
 Defaulting to unpruned grid for atomic number  77.
 Defaulting to unpruned grid for atomic number  77.
 Defaulting to unpruned grid for atomic number  77.
 Defaulting to unpruned grid for atomic number  77.
 Defaulting to unpruned grid for atomic number  77.
 Defaulting to unpruned grid for atomic number  77.
 Defaulting to unpruned grid for atomic number  77.
 Defaulting to unpruned grid for atomic number  77.
 Defaulting to unpruned grid for atomic number  77.
 Defaulting to unpruned grid for atomic number  77.
 Full mass-weighted force constant matrix:
 Low frequencies --- -147.4655   -3.6158    0.0002    0.0004    0.0006    5.7410
 Low frequencies ---    9.4046   18.7968   29.4739
 ******    1 imaginary frequencies (negative Signs) ****** 
 Diagonal vibrational polarizability:
       93.3832851     140.2561935      83.1605077
 Harmonic frequencies (cm**-1), IR intensities (KM/Mole), Raman scattering
 activities (A**4/AMU), depolarization ratios for plane and unpolarized
 incident light, reduced masses (AMU), force constants (mDyne/A),
 and normal coordinates:
                      1                      2                      3
                      A                      A                      A
 Frequencies --   -147.4625                18.7558                29.4258
 Red. masses --      5.7302                 6.0097                 6.2763
 Frc consts  --      0.0734                 0.0012                 0.0032
 IR Inten    --     22.4979                 0.3685                 0.2816
  Atom AN      X      Y      Z        X      Y      Z        X      Y      Z
     1   6    -0.02   0.04  -0.00    -0.02   0.00  -0.01    -0.04  -0.03  -0.03
     2   6    -0.02   0.05   0.01    -0.04  -0.01  -0.05    -0.01  -0.01   0.03
     3   6    -0.02   0.02  -0.01    -0.04  -0.02  -0.08    -0.03  -0.02   0.04
     4   6    -0.02   0.01  -0.02    -0.02  -0.02  -0.07    -0.06  -0.04   0.01
     5   6    -0.02   0.02  -0.03    -0.01  -0.01  -0.03    -0.06  -0.05  -0.03
     6   6    -0.01   0.02  -0.00    -0.01   0.02   0.02    -0.04  -0.01  -0.03
     7   6    -0.02   0.00  -0.00    -0.00   0.03   0.03    -0.01   0.03   0.01
     8   6    -0.01   0.00   0.00    -0.00   0.04   0.04    -0.03   0.03   0.00
     9   6    -0.01   0.00  -0.00    -0.00   0.04   0.06    -0.05   0.01  -0.03
    10   6    -0.01   0.01  -0.00    -0.00   0.03   0.05    -0.06  -0.01  -0.04
    11   1    -0.01   0.05   0.02    -0.05  -0.01  -0.06     0.01  -0.00   0.05
    12   1    -0.03  -0.00  -0.04    -0.01  -0.03  -0.09    -0.07  -0.05   0.01
    13   1    -0.03   0.00  -0.04     0.00  -0.01  -0.02    -0.09  -0.06  -0.05
    14   1    -0.03  -0.00  -0.00     0.00   0.03   0.02     0.00   0.04   0.03
    15   1    -0.00  -0.00  -0.00     0.00   0.05   0.07    -0.06   0.02  -0.03
    16   1     0.00   0.02  -0.01    -0.01   0.03   0.06    -0.08  -0.02  -0.06
    17   7    -0.02   0.07   0.02    -0.03   0.00  -0.02    -0.02  -0.02  -0.00
    18   7    -0.02   0.02  -0.01    -0.00   0.02   0.02    -0.02   0.00  -0.01
    19  77    -0.03  -0.02  -0.04     0.00   0.02   0.01    -0.01   0.00  -0.01
    20   8     0.04  -0.00  -0.02    -0.03   0.03  -0.00     0.02  -0.04   0.02
    21   8     0.08   0.06   0.05    -0.01   0.00  -0.02    -0.01   0.01   0.02
    22   8    -0.02   0.01  -0.00     0.02  -0.01   0.04    -0.01   0.01  -0.04
    23   5     0.18   0.18   0.26    -0.00  -0.00  -0.01    -0.02   0.01   0.00
    24   5     0.05  -0.01  -0.00    -0.03   0.02   0.01     0.02  -0.02  -0.01
    25   5    -0.01  -0.01   0.05     0.01  -0.00   0.02    -0.01   0.00  -0.03
    26   8    -0.01  -0.00   0.03     0.00  -0.01   0.02    -0.01  -0.00  -0.02
    27   8     0.02  -0.02   0.02    -0.05   0.02   0.03     0.05  -0.01  -0.04
    28   6     0.01  -0.01   0.01    -0.06   0.02   0.02     0.07  -0.03  -0.02
    29   6     0.01  -0.00  -0.01    -0.05   0.03   0.00     0.05  -0.05   0.01
    30   6    -0.01   0.01  -0.00     0.03  -0.02   0.05    -0.02   0.02  -0.06
    31   6    -0.01   0.01   0.01     0.01  -0.03   0.03    -0.01   0.02  -0.05
    32   6     0.01   0.04   0.01    -0.01  -0.00  -0.04    -0.01   0.01   0.02
    33   6    -0.00   0.07   0.03    -0.01  -0.00  -0.04    -0.01   0.01   0.03
    34   8     0.10   0.08   0.12    -0.00  -0.01  -0.02    -0.02   0.02   0.02
    35   6    -0.00  -0.00  -0.03    -0.06   0.04  -0.01     0.07  -0.08   0.03
    36   1    -0.00  -0.00  -0.03    -0.07   0.05  -0.02     0.08  -0.09   0.04
    37   1    -0.01  -0.00  -0.02    -0.08   0.04  -0.01     0.09  -0.09   0.03
    38   1     0.00  -0.00  -0.03    -0.06   0.05  -0.03     0.05  -0.09   0.06
    39   6     0.01  -0.00   0.00    -0.04   0.03   0.01     0.03  -0.04   0.01
    40   1     0.02   0.00   0.01    -0.03   0.02   0.02     0.01  -0.02  -0.01
    41   1     0.01  -0.00  -0.00    -0.03   0.03  -0.01     0.01  -0.05   0.04
    42   1    -0.00  -0.01   0.01    -0.06   0.03   0.01     0.05  -0.05   0.00
    43   6    -0.00  -0.00   0.01    -0.08   0.03   0.01     0.11  -0.05  -0.02
    44   1    -0.01   0.00   0.00    -0.08   0.03   0.01     0.12  -0.06  -0.01
    45   1     0.01  -0.00  -0.00    -0.08   0.04   0.01     0.10  -0.06  -0.01
    46   1    -0.00  -0.00   0.02    -0.08   0.02   0.01     0.12  -0.03  -0.03
    47   6    -0.00  -0.00   0.02    -0.07   0.02   0.04     0.09  -0.02  -0.05
    48   1    -0.00  -0.00   0.03    -0.08   0.01   0.05     0.11  -0.01  -0.07
    49   1     0.00  -0.00   0.02    -0.06   0.01   0.04     0.06  -0.01  -0.05
    50   1    -0.01   0.00   0.01    -0.09   0.02   0.03     0.11  -0.04  -0.04
    51   6     0.03  -0.02  -0.01    -0.00  -0.03  -0.05    -0.01   0.00   0.02
    52   1     0.06  -0.03   0.00     0.02  -0.05  -0.04    -0.00   0.00   0.02
    53   1     0.05  -0.04  -0.01     0.00  -0.02  -0.05    -0.01   0.00   0.02
    54   1     0.00  -0.04  -0.03    -0.01  -0.03  -0.08    -0.01   0.00   0.01
    55   6    -0.02   0.03   0.00    -0.03   0.01  -0.05    -0.02  -0.00   0.03
    56   1    -0.01   0.01  -0.00    -0.03   0.02  -0.05    -0.02  -0.00   0.02
    57   1    -0.03   0.06   0.02    -0.03   0.02  -0.04    -0.02  -0.00   0.03
    58   1    -0.06   0.02  -0.01    -0.03   0.01  -0.06    -0.02  -0.00   0.03
    59   6    -0.00   0.02  -0.02    -0.01  -0.01  -0.05    -0.02   0.02   0.05
    60   1    -0.01   0.04  -0.01    -0.01  -0.01  -0.04    -0.02   0.03   0.05
    61   1     0.04  -0.03  -0.02    -0.00  -0.02  -0.05    -0.02   0.04   0.04
    62   1    -0.04   0.02  -0.06    -0.02  -0.01  -0.05    -0.02   0.02   0.06
    63   6    -0.05   0.12   0.05    -0.02   0.01  -0.03    -0.01  -0.00   0.04
    64   1    -0.09   0.11   0.04    -0.02   0.01  -0.05    -0.01  -0.01   0.05
    65   1    -0.04   0.14   0.07    -0.03   0.01  -0.02    -0.01  -0.02   0.03
    66   1    -0.05   0.14   0.07    -0.01  -0.01  -0.03    -0.01   0.01   0.04
    67   6    -0.02  -0.00  -0.00     0.02  -0.02   0.04    -0.02   0.00  -0.06
    68   1    -0.02   0.01  -0.01     0.02  -0.04   0.06    -0.02   0.02  -0.08
    69   1    -0.02   0.00   0.00     0.01  -0.03   0.03    -0.02   0.00  -0.04
    70   1    -0.03  -0.01  -0.00     0.03  -0.00   0.05    -0.03  -0.02  -0.06
    71   6     0.00   0.02   0.01    -0.00  -0.06   0.02     0.00   0.05  -0.03
    72   1     0.01   0.02   0.02    -0.01  -0.06   0.02     0.01   0.05  -0.03
    73   1     0.01   0.02   0.01    -0.02  -0.06   0.00     0.02   0.05  -0.02
    74   1     0.01   0.02   0.00     0.01  -0.09   0.03    -0.00   0.07  -0.05
    75   6    -0.01   0.01  -0.01     0.03  -0.05   0.07    -0.02   0.05  -0.08
    76   1    -0.01   0.01  -0.01     0.05  -0.04   0.08    -0.03   0.04  -0.09
    77   1    -0.01   0.01  -0.00     0.01  -0.07   0.06     0.00   0.06  -0.07
    78   1    -0.01   0.01  -0.01     0.04  -0.07   0.09    -0.02   0.06  -0.10
    79   6    -0.01   0.00  -0.01     0.04  -0.00   0.07    -0.04  -0.01  -0.08
    80   1    -0.02  -0.01  -0.00     0.05   0.02   0.06    -0.04  -0.03  -0.07
    81   1    -0.01   0.00  -0.01     0.05  -0.00   0.08    -0.04  -0.01  -0.09
    82   1    -0.01  -0.00  -0.01     0.05  -0.00   0.09    -0.04  -0.01  -0.10
    83   1     0.07  -0.19  -0.16     0.00   0.03   0.03    -0.02   0.00  -0.01
    84   6     0.03  -0.08   0.03     0.13  -0.03   0.02     0.08   0.00  -0.04
    85   8     0.02  -0.11   0.03     0.15   0.04   0.01     0.09   0.06  -0.08
    86   6    -0.00  -0.04   0.02     0.18  -0.08   0.03     0.13  -0.06  -0.03
    87   1    -0.00  -0.03   0.01     0.18  -0.12   0.05     0.14  -0.11   0.01
    88   1     0.00  -0.02   0.01     0.16  -0.11   0.04     0.10  -0.06  -0.01
    89   6     0.19  -0.19  -0.01     0.01   0.00   0.01    -0.03   0.04  -0.01
    90   1     0.01  -0.15  -0.46     0.03   0.04  -0.01    -0.02   0.08  -0.04
    91   1    -0.06   0.15   0.35    -0.03  -0.01   0.01    -0.08   0.04   0.01
    92   7     0.09  -0.07   0.01     0.06  -0.04   0.02     0.01  -0.01   0.00
    93   6     0.11  -0.01   0.01     0.04  -0.10   0.04    -0.01  -0.06   0.07
    94   1     0.15  -0.01   0.02    -0.01  -0.11   0.04    -0.07  -0.06   0.08
    95   1     0.08   0.02   0.01     0.06  -0.13   0.06    -0.01  -0.08   0.09
    96   1     0.11   0.00   0.01     0.06  -0.12   0.05     0.03  -0.09   0.09
    97   6    -0.04  -0.05   0.02     0.25  -0.06   0.01     0.21  -0.04  -0.09
    98   1    -0.04  -0.06   0.02     0.26  -0.02  -0.00     0.20   0.02  -0.12
    99   1    -0.04  -0.06   0.02     0.27  -0.04   0.00     0.24  -0.04  -0.11
   100   6    -0.02   0.01  -0.01    -0.04  -0.03  -0.11    -0.01  -0.01   0.10
   101   9    -0.01   0.01  -0.01    -0.05  -0.02  -0.10     0.00  -0.02   0.09
   102   9    -0.02   0.01  -0.00    -0.02  -0.07  -0.13    -0.06   0.03   0.13
   103   9    -0.02   0.01  -0.00    -0.07  -0.02  -0.15     0.03  -0.01   0.14
   104   6    -0.01  -0.00   0.00    -0.00   0.03   0.03    -0.02   0.05   0.02
   105   9    -0.01  -0.00   0.00    -0.01   0.05  -0.03    -0.06   0.11  -0.09
   106   9    -0.01   0.00   0.00    -0.02  -0.03   0.04    -0.01  -0.08   0.05
   107   9    -0.01  -0.00   0.00     0.01   0.06   0.07     0.02   0.14   0.12
   108   1    -0.05  -0.04   0.01     0.29  -0.10   0.02     0.25  -0.09  -0.09
                      4                      5                      6
                      A                      A                      A
 Frequencies --     33.8045                43.2719                45.7250
 Red. masses --      7.2244                 5.3118                 4.9433
 Frc consts  --      0.0049                 0.0059                 0.0061
 IR Inten    --      0.0283                 0.8432                 0.2776
  Atom AN      X      Y      Z        X      Y      Z        X      Y      Z
     1   6     0.02  -0.02  -0.06    -0.02  -0.04  -0.07     0.02   0.01  -0.01
     2   6     0.04   0.02  -0.01     0.01   0.02   0.02     0.04  -0.02   0.00
     3   6     0.03   0.01  -0.02    -0.02  -0.04  -0.04     0.03  -0.02   0.02
     4   6     0.02  -0.02  -0.05    -0.05  -0.13  -0.14     0.01   0.01   0.04
     5   6     0.01  -0.04  -0.07    -0.06  -0.13  -0.15     0.01   0.02   0.02
     6   6     0.02  -0.03  -0.06    -0.02  -0.02  -0.05     0.02  -0.00  -0.04
     7   6     0.03  -0.00   0.01     0.01   0.02   0.02     0.01  -0.02  -0.00
     8   6     0.04  -0.00   0.02    -0.01   0.01  -0.02     0.01  -0.05  -0.04
     9   6     0.03  -0.02  -0.03    -0.04  -0.02  -0.08     0.01  -0.06  -0.09
    10   6     0.01  -0.03  -0.07    -0.04  -0.04  -0.10     0.02  -0.04  -0.09
    11   1     0.04   0.04   0.01     0.03   0.08   0.09     0.05  -0.03  -0.01
    12   1     0.01  -0.04  -0.06    -0.08  -0.19  -0.20     0.01   0.02   0.06
    13   1     0.00  -0.06  -0.10    -0.08  -0.19  -0.22    -0.00   0.04   0.03
    14   1     0.04   0.01   0.04     0.03   0.04   0.06     0.00  -0.01   0.03
    15   1     0.03  -0.02  -0.03    -0.05  -0.03  -0.12     0.01  -0.08  -0.13
    16   1     0.01  -0.05  -0.11    -0.07  -0.06  -0.15     0.02  -0.04  -0.13
    17   7     0.03   0.00  -0.03     0.01   0.02   0.01     0.03  -0.00  -0.01
[...]
 5026,-0.00006077,0.00012826,0.00011069,0.00008728,-0.00008867,0.000145
 60,0.00000518,0.00003086,0.00012533,-0.00004262,-0.00004845,0.08675388
 ,-0.20916711,0.07540707,-0.00284591,-0.07863653,0.02012113,0.00368031,
 0.00538683,0.02841706,-0.10531655,0.30000282,0.00000359,-0.00012375,0.
 00002585,0.00003907,-0.00001276,0.00001385,-0.00001360,0.00004566,-0.0
 0001183,-0.00001307,-0.00004735,0.00006412,0.00004161,0.00003150,-0.00
 001052,0.00024613,-0.00067329,0.00009098,0.00205920,0.00219963,-0.0013
 3133,-0.00064174,0.00369141,0.00604330,-0.00082905,0.00039408,0.001484
 19,0.00048799,0.00008195,-0.00060989,-0.00001124,0.00000356,-0.0000085
 3,0.00000354,-0.00000320,-0.00000554,0.00000670,-0.00003186,0.00000833
 ,0.00034784,-0.00063414,-0.00022371,0.00014475,-0.00030299,0.00006255,
 -0.00012604,-0.00004610,-0.00012253,-0.00010287,-0.00002592,0.00000989
 ,-0.00039947,-0.00047340,0.00048360,0.00002282,-0.00012336,0.00017987,
 -0.00001771,-0.00000791,0.00043350,0.00096244,0.00009492,-0.00013468,0
 .00010530,0.00007212,0.00008075,-0.00128968,0.00043556,0.00014180,-0.0
 0009189,0.00002337,-0.00055950,-0.00017850,-0.00012055,-0.00005377,0.0
 0015812,0.00003437,0.00002080,0.00000902,-0.00006960,0.00045029,0.0001
 0838,0.00007963,-0.00020978,0.00002643,-0.00005184,-0.00035605,-0.0000
 4612,-0.00000788,-0.00001929,-0.00005372,-0.00001811,-0.00004865,-0.00
 008091,-0.00027894,-0.00002439,-0.00015624,-0.00006567,0.00005240,0.00
 033341,0.00002674,-0.00003499,0.00002820,0.00023442,0.00010264,0.00000
 732,-0.00007701,-0.00006049,-0.00000021,-0.00001353,0.00002508,-0.0000
 1095,-0.00003570,-0.00003073,-0.00005164,0.00002018,0.00008491,-0.0000
 3012,-0.00002688,-0.00000742,0.00001393,-0.00001579,-0.00002216,0.0000
 1808,0.00001179,0.00001632,0.00004081,-0.00005830,0.00007865,0.0000341
 5,0.00001768,0.00007411,0.00001284,-0.00000749,-0.00013647,-0.00004292
 ,0.00000134,-0.00001321,-0.00001789,-0.00004288,0.00003655,0.00001139,
 0.00000556,-0.00000480,-0.00002292,-0.00002106,-0.00000680,0.00000879,
 0.00001209,0.00002188,-0.00018032,-0.00012816,0.00010058,0.00001599,-0
 .00000672,0.00000981,0.00015238,0.00025672,-0.00017676,0.00003513,0.00
 009090,-0.00000151,-0.00021974,-0.00008256,0.00014963,0.00015787,-0.00
 054594,-0.00006754,0.00005663,0.00004607,-0.00000109,0.00004312,0.0000
 8029,-0.00002284,0.00005335,0.00000997,-0.00002134,0.00002720,0.000027
 50,-0.00001624,-0.00000325,-0.00001101,0.00003627,-0.00001040,-0.00001
 372,0.00000524,0.00005176,0.00002062,-0.00003685,-0.00000985,0.0000010
 0,0.00000612,-0.00002770,0.00000829,-0.00001907,0.00003289,0.00002090,
 -0.00000512,0.00000829,0.00000194,0.00000725,0.00000589,0.00000455,-0.
 00000046,-0.00000003,-0.00000299,-0.00000297,-0.00000324,-0.00000289,0
 .00000626,0.00001169,-0.00000256,0.00000337,-0.00000121,0.00000258,-0.
 00000561,-0.00000057,-0.00000347,-0.00000077,0.00000676,0.00000251,0.0
 0000539,-0.00000059,0.00000863,-0.00000529,-0.00000239,0.00000291,-0.0
 0000427,0.00000512,-0.00000763,0.00000712,0.00000320,0.00000203,0.0000
 0486,0.00000834,0.00000544,0.00000199,-0.00000607,0.00000391,0.0000104
 8,-0.00000685,-0.00000952,-0.00000585,0.00000843,0.00000177,-0.0000008
 7,-0.00002819,-0.00000111,-0.00001433,-0.00068580,0.00090397,-0.000052
 60,0.00073689,-0.00032358,0.00014955,-0.00009508,0.00003134,0.00018021
 ,0.00003006,0.00039891,-0.00006768,-0.00000143,0.00002287,0.00004622,-
 0.00006809,-0.00066366,0.00004834,0.00005717,-0.00000618,-0.00003250,-
 0.00000969,0.00009752,0.00012218,0.00084466,-0.00037751,0.00003359,-0.
 00126938,0.00057706,0.00070410,0.00012937,-0.00003067,-0.00024346,0.00
 014010,-0.00002928,-0.00021489,0.00103803,-0.00040161,-0.00272840,0.00
 004712,0.00005691,-0.00012567,0.00003651,-0.00006428,0.00002588,0.0000
 7119,-0.00003479,0.00003820,-0.00003134,0.00001641,-0.00005673,0.00000
 105,-0.00001793,0.00002033,0.00001784,-0.00000080,0.00002663,0.0000090
 2,-0.00000767,0.00000580,-0.04615701,0.07462681,-0.11825541,0.00484293
 ,0.01406039,0.01176656,-0.02539450,0.04373054,-0.06573406,0.06450665,-
 0.13639678,0.16836744,0.00005963,0.00000136,0.00003313,0.00001517,0.00
 001749,-0.00000722,-0.00002399,-0.00001228,0.00002112,0.00003253,-0.00
 000119,-0.00001090,-0.00003937,-0.00000875,0.00001041,0.00006942,0.000
 07868,0.00002481,-0.00002015,-0.00000271,0.00002643,0.00002450,0.00002
 775,-0.00001618,-0.00016156,-0.00009347,0.00003759,0.00001279,-0.00009
 185,-0.00011575,0.00000199,0.00000626,-0.00000010,-0.00000395,0.000001
 06,-0.00000025,0.00000743,-0.00000132,0.00000836,-0.00000306,0.0000208
 8,-0.00000745,0.,-0.00002002,-0.00005206,0.00000173,-0.00002144,0.0000
 6074,-0.00001465,-0.00000788,-0.00002783,0.00002952,0.00002972,-0.0000
 1944,-0.00002049,-0.00001658,-0.00005040,0.00000628,-0.00003205,-0.000
 06603,0.00004090,-0.00007999,-0.00001609,-0.00004694,-0.00005837,-0.00
 001840,-0.00002633,0.00011986,0.00000200,0.00001187,0.00004289,0.00010
 211,0.00008289,0.00008045,0.00001380,-0.00006101,-0.00003653,-0.000006
 68,-0.00001099,-0.00001243,-0.00006771,-0.00000739,0.00000716,0.000027
 12,0.00000720,0.00000972,0.00003281,0.00002733,0.00001455,-0.00000248,
 0.00002870,0.00002084,0.00001492,-0.00002228,0.00004937,0.00000046,-0.
 00001429,0.00003180,0.00001557,0.00001868,-0.00007285,0.00000792,0.000
 00232,0.00000074,-0.00000303,-0.00000182,-0.00000031,0.00000374,-0.000
 00168,-0.00000051,-0.00000471,0.00000136,-0.00000130,0.00000194,-0.000
 00096,-0.00000168,-0.00000366,0.00000135,0.00000182,0.00000181,0.00000
 100,-0.00000010,0.00000205,-0.00000217,-0.00000199,-0.00000455,0.00000
 997,0.00000172,0.00000160,-0.00000008,-0.00000378,-0.00000789,-0.00000
 851,0.00000202,0.00000136,0.00000128,-0.00000096,0.00000524,-0.0000007
 6,-0.00000150,-0.00000141,-0.00000085,0.00000119,0.00000227,-0.0000012
 2,-0.00000065,0.00000102,0.00000101,-0.00000149,-0.00000435,0.00000468
 ,-0.00000731,0.00000512,-0.00000016,0.00000538,-0.00000697,-0.00000512
 ,0.00000412,0.00000278,0.00000297,-0.00000854,-0.00000153,0.00000069,-
 0.00000402,-0.00000173,-0.00000024,0.00000326,0.00000025,-0.00000132,0
 .00000217,0.00000018,0.00000203,-0.00000585,-0.00000103,-0.00000045,-0
 .00000306,0.00000048,-0.00000263,-0.00000069,0.00000125,0.00000018,0.0
 0000231,-0.00000027,0.00000262,-0.00000317,-0.00000151,0.00000015,-0.0
 0000241,-0.00000310,0.00000221,-0.00000489,-0.00000299,0.00000004,0.00
 000208,0.00000315,-0.00000200,0.00000111,0.00000079,-0.00000396,-0.000
 00006,-0.00000061,-0.00000325,-0.00000310,-0.00000127,0.00000236,0.000
 00146,0.00000039,0.00000152,0.00000060,0.00000056,-0.00000456,-0.00000
 002,-0.00000184,0.00000183,0.00000158,0.00000299,0.00000462,0.00000063
 ,0.00000020,-0.00000374,-0.00000378,-0.00000273,-0.00000131,-0.0000025
 7,0.00000030,0.00000220,-0.00000127,-0.00000069,0.00000096,0.00000121,
 0.00000056,-0.00000345,-0.00000091,-0.00000023,-0.00000321,-0.00000222
 ,0.00000168,0.00000092,0.00000151,-0.00000271,0.00000226,0.00000016,-0
 .00000047,-0.00000393,-0.00000220,0.00000149,-0.00000771,-0.00000746,0
 .00001514,-0.00346833,0.00367926,-0.00055437,0.00086571,-0.00240033,0.
 00040449,0.01050809,0.01057446,-0.00184173,0.00043019,-0.00082776,0.00
 019565,0.00044898,-0.00082418,0.00021049,-0.00001959,0.00016397,-0.000
 02373,0.00001586,0.00002218,-0.00002603,0.00003407,0.00002166,0.000009
 82,0.00108579,0.00013103,-0.00007692,0.00003772,-0.00009708,0.00004251
 ,-0.00000703,-0.00002042,0.00000215,-0.00000489,-0.00002058,-0.0000267
 6,0.00002361,0.00000421,0.00000997,-0.20462733,-0.13080266,0.02087283,
 -0.01268285,-0.01153170,-0.00079689,-0.01161956,-0.00916686,0.00377271
 ,0.00012194,-0.00001055,-0.00000789,-0.00002749,-0.00000649,0.00000939
 ,-0.00004380,0.00000185,-0.00001798,-0.00003568,0.00001986,0.00001087,
 -0.00021319,-0.00013180,0.00010081,0.00009431,0.00009272,-0.00000989,0
 .00005228,0.00000965,-0.00005103,0.00003175,0.00002834,-0.00003329,0.2
 1901186,0.00005330,0.00000298,-0.00000746,-0.00001909,0.00001177,-0.00
 001347,-0.00001138,-0.00002651,0.00002026,0.00001451,0.00002485,-0.000
 02174,-0.00002743,0.00000357,0.00000211,0.00000466,0.00002650,0.000046
 77,-0.00000895,-0.00000989,0.00007489,0.00004357,0.00002133,0.00000474
 ,-0.00004541,-0.00003712,0.00004900,-0.00000472,-0.00001230,-0.0000334
 5,0.00000394,-0.00000105,0.00000191,-0.00000192,0.00000056,-0.00000135
 ,-0.00000014,0.00000059,-0.00000744,0.00000023,-0.00000064,0.00001517,
 -0.00001320,0.00000926,-0.00006667,-0.00001099,0.00000335,-0.00000438,
 0.00002839,-0.00002904,0.00001726,-0.00004174,-0.00005844,0.00001280,0
 .00000533,-0.00000614,-0.00007234,0.00001494,-0.00002662,-0.00008453,0
 .00004423,-0.00009286,-0.00005600,-0.00006331,-0.00006893,-0.00001961,
 0.00001074,0.00018129,0.00024155,-0.00000356,0.00003310,0.00013634,0.0
 0010228,0.00009667,-0.00001036,-0.00009020,-0.00003122,0.00000221,-0.0
 0001334,-0.00000267,-0.00009987,-0.00001259,0.00000142,0.00003147,0.00
 000677,0.00000856,0.00003736,0.00003337,0.00001258,-0.00000111,0.00003
 154,0.00001929,0.00002015,-0.00003113,0.00005957,-0.00000283,-0.000038
 23,0.00004764,0.00003029,0.00003228,-0.00015209,-0.00006024,0.00000009
 ,-0.00000391,-0.00000475,-0.00000058,0.00000209,0.00000319,-0.00000057
 ,0.00000009,-0.00000495,0.00000120,-0.00000105,0.00000227,-0.00000055,
 -0.00000147,-0.00000575,0.00000237,0.00000220,0.00000240,0.00000038,0.
 00000047,0.00000282,-0.00000233,-0.00000212,-0.00000473,0.00000290,0.0
 0000115,-0.00000506,0.00000109,-0.00000079,-0.00000684,-0.00000306,-0.
 00000050,0.00000402,0.00000029,-0.00000020,0.00000336,0.00000184,0.000
 00062,-0.00000448,-0.00000158,0.00000111,0.00000165,0.00000018,0.00000
 030,0.00000156,-0.00000026,-0.00000164,-0.00000504,0.00000392,-0.00001
 148,0.00001378,-0.00000110,0.00000925,-0.00001463,-0.00000629,0.000007
 63,0.00000345,0.00000302,-0.00001272,-0.00000483,-0.00000102,-0.000007
 39,-0.00000035,0.00000345,0.00000433,-0.00000091,-0.00000243,0.0000008
 1,-0.00000078,0.00000291,-0.00000644,-0.00000324,0.00000223,-0.0000052
 3,-0.00000239,-0.00000292,-0.00000015,0.00000158,-0.00000136,0.0000037
 7,-0.00000052,0.00000386,-0.00000614,-0.00000148,0.00000565,-0.0000082
 0,-0.00000655,0.00000094,-0.00000815,-0.00000647,-0.00000014,0.0000017
 9,0.00000418,-0.00000172,0.00000155,0.00000120,-0.00000411,-0.00000183
 ,-0.00000209,-0.00000386,-0.00000267,-0.00000050,0.00000081,0.00000203
 ,0.00000059,0.00000181,0.00000042,-0.00000003,-0.00000362,-0.00000190,
 -0.00000315,0.00000235,0.00000070,0.00000315,0.00000206,0.00000156,0.0
 0000092,-0.00000395,-0.00000242,-0.00000308,-0.00000227,-0.00000237,0.
 00000104,0.00000211,-0.00000093,-0.00000045,0.00000097,0.00000133,-0.0
 0000013,-0.00000368,-0.00000145,-0.00000079,-0.00000575,-0.00000205,0.
 00000214,0.00000183,0.00000117,-0.00000313,0.00000227,0.00000110,-0.00
 000026,-0.00000443,-0.00000302,0.00000181,0.00000495,0.00000169,0.0000
 1470,0.00487817,-0.00361635,0.00090033,0.00009948,0.00058640,-0.000136
 61,-0.02420126,-0.01868047,0.00297571,-0.00015322,0.00096672,-0.000727
 23,-0.00009402,0.00121745,0.00021064,0.00045201,-0.00023757,-0.0000161
 5,0.00003113,0.00003360,-0.00000526,-0.00012671,-0.00016530,-0.0000193
 8,-0.00184658,-0.00175280,0.00023492,-0.00050106,0.00016021,-0.0000713
 4,0.00005805,-0.00003850,0.00002387,0.00001463,0.00006874,0.00003890,0
 .00006193,-0.00002240,-0.00003137,-0.13003884,-0.15487694,0.01681970,0
 .00881541,0.00728772,-0.00000189,0.00146743,0.00000426,-0.00040871,0.0
 0006838,-0.00002494,-0.00001227,-0.00001478,0.00000327,0.00000402,-0.0
 0002234,0.00000357,-0.00000666,-0.00002262,0.00002203,0.00001257,-0.00
 037457,-0.00040146,0.00000794,0.00020467,0.00025586,0.00006986,0.00007
 421,0.00005239,0.00001111,0.00003607,0.00010215,-0.00004859,0.14114381
 ,0.16909201,0.00006462,0.00000825,-0.00000416,-0.00000649,0.00000400,-
 0.00000387,-0.00000922,-0.00000566,0.00000988,0.00001661,-0.00000275,-
 0.00000611,-0.00002193,0.00000074,0.00000265,0.00005478,0.00008110,-0.
 00004706,-0.00002331,-0.00000937,0.00001401,0.00003806,0.00002534,-0.0
 0001427,-0.00015407,-0.00007453,0.00004047,0.00001058,-0.00006853,-0.0
 0008962,-0.00000267,0.00000018,-0.00000100,-0.00000144,0.00000030,0.00
 000057,0.00000298,-0.00000028,0.00000827,-0.00000310,0.00000475,-0.000
 01186,0.00000021,-0.00000265,-0.00008376,0.00001434,-0.00001771,0.0000
 5475,-0.00000975,0.00000038,0.00000096,0.00006336,0.00003405,-0.000007
 36,0.00000298,0.00000237,0.00000333,-0.00000005,-0.00000039,0.00000839
 ,0.00000462,0.00001386,0.00001086,0.00001387,0.00001220,0.00000147,-0.
 00002311,-0.00003342,-0.00005884,0.00000334,0.00000490,-0.00002038,-0.
 00002138,-0.00001644,0.00000933,0.00001917,0.00000261,-0.00000176,0.00
 000449,-0.00000327,0.00001388,-0.00000017,0.00000104,-0.00000218,-0.00
 000273,-0.00000063,-0.00000069,-0.00000723,-0.00000196,0.00000051,-0.0
 0000575,-0.00000262,-0.00000393,0.00000380,-0.00000877,0.00000273,0.00
 000650,-0.00001081,-0.00000440,-0.00000124,0.00003086,0.00001475,0.000
 00066,-0.00000073,-0.00000016,-0.00000073,0.00000129,0.00000104,-0.000
 00003,-0.00000033,0.00000046,-0.00000019,-0.00000056,-0.00000042,0.000
 00066,0.00000033,-0.00000054,0.00000009,0.00000004,-0.00000039,-0.0000
 0014,-0.00000034,-0.00000027,0.00000007,-0.00000004,0.00000067,0.00000
 458,0.00000087,0.00000208,-0.00000161,-0.00000216,-0.00000166,-0.00000
 359,0.00000176,0.00000029,0.00000044,-0.00000058,0.00000082,-0.0000004
 9,-0.00000041,0.00000110,0.00000022,-0.00000045,0.00000022,-0.00000017
 ,0.00000029,-0.00000042,0.00000013,-0.00000009,0.00000035,-0.00000267,
 0.00000006,-0.00000251,0.00000106,-0.00000228,0.00000272,0.00000268,-0
 .00000125,-0.00000071,-0.00000006,0.00000332,0.00000178,-0.00000198,0.
 00000002,0.00000040,0.00000109,-0.00000057,-0.00000008,0.00000005,0.00
 000006,0.00000037,-0.00000020,0.00000173,0.00000030,-0.00000005,0.0000
 0141,0.00000048,0.00000108,0.00000034,-0.00000041,0.00000007,-0.000001
 12,0.00000034,-0.00000081,0.00000094,0.00000036,-0.00000109,0.00000242
 ,0.00000063,-0.00000009,0.00000118,0.00000156,-0.00000051,-0.00000009,
 -0.00000061,0.00000078,-0.00000002,-0.00000053,0.00000070,0.00000047,0
 .00000033,0.00000068,0.00000046,0.00000018,0.00000009,-0.00000045,-0.0
 0000029,-0.00000041,-0.00000020,0.00000005,0.,0.00000074,0.00000080,-0
 .00000052,0.00000017,-0.00000036,0.00000051,-0.00000038,-0.00000041,0.
 00000062,0.00000003,0.00000060,0.00000058,0.00000025,-0.00000008,-0.00
 000039,-0.00000018,0.00000015,-0.00000041,0.,0.00000006,0.00000085,0.0
 0000033,0.00000006,0.00000122,0.00000036,-0.00000066,-0.00000050,-0.00
 000022,0.00000052,-0.00000045,-0.00000046,0.00000010,0.00000102,0.0000
 0065,-0.00000031,-0.00000527,-0.00000310,-0.00000061,-0.00081001,0.000
 93561,0.00040072,-0.00002813,0.00019340,0.00059068,0.00530807,0.003575
 86,-0.00173785,-0.00032296,-0.00023656,0.00015416,0.00040952,-0.000170
 79,-0.00004655,-0.00012317,0.00003340,-0.00002581,-0.00000136,-0.00000
 749,-0.00000159,0.00003425,0.00003776,0.00000659,0.00038993,0.00043897
 ,0.00007415,0.00012655,-0.00000832,0.00002734,-0.00001295,0.00000966,-
 0.00001730,-0.00001802,-0.00000439,-0.00001414,-0.00001806,-0.00001021
 ,-0.00000522,0.02039411,0.01658354,-0.05185049,0.01705234,0.01681046,-
 0.00123152,-0.02023622,-0.01817481,0.00460817,0.00000974,0.00000230,-0
 .00000484,-0.00000189,-0.00000288,0.00000304,-0.00000243,0.,-0.0000001
 5,-0.00000259,0.00000101,0.00000148,-0.00024480,-0.00025764,-0.0000657
 5,0.00012278,0.00017331,0.00005128,0.00004574,0.00003567,0.00002795,0.
 00002983,0.00004938,-0.00000837,-0.02212853,-0.01997795,0.04922105\\0.
 00000271,-0.00000570,-0.00000249,-0.00000910,-0.00000936,0.00000240,-0
 .00001040,-0.00000765,-0.00000045,-0.00000832,0.00000160,-0.00001038,-
 0.00000676,-0.00000388,-0.00000342,-0.00000215,0.00000235,-0.00000250,
 -0.00000021,0.00000344,-0.00000066,-0.00000792,0.00000570,0.00000084,-
 0.00000007,0.00000275,-0.00000348,-0.00001097,-0.00000745,0.00000369,-
 0.00000037,0.00000146,-0.00000286,-0.00000090,-0.00000487,-0.00000031,
 -0.00000199,-0.00000117,-0.00000169,0.00000086,0.00000065,0.00000038,-
 0.00000242,0.00000017,-0.00000021,-0.00000240,0.00000175,-0.00000204,0
 .00000238,0.00000119,-0.00000476,-0.00000484,0.00000536,-0.00000280,0.
 00000046,0.00000111,0.00000066,0.00000099,0.00000058,0.00000013,0.0000
 0524,-0.00000020,-0.00000311,0.00000692,-0.00000508,0.00000050,-0.0000
 0247,0.00000653,0.00000341,0.00000085,-0.00000160,-0.00000116,0.000004
 31,0.00000178,0.00000099,0.00000228,-0.00000369,-0.00000052,0.00000256
 ,-0.00000238,0.00000263,-0.00000291,-0.00000571,-0.00000452,0.00000718
 ,-0.00000151,0.00000393,0.00000143,0.00000242,0.00000048,-0.00000148,-
 0.00001053,-0.00000101,0.00000008,0.00000973,0.00000977,0.00000412,0.0
 0000356,0.00000171,0.00000366,0.00000277,0.00000375,0.00000150,-0.0000
 0044,0.00000047,0.00000126,-0.00000031,0.00000045,0.00000291,-0.000001
 22,0.00000240,0.00000208,0.00000044,0.00000067,0.00000598,-0.00000378,
 -0.00000378,-0.00000012,-0.00000192,0.00000329,0.00000250,-0.00000049,
 0.00000129,0.00000361,-0.00000233,0.00000262,-0.00000241,-0.00000191,0
 .00000459,0.00000149,-0.00000184,-0.00000464,0.00000022,-0.00000063,-0
 .00000021,0.00000069,-0.00000263,-0.00000122,0.00000919,-0.00001274,-0
 .00000378,-0.00000298,0.00000165,-0.00000069,0.00000322,-0.00000078,-0
 .00000045,-0.00000034,-0.00000157,0.00000437,-0.00000067,0.00000911,0.
 00000303,0.00000168,0.00000407,0.00000095,0.00000109,0.00000390,0.0000
 0194,0.00000280,0.00000260,0.00000205,0.00000562,0.00000983,-0.0000013
 2,0.00000095,0.00000261,0.00000185,0.00000616,0.00000049,0.00000571,0.
 00000391,-0.00000231,0.00000323,0.00000996,0.00000827,0.00000812,0.000
 00055,0.00000094,0.00000269,-0.00000033,0.00000188,-0.00000094,0.00000
 309,0.00000174,0.00000147,0.00001290,-0.00000149,-0.00000117,0.0000007
 0,0.00000473,0.00000469,0.00000060,0.00000190,0.00000071,-0.00000112,-
 0.00000041,0.00000334,0.00000128,-0.00000706,-0.00000119,0.00000243,-0
 .00000183,-0.00000006,0.00000036,-0.00000392,-0.00000063,0.00000092,-0
 .00000156,-0.00000010,0.00000858,-0.00000500,-0.00000360,-0.00000193,-
 0.00000360,0.00000131,-0.00000088,-0.00000180,-0.00000014,-0.00000154,
 -0.00000550,-0.00000139,0.00000117,-0.00001303,0.00000035,0.00000216,-
 0.00000003,0.00000179,0.00000274,-0.00000202,-0.00000109,0.00000650,-0
 .00000178,0.00000002,0.00001195,-0.00001163,0.00000197,0.00000120,-0.0
 0000018,0.00000057,-0.00000088,0.00000314,0.00000263,0.00000077,-0.000
 00171,0.00000058,-0.00000090,-0.00000039,0.00000111,-0.00001502,0.0000
 0504,0.00000066,0.00000360,0.00000155,-0.00000235,-0.00001047,0.000010
 37,0.00000472,0.00000114,0.00000195,-0.00000485,-0.00000269,0.00000295
 ,-0.00000089,-0.00000352,0.00000685,0.00000142,0.00000037,0.,-0.000001
 16,0.00000041,0.00000310,-0.00000058,-0.00000971,0.00000599,0.00000043
 ,0.00000425,0.00000494,0.00000393,-0.00000120,0.00000426,0.00000014,-0
 .00000251,0.00000270,-0.00000099,-0.00000048,0.00000367,-0.00000015,-0
 .00000403,0.00000323,-0.00001068,-0.00000718,0.00000320,0.00000378,-0.
 00000268,0.00000286,-0.00000184,-0.00000344,-0.00000383,-0.00001160,-0
 .00000503,-0.00000958,-0.00000345,-0.00000201,-0.00001228,-0.00000213,
 -0.00000857,-0.00000825,-0.00000614,-0.00000106,0.00000459,0.00000074,
 -0.00000451,0.00000727,-0.00000015,-0.00000091,0.00000488,0.00000129,-
 0.00000106,0.00000859,0.00000020,-0.00000464,0.00000235,-0.00000115\\\
 @
 The archive entry for this job was punched.


 The juvenile sea squirt wanders through the sea searching
 for a suitable rock or hunk of coral to cling to and make
 its home for life.  For this task it has a rudimentary
 nervous system.  When it finds its spot and takes root, it
 doesn't need its brain any more so it eats it.
 It's rather like getting tenure.

                               -- source unknown
 Job cpu time:       2 days  5 hours 23 minutes 31.7 seconds.
 Elapsed time:       0 days  3 hours 24 minutes 17.4 seconds.
 File lengths (MBytes):  RWF=   9700 Int=      0 D2E=      0 Chk=     55 Scr=      1
 Normal termination of Gaussian 16 at Sat Dec  7 22:17:39 2024.
