/mnt/lustre/scratch/nvme/SLURM/9663715/usccqdma.ZP9z2lUxnY
OMP_STACKSIZE=0m
GAUSS_PDEF=16
GAUSS_MDEF=65536MB
GAUSS_RDEF=SCF=Direct
 Entering Gaussian System, Link 0=g16.exe
 Initial command:
 /opt/cesga/2020/software/Core/g16/c1/l1.exe "/mnt/lustre/scratch/nvme/SLURM/9663715/usccqdma.ZP9z2lUxnY/Gau-2871557.inp" -scrdir="/mnt/lustre/scratch/nvme/SLURM/9663715/usccqdma.ZP9z2lUxnY/"
 Default is to use a total of  16 processors:
                               16 via shared-memory
                                1 via Linda
 Entering Link 1 = /opt/cesga/2020/software/Core/g16/c1/l1.exe PID=   2871584.
  
 Copyright (c) 1988-2019, Gaussian, Inc.  All Rights Reserved.
  
 This is part of the Gaussian(R) 16 program.  It is based on
 the Gaussian(R) 09 system (copyright 2009, Gaussian, Inc.),
 the Gaussian(R) 03 system (copyright 2003, Gaussian, Inc.),
 the Gaussian(R) 98 system (copyright 1998, Gaussian, Inc.),
 the Gaussian(R) 94 system (copyright 1995, Gaussian, Inc.),
 the Gaussian 92(TM) system (copyright 1992, Gaussian, Inc.),
 the Gaussian 90(TM) system (copyright 1990, Gaussian, Inc.),
 the Gaussian 88(TM) system (copyright 1988, Gaussian, Inc.),
 the Gaussian 86(TM) system (copyright 1986, Carnegie Mellon
 University), and the Gaussian 82(TM) system (copyright 1983,
 Carnegie Mellon University). Gaussian is a federally registered
 trademark of Gaussian, Inc.
  
 This software contains proprietary and confidential information,
 including trade secrets, belonging to Gaussian, Inc.
  
 This software is provided under written license and may be
 used, copied, transmitted, or stored only in accord with that
 written license.
  
 The following legend is applicable only to US Government
 contracts under FAR:
  
                    RESTRICTED RIGHTS LEGEND
  
 Use, reproduction and disclosure by the US Government is
 subject to restrictions as set forth in subparagraphs (a)
 and (c) of the Commercial Computer Software - Restricted
 Rights clause in FAR 52.227-19.
  
 Gaussian, Inc.
 340 Quinnipiac St., Bldg. 40, Wallingford CT 06492
  
  
 ---------------------------------------------------------------
 Warning -- This program may not be used in any manner that
 competes with the business of Gaussian, Inc. or will provide
 assistance to any competitor of Gaussian, Inc.  The licensee
 of this program is prohibited from giving any competitor of
 Gaussian, Inc. access to this program.  By using this program,
 the user acknowledges that Gaussian, Inc. is engaged in the
 business of creating and licensing software in the field of
 computational chemistry and represents and warrants to the
 licensee that it is not a competitor of Gaussian, Inc. and that
 it will not use this program in any manner prohibited above.
 ---------------------------------------------------------------
  

 Cite this work as:
 Gaussian 16, Revision C.01,
 M. J. Frisch, G. W. Trucks, H. B. Schlegel, G. E. Scuseria, 
 M. A. Robb, J. R. Cheeseman, G. Scalmani, V. Barone, 
 G. A. Petersson, H. Nakatsuji, X. Li, M. Caricato, A. V. Marenich, 
 J. Bloino, B. G. Janesko, R. Gomperts, B. Mennucci, H. P. Hratchian, 
 J. V. Ortiz, A. F. Izmaylov, J. L. Sonnenberg, D. Williams-Young, 
 F. Ding, F. Lipparini, F. Egidi, J. Goings, B. Peng, A. Petrone, 
 T. Henderson, D. Ranasinghe, V. G. Zakrzewski, J. Gao, N. Rega, 
 G. Zheng, W. Liang, M. Hada, M. Ehara, K. Toyota, R. Fukuda, 
 J. Hasegawa, M. Ishida, T. Nakajima, Y. Honda, O. Kitao, H. Nakai, 
 T. Vreven, K. Throssell, J. A. Montgomery, Jr., J. E. Peralta, 
 F. Ogliaro, M. J. Bearpark, J. J. Heyd, E. N. Brothers, K. N. Kudin, 
 V. N. Staroverov, T. A. Keith, R. Kobayashi, J. Normand, 
 K. Raghavachari, A. P. Rendell, J. C. Burant, S. S. Iyengar, 
 J. Tomasi, M. Cossi, J. M. Millam, M. Klene, C. Adamo, R. Cammi, 
 J. W. Ochterski, R. L. Martin, K. Morokuma, O. Farkas, 
 J. B. Foresman, and D. J. Fox, Gaussian, Inc., Wallingford CT, 2019.
 
 ******************************************
 Gaussian 16:  ES64L-G16RevC.01  3-Jul-2019
                 7-Dec-2024 
 ******************************************
 Default route: SCF=Direct
 ----------------------------------------------------
 # m06/genecp scf=tight int=ultrafine 5d freq=noraman
 ----------------------------------------------------
 1/10=4,30=1,38=1/1,3;
 2/12=2,17=6,18=5,40=1/2;
 3/5=7,8=1,11=2,16=1,17=8,25=1,30=1,71=2,74=-54,75=-5,140=1/1,2,3;
 4//1;
 5/5=2,32=2,38=5,98=1/2;
 8/6=4,10=90,11=11/1;
 11/6=1,8=1,9=11,15=111,16=1/1,2,10;
 10/6=1/2;
 6/7=2,8=2,9=2,10=2,28=1/1;
 7/8=1,10=1,25=1/1,2,3,16;
 1/10=4,30=1/3;
 99//99;
 ------
 OPT-TS
 ------
 Symbolic Z-matrix:
 Charge =  0 Multiplicity = 1
 C                     1.85224   1.17442   1.79529 
 C                     2.55032   1.22162  -0.42212 
 C                     3.73492   1.85964  -0.09049 
 C                     3.96826   2.16954   1.24501 
 C                     3.01874   1.8278    2.19321 
 C                     0.81897   0.71856   2.74146 
 C                    -1.15775  -0.46515   3.01374 
 C                    -1.11175  -0.31893   4.39194 
 C                    -0.0603    0.39658   4.95268 
 C                     0.91836   0.91381   4.11987 
 H                     2.29066   0.98104  -1.45161 
 H                     4.88663   2.66887   1.54713 
 H                     3.19706   2.05052   3.24123 
 H                    -1.95299  -1.01686   2.51802 
 H                     0.006     0.53907   6.02942 
 H                     1.76005   1.45492   4.54314 
 N                     1.63186   0.89478   0.49518 
 N                    -0.22842   0.05711   2.20595 
 O                    -0.01427   2.10387  -1.94191 
 O                    -2.83942   0.79056   1.0569 
 O                    -2.331    -2.42038   0.44016 
 B                    -2.20613   0.3664   -0.10233 
 B                    -0.62486   1.74325  -0.75353 
 B                    -1.43632  -1.81695  -0.44218 
 O                    -1.33478  -2.55968  -1.60457 
 O                    -1.09257   2.86674  -0.08876 
 C                    -0.54949   4.03234  -0.73259 
 C                    -0.21278   3.50884  -2.16235 
 C                    -2.68237  -3.71478  -0.08281 
 C                    -2.35081  -3.56886  -1.59984 
 C                    -4.25007   0.84752   0.83954 
 C                    -4.36112   0.87303  -0.72017 
 O                    -3.12155   0.28525  -1.14967 
 C                    -1.36045   3.64264  -3.15183 
 H                    -1.09957   3.09603  -4.06635 
 H                    -2.28003   3.19771  -2.75323 
 H                    -1.55622   4.69046  -3.41698 
 C                     1.05009   4.09195  -2.76828 
 H                     1.21586   3.65629  -3.7618 
 H                     0.96088   5.1815   -2.8869 
 H                     1.93395   3.88001  -2.15496 
 C                    -1.57187   5.15057  -0.68183 
 H                    -2.52205   4.8635   -1.14548 
 H                    -1.77285   5.41676   0.36401 
 H                    -1.1943    6.04702  -1.19469 
 C                     0.68119   4.43781   0.06937 
 H                     1.11546   5.37899  -0.29393 
 H                     0.38563   4.57341   1.11773 
 H                     1.4579    3.66246   0.03615 
 C                    -4.85321  -0.39661   1.47696 
 H                    -4.60704  -0.39368   2.54786 
 H                    -5.94709  -0.42491   1.3806 
 H                    -4.42235  -1.30511   1.03913 
 C                    -4.78773   2.08776   1.53032 
 H                    -4.24603   2.98719   1.21528 
 H                    -5.85999   2.2231    1.32661 
 H                    -4.65933   1.9842    2.61546 
 C                    -5.51805   0.0716   -1.2847 
 H                    -5.48949  -0.97682  -0.96535 
 H                    -6.47856   0.5025   -0.96662 
 H                    -5.48087   0.09287  -2.38168 
 C                    -4.40065   2.28197  -1.2944 
 H                    -3.55534   2.87196  -0.91781 
 H                    -4.31988   2.21715  -2.38748 
 H                    -5.33585   2.80267  -1.04948 
 C                    -1.79562  -4.82169  -2.24933 
 H                    -0.8642   -5.14776  -1.77158 
 H                    -2.52184  -5.64611  -2.20302 
 H                    -1.5788   -4.62024  -3.30603 
 C                    -3.50876  -3.02679  -2.42514 
 H                    -3.88316  -2.08886  -1.99687 
 H                    -3.14091  -2.79976  -3.43336 
 H                    -4.33356  -3.7474   -2.51001 
 C                    -4.14059  -3.99785   0.22191 
 H                    -4.44453  -4.96603  -0.20151 
 H                    -4.29163  -4.04094   1.3088 
 H                    -4.80328  -3.22347  -0.18222 
 C                    -1.81172  -4.73783   0.63414 
 H                    -2.06872  -5.766     0.34625 
 H                    -0.74552  -4.57655   0.42954 
 H                    -1.96288  -4.63472   1.71612 
 H                     0.01012  -0.44012  -1.55782 
 C                     3.48035  -1.67521   0.19068 
 O                     3.61117  -1.32082   1.36202 
 C                     4.68403  -1.72216  -0.74169 
 H                     4.84192  -2.75631  -1.09182 
 H                     4.47115  -1.14112  -1.65602 
 C                     1.06926  -1.96419   0.46383 
 H                     0.55673  -2.93069   0.35706 
 H                     1.39132  -1.88455   1.50726 
 N                     2.2818   -2.03998  -0.34409 
 C                     2.11672  -2.40399  -1.73596 
 H                     2.92059  -3.06655  -2.07808 
 H                     1.16061  -2.9269   -1.84848 
 H                     2.07643  -1.52408  -2.39902 
 C                     5.95028  -1.20918  -0.08121 
 H                     5.78393  -0.18011   0.27653 
 H                     6.15026  -1.79803   0.82611 
 C                     7.15126  -1.24899  -1.01177 
 H                     7.31289  -2.28186  -1.36782 
 H                     6.94088  -0.6541   -1.91888 
 C                     8.42821  -0.73766  -0.36174 
 H                     8.26573   0.29388  -0.00814 
 H                     8.63628  -1.33326   0.54174 
 C                     9.62332  -0.78172  -1.29893 
 H                     9.44498  -0.17051  -2.19499 
 H                     10.53761  -0.41036  -0.81941 
 H                     9.81919  -1.80829  -1.63903 
 H                    -1.88949  -0.76216   5.00875 
 H                     4.4565    2.10287  -0.86731 
 Ir                   -0.20556  -0.21925   0.00658 
 

 GradGradGradGradGradGradGradGradGradGradGradGradGradGradGradGradGradGrad
 Berny optimization.
 Initialization pass.
 Trust Radius=3.00D-01 FncErr=1.00D-07 GrdErr=1.00D-07 EigMax=2.50D+02 EigMin=1.00D-04
 Number of steps in this run=      2 maximum allowed number of steps=      2.
 GradGradGradGradGradGradGradGradGradGradGradGradGradGradGradGradGradGrad

 Stoichiometry    C36H61B3IrN3O7
 Framework group  C1[X(C36H61B3IrN3O7)]
 Deg. of freedom   327
 Full point group                 C1      NOp   1
 Largest Abelian subgroup         C1      NOp   1
 Largest concise Abelian subgroup C1      NOp   1
                         Standard orientation:                         
 ---------------------------------------------------------------------
 Center     Atomic      Atomic             Coordinates (Angstroms)
 Number     Number       Type             X           Y           Z
 ---------------------------------------------------------------------
      1          6           0        1.852240    1.174420    1.795290
      2          6           0        2.550320    1.221620   -0.422120
      3          6           0        3.734920    1.859640   -0.090490
      4          6           0        3.968260    2.169540    1.245010
      5          6           0        3.018740    1.827800    2.193210
      6          6           0        0.818970    0.718560    2.741460
      7          6           0       -1.157750   -0.465150    3.013740
      8          6           0       -1.111750   -0.318930    4.391940
      9          6           0       -0.060300    0.396580    4.952680
     10          6           0        0.918360    0.913810    4.119870
     11          1           0        2.290660    0.981040   -1.451610
     12          1           0        4.886630    2.668870    1.547130
     13          1           0        3.197060    2.050520    3.241230
     14          1           0       -1.952990   -1.016861    2.518020
     15          1           0        0.006000    0.539070    6.029420
     16          1           0        1.760050    1.454920    4.543140
     17          7           0        1.631860    0.894780    0.495180
     18          7           0       -0.228420    0.057110    2.205950
     19          8           0       -0.014270    2.103870   -1.941910
     20          8           0       -2.839420    0.790559    1.056900
     21          8           0       -2.331000   -2.420381    0.440160
     22          5           0       -2.206130    0.366399   -0.102330
     23          5           0       -0.624860    1.743250   -0.753530
     24          5           0       -1.436320   -1.816950   -0.442180
     25          8           0       -1.334780   -2.559680   -1.604570
     26          8           0       -1.092571    2.866740   -0.088760
     27          6           0       -0.549491    4.032340   -0.732590
     28          6           0       -0.212781    3.508840   -2.162350
     29          6           0       -2.682370   -3.714781   -0.082810
     30          6           0       -2.350810   -3.568861   -1.599840
     31          6           0       -4.250070    0.847519    0.839540
     32          6           0       -4.361120    0.873029   -0.720170
     33          8           0       -3.121550    0.285249   -1.149670
     34          6           0       -1.360451    3.642640   -3.151830
     35          1           0       -1.099571    3.096030   -4.066350
     36          1           0       -2.280031    3.197709   -2.753230
     37          1           0       -1.556221    4.690460   -3.416980
     38          6           0        1.050089    4.091950   -2.768280
     39          1           0        1.215859    3.656290   -3.761800
     40          1           0        0.960879    5.181500   -2.886900
     41          1           0        1.933949    3.880010   -2.154960
     42          6           0       -1.571871    5.150570   -0.681830
     43          1           0       -2.522051    4.863499   -1.145480
     44          1           0       -1.772851    5.416759    0.364010
     45          1           0       -1.194301    6.047020   -1.194690
     46          6           0        0.681189    4.437810    0.069370
     47          1           0        1.115459    5.378990   -0.293930
     48          1           0        0.385629    4.573410    1.117730
     49          1           0        1.457899    3.662460    0.036150
     50          6           0       -4.853210   -0.396611    1.476960
     51          1           0       -4.607040   -0.393681    2.547860
     52          1           0       -5.947090   -0.424911    1.380600
     53          1           0       -4.422350   -1.305111    1.039130
     54          6           0       -4.787730    2.087759    1.530320
     55          1           0       -4.246031    2.987189    1.215280
     56          1           0       -5.859990    2.223099    1.326610
     57          1           0       -4.659330    1.984199    2.615460
     58          6           0       -5.518050    0.071599   -1.284700
     59          1           0       -5.489490   -0.976821   -0.965350
     60          1           0       -6.478560    0.502499   -0.966620
     61          1           0       -5.480870    0.092869   -2.381680
     62          6           0       -4.400650    2.281969   -1.294400
     63          1           0       -3.555341    2.871959   -0.917810
     64          1           0       -4.319880    2.217149   -2.387480
     65          1           0       -5.335851    2.802669   -1.049480
     66          6           0       -1.795620   -4.821691   -2.249330
     67          1           0       -0.864200   -5.147760   -1.771580
     68          1           0       -2.521840   -5.646111   -2.203020
     69          1           0       -1.578800   -4.620240   -3.306030
     70          6           0       -3.508760   -3.026791   -2.425140
     71          1           0       -3.883160   -2.088861   -1.996870
     72          1           0       -3.140910   -2.799761   -3.433360
     73          1           0       -4.333560   -3.747401   -2.510010
     74          6           0       -4.140590   -3.997851    0.221910
     75          1           0       -4.444530   -4.966031   -0.201510
     76          1           0       -4.291630   -4.040941    1.308800
     77          1           0       -4.803280   -3.223471   -0.182220
     78          6           0       -1.811720   -4.737831    0.634140
     79          1           0       -2.068719   -5.766001    0.346250
     80          1           0       -0.745520   -4.576550    0.429540
     81          1           0       -1.962880   -4.634721    1.716120
     82          1           0        0.010120   -0.440120   -1.557820
     83          6           0        3.480350   -1.675210    0.190680
     84          8           0        3.611170   -1.320820    1.362020
     85          6           0        4.684030   -1.722160   -0.741690
     86          1           0        4.841920   -2.756310   -1.091820
     87          1           0        4.471150   -1.141120   -1.656020
     88          6           0        1.069260   -1.964190    0.463830
     89          1           0        0.556730   -2.930690    0.357060
     90          1           0        1.391320   -1.884550    1.507260
     91          7           0        2.281800   -2.039980   -0.344090
     92          6           0        2.116720   -2.403990   -1.735960
     93          1           0        2.920590   -3.066550   -2.078080
     94          1           0        1.160610   -2.926900   -1.848480
     95          1           0        2.076430   -1.524080   -2.399020
     96          6           0        5.950280   -1.209180   -0.081210
     97          1           0        5.783930   -0.180110    0.276530
     98          1           0        6.150260   -1.798030    0.826110
     99          6           0        7.151260   -1.248989   -1.011770
    100          1           0        7.312890   -2.281859   -1.367820
    101          1           0        6.940880   -0.654099   -1.918880
    102          6           0        8.428210   -0.737659   -0.361740
    103          1           0        8.265730    0.293881   -0.008140
    104          1           0        8.636280   -1.333259    0.541740
    105          6           0        9.623320   -0.781719   -1.298930
    106          1           0        9.444980   -0.170509   -2.194990
    107          1           0       10.537610   -0.410359   -0.819410
    108          1           0        9.819190   -1.808289   -1.639030
    109          1           0       -1.889490   -0.762161    5.008750
    110          1           0        4.456500    2.102870   -0.867310
    111         77           0       -0.205560   -0.219250    0.006580
 ---------------------------------------------------------------------
 Rotational constants (GHZ):           0.0787980           0.0474845           0.0401023
 General basis read from cards:  (5D, 7F)
 ======================================================================================================
                                       Pseudopotential Parameters
 ======================================================================================================
  Center     Atomic      Valence      Angular      Power
  Number     Number     Electrons     Momentum     of R      Exponent        Coefficient   SO-Coeffient
 ======================================================================================================
    1          6
                                   No pseudopotential on this center.
    2          6
                                   No pseudopotential on this center.
    3          6
                                   No pseudopotential on this center.
    4          6
                                   No pseudopotential on this center.
    5          6
                                   No pseudopotential on this center.
    6          6
                                   No pseudopotential on this center.
    7          6
                                   No pseudopotential on this center.
    8          6
                                   No pseudopotential on this center.
    9          6
                                   No pseudopotential on this center.
   10          6
                                   No pseudopotential on this center.
   11          1
                                   No pseudopotential on this center.
   12          1
                                   No pseudopotential on this center.
   13          1
                                   No pseudopotential on this center.
   14          1
                                   No pseudopotential on this center.
   15          1
                                   No pseudopotential on this center.
   16          1
                                   No pseudopotential on this center.
   17          7
                                   No pseudopotential on this center.
   18          7
                                   No pseudopotential on this center.
   19          8
                                   No pseudopotential on this center.
   20          8
                                   No pseudopotential on this center.
   21          8
                                   No pseudopotential on this center.
   22          5
                                   No pseudopotential on this center.
   23          5
                                   No pseudopotential on this center.
   24          5
                                   No pseudopotential on this center.
   25          8
                                   No pseudopotential on this center.
   26          8
                                   No pseudopotential on this center.
   27          6
                                   No pseudopotential on this center.
   28          6
                                   No pseudopotential on this center.
   29          6
                                   No pseudopotential on this center.
   30          6
                                   No pseudopotential on this center.
   31          6
                                   No pseudopotential on this center.
   32          6
                                   No pseudopotential on this center.
   33          8
                                   No pseudopotential on this center.
   34          6
                                   No pseudopotential on this center.
   35          1
                                   No pseudopotential on this center.
   36          1
                                   No pseudopotential on this center.
   37          1
                                   No pseudopotential on this center.
   38          6
                                   No pseudopotential on this center.
   39          1
                                   No pseudopotential on this center.
   40          1
                                   No pseudopotential on this center.
   41          1
                                   No pseudopotential on this center.
   42          6
                                   No pseudopotential on this center.
   43          1
                                   No pseudopotential on this center.
   44          1
                                   No pseudopotential on this center.
   45          1
                                   No pseudopotential on this center.
   46          6
                                   No pseudopotential on this center.
   47          1
                                   No pseudopotential on this center.
   48          1
                                   No pseudopotential on this center.
   49          1
                                   No pseudopotential on this center.
   50          6
                                   No pseudopotential on this center.
   51          1
                                   No pseudopotential on this center.
   52          1
                                   No pseudopotential on this center.
   53          1
                                   No pseudopotential on this center.
   54          6
                                   No pseudopotential on this center.
   55          1
                                   No pseudopotential on this center.
   56          1
                                   No pseudopotential on this center.
   57          1
                                   No pseudopotential on this center.
   58          6
                                   No pseudopotential on this center.
   59          1
                                   No pseudopotential on this center.
   60          1
                                   No pseudopotential on this center.
   61          1
                                   No pseudopotential on this center.
   62          6
                                   No pseudopotential on this center.
   63          1
                                   No pseudopotential on this center.
   64          1
                                   No pseudopotential on this center.
   65          1
                                   No pseudopotential on this center.
   66          6
                                   No pseudopotential on this center.
   67          1
                                   No pseudopotential on this center.
   68          1
                                   No pseudopotential on this center.
   69          1
                                   No pseudopotential on this center.
   70          6
                                   No pseudopotential on this center.
   71          1
                                   No pseudopotential on this center.
   72          1
                                   No pseudopotential on this center.
   73          1
                                   No pseudopotential on this center.
   74          6
                                   No pseudopotential on this center.
   75          1
                                   No pseudopotential on this center.
   76          1
                                   No pseudopotential on this center.
   77          1
                                   No pseudopotential on this center.
   78          6
                                   No pseudopotential on this center.
   79          1
                                   No pseudopotential on this center.
   80          1
                                   No pseudopotential on this center.
   81          1
                                   No pseudopotential on this center.
   82          1
                                   No pseudopotential on this center.
   83          6
                                   No pseudopotential on this center.
   84          8
                                   No pseudopotential on this center.
   85          6
                                   No pseudopotential on this center.
   86          1
                                   No pseudopotential on this center.
   87          1
                                   No pseudopotential on this center.
   88          6
                                   No pseudopotential on this center.
   89          1
                                   No pseudopotential on this center.
   90          1
                                   No pseudopotential on this center.
   91          7
                                   No pseudopotential on this center.
   92          6
                                   No pseudopotential on this center.
   93          1
                                   No pseudopotential on this center.
   94          1
                                   No pseudopotential on this center.
   95          1
                                   No pseudopotential on this center.
   96          6
                                   No pseudopotential on this center.
   97          1
                                   No pseudopotential on this center.
   98          1
                                   No pseudopotential on this center.
   99          6
                                   No pseudopotential on this center.
  100          1
                                   No pseudopotential on this center.
  101          1
                                   No pseudopotential on this center.
  102          6
                                   No pseudopotential on this center.
  103          1
                                   No pseudopotential on this center.
  104          1
                                   No pseudopotential on this center.
  105          6
                                   No pseudopotential on this center.
  106          1
                                   No pseudopotential on this center.
  107          1
                                   No pseudopotential on this center.
  108          1
                                   No pseudopotential on this center.
  109          1
                                   No pseudopotential on this center.
  110          1
                                   No pseudopotential on this center.
  111         77           17
                                      G and up 
                                                     1      823.5880147       -0.15780140    0.00000000
                                                     2      364.6613336    -1517.52704460    0.00000000
                                                     2       55.7082801     -316.53065290    0.00000000
                                                     2       12.0464544      -91.88809410    0.00000000
                                                     2        3.5120610       -9.22417730    0.00000000
                                      S - G
                                                     0      188.0490770        3.15780140    0.00000000
                                                     1      340.4194712       26.83225770    0.00000000
                                                     2      128.2373673      800.42500070    0.00000000
                                                     2       33.8644961      369.40506830    0.00000000
                                                     2        4.7560005      242.41718990    0.00000000
                                                     2        3.9649974     -118.21732820    0.00000000
                                      P - G
                                                     0      289.7291139        2.15780140    0.00000000
                                                     1       87.4633789       61.96786100    0.00000000
                                                     2       30.4363766      269.05819860    0.00000000
                                                     2        4.0553412      231.16547930    0.00000000
                                                     2        3.5525341     -133.69526670    0.00000000
                                      D - G
                                                     0      136.4017106        3.15780140    0.00000000
                                                     1       95.0776925       45.93498030    0.00000000
                                                     2       49.2258410      359.03446680    0.00000000
                                                     2       15.0874145      176.47401190    0.00000000
                                                     2        4.0405764       54.51552860    0.00000000
                                      F - G
                                                     0      127.3507908        3.95461970    0.00000000
                                                     1       66.2364374       52.97736550    0.00000000
                                                     2       34.4299229      274.86433830    0.00000000
                                                     2       10.1995721      137.20473380    0.00000000
                                                     2        2.5409702       14.86333050    0.00000000
 ======================================================================================================
 There are   881 symmetry adapted cartesian basis functions of A   symmetry.
 There are   830 symmetry adapted basis functions of A   symmetry.
   830 basis functions,  1659 primitive gaussians,   881 cartesian basis functions
   193 alpha electrons      193 beta electrons
       nuclear repulsion energy      8100.0813314486 Hartrees.
 NAtoms=  111 NActive=  111 NUniq=  111 SFac= 1.00D+00 NAtFMM=   60 NAOKFM=T Big=T
 Integral buffers will be    131072 words long.
 Raffenetti 2 integral format.
 Two-electron integral symmetry is turned on.
 One-electron integrals computed using PRISM.
   1 Symmetry operations used in ECPInt.
 ECPInt:  NShTT=   53301 NPrTT=  320676 LenC2=   39566 LenP2D=  122003.
 LDataN:  DoStor=T MaxTD1= 6 Len=  172
 NBasis=   830 RedAO= T EigKep=  5.44D-04  NBF=   830
 NBsUse=   830 1.00D-06 EigRej= -1.00D+00 NBFU=   830
 Defaulting to unpruned grid for atomic number  77.
 ExpMin= 2.90D-02 ExpMax= 5.48D+03 ExpMxC= 8.25D+02 IAcc=3 IRadAn=         5 AccDes= 0.00D+00
 Harris functional with IExCor= 1009 and IRadAn=       5 diagonalized for initial guess.
 HarFok:  IExCor= 1009 AccDes= 0.00D+00 IRadAn=         5 IDoV= 1 UseB2=F ITyADJ=14
 ICtDFT=  3500011 ScaDFX=  1.000000  1.000000  1.000000  1.000000
 Defaulting to unpruned grid for atomic number  77.
 FoFCou: FMM=F IPFlag=           0 FMFlag=      100000 FMFlg1=        2001
         NFxFlg=           0 DoJE=T BraDBF=F KetDBF=T FulRan=T
         wScrn=  0.000000 ICntrl=       500 IOpCl=  0 I1Cent=   200000004 NGrid=           0
         NMat0=    1 NMatS0=      1 NMatT0=    0 NMatD0=    1 NMtDS0=    0 NMtDT0=    0
 Petite list used in FoFCou.
 Requested convergence on RMS density matrix=1.00D-08 within 128 cycles.
 Requested convergence on MAX density matrix=1.00D-06.
 Requested convergence on             energy=1.00D-06.
 No special actions if energy rises.
 Defaulting to unpruned grid for atomic number  77.
 Defaulting to unpruned grid for atomic number  77.
 Defaulting to unpruned grid for atomic number  77.
 Defaulting to unpruned grid for atomic number  77.
 Defaulting to unpruned grid for atomic number  77.
 Defaulting to unpruned grid for atomic number  77.
 Defaulting to unpruned grid for atomic number  77.
 Defaulting to unpruned grid for atomic number  77.
 Defaulting to unpruned grid for atomic number  77.
 Defaulting to unpruned grid for atomic number  77.
 Defaulting to unpruned grid for atomic number  77.
 Defaulting to unpruned grid for atomic number  77.
 Defaulting to unpruned grid for atomic number  77.
 Defaulting to unpruned grid for atomic number  77.
 Defaulting to unpruned grid for atomic number  77.
 Defaulting to unpruned grid for atomic number  77.
 SCF Done:  E(RM06) =  -2277.51635407     A.U. after   15 cycles
            NFock= 15  Conv=0.91D-08     -V/T= 2.0391
 DoSCS=F DFT=T ScalE2(SS,OS)=  1.000000  1.000000
 Range of M.O.s used for correlation:     1   830
 NBasis=   830 NAE=   193 NBE=   193 NFC=     0 NFV=     0
 NROrb=    830 NOA=   193 NOB=   193 NVA=   637 NVB=   637
   1 Symmetry operations used in ECPInt.
 ECPInt:  NShTT=   53301 NPrTT=  320676 LenC2=   39566 LenP2D=  122003.
 LDataN:  DoStor=T MaxTD1= 7 Len=  274
 Number of processors reduced to   8 by ecpmxn.
 Symmetrizing basis deriv contribution to polar:
 IMax=3 JMax=2 DiffMx= 0.00D+00
 G2DrvN: will do   112 centers at a time, making    1 passes.
 Calling FoFCou, ICntrl=  3107 FMM=T I1Cent=   0 AccDes= 0.00D+00.
 Defaulting to unpruned grid for atomic number  77.
 Defaulting to unpruned grid for atomic number  77.
 Defaulting to unpruned grid for atomic number  77.
 Defaulting to unpruned grid for atomic number  77.
 Defaulting to unpruned grid for atomic number  77.
 Defaulting to unpruned grid for atomic number  77.
 Defaulting to unpruned grid for atomic number  77.
 Defaulting to unpruned grid for atomic number  77.
 Defaulting to unpruned grid for atomic number  77.
 Defaulting to unpruned grid for atomic number  77.
 Defaulting to unpruned grid for atomic number  77.
 Defaulting to unpruned grid for atomic number  77.
 Defaulting to unpruned grid for atomic number  77.
 Defaulting to unpruned grid for atomic number  77.
 Defaulting to unpruned grid for atomic number  77.
 Defaulting to unpruned grid for atomic number  77.
 End of G2Drv F.D. properties file   721 does not exist.
 End of G2Drv F.D. properties file   722 does not exist.
 End of G2Drv F.D. properties file   788 does not exist.
          IDoAtm=11111111111111111111111111111111111111111111111111
          IDoAtm=11111111111111111111111111111111111111111111111111
          IDoAtm=11111111111
          Differentiating once with respect to electric field.
                with respect to dipole field.
          Differentiating once with respect to nuclear coordinates.
 Defaulting to unpruned grid for atomic number  77.
 CalDSu exits because no D1Ps are significant.
 Defaulting to unpruned grid for atomic number  77.
 Defaulting to unpruned grid for atomic number  77.
 Defaulting to unpruned grid for atomic number  77.
 Defaulting to unpruned grid for atomic number  77.
 Defaulting to unpruned grid for atomic number  77.
 Defaulting to unpruned grid for atomic number  77.
 Defaulting to unpruned grid for atomic number  77.
 Defaulting to unpruned grid for atomic number  77.
 Defaulting to unpruned grid for atomic number  77.
 Defaulting to unpruned grid for atomic number  77.
 Defaulting to unpruned grid for atomic number  77.
 Defaulting to unpruned grid for atomic number  77.
 Defaulting to unpruned grid for atomic number  77.
 Defaulting to unpruned grid for atomic number  77.
 Defaulting to unpruned grid for atomic number  77.
 Defaulting to unpruned grid for atomic number  77.
          There are   336 degrees of freedom in the 1st order CPHF.  IDoFFX=6 NUNeed=     3.
    333 vectors produced by pass  0 Test12= 1.23D-13 1.00D-09 XBig12= 4.73D+02 5.73D+00.
 AX will form    72 AO Fock derivatives at one time.
    333 vectors produced by pass  1 Test12= 1.23D-13 1.00D-09 XBig12= 8.61D+01 1.01D+00.
    333 vectors produced by pass  2 Test12= 1.23D-13 1.00D-09 XBig12= 1.00D+00 8.47D-02.
    333 vectors produced by pass  3 Test12= 1.23D-13 1.00D-09 XBig12= 5.11D-03 6.42D-03.
    333 vectors produced by pass  4 Test12= 1.23D-13 1.00D-09 XBig12= 1.44D-05 2.41D-04.
    287 vectors produced by pass  5 Test12= 1.23D-13 1.00D-09 XBig12= 2.51D-08 8.50D-06.
     69 vectors produced by pass  6 Test12= 1.23D-13 1.00D-09 XBig12= 3.53D-11 3.82D-07.
      3 vectors produced by pass  7 Test12= 1.23D-13 1.00D-09 XBig12= 4.66D-14 1.72D-08.
 InvSVY:  IOpt=1 It=  1 EMax= 2.84D-14
 Solved reduced A of dimension  2024 with   336 vectors.
 Isotropic polarizability for W=    0.000000      497.68 Bohr**3.
 End of Minotr F.D. properties file   721 does not exist.
 End of Minotr F.D. properties file   722 does not exist.
 End of Minotr F.D. properties file   788 does not exist.
 Hyperfine terms turned off by default for NAtoms > 100.

 **********************************************************************

            Population analysis using the SCF Density.

 **********************************************************************

 Orbital symmetries:
       Occupied  (A) (A) (A) (A) (A) (A) (A) (A) (A) (A) (A) (A)
                 (A) (A) (A) (A) (A) (A) (A) (A) (A) (A) (A) (A)
                 (A) (A) (A) (A) (A) (A) (A) (A) (A) (A) (A) (A)
                 (A) (A) (A) (A) (A) (A) (A) (A) (A) (A) (A) (A)
                 (A) (A) (A) (A) (A) (A) (A) (A) (A) (A) (A) (A)
                 (A) (A) (A) (A) (A) (A) (A) (A) (A) (A) (A) (A)
                 (A) (A) (A) (A) (A) (A) (A) (A) (A) (A) (A) (A)
                 (A) (A) (A) (A) (A) (A) (A) (A) (A) (A) (A) (A)
                 (A) (A) (A) (A) (A) (A) (A) (A) (A) (A) (A) (A)
                 (A) (A) (A) (A) (A) (A) (A) (A) (A) (A) (A) (A)
                 (A) (A) (A) (A) (A) (A) (A) (A) (A) (A) (A) (A)
                 (A) (A) (A) (A) (A) (A) (A) (A) (A) (A) (A) (A)
                 (A) (A) (A) (A) (A) (A) (A) (A) (A) (A) (A) (A)
                 (A) (A) (A) (A) (A) (A) (A) (A) (A) (A) (A) (A)
                 (A) (A) (A) (A) (A) (A) (A) (A) (A) (A) (A) (A)
                 (A) (A) (A) (A) (A) (A) (A) (A) (A) (A) (A) (A)
                 (A)
       Virtual   (A) (A) (A) (A) (A) (A) (A) (A) (A) (A) (A) (A)
                 (A) (A) (A) (A) (A) (A) (A) (A) (A) (A) (A) (A)
                 (A) (A) (A) (A) (A) (A) (A) (A) (A) (A) (A) (A)
                 (A) (A) (A) (A) (A) (A) (A) (A) (A) (A) (A) (A)
                 (A) (A) (A) (A) (A) (A) (A) (A) (A) (A) (A) (A)
                 (A) (A) (A) (A) (A) (A) (A) (A) (A) (A) (A) (A)
                 (A) (A) (A) (A) (A) (A) (A) (A) (A) (A) (A) (A)
                 (A) (A) (A) (A) (A) (A) (A) (A) (A) (A) (A) (A)
                 (A) (A) (A) (A) (A) (A) (A) (A) (A) (A) (A) (A)
                 (A) (A) (A) (A) (A) (A) (A) (A) (A) (A) (A) (A)
                 (A) (A) (A) (A) (A) (A) (A) (A) (A) (A) (A) (A)
                 (A) (A) (A) (A) (A) (A) (A) (A) (A) (A) (A) (A)
                 (A) (A) (A) (A) (A) (A) (A) (A) (A) (A) (A) (A)
                 (A) (A) (A) (A) (A) (A) (A) (A) (A) (A) (A) (A)
                 (A) (A) (A) (A) (A) (A) (A) (A) (A) (A) (A) (A)
                 (A) (A) (A) (A) (A) (A) (A) (A) (A) (A) (A) (A)
                 (A) (A) (A) (A) (A) (A) (A) (A) (A) (A) (A) (A)
                 (A) (A) (A) (A) (A) (A) (A) (A) (A) (A) (A) (A)
                 (A) (A) (A) (A) (A) (A) (A) (A) (A) (A) (A) (A)
                 (A) (A) (A) (A) (A) (A) (A) (A) (A) (A) (A) (A)
                 (A) (A) (A) (A) (A) (A) (A) (A) (A) (A) (A) (A)
                 (A) (A) (A) (A) (A) (A) (A) (A) (A) (A) (A) (A)
                 (A) (A) (A) (A) (A) (A) (A) (A) (A) (A) (A) (A)
                 (A) (A) (A) (A) (A) (A) (A) (A) (A) (A) (A) (A)
                 (A) (A) (A) (A) (A) (A) (A) (A) (A) (A) (A) (A)
                 (A) (A) (A) (A) (A) (A) (A) (A) (A) (A) (A) (A)
                 (A) (A) (A) (A) (A) (A) (A) (A) (A) (A) (A) (A)
                 (A) (A) (A) (A) (A) (A) (A) (A) (A) (A) (A) (A)
                 (A) (A) (A) (A) (A) (A) (A) (A) (A) (A) (A) (A)
                 (A) (A) (A) (A) (A) (A) (A) (A) (A) (A) (A) (A)
                 (A) (A) (A) (A) (A) (A) (A) (A) (A) (A) (A) (A)
                 (A) (A) (A) (A) (A) (A) (A) (A) (A) (A) (A) (A)
                 (A) (A) (A) (A) (A) (A) (A) (A) (A) (A) (A) (A)
                 (A) (A) (A) (A) (A) (A) (A) (A) (A) (A) (A) (A)
                 (A) (A) (A) (A) (A) (A) (A) (A) (A) (A) (A) (A)
                 (A) (A) (A) (A) (A) (A) (A) (A) (A) (A) (A) (A)
                 (A) (A) (A) (A) (A) (A) (A) (A) (A) (A) (A) (A)
                 (A) (A) (A) (A) (A) (A) (A) (A) (A) (A) (A) (A)
                 (A) (A) (A) (A) (A) (A) (A) (A) (A) (A) (A) (A)
                 (A) (A) (A) (A) (A) (A) (A) (A) (A) (A) (A) (A)
                 (A) (A) (A) (A) (A) (A) (A) (A) (A) (A) (A) (A)
                 (A) (A) (A) (A) (A) (A) (A) (A) (A) (A) (A) (A)
                 (A) (A) (A) (A) (A) (A) (A) (A) (A) (A) (A) (A)
                 (A) (A) (A) (A) (A) (A) (A) (A) (A) (A) (A) (A)
                 (A) (A) (A) (A) (A) (A) (A) (A) (A) (A) (A) (A)
                 (A) (A) (A) (A) (A) (A) (A) (A) (A) (A) (A) (A)
                 (A) (A) (A) (A) (A) (A) (A) (A) (A) (A) (A) (A)
                 (A) (A) (A) (A) (A) (A) (A) (A) (A) (A) (A) (A)
                 (A) (A) (A) (A) (A) (A) (A) (A) (A) (A) (A) (A)
                 (A) (A) (A) (A) (A) (A) (A) (A) (A) (A) (A) (A)
                 (A) (A) (A) (A) (A) (A) (A) (A) (A) (A) (A) (A)
                 (A) (A) (A) (A) (A) (A) (A) (A) (A) (A) (A) (A)
                 (A) (A) (A) (A) (A) (A) (A) (A) (A) (A) (A) (A)
                 (A)
 The electronic state is 1-A.
 Alpha  occ. eigenvalues --  -19.21121 -19.20832 -19.20670 -19.20426 -19.19840
 Alpha  occ. eigenvalues --  -19.19686 -19.15835 -14.44975 -14.44176 -14.39803
 Alpha  occ. eigenvalues --  -10.31716 -10.31581 -10.31271 -10.30248 -10.29985
 Alpha  occ. eigenvalues --  -10.29809 -10.29501 -10.29355 -10.29308 -10.29107
 Alpha  occ. eigenvalues --  -10.29050 -10.28482 -10.28039 -10.27739 -10.27510
 Alpha  occ. eigenvalues --  -10.27460 -10.26864 -10.24893 -10.23494 -10.23397
 Alpha  occ. eigenvalues --  -10.23329 -10.23287 -10.23142 -10.23076 -10.23018
 Alpha  occ. eigenvalues --  -10.22771 -10.22765 -10.22594 -10.22538 -10.22452
 Alpha  occ. eigenvalues --  -10.22452 -10.22364 -10.22209 -10.22178 -10.21927
 Alpha  occ. eigenvalues --  -10.21590  -6.81194  -6.80957  -6.80558  -3.64165
 Alpha  occ. eigenvalues --   -2.06635  -2.05815  -2.05298  -1.06858  -1.06227
 Alpha  occ. eigenvalues --   -1.05905  -1.01650  -0.99944  -0.99605  -0.99298
 Alpha  occ. eigenvalues --   -0.99188  -0.96984  -0.91201  -0.83822  -0.82897
 Alpha  occ. eigenvalues --   -0.82288  -0.81031  -0.80797  -0.80458  -0.80262
 Alpha  occ. eigenvalues --   -0.76866  -0.76267  -0.75427  -0.74763  -0.74673
 Alpha  occ. eigenvalues --   -0.70964  -0.70479  -0.70148  -0.69947  -0.68893
 Alpha  occ. eigenvalues --   -0.68450  -0.68061  -0.67507  -0.67436  -0.67217
 Alpha  occ. eigenvalues --   -0.64824  -0.63999  -0.63067  -0.62292  -0.61651
 Alpha  occ. eigenvalues --   -0.61108  -0.59692  -0.57476  -0.57212  -0.55442
 Alpha  occ. eigenvalues --   -0.54839  -0.54679  -0.54391  -0.53720  -0.53157
 Alpha  occ. eigenvalues --   -0.52916  -0.52739  -0.50863  -0.50376  -0.49210
 Alpha  occ. eigenvalues --   -0.48451  -0.48361  -0.48067  -0.47673  -0.47071
 Alpha  occ. eigenvalues --   -0.46624  -0.46531  -0.46475  -0.46230  -0.45986
 Alpha  occ. eigenvalues --   -0.45647  -0.45464  -0.45210  -0.45005  -0.44432
 Alpha  occ. eigenvalues --   -0.44224  -0.43938  -0.43824  -0.43627  -0.43184
 Alpha  occ. eigenvalues --   -0.42913  -0.42566  -0.42362  -0.41970  -0.41522
 Alpha  occ. eigenvalues --   -0.40589  -0.40518  -0.40370  -0.40191  -0.40114
 Alpha  occ. eigenvalues --   -0.40059  -0.39945  -0.39811  -0.39590  -0.39477
 Alpha  occ. eigenvalues --   -0.39406  -0.39253  -0.39103  -0.38630  -0.38511
 Alpha  occ. eigenvalues --   -0.38072  -0.38003  -0.37715  -0.37568  -0.37447
 Alpha  occ. eigenvalues --   -0.37124  -0.36995  -0.36769  -0.36416  -0.36375
 Alpha  occ. eigenvalues --   -0.36279  -0.36091  -0.35766  -0.35745  -0.35473
 Alpha  occ. eigenvalues --   -0.35105  -0.34816  -0.34614  -0.34314  -0.34173
 Alpha  occ. eigenvalues --   -0.33450  -0.33079  -0.32878  -0.32819  -0.32399
 Alpha  occ. eigenvalues --   -0.32292  -0.32055  -0.31855  -0.31760  -0.31701
 Alpha  occ. eigenvalues --   -0.31339  -0.30865  -0.30834  -0.30459  -0.30186
 Alpha  occ. eigenvalues --   -0.29677  -0.27847  -0.27598  -0.27068  -0.26563
 Alpha  occ. eigenvalues --   -0.26192  -0.25859  -0.25814  -0.25649  -0.23310
 Alpha  occ. eigenvalues --   -0.22859  -0.21725  -0.18111
 Alpha virt. eigenvalues --   -0.06423  -0.03281  -0.02276   0.02309   0.03070
 Alpha virt. eigenvalues --    0.04228   0.05387   0.06191   0.06780   0.07070
 Alpha virt. eigenvalues --    0.07430   0.08599   0.09606   0.09836   0.10525
 Alpha virt. eigenvalues --    0.10847   0.11026   0.11482   0.11701   0.12061
 Alpha virt. eigenvalues --    0.12178   0.12434   0.12625   0.12819   0.13373
 Alpha virt. eigenvalues --    0.13552   0.13804   0.14080   0.14293   0.14697
 Alpha virt. eigenvalues --    0.14799   0.14898   0.15140   0.15319   0.15449
 Alpha virt. eigenvalues --    0.15626   0.15858   0.16123   0.16352   0.16623
 Alpha virt. eigenvalues --    0.16717   0.16902   0.17081   0.17221   0.17297
 Alpha virt. eigenvalues --    0.17437   0.17626   0.17789   0.18183   0.18224
 Alpha virt. eigenvalues --    0.18306   0.18631   0.18806   0.19003   0.19309
 Alpha virt. eigenvalues --    0.19350   0.19439   0.19749   0.19920   0.20096
 Alpha virt. eigenvalues --    0.20389   0.20559   0.20617   0.20677   0.20934
 Alpha virt. eigenvalues --    0.21215   0.21446   0.21772   0.21859   0.22095
 Alpha virt. eigenvalues --    0.22181   0.22609   0.22814   0.23011   0.23284
 Alpha virt. eigenvalues --    0.23546   0.23562   0.23901   0.23938   0.24157
 Alpha virt. eigenvalues --    0.24566   0.24684   0.24753   0.25251   0.25506
 Alpha virt. eigenvalues --    0.25914   0.26082   0.26458   0.26614   0.26658
 Alpha virt. eigenvalues --    0.27090   0.27419   0.27568   0.27574   0.27854
 Alpha virt. eigenvalues --    0.28621   0.28694   0.28729   0.29170   0.29926
 Alpha virt. eigenvalues --    0.29981   0.30381   0.30615   0.30933   0.31619
 Alpha virt. eigenvalues --    0.32300   0.32931   0.33103   0.33372   0.34064
 Alpha virt. eigenvalues --    0.34739   0.35682   0.35717   0.36778   0.37342
 Alpha virt. eigenvalues --    0.37902   0.38007   0.38999   0.39461   0.40888
 Alpha virt. eigenvalues --    0.41975   0.42921   0.43359   0.44208   0.45981
 Alpha virt. eigenvalues --    0.46974   0.47605   0.48495   0.48934   0.49756
 Alpha virt. eigenvalues --    0.50142   0.50422   0.50710   0.51068   0.51243
 Alpha virt. eigenvalues --    0.51520   0.51793   0.52425   0.52776   0.53250
 Alpha virt. eigenvalues --    0.53765   0.54420   0.54630   0.54858   0.55219
 Alpha virt. eigenvalues --    0.55620   0.56103   0.56197   0.56354   0.56844
 Alpha virt. eigenvalues --    0.56966   0.57351   0.57534   0.57698   0.58044
 Alpha virt. eigenvalues --    0.58346   0.58662   0.58813   0.59050   0.59282
 Alpha virt. eigenvalues --    0.59403   0.59515   0.59727   0.60275   0.60383
 Alpha virt. eigenvalues --    0.60522   0.60941   0.61428   0.61662   0.61884
 Alpha virt. eigenvalues --    0.62278   0.62446   0.62959   0.63282   0.63577
 Alpha virt. eigenvalues --    0.63721   0.64008   0.64451   0.64959   0.65237
 Alpha virt. eigenvalues --    0.65672   0.66119   0.66339   0.66820   0.67030
 Alpha virt. eigenvalues --    0.67470   0.67722   0.67934   0.68176   0.68359
 Alpha virt. eigenvalues --    0.68850   0.69149   0.69464   0.69797   0.70219
 Alpha virt. eigenvalues --    0.70665   0.71153   0.71355   0.71623   0.71946
 Alpha virt. eigenvalues --    0.72396   0.72495   0.72813   0.72943   0.73202
 Alpha virt. eigenvalues --    0.73858   0.74237   0.74607   0.75190   0.75216
 Alpha virt. eigenvalues --    0.75863   0.76014   0.76791   0.76862   0.77890
 Alpha virt. eigenvalues --    0.78032   0.78371   0.78633   0.79101   0.79343
 Alpha virt. eigenvalues --    0.79499   0.80100   0.80460   0.80953   0.81065
 Alpha virt. eigenvalues --    0.81373   0.81731   0.81894   0.82309   0.82525
 Alpha virt. eigenvalues --    0.83077   0.83117   0.83697   0.83839   0.83964
 Alpha virt. eigenvalues --    0.84244   0.84518   0.84824   0.84935   0.85156
 Alpha virt. eigenvalues --    0.85637   0.85891   0.86145   0.86435   0.86584
 Alpha virt. eigenvalues --    0.86886   0.87153   0.87259   0.87562   0.87730
 Alpha virt. eigenvalues --    0.88110   0.88231   0.88615   0.88715   0.88778
 Alpha virt. eigenvalues --    0.89101   0.89239   0.89371   0.89681   0.90051
 Alpha virt. eigenvalues --    0.90227   0.90673   0.90871   0.90988   0.91156
 Alpha virt. eigenvalues --    0.91426   0.91863   0.92176   0.92250   0.92341
 Alpha virt. eigenvalues --    0.92656   0.92780   0.93033   0.93376   0.93735
 Alpha virt. eigenvalues --    0.94250   0.94365   0.94716   0.94780   0.95176
 Alpha virt. eigenvalues --    0.95334   0.95745   0.96075   0.96247   0.96857
 Alpha virt. eigenvalues --    0.97017   0.97217   0.97527   0.97692   0.98080
 Alpha virt. eigenvalues --    0.98780   0.99069   0.99591   1.00091   1.00642
 Alpha virt. eigenvalues --    1.00791   1.01425   1.01571   1.02225   1.02286
 Alpha virt. eigenvalues --    1.03385   1.03779   1.04288   1.04985   1.05418
 Alpha virt. eigenvalues --    1.06165   1.06513   1.06824   1.07518   1.08271
 Alpha virt. eigenvalues --    1.09469   1.09628   1.09938   1.10381   1.10723
 Alpha virt. eigenvalues --    1.11061   1.12249   1.12582   1.12974   1.14284
 Alpha virt. eigenvalues --    1.14793   1.15233   1.15980   1.16395   1.16838
 Alpha virt. eigenvalues --    1.17233   1.18198   1.18969   1.19156   1.19740
 Alpha virt. eigenvalues --    1.20767   1.21138   1.21749   1.22066   1.22549
 Alpha virt. eigenvalues --    1.23296   1.23570   1.24036   1.24502   1.26203
 Alpha virt. eigenvalues --    1.26700   1.27097   1.27591   1.27982   1.28471
 Alpha virt. eigenvalues --    1.29221   1.29541   1.31051   1.31934   1.32821
 Alpha virt. eigenvalues --    1.33071   1.33744   1.34325   1.34840   1.35704
 Alpha virt. eigenvalues --    1.36379   1.36555   1.37710   1.38301   1.38520
 Alpha virt. eigenvalues --    1.39552   1.39841   1.40356   1.40670   1.42008
 Alpha virt. eigenvalues --    1.42749   1.43389   1.43887   1.44122   1.44661
 Alpha virt. eigenvalues --    1.44783   1.45141   1.46022   1.46263   1.46340
 Alpha virt. eigenvalues --    1.46603   1.46760   1.47711   1.47804   1.48578
 Alpha virt. eigenvalues --    1.49212   1.49839   1.51154   1.52155   1.52416
 Alpha virt. eigenvalues --    1.53711   1.55566   1.55715   1.56024   1.56774
 Alpha virt. eigenvalues --    1.57819   1.58757   1.59689   1.60639   1.61010
 Alpha virt. eigenvalues --    1.61355   1.62279   1.63177   1.64154   1.64259
 Alpha virt. eigenvalues --    1.65414   1.66242   1.66779   1.67504   1.67790
 Alpha virt. eigenvalues --    1.68539   1.69220   1.70184   1.70507   1.70990
 Alpha virt. eigenvalues --    1.71340   1.72279   1.72962   1.74032   1.74474
 Alpha virt. eigenvalues --    1.74772   1.76279   1.77116   1.77414   1.77813
 Alpha virt. eigenvalues --    1.78271   1.78996   1.79185   1.79494   1.79780
 Alpha virt. eigenvalues --    1.80362   1.80998   1.81249   1.82050   1.82399
 Alpha virt. eigenvalues --    1.82825   1.83319   1.83976   1.84623   1.84920
 Alpha virt. eigenvalues --    1.85241   1.85756   1.85966   1.86405   1.87603
 Alpha virt. eigenvalues --    1.87845   1.87991   1.88354   1.89233   1.89606
 Alpha virt. eigenvalues --    1.89925   1.90373   1.90524   1.90870   1.91016
 Alpha virt. eigenvalues --    1.91374   1.91505   1.92009   1.92382   1.92792
 Alpha virt. eigenvalues --    1.93171   1.93362   1.93699   1.93743   1.93886
 Alpha virt. eigenvalues --    1.94064   1.94752   1.94848   1.95389   1.95716
 Alpha virt. eigenvalues --    1.96337   1.97009   1.97210   1.97606   1.97921
 Alpha virt. eigenvalues --    1.98615   1.99198   1.99993   2.01126   2.01304
 Alpha virt. eigenvalues --    2.02059   2.02755   2.02965   2.03551   2.03972
 Alpha virt. eigenvalues --    2.04849   2.05259   2.05909   2.06417   2.06650
 Alpha virt. eigenvalues --    2.06936   2.07357   2.07795   2.08135   2.08811
 Alpha virt. eigenvalues --    2.09197   2.09578   2.09986   2.10410   2.10909
 Alpha virt. eigenvalues --    2.11386   2.12369   2.12904   2.13354   2.13630
 Alpha virt. eigenvalues --    2.13753   2.14090   2.14965   2.15246   2.15481
 Alpha virt. eigenvalues --    2.15770   2.16188   2.17014   2.17238   2.17664
 Alpha virt. eigenvalues --    2.17891   2.18623   2.18814   2.19192   2.19328
 Alpha virt. eigenvalues --    2.19425   2.19833   2.20080   2.20233   2.20979
 Alpha virt. eigenvalues --    2.21343   2.21654   2.22331   2.22647   2.22977
 Alpha virt. eigenvalues --    2.23340   2.23938   2.24290   2.24350   2.24660
 Alpha virt. eigenvalues --    2.25305   2.25454   2.25687   2.26136   2.26886
 Alpha virt. eigenvalues --    2.27231   2.27683   2.27765   2.28484   2.28786
 Alpha virt. eigenvalues --    2.29075   2.29983   2.31317   2.32441   2.32856
 Alpha virt. eigenvalues --    2.32920   2.33391   2.33587   2.33894   2.34439
 Alpha virt. eigenvalues --    2.34606   2.35672   2.35893   2.36567   2.37937
 Alpha virt. eigenvalues --    2.38537   2.38678   2.39532   2.39661   2.40407
 Alpha virt. eigenvalues --    2.40873   2.41745   2.42802   2.45736   2.45938
 Alpha virt. eigenvalues --    2.47472   2.47777   2.48304   2.48570   2.48787
 Alpha virt. eigenvalues --    2.49969   2.50278   2.51716   2.53229   2.54248
 Alpha virt. eigenvalues --    2.54622   2.56029   2.56471   2.57591   2.59424
 Alpha virt. eigenvalues --    2.61050   2.61714   2.62036   2.62502   2.63000
 Alpha virt. eigenvalues --    2.63904   2.64083   2.64806   2.65446   2.65716
 Alpha virt. eigenvalues --    2.66425   2.68346   2.68760   2.69416   2.70291
 Alpha virt. eigenvalues --    2.70490   2.72714   2.76471   2.76773   2.77151
 Alpha virt. eigenvalues --    2.77218   2.77399   2.78031   2.78268   2.78691
 Alpha virt. eigenvalues --    2.79441   2.80382   2.81281   2.81448   2.82084
 Alpha virt. eigenvalues --    2.82700   2.83738   2.84588   2.85689   2.87911
 Alpha virt. eigenvalues --    2.89599   2.91033   2.92966   2.94562   2.94894
 Alpha virt. eigenvalues --    2.95509   2.96846   2.97755   2.98990   3.01389
 Alpha virt. eigenvalues --    3.04202   3.04754   3.07538   3.09299   3.12257
 Alpha virt. eigenvalues --    3.13438   3.14796   3.23207   3.25985   3.31129
 Alpha virt. eigenvalues --    3.45182  12.48155
          Condensed to atoms (all electrons):
 Mulliken charges:
               1
     1  C    0.336866
     2  C    0.034325
     3  C   -0.154573
     4  C   -0.136084
     5  C   -0.153679
     6  C    0.315854
     7  C    0.091343
     8  C   -0.181720
     9  C   -0.135520
    10  C   -0.181161
    11  H    0.218657
    12  H    0.182318
    13  H    0.171705
    14  H    0.214582
    15  H    0.178654
    16  H    0.168817
    17  N   -0.513665
    18  N   -0.508125
    19  O   -0.492638
    20  O   -0.496620
    21  O   -0.526968
    22  B    0.432740
    23  B    0.495625
    24  B    0.468427
    25  O   -0.495375
    26  O   -0.498917
    27  C    0.290873
    28  C    0.289461
    29  C    0.291810
    30  C    0.284549
    31  C    0.297821
    32  C    0.278828
    33  O   -0.525856
    34  C   -0.499013
    35  H    0.177683
    36  H    0.163943
    37  H    0.147790
    38  C   -0.505262
    39  H    0.174282
    40  H    0.151672
    41  H    0.155673
    42  C   -0.510024
    43  H    0.169862
    44  H    0.172721
    45  H    0.151537
    46  C   -0.497339
    47  H    0.151138
    48  H    0.174972
    49  H    0.150383
    50  C   -0.506264
    51  H    0.151544
    52  H    0.145849
    53  H    0.179908
    54  C   -0.497842
    55  H    0.172233
    56  H    0.143953
    57  H    0.164303
    58  C   -0.501601
    59  H    0.157708
    60  H    0.150705
    61  H    0.173175
    62  C   -0.506645
    63  H    0.169336
    64  H    0.170731
    65  H    0.149361
    66  C   -0.506904
    67  H    0.163097
    68  H    0.148696
    69  H    0.172804
    70  C   -0.503028
    71  H    0.176423
    72  H    0.175803
    73  H    0.141637
    74  C   -0.504290
    75  H    0.154220
    76  H    0.166292
    77  H    0.162229
    78  C   -0.509306
    79  H    0.151979
    80  H    0.176635
    81  H    0.171787
    82  H    0.176278
    83  C    0.581954
    84  O   -0.539887
    85  C   -0.406082
    86  H    0.168226
    87  H    0.148439
    88  C   -0.345486
    89  H    0.134502
    90  H    0.182135
    91  N   -0.362258
    92  C   -0.354692
    93  H    0.156875
    94  H    0.200927
    95  H    0.173654
    96  C   -0.258949
    97  H    0.133053
    98  H    0.165329
    99  C   -0.276829
   100  H    0.138384
   101  H    0.130667
   102  C   -0.280923
   103  H    0.140817
   104  H    0.150630
   105  C   -0.497526
   106  H    0.156590
   107  H    0.162727
   108  H    0.159878
   109  H    0.177744
   110  H    0.180076
   111  Ir  -0.123145
 Sum of Mulliken charges =  -0.00000
 Mulliken charges with hydrogens summed into heavy atoms:
               1
     1  C    0.336866
     2  C    0.252981
     3  C    0.025503
     4  C    0.046235
     5  C    0.018026
     6  C    0.315854
     7  C    0.305925
     8  C   -0.003976
     9  C    0.043133
    10  C   -0.012344
    17  N   -0.513665
    18  N   -0.508125
    19  O   -0.492638
    20  O   -0.496620
    21  O   -0.526968
    22  B    0.432740
    23  B    0.495625
    24  B    0.468427
    25  O   -0.495375
    26  O   -0.498917
    27  C    0.290873
    28  C    0.289461
    29  C    0.291810
    30  C    0.284549
    31  C    0.297821
    32  C    0.278828
    33  O   -0.525856
    34  C   -0.009598
    38  C   -0.023635
    42  C   -0.015905
    46  C   -0.020847
    50  C   -0.028964
    54  C   -0.017354
    58  C   -0.020014
    62  C   -0.017216
    66  C   -0.022307
    70  C   -0.009165
    74  C   -0.021549
    78  C   -0.008905
    83  C    0.581954
    84  O   -0.539887
    85  C   -0.089417
    88  C   -0.028848
    91  N   -0.362258
    92  C    0.176764
    96  C    0.039433
    99  C   -0.007778
   102  C    0.010524
   105  C   -0.018331
   111  Ir   0.053132
 APT charges:
               1
     1  C    0.209494
     2  C    0.050429
     3  C   -0.080162
     4  C    0.119451
     5  C   -0.148108
     6  C    0.172804
     7  C    0.064369
     8  C   -0.044092
     9  C    0.102926
    10  C   -0.168042
    11  H    0.079530
    12  H    0.036503
    13  H    0.040994
    14  H    0.091286
    15  H    0.025975
    16  H    0.041439
    17  N   -0.180477
    18  N   -0.076797
    19  O   -0.902611
    20  O   -0.951014
    21  O   -1.011902
    22  B    1.348905
    23  B    1.153480
    24  B    1.350414
    25  O   -0.970007
    26  O   -0.903797
    27  C    0.447620
    28  C    0.471892
    29  C    0.498931
    30  C    0.500593
    31  C    0.512950
    32  C    0.492632
    33  O   -1.016754
    34  C   -0.023103
    35  H    0.004531
    36  H    0.013841
    37  H   -0.025208
    38  C   -0.006923
    39  H    0.002830
    40  H   -0.013490
    41  H   -0.002033
    42  C   -0.002851
    43  H    0.004045
    44  H    0.003950
    45  H   -0.018786
    46  C   -0.025988
    47  H   -0.018452
    48  H    0.005873
    49  H   -0.008090
    50  C   -0.049820
    51  H   -0.005719
    52  H   -0.025580
    53  H    0.034972
    54  C   -0.006991
    55  H    0.002857
    56  H   -0.020983
    57  H   -0.002428
    58  C    0.003297
    59  H   -0.013916
    60  H   -0.023349
    61  H    0.003242
    62  C   -0.047550
    63  H    0.019199
    64  H    0.005840
    65  H   -0.026619
    66  C   -0.005792
    67  H   -0.000665
    68  H   -0.018741
    69  H    0.002467
    70  C   -0.037422
    71  H    0.026841
    72  H    0.004131
    73  H   -0.027569
    74  C    0.000117
    75  H   -0.021100
    76  H    0.000951
    77  H   -0.006506
    78  C   -0.040997
    79  H   -0.025022
    80  H    0.012015
    81  H    0.003865
    82  H    0.010511
    83  C    0.913183
    84  O   -0.726822
    85  C   -0.009907
    86  H   -0.026951
    87  H   -0.024202
    88  C    0.340466
    89  H   -0.095757
    90  H   -0.025652
    91  N   -0.800496
    92  C    0.262780
    93  H   -0.031791
    94  H    0.041918
    95  H   -0.025122
    96  C    0.103538
    97  H   -0.029430
    98  H   -0.017808
    99  C    0.108310
   100  H   -0.054523
   101  H   -0.051345
   102  C    0.116558
   103  H   -0.052206
   104  H   -0.047094
   105  C    0.062184
   106  H   -0.020574
   107  H   -0.042238
   108  H   -0.020065
   109  H    0.035801
   110  H    0.040451
   111  Ir  -0.895746
 Sum of APT charges =   0.00000
 APT charges with hydrogens summed into heavy atoms:
               1
     1  C    0.209494
     2  C    0.129959
     3  C   -0.039712
     4  C    0.155954
     5  C   -0.107113
     6  C    0.172804
     7  C    0.155655
     8  C   -0.008291
     9  C    0.128901
    10  C   -0.126603
    17  N   -0.180477
    18  N   -0.076797
    19  O   -0.902611
    20  O   -0.951014
    21  O   -1.011902
    22  B    1.348905
    23  B    1.153480
    24  B    1.350414
    25  O   -0.970007
    26  O   -0.903797
    27  C    0.447620
    28  C    0.471892
    29  C    0.498931
    30  C    0.500593
    31  C    0.512950
    32  C    0.492632
    33  O   -1.016754
    34  C   -0.029938
    38  C   -0.019615
    42  C   -0.013642
    46  C   -0.046656
    50  C   -0.046147
    54  C   -0.027546
    58  C   -0.030726
    62  C   -0.049129
    66  C   -0.022731
    70  C   -0.034019
    74  C   -0.026538
    78  C   -0.050139
    83  C    0.913183
    84  O   -0.726822
    85  C   -0.061060
    88  C    0.219057
    91  N   -0.800496
    92  C    0.247786
    96  C    0.056301
    99  C    0.002441
   102  C    0.017258
   105  C   -0.020694
   111  Ir  -0.885234
 Electronic spatial extent (au):  <R**2>=          30813.1799
 Charge=             -0.0000 electrons
 Dipole moment (field-independent basis, Debye):
    X=              0.2951    Y=              3.1667    Z=              2.3151  Tot=              3.9338
 Quadrupole moment (field-independent basis, Debye-Ang):
   XX=           -301.8473   YY=           -298.6372   ZZ=           -298.4965
   XY=             16.4231   XZ=             -5.4783   YZ=              4.4702
 Traceless Quadrupole moment (field-independent basis, Debye-Ang):
   XX=             -2.1870   YY=              1.0232   ZZ=              1.1638
   XY=             16.4231   XZ=             -5.4783   YZ=              4.4702
 Octapole moment (field-independent basis, Debye-Ang**2):
  XXX=            -92.0982  YYY=            -26.7610  ZZZ=            125.3394  XYY=            -18.6550
  XXY=             28.9379  XXZ=            -13.2319  XZZ=            -15.3772  YZZ=             18.6680
  YYZ=            -35.8957  XYZ=             36.2971
 Hexadecapole moment (field-independent basis, Debye-Ang**3):
 XXXX=         -23445.2546 YYYY=         -11407.3639 ZZZZ=          -5631.2030 XXXY=            144.5179
 XXXZ=             77.9436 YYYX=            123.8835 YYYZ=            -32.1721 ZZZX=              2.3944
 ZZZY=             58.6160 XXYY=          -5709.6166 XXZZ=          -5000.8105 YYZZ=          -2987.4162
 XXYZ=             95.6978 YYXZ=             47.9169 ZZXY=            114.8256
 N-N= 8.100081331449D+03 E-N=-2.147747301326D+04  KE= 2.191838691255D+03
  Exact polarizability:     567.351      39.551     454.332      -4.727       5.872     471.367
 Approx polarizability:     752.361      74.292     635.310     -11.630      14.914     762.450
   1 Symmetry operations used in ECPInt.
 ECPInt:  NShTT=   53301 NPrTT=  320676 LenC2=   39566 LenP2D=  122003.
 LDataN:  DoStor=T MaxTD1= 8 Len=  415
 Calling FoFJK, ICntrl=    100127 FMM=F ISym2X=0 I1Cent= 0 IOpClX= 0 NMat=1 NMatS=1 NMatT=0.
 Defaulting to unpruned grid for atomic number  77.
 Defaulting to unpruned grid for atomic number  77.
 Defaulting to unpruned grid for atomic number  77.
 Defaulting to unpruned grid for atomic number  77.
 Defaulting to unpruned grid for atomic number  77.
 Defaulting to unpruned grid for atomic number  77.
 Defaulting to unpruned grid for atomic number  77.
 Defaulting to unpruned grid for atomic number  77.
 Defaulting to unpruned grid for atomic number  77.
 Defaulting to unpruned grid for atomic number  77.
 Defaulting to unpruned grid for atomic number  77.
 Defaulting to unpruned grid for atomic number  77.
 Defaulting to unpruned grid for atomic number  77.
 Defaulting to unpruned grid for atomic number  77.
 Defaulting to unpruned grid for atomic number  77.
 Defaulting to unpruned grid for atomic number  77.
 Full mass-weighted force constant matrix:
 Low frequencies ---  -11.3524   -3.3891   -0.0003    0.0008    0.0011    4.0587
 Low frequencies ---   15.1075   16.6086   20.8645
 Diagonal vibrational polarizability:
      116.3622331     105.1588738      36.4055439
 Harmonic frequencies (cm**-1), IR intensities (KM/Mole), Raman scattering
 activities (A**4/AMU), depolarization ratios for plane and unpolarized
 incident light, reduced masses (AMU), force constants (mDyne/A),
 and normal coordinates:
                      1                      2                      3
                      A                      A                      A
 Frequencies --     14.0460                16.4904                20.6308
 Red. masses --      4.2152                 4.2583                 4.5147
 Frc consts  --      0.0005                 0.0007                 0.0011
 IR Inten    --      0.0046                 0.1656                 0.3702
  Atom AN      X      Y      Z        X      Y      Z        X      Y      Z
     1   6     0.01  -0.05   0.03     0.01  -0.02  -0.00     0.03  -0.04  -0.05
     2   6     0.01  -0.02   0.03    -0.00  -0.00  -0.01    -0.01   0.00  -0.07
     3   6     0.01  -0.03   0.04    -0.00  -0.00  -0.01     0.00  -0.02  -0.08
     4   6     0.02  -0.06   0.05     0.00  -0.00  -0.01     0.03  -0.05  -0.08
     5   6     0.01  -0.07   0.04     0.01  -0.01  -0.01     0.05  -0.06  -0.06
     6   6     0.00  -0.06   0.02     0.02  -0.03   0.00     0.05  -0.05  -0.04
     7   6    -0.02  -0.02   0.00     0.03  -0.04   0.00     0.03  -0.02  -0.02
     8   6    -0.02  -0.04   0.00     0.04  -0.07   0.00     0.07  -0.05  -0.02
     9   6    -0.01  -0.07   0.02     0.05  -0.08   0.01     0.10  -0.08  -0.03
    10   6     0.00  -0.08   0.03     0.04  -0.06   0.00     0.09  -0.08  -0.04
    11   1     0.00   0.00   0.03    -0.01   0.00  -0.01    -0.04   0.03  -0.07
    12   1     0.02  -0.08   0.06     0.00  -0.00  -0.01     0.04  -0.06  -0.09
    13   1     0.02  -0.10   0.05     0.01  -0.01  -0.01     0.07  -0.08  -0.06
    14   1    -0.03   0.00  -0.01     0.02  -0.03   0.00     0.01   0.01  -0.02
    15   1    -0.01  -0.09   0.02     0.07  -0.10   0.01     0.12  -0.11  -0.03
    16   1     0.01  -0.10   0.04     0.05  -0.07   0.00     0.11  -0.11  -0.05
    17   7     0.00  -0.03   0.03     0.00  -0.01  -0.00     0.00  -0.01  -0.05
    18   7    -0.01  -0.03   0.01     0.02  -0.02   0.00     0.03  -0.02  -0.03
    19   8     0.05  -0.02   0.01    -0.01  -0.05  -0.05    -0.02   0.04   0.01
    20   8    -0.00   0.02  -0.02     0.03   0.02   0.04    -0.00  -0.01  -0.01
    21   8    -0.04   0.02   0.02    -0.00  -0.00  -0.02    -0.02   0.03   0.03
    22   5     0.01   0.01  -0.01     0.00   0.02   0.03    -0.01  -0.01  -0.02
    23   5     0.02  -0.01  -0.00     0.01  -0.01  -0.03    -0.02   0.01   0.00
    24   5    -0.02  -0.00   0.02    -0.01   0.01  -0.02    -0.02   0.00   0.01
    25   8    -0.02  -0.02   0.03    -0.03   0.03  -0.03    -0.03  -0.03   0.03
    26   8     0.02  -0.00  -0.02     0.03   0.01  -0.04    -0.03  -0.00   0.02
    27   6     0.04  -0.01  -0.02     0.02  -0.01  -0.09    -0.03   0.01   0.05
    28   6     0.06  -0.03  -0.01    -0.02  -0.05  -0.08    -0.02   0.05   0.04
    29   6    -0.05   0.02   0.03    -0.02   0.01  -0.04    -0.02   0.01   0.07
    30   6    -0.02  -0.01   0.04    -0.04   0.04  -0.04    -0.02  -0.04   0.06
    31   6     0.00   0.04  -0.03     0.02   0.01   0.08    -0.00   0.02  -0.01
    32   6     0.02   0.03  -0.04    -0.01   0.03   0.08    -0.01  -0.00  -0.01
    33   8     0.02   0.01  -0.02    -0.02   0.03   0.05    -0.01  -0.01  -0.01
    34   6     0.08  -0.03  -0.03    -0.06  -0.09  -0.05    -0.00   0.07   0.03
    35   1     0.10  -0.04  -0.02    -0.08  -0.11  -0.04     0.01   0.09   0.02
    36   1     0.07  -0.02  -0.04    -0.04  -0.08  -0.00    -0.01   0.06   0.01
    37   1     0.10  -0.03  -0.04    -0.07  -0.10  -0.07    -0.00   0.07   0.05
    38   6     0.08  -0.04   0.01    -0.04  -0.07  -0.14    -0.01   0.06   0.07
    39   1     0.10  -0.05   0.02    -0.07  -0.10  -0.13     0.00   0.08   0.06
    40   1     0.09  -0.04   0.00    -0.05  -0.07  -0.17    -0.01   0.06   0.09
    41   1     0.07  -0.04   0.04    -0.02  -0.05  -0.16    -0.02   0.05   0.07
    42   6     0.04  -0.00  -0.05     0.03  -0.00  -0.09    -0.04   0.01   0.06
    43   1     0.05   0.00  -0.07     0.02  -0.01  -0.06    -0.03   0.01   0.05
    44   1     0.02   0.00  -0.05     0.06   0.02  -0.09    -0.05  -0.02   0.07
    45   1     0.06  -0.01  -0.04     0.03  -0.02  -0.12    -0.04   0.02   0.08
    46   6     0.02  -0.01   0.01     0.04   0.00  -0.13    -0.04  -0.00   0.07
    47   1     0.04  -0.02   0.01     0.04  -0.01  -0.17    -0.04   0.01   0.09
    48   1     0.00  -0.00  -0.00     0.07   0.03  -0.13    -0.05  -0.03   0.07
    49   1     0.02  -0.02   0.03     0.04  -0.01  -0.13    -0.04   0.00   0.06
    50   6    -0.02   0.06  -0.03     0.04   0.00   0.07    -0.02   0.04   0.01
    51   1    -0.04   0.07  -0.02     0.07  -0.01   0.07    -0.02   0.06   0.01
    52   1    -0.02   0.08  -0.04     0.04  -0.00   0.10    -0.02   0.06   0.02
    53   1    -0.03   0.05  -0.01     0.04   0.01   0.05    -0.04   0.03   0.03
    54   6     0.02   0.06  -0.05     0.03  -0.00   0.10     0.03   0.04  -0.03
    55   1     0.04   0.04  -0.06     0.01   0.01   0.10     0.05   0.02  -0.05
    56   1     0.02   0.08  -0.07     0.02  -0.01   0.13     0.03   0.07  -0.03
    57   1     0.00   0.07  -0.05     0.06  -0.01   0.10     0.03   0.06  -0.03
    58   6     0.02   0.03  -0.04    -0.02   0.04   0.09    -0.01  -0.01   0.00
    59   1     0.01   0.03  -0.03    -0.01   0.03   0.08    -0.01  -0.01   0.02
    60   1     0.02   0.04  -0.05    -0.01   0.03   0.12    -0.01  -0.01   0.00
    61   1     0.03   0.02  -0.04    -0.05   0.05   0.09    -0.02  -0.03   0.00
    62   6     0.04   0.02  -0.05    -0.02   0.04   0.10    -0.02  -0.01  -0.03
    63   1     0.04   0.02  -0.05    -0.01   0.03   0.08    -0.02  -0.00  -0.05
    64   1     0.05   0.01  -0.05    -0.05   0.05   0.09    -0.02  -0.03  -0.03
    65   1     0.04   0.03  -0.06    -0.01   0.04   0.13    -0.01  -0.01  -0.04
    66   6    -0.02  -0.03   0.07    -0.06   0.05  -0.08    -0.01  -0.05   0.11
    67   1    -0.03  -0.02   0.09    -0.05   0.03  -0.10    -0.01  -0.02   0.12
    68   1    -0.03  -0.03   0.08    -0.06   0.05  -0.09    -0.00  -0.06   0.14
    69   1    -0.01  -0.05   0.07    -0.07   0.07  -0.08    -0.02  -0.09   0.10
    70   6    -0.01  -0.02   0.01    -0.04   0.07  -0.01    -0.03  -0.07   0.04
    71   1    -0.01  -0.01  -0.01    -0.03   0.06   0.01    -0.04  -0.06   0.01
    72   1     0.01  -0.04   0.01    -0.05   0.09  -0.01    -0.03  -0.10   0.04
    73   1    -0.01  -0.02   0.01    -0.05   0.08  -0.02    -0.02  -0.08   0.07
    74   6    -0.05   0.04   0.02    -0.01   0.01  -0.03    -0.02   0.02   0.08
    75   1    -0.06   0.03   0.03    -0.03   0.02  -0.04    -0.02   0.01   0.11
    76   1    -0.07   0.06   0.02     0.00  -0.01  -0.03    -0.02   0.06   0.08
    77   1    -0.04   0.04  -0.00    -0.01   0.02  -0.00    -0.02   0.01   0.05
    78   6    -0.07   0.02   0.07    -0.01  -0.01  -0.08    -0.03   0.04   0.10
    79   1    -0.07   0.02   0.08    -0.02  -0.00  -0.09    -0.02   0.03   0.13
    80   1    -0.06   0.01   0.08    -0.01  -0.01  -0.09    -0.02   0.03   0.11
    81   1    -0.08   0.04   0.06     0.01  -0.03  -0.07    -0.04   0.07   0.10
    82   1     0.00  -0.02   0.01    -0.01  -0.00  -0.00    -0.03   0.01  -0.04
    83   6    -0.01  -0.01  -0.00    -0.01   0.00   0.02    -0.00   0.02  -0.02
    84   8    -0.00  -0.05   0.01    -0.03  -0.01   0.03    -0.02  -0.01  -0.01
    85   6    -0.01   0.03  -0.02     0.01   0.02   0.04     0.02   0.04   0.00
    86   1     0.03   0.03   0.00     0.02   0.02   0.04     0.03   0.05  -0.01
    87   1    -0.05   0.00  -0.03     0.01   0.02   0.04     0.04   0.05   0.00
    88   6    -0.01  -0.02  -0.00    -0.01  -0.01  -0.02    -0.00  -0.01  -0.07
    89   1    -0.01  -0.02  -0.02    -0.01  -0.01  -0.04     0.01  -0.01  -0.12
    90   1    -0.01  -0.04  -0.00    -0.03  -0.04  -0.01    -0.02  -0.04  -0.06
    91   7    -0.01  -0.01  -0.01     0.00   0.00  -0.00     0.01   0.03  -0.06
    92   6    -0.01   0.01  -0.01     0.02   0.02  -0.01     0.04   0.06  -0.07
    93   1    -0.00   0.02  -0.02     0.03   0.03  -0.00     0.04   0.06  -0.07
    94   1    -0.00  -0.01  -0.01     0.03   0.01  -0.02     0.03   0.08  -0.10
    95   1    -0.02   0.01  -0.00     0.02   0.02   0.00     0.06   0.08  -0.05
    96   6    -0.03   0.11  -0.04    -0.01   0.04   0.06     0.00   0.04   0.04
    97   1    -0.06   0.12  -0.09    -0.03   0.03   0.06    -0.00   0.05   0.01
    98   1    -0.00   0.16  -0.02    -0.02   0.04   0.07    -0.04   0.06   0.06
    99   6    -0.03   0.11  -0.05     0.01   0.05   0.09     0.04   0.02   0.09
   100   1     0.02   0.10   0.01     0.03   0.05   0.09     0.04   0.01   0.12
   101   1    -0.07   0.05  -0.08     0.02   0.05   0.08     0.09   0.00   0.07
   102   6    -0.05   0.21  -0.08    -0.01   0.07   0.12     0.01   0.01   0.14
   103   1    -0.10   0.22  -0.14    -0.04   0.07   0.11     0.01   0.02   0.11
   104   1    -0.02   0.27  -0.05    -0.03   0.08   0.12    -0.04   0.03   0.16
   105   6    -0.06   0.22  -0.09     0.01   0.09   0.14     0.06  -0.02   0.20
   106   1    -0.09   0.16  -0.12     0.02   0.08   0.14     0.11  -0.04   0.17
   107   1    -0.07   0.29  -0.12    -0.01   0.11   0.16     0.04  -0.02   0.23
   108   1    -0.01   0.21  -0.03     0.03   0.09   0.15     0.07  -0.03   0.23
   109   1    -0.04  -0.03  -0.01     0.05  -0.08   0.01     0.07  -0.05  -0.01
   110   1     0.01  -0.02   0.04    -0.00   0.00  -0.01    -0.01  -0.01  -0.09
   111  77    -0.00  -0.01   0.01    -0.00  -0.00  -0.00    -0.01   0.00  -0.03
                      4                      5                      6
                      A                      A                      A
 Frequencies --     24.0018                32.1594                38.1662
 Red. masses --      4.1832                 2.1013                 3.4053
 Frc consts  --      0.0014                 0.0013                 0.0029
 IR Inten    --      0.2556                 0.3201                 0.9090
  Atom AN      X      Y      Z        X      Y      Z        X      Y      Z
     1   6     0.00   0.02  -0.05    -0.01  -0.00   0.00     0.05  -0.01  -0.03
     2   6     0.02  -0.07  -0.05     0.00  -0.01   0.01    -0.01  -0.02  -0.05
     3   6     0.02  -0.06  -0.06     0.00  -0.01   0.01     0.00  -0.03  -0.08
     4   6     0.02  -0.02  -0.07    -0.00  -0.02   0.01     0.04  -0.04  -0.09
     5   6     0.01   0.03  -0.07    -0.01  -0.01   0.01     0.06  -0.03  -0.06
     6   6    -0.01   0.06  -0.04    -0.03   0.02  -0.00     0.06   0.00  -0.00
     7   6     0.01   0.04  -0.01    -0.02  -0.00  -0.01     0.03   0.07   0.04
     8   6    -0.01   0.12  -0.02    -0.05   0.04  -0.01     0.09   0.03   0.04
     9   6    -0.04   0.18  -0.04    -0.07   0.08  -0.01     0.14  -0.02   0.02
    10   6    -0.03   0.15  -0.05    -0.06   0.06  -0.01     0.13  -0.04  -0.00
    11   1     0.03  -0.10  -0.04     0.01  -0.01   0.01    -0.04  -0.02  -0.04
    12   1     0.02  -0.02  -0.09     0.00  -0.03   0.02     0.06  -0.05  -0.11
    13   1     0.00   0.06  -0.07    -0.01  -0.02   0.01     0.10  -0.03  -0.07
    14   1     0.03  -0.00   0.01     0.00  -0.03  -0.01    -0.01   0.11   0.06
    15   1    -0.06   0.24  -0.05    -0.10   0.12  -0.02     0.19  -0.06   0.02
    16   1    -0.05   0.19  -0.07    -0.08   0.09  -0.01     0.17  -0.09  -0.02
    17   7     0.01  -0.03  -0.04    -0.00  -0.01   0.00     0.01  -0.01  -0.02
    18   7     0.01   0.02  -0.02    -0.01  -0.01  -0.00     0.02   0.05   0.02
    19   8    -0.02   0.01   0.00    -0.01  -0.01  -0.00    -0.01   0.01   0.01
    20   8     0.02  -0.01   0.00     0.01  -0.00   0.01    -0.03  -0.01  -0.01
    21   8    -0.00  -0.02  -0.01     0.00  -0.01  -0.00    -0.00  -0.01  -0.01
    22   5     0.01  -0.01  -0.01     0.00  -0.00   0.00    -0.01  -0.01   0.00
    23   5     0.01  -0.01   0.01     0.00  -0.01   0.00    -0.01   0.01   0.01
[...]
 -0.00071543,0.00000260,-0.00000055,-0.00000672,0.00000144,0.00000062,-
 0.00000626,0.00001493,0.00000557,0.00007804,-0.00206033,-0.00218960,0.
 00123131,0.00004725,0.00000056,-0.00009288,-0.00000968,-0.00004151,0.0
 0000498,0.00004791,-0.00000848,0.00000284,0.00001877,0.00003582,0.0000
 0988,-0.00010322,-0.00001513,-0.00003293,0.00002053,0.00007328,-0.0000
 5603,-0.00004153,-0.00007643,-0.00003816,0.00001204,0.00003452,0.00002
 222,-0.00001153,-0.00008003,0.00000994,0.00002768,0.00002895,0.0000039
 2,0.00000609,0.00002203,-0.00000893,-0.00000360,-0.00002123,-0.0000053
 3,-0.00001082,-0.00001179,-0.00000447,-0.00002827,0.00000273,-0.000003
 38,-0.00001754,0.00000722,-0.00000024,0.00003945,0.00000380,0.00002041
 ,-0.00000153,-0.00000293,-0.00000137,-0.00000202,0.00000091,-0.0000024
 2,-0.00000066,0.00000067,-0.00000151,0.00000168,-0.00000404,0.00000137
 ,0.00001954,-0.00002862,0.00000017,-0.00002859,0.00000529,-0.00002647,
 0.00001629,-0.00000937,0.00000299,0.00008246,-0.00002402,0.00005802,-0
 .00000469,-0.00000418,-0.00000351,-0.00000203,0.00000139,-0.00000044,0
 .00000172,0.00000117,-0.00000149,0.00000064,-0.00000414,0.00000335,-0.
 00000207,0.00000234,-0.00000962,0.00001409,-0.00002546,0.00001072,-0.0
 0001750,0.00001276,0.00000456,0.00004974,-0.00000221,-0.00004361,0.000
 00461,-0.00000051,-0.00000278,-0.00000270,0.00000027,0.00000262,0.0000
 0406,0.00000047,0.00000103,-0.00000153,-0.00000090,-0.00000069,0.00000
 265,0.00000002,-0.00000183,-0.00000136,0.00000057,-0.00000035,0.000003
 31,-0.00000073,0.00000076,-0.00000211,0.00000011,0.00000088,0.00000087
 ,-0.00000136,0.00000174,-0.00000064,0.00000010,-0.00000080,0.00000183,
 -0.00000019,-0.00000071,-0.00000017,0.00000038,0.00000177,0.00000214,-
 0.00000127,0.00000016,-0.00000095,0.00000200,-0.00000084,-0.00000080,0
 .00000022,0.00000129,0.00000189,-0.00000148,-0.00000058,0.00000141,0.0
 0000088,0.00000205,-0.00000054,-0.00000029,-0.00000150,0.00000074,0.00
 000174,-0.00000006,-0.00000034,-0.00000066,0.00000139,0.00000133,0.000
 00121,0.00000082,-0.00000165,-0.00000020,-0.00000017,-0.00000065,-0.00
 000071,0.00000032,0.00000205,0.00000138,0.00000010,0.00000111,0.000002
 43,-0.00000009,0.00000113,0.00000222,0.00000101,-0.00000033,-0.0000014
 0,-0.00000007,-0.00000075,-0.00000066,-0.00000068,0.00000009,0.0000034
 6,-0.00000122,0.00000135,0.00000306,0.00000113,0.00000018,-0.00000271,
 -0.00000080,-0.00000077,-0.00000160,0.00000094,0.00001057,0.00000033,0
 .00000786,0.00024139,0.00004749,-0.00008673,-0.00013768,0.00009352,0.0
 0005024,0.00008835,-0.00000706,0.00010763,-0.00003750,-0.00003647,-0.0
 0002410,-0.00002125,0.00013181,-0.00003471,0.00007412,-0.00003250,-0.0
 0005395,-0.00002253,0.00001672,-0.00000242,0.00000073,0.00000652,0.000
 00096,-0.00012688,0.00000529,0.00000676,0.00000016,-0.00002410,0.00002
 324,-0.00000296,0.00001770,0.00000542,-0.00000415,0.00000040,-0.000002
 93,0.00000215,0.00000480,-0.00001029,-0.00000584,0.00019194,0.00017324
 ,-0.00005372,0.00002460,-0.00020546,0.00002787,-0.00011317,-0.00002890
 ,-0.00006406,-0.00002692,0.00008533,0.00002662,-0.00003040,-0.00004454
 ,-0.00007311,0.00012424,-0.00001150,-0.00002028,0.00009420,0.00000754,
 -0.00002675,-0.00004617,-0.00002866,0.00000390,-0.00002484,-0.00000274
 ,-0.00000649,-0.00002668,0.00001248,-0.00000177,0.00000771,-0.00000005
 ,0.00000852,0.00000613,-0.00000106,0.00000979,-0.00001225,-0.00001173,
 0.00001114,0.00000152,0.00000207,-0.14606645,-0.04533671,0.20913844,-0
 .00212295,-0.00295593,-0.01517132,-0.01459635,-0.00799516,0.00775577,0
 .00371676,-0.00060856,-0.00059972,-0.00187476,-0.00089061,-0.00154232,
 0.00169623,-0.00120935,0.00344136,-0.00144103,-0.00087783,-0.00672740,
 -0.00007762,-0.00011771,0.00759409,0.00083337,-0.00173164,0.00134373,-
 0.00098530,-0.00033641,0.00029032,-0.00031661,-0.00265945,-0.00114819,
 -0.00040536,0.00057527,-0.00186848,-0.00010088,0.00034633,-0.00009550,
 0.00053890,0.00030787,0.00020619,-0.00082540,0.00107374,0.00104264,-0.
 00015790,0.00023155,-0.00003838,-0.00011669,-0.00005999,-0.00061852,-0
 .03351180,0.00442775,0.00303097,-0.03225445,0.00087142,0.00519868,0.00
 319090,-0.00676469,0.00413607,-0.02317110,0.00992858,0.00872419,-0.004
 06524,-0.00923099,0.00154058,-0.09043422,0.01183605,-0.00020349,-0.030
 17809,0.00777978,-0.01103802,-0.05514889,-0.03371115,-0.02306139,0.001
 09821,-0.00709857,-0.00338854,0.00366128,-0.00153437,0.00004127,0.0008
 1353,-0.00003794,0.00141161,0.00100582,0.00081186,0.00065459,0.0013236
 7,0.00134625,0.00230058,0.00196003,0.00121252,-0.00001288,0.00365091,0
 .00126030,0.00176424,0.00454357,-0.00233956,-0.00240105,-0.01886487,0.
 00571802,-0.00379155,-0.00019333,-0.00088865,0.00020908,-0.00003521,0.
 00002458,0.00000292,0.00000136,-0.00010226,-0.00001540,0.00032313,-0.0
 0011096,0.00025015,0.00029068,-0.00004364,0.00003224,-0.00003808,0.000
 04063,-0.00000171,-0.00009306,-0.00014462,0.00002083,0.00000396,0.0001
 0333,-0.00001018,-0.00029153,-0.00018309,-0.00004536,0.00004950,-0.000
 05805,0.00014502,0.00001726,-0.00008652,-0.00009121,0.00013423,-0.0001
 2777,0.00000562,0.00027143,0.00024288,-0.00016306,0.00001150,-0.000020
 51,0.00005846,-0.00005119,-0.00000494,-0.00006474,-0.00004295,0.000096
 48,0.00002671,-0.00072564,0.00023238,-0.00033403,0.00004428,0.00004738
 ,0.00025410,-0.00034947,-0.00031259,0.00017253,0.00008709,0.00014296,-
 0.00018524,-0.00123922,-0.00039989,-0.00016224,0.00003337,0.00002051,-
 0.00009484,-0.00040107,0.00042863,0.00019980,0.00001935,0.00002743,0.0
 0022692,-0.00068548,0.00088107,0.00025635,0.00011951,-0.00005578,0.000
 06635,-0.00049722,-0.00015573,-0.00007199,0.00004674,-0.00005334,-0.00
 015027,-0.00123581,0.00016874,0.00037614,-0.00001794,-0.00008549,0.000
 18510,0.00000543,-0.00012632,-0.00016396,-0.00015776,0.00062485,-0.000
 12008,-0.00031330,-0.00026248,0.00001536,0.00004668,-0.00006952,0.0000
 9413,0.00002212,-0.00011327,-0.00007317,-0.00004334,0.00002577,-0.0000
 7253,-0.00016440,0.00016684,0.00018073,0.00027453,0.00006094,0.0000424
 9,0.00003408,0.00002683,0.00000054,-0.00001086,-0.00015626,-0.00002470
 ,-0.00010285,-0.00005688,-0.00005007,-0.00000663,-0.00010010,-0.000036
 35,-0.00001169,0.00003402,0.00002239,0.00013942,0.00001471,0.00007555,
 -0.00033291,-0.00071456,-0.00032614,0.00012492,-0.00027858,0.00013040,
 0.00006562,0.00000240,-0.00010813,-0.00005736,0.00002737,0.00003789,-0
 .04182347,0.00281477,0.02273095,0.00351825,0.00419519,0.00438859,-0.00
 040013,-0.00096927,-0.00238001,-0.00035240,-0.00097266,0.00010507,0.00
 009147,0.00002705,-0.00006644,-0.00011442,-0.00004541,0.00009394,-0.03
 887100,0.00060241,0.00166982,0.00364607,-0.00311752,0.00195466,-0.0039
 6121,0.00611365,-0.00242567,-0.02066469,0.01244285,-0.00222653,-0.0009
 4954,-0.00029543,-0.00022062,-0.00019729,0.00055540,-0.00023567,-0.000
 22107,-0.00028331,0.00019710,0.00035056,0.00036381,-0.00022598,0.00003
 246,-0.00003462,0.00031469,-0.00001815,-0.00002516,-0.00003189,0.00000
 144,0.00000695,-0.00002998,-0.00004705,-0.00008717,-0.00020085,-0.0000
 0690,0.00002992,0.00001851,0.00000453,-0.00000771,0.00001396,-0.000008
 18,0.00003182,0.00011926,0.00000193,0.00000054,-0.00000438,-0.00000400
 ,0.00000292,-0.00001362,-0.00003065,-0.00002629,-0.00006292,0.00001247
 ,-0.00000183,0.00001655,-0.00006405,-0.00001513,0.00000194,0.00000649,
 0.00001997,0.00001494,-0.00004866,0.00017692,0.00012304,0.00027100,0.0
 0026989,0.00007273,0.38739463,0.00161420,-0.00337535,-0.01533223,-0.00
 817567,-0.00091798,0.00824109,0.00217299,0.00246113,-0.00112709,-0.001
 58631,-0.00069466,-0.00099811,0.00036524,0.00265397,0.00232164,-0.0080
 2077,-0.00375745,-0.00425921,0.00153909,0.00427151,0.00167099,-0.00172
 359,0.00309830,0.00305705,-0.00168268,-0.00179701,-0.00079940,-0.00106
 310,0.00329911,-0.00128323,0.00043860,-0.00122695,-0.00114221,0.000182
 90,-0.00017394,0.00002541,0.00055957,0.00021275,0.00022256,0.00053485,
 -0.00165930,0.00070049,0.00024271,-0.00040575,0.00011099,-0.00007500,0
 .00005899,-0.00007011,0.00493995,-0.01114217,0.00393444,0.00157141,-0.
 03280482,0.00853685,-0.00016915,-0.02149280,0.01513821,0.00996396,-0.0
 0003254,-0.00203121,-0.01555709,-0.01282604,0.00186166,0.01799598,-0.0
 0366426,-0.00391934,-0.01583967,-0.05154227,0.01789429,-0.02165016,-0.
 06671261,-0.01507054,-0.01326844,-0.01872774,-0.01047233,0.00614448,-0
 .01803325,0.00297220,0.00417922,0.00339820,-0.00080324,-0.00007384,0.0
 0449248,0.00077332,-0.00111700,0.00440365,0.00096377,0.00330907,0.0034
 2838,-0.00121028,-0.00182715,-0.00042356,-0.00078854,-0.00102897,-0.00
 055008,0.00053047,0.00351801,0.00014568,0.00150699,-0.00013056,-0.0014
 5822,0.00010929,-0.00009305,0.00010317,0.00004299,-0.00013305,0.000030
 48,-0.00015597,0.00049350,-0.00031918,0.00041658,0.00062144,-0.0007751
 5,0.00022632,-0.00005443,0.00008824,0.00015637,-0.00032119,-0.00034112
 ,0.00016386,-0.00006041,0.00008138,-0.00010524,-0.00076930,-0.00101498
 ,0.00024669,-0.00004469,0.00010562,0.00005863,0.00008811,-0.00002971,-
 0.00016190,0.00021593,-0.00051009,0.00008500,0.00012544,-0.00021066,0.
 00009133,-0.00024972,-0.00020823,-0.00001554,0.00005156,0.00004509,-0.
 00014339,0.00001206,0.00017006,0.00010434,0.00034912,-0.00020655,-0.00
 008883,-0.00004293,0.00001118,-0.00003567,0.00012045,0.00024088,-0.000
 05313,0.00028433,-0.00002562,-0.00000572,0.00046019,0.00006281,0.00014
 919,-0.00006557,0.00019196,0.00002578,0.00016309,-0.00011980,-0.000055
 15,-0.00005550,0.00001074,-0.00004452,-0.00003781,-0.00028116,0.000076
 91,0.00013451,0.00024452,-0.00014329,0.00003340,0.00012196,0.00002655,
 0.00003422,-0.00005906,0.00008491,0.00019524,-0.00004492,-0.00024281,-
 0.00021658,0.00025637,0.00009542,-0.00006007,-0.00002340,-0.00003120,0
 .00010626,-0.00004189,-0.00001892,-0.00102376,-0.00045048,0.00000639,0
 .00006034,0.00016873,0.00008233,-0.00001196,-0.00053615,-0.00016858,0.
 00008498,0.00005742,-0.00015401,-0.00068743,-0.00112918,0.00000565,0.0
 0002977,-0.00018370,0.00016595,0.00011814,0.00000496,-0.00009492,-0.00
 066489,0.00003961,-0.00030939,0.00005282,-0.00128061,-0.00022632,-0.00
 051025,-0.00023035,0.00002246,-0.00005956,-0.00000206,0.00022372,-0.00
 005944,0.00009381,-0.00017155,-0.00002150,-0.00039242,-0.00020323,-0.0
 0011051,-0.00037382,0.00005993,-0.00014566,0.00031794,-0.00009263,0.00
 001134,0.00005858,0.00015766,0.00186615,-0.03664823,-0.01930192,-0.003
 31737,-0.00254511,-0.00089542,0.00107845,0.00101042,0.00051989,0.00023
 953,0.00025651,0.00029215,-0.00021151,0.00015292,0.00004348,-0.0000742
 6,0.00006478,-0.00011463,0.00127132,-0.04347434,0.00796099,0.00782198,
 -0.00729509,0.00386885,0.00356243,-0.00316769,0.00145462,0.00983437,0.
 00172004,-0.00329493,0.00028609,-0.00059261,-0.00029930,0.00021382,-0.
 00005524,0.00024491,-0.00019435,0.00035542,0.00015606,0.00015011,-0.00
 030735,-0.00035312,0.00001733,-0.00013622,-0.00009783,0.00006936,0.000
 07090,0.00004949,-0.00001273,0.00001540,0.00000428,0.00002998,0.000019
 69,0.00010339,-0.00001494,0.00002927,0.00000947,0.00000137,0.00000577,
 -0.00003203,0.00001184,-0.00005040,-0.00006083,0.00000208,0.00003377,0
 .00001673,-0.00000269,0.00000382,-0.00000588,0.00002033,0.00000772,0.0
 0003216,-0.00000559,-0.00000053,-0.00001880,0.00002925,0.00000186,-0.0
 0000068,-0.00000908,0.00001025,0.00000146,0.00025792,-0.00027975,0.000
 41232,0.00051755,0.00016778,0.00012320,0.01193117,0.31840561,-0.005457
 78,-0.00451685,-0.01223964,0.00250912,0.00297871,0.00722073,0.00444364
 ,0.00129897,0.00044262,0.00000380,-0.00050362,-0.00343660,-0.00166820,
 -0.00128699,-0.00074737,-0.02221757,-0.01233034,-0.00663465,0.01435914
 ,0.00675189,-0.01805126,0.00046884,-0.00007647,0.00848733,-0.00453157,
 -0.00333333,-0.00353579,0.00504426,0.00232092,-0.00082852,0.00133610,0
 .00152889,-0.00053434,-0.00000540,0.00013636,-0.00008182,-0.00045550,-
 0.00012487,-0.00019926,-0.00157119,-0.00067221,0.00028355,-0.00014418,
 0.00009656,0.00014992,0.00010534,0.00014800,0.00090492,0.00514668,0.00
 413847,-0.03351091,0.00328442,0.00509886,-0.01021669,0.00309512,0.0175
 2552,-0.00839591,0.02010363,-0.00648347,-0.00029766,0.00595111,0.01233
 484,0.00609946,-0.00425838,0.00448690,-0.04082636,-0.00471867,0.015214
 79,-0.03256125,-0.00763895,-0.01404788,-0.04595022,-0.00774219,-0.0158
 3189,-0.00369175,-0.00173128,-0.00265096,0.00351485,0.00084395,-0.0017
 4851,-0.00023542,0.00214979,-0.00135601,-0.00113119,0.00225242,-0.0011
 3603,-0.00163092,0.00280962,0.00066080,-0.00180690,-0.00213354,-0.0012
 3326,-0.00257283,0.00031663,-0.00154882,-0.00260606,-0.01257259,0.0033
 1269,0.00466500,0.00001348,0.00046913,0.00012394,0.00000516,-0.0000397
 3,0.00004004,0.00006457,-0.00008728,0.00001189,-0.00018261,0.00019519,
 -0.00019675,-0.00050922,0.00109891,0.00008170,-0.00005028,-0.00005777,
 -0.00002492,0.00036423,0.00030706,-0.00022547,0.00004047,-0.00003258,0
 .00003826,-0.00017571,-0.00018824,0.00036373,0.00002837,-0.00002126,-0
 .00004533,-0.00005546,0.00008770,0.00007577,0.00007385,-0.00012715,-0.
 00002695,0.00006215,0.00028502,-0.00004970,0.00004787,0.00003323,0.000
 01654,-0.00001279,0.00003692,0.00005890,-0.00011779,0.00004591,-0.0000
 8516,0.00059246,-0.00009451,0.00041256,-0.00009291,-0.00006681,0.00003
 794,0.00030449,0.00025005,-0.00018524,-0.00009261,0.00004022,-0.000065
 62,0.00124985,0.00013884,0.00063684,-0.00006406,-0.00001891,-0.0000270
 2,0.00037970,-0.00041079,-0.00025532,-0.00009247,0.00009995,0.00007753
 ,-0.00074581,0.00048742,0.00067651,0.00003446,-0.00006134,-0.00008426,
 -0.00035780,-0.00012210,-0.00014164,0.00014820,0.00003440,0.00013232,-
 0.00027367,0.00011263,0.00028854,0.00021989,-0.00005697,-0.00010750,0.
 00007816,-0.00005487,0.00016877,-0.00009342,0.00017954,-0.00004287,-0.
 00089455,-0.00072644,0.00043032,0.00005956,0.00007699,0.00001005,0.000
 04224,-0.00043357,-0.00022667,-0.00004765,0.00013617,0.00006567,-0.000
 31060,-0.00032945,0.00022323,0.00008146,0.00008014,-0.00003990,0.00005
 369,0.00002478,0.00011185,-0.00026743,-0.00004896,-0.00013421,-0.00001
 123,0.00099749,0.00071496,0.00042259,0.00020017,-0.00008760,-0.0000972
 5,-0.00007634,0.00006198,-0.00000595,-0.00005639,-0.00007587,0.0001503
 9,0.00001451,0.00018551,-0.00013183,0.00013485,-0.00003812,-0.00013227
 ,0.00009100,-0.00010759,-0.00003205,-0.00006291,0.00006648,0.01171271,
 -0.01865082,-0.16275453,-0.00183422,-0.00265538,-0.00344617,0.00012266
 ,0.00028983,0.00292410,-0.00004447,0.00080502,-0.00017239,0.00001189,0
 .00002117,0.00003125,0.00029715,0.00005268,-0.00022452,-0.01084877,0.0
 0836535,-0.03699365,0.00164362,-0.00312041,0.00103518,-0.00765658,0.01
 220345,-0.00234556,0.01203951,-0.00659715,0.00177731,-0.00009154,-0.00
 124042,0.00133944,-0.00014116,0.00028068,-0.00045203,-0.00009447,-0.00
 019398,0.00003075,0.00042224,0.00055064,-0.00066996,0.00002443,-0.0000
 4474,-0.00021668,0.00002886,0.00001117,0.00001843,-0.00002850,0.000002
 38,0.00000586,0.00004091,0.00005167,0.00006835,-0.00001021,0.00000407,
 0.00000528,0.00000066,-0.00000266,-0.00000156,0.00001449,-0.00002836,-
 0.00004140,0.00000181,0.00001643,0.00000129,0.00000225,-0.00000469,0.0
 0000636,0.00001252,0.00001181,0.00001184,-0.00000167,-0.00000311,0.000
 00091,0.00001127,0.00000124,-0.00000292,-0.00000424,0.00000196,0.00000
 095,0.00000347,0.00023365,0.00082687,0.00052259,0.00013880,0.00020989,
 -0.00320373,-0.00213579,0.39614413\\0.00001043,0.00000697,0.00001075,0
 .00000452,0.00000646,0.00000694,-0.00000280,0.00000042,0.00000183,0.00
 000085,0.00000259,-0.00000639,-0.00000537,-0.00000324,0.00000149,0.000
 00438,0.00000459,-0.00000539,0.00000377,0.00000486,-0.00000058,-0.0000
 0411,-0.00000243,0.00000084,-0.00000026,0.00000286,0.00000041,0.000003
 20,0.00000581,0.00000671,-0.00000138,-0.00000143,-0.00000275,-0.000001
 42,0.00000143,0.00000017,-0.00000098,-0.00000025,-0.00000280,0.0000015
 1,-0.00000064,0.00000012,-0.00000014,0.00000110,-0.00000271,-0.0000048
 1,-0.00000187,-0.00000299,-0.00001191,-0.00000815,-0.00001180,-0.00001
 003,-0.00001169,-0.00000238,-0.00000189,0.00000178,0.00000523,-0.00000
 947,0.00000342,0.00000278,0.00000248,-0.00000850,-0.00001197,-0.000004
 00,-0.00000665,0.00000483,-0.00000372,0.00000442,-0.00000503,0.0000002
 3,-0.00000147,0.00002446,0.00000056,0.00000016,-0.00000402,-0.00000022
 ,-0.00000098,0.00000013,-0.00000883,0.00000394,-0.00000462,0.00000619,
 -0.00000279,-0.00000516,0.00000255,0.00000430,0.00000235,-0.00000156,-
 0.00000378,-0.00000347,0.00000306,0.00000272,-0.00000507,0.00000157,-0
 .00001053,0.00000624,-0.00000282,0.00000147,-0.00000071,0.00000028,-0.
 00000192,-0.00000006,-0.00000036,0.00000010,-0.00000008,0.00000189,0.0
 0000033,0.00000008,-0.00000083,-0.00000063,-0.00000143,-0.00000439,0.0
 0000663,0.00000087,-0.00000053,-0.00000125,-0.00000178,0.00000016,-0.0
 0000501,-0.00000106,-0.00000081,-0.00000111,-0.00000117,-0.00000403,-0
 .00000072,-0.00000070,0.00000294,-0.00000121,0.00000061,-0.00000067,-0
 .00000040,-0.00000400,-0.00000066,-0.00000293,0.00000017,0.00000800,0.
 00000054,-0.00000174,-0.00000348,-0.00000387,0.00000146,-0.00000114,0.
 00000180,0.00000060,-0.00000134,0.00000225,-0.00000024,0.00000250,-0.0
 0000052,0.00000828,-0.00000220,-0.00000057,-0.00000121,-0.00000111,-0.
 00000097,0.00000039,0.00000070,0.00000193,-0.00000129,0.00000744,-0.00
 000712,0.00000040,-0.00000385,-0.00000018,0.00000349,-0.00000371,0.000
 00132,0.,-0.00000151,-0.00000031,0.00000276,0.00000150,0.00000835,-0.0
 0000775,0.00000184,-0.00000394,0.00000216,-0.00000185,-0.00000273,-0.0
 0000072,-0.00000029,-0.00000111,-0.00000002,0.00000499,0.00000258,-0.0
 0001362,0.00000087,-0.00000059,-0.00000480,-0.00000306,-0.00000060,0.0
 0000347,-0.00000150,-0.00000176,-0.00000095,-0.00000123,-0.00000170,0.
 00000229,-0.00000010,0.00000164,0.00000050,0.00000235,-0.00000050,0.,0
 .00000124,-0.00000122,-0.00000120,-0.00000033,-0.00000173,-0.00000050,
 0.00000199,-0.00000224,-0.00000076,0.00000155,-0.00000033,0.00000169,0
 .00000017,-0.00000105,0.00000122,-0.00000483,-0.00000112,-0.00000348,0
 .00000163,0.00000169,0.00000255,0.00000109,-0.00000144,0.00000228,0.00
 000327,-0.00000346,0.00000172,-0.00000187,-0.00000031,0.00000753,0.000
 00032,0.00000105,0.00000191,0.00000265,0.00000106,0.00000098,0.0000016
 4,-0.00000112,-0.00000429,0.00000377,0.00000096,-0.00000140,-0.0000034
 6,-0.00001443,-0.00001557,0.00000384,0.00001031,0.00001500,0.00000109,
 0.00000066,0.00000578,0.00000259,0.00000210,0.00000032,-0.00000770,-0.
 00000456,-0.00000457,-0.00001177,-0.00000014,0.00000860,0.00000486,-0.
 00000080,0.00000325,0.00000078,-0.00000026,0.00000019,-0.00000915,-0.0
 0000216,0.00000961,-0.00000162,0.00000131,0.00000105,0.00001075,0.0000
 0516,-0.00000591,0.00000624,0.00000877,0.00000636,0.00000223,-0.000001
 65,-0.00001249,-0.00000756,0.00000138,0.00000177,-0.00000330,-0.000004
 35,0.00000396,0.00000098,0.00000085,0.00000020,0.00000232,-0.00000046,
 -0.00000877,0.00000021,0.00000257,0.00000125,0.00000093,-0.00000105,0.
 00000342,0.00000379,-0.00000002,0.00000600,-0.00000063,0.00000156,0.00
 000017,-0.00000051,0.00000396,-0.00000246,0.00000537,-0.00000148,0.000
 00479,-0.00000114,0.00000366,-0.00000312,-0.00000416,0.00000007,-0.000
 00078,-0.00000021,0.00000279,0.00000124,0.00000196,0.00000277,-0.00000
 114,-0.00000042,0.00000054,-0.00000039,0.00002491,0.00001148,-0.000008
 37\\\@
 The archive entry for this job was punched.


 IT WAS A GAME, A VERY INTERESTING GAME ONE COULD
 PLAY.  WHENEVER ONE SOLVED ONE OF THE LITTLE PROBLEMS,
 ONE COULD WRITE A PAPER ABOUT IT.  IT WAS VERY EASY IN
 THOSE DAYS FOR ANY SECOND-RATE PHYSICIST TO DO
 FIRST-RATE WORK.  THERE HAS NOT BEEN SUCH A GLORIOUS
 TIME SINCE.  IT IS VERY DIFFICULT NOW FOR A FIRST-RATE
 PHYSICIST TO DO SECOND-RATE WORK.
     P.A.M. DIRAC, ON THE EARLY DAYS OF QUANTUM MECHANICS
                   DIRECTIONS IN PHYSICS, 1978, P. 7
 Job cpu time:       1 days 12 hours 38 minutes 52.2 seconds.
 Elapsed time:       0 days  2 hours 20 minutes 36.1 seconds.
 File lengths (MBytes):  RWF=   8594 Int=      0 D2E=      0 Chk=     49 Scr=      1
 Normal termination of Gaussian 16 at Sat Dec  7 23:53:31 2024.
