/mnt/lustre/scratch/nvme/SLURM/9663528/usccqdma.WesMgFPiZ0
OMP_STACKSIZE=0m
GAUSS_PDEF=16
GAUSS_MDEF=65536MB
GAUSS_RDEF=SCF=Direct
 Entering Gaussian System, Link 0=g16.exe
 Initial command:
 /opt/cesga/2020/software/Core/g16/c1/l1.exe "/mnt/lustre/scratch/nvme/SLURM/9663528/usccqdma.WesMgFPiZ0/Gau-3445995.inp" -scrdir="/mnt/lustre/scratch/nvme/SLURM/9663528/usccqdma.WesMgFPiZ0/"
 Default is to use a total of  16 processors:
                               16 via shared-memory
                                1 via Linda
 Entering Link 1 = /opt/cesga/2020/software/Core/g16/c1/l1.exe PID=   3446023.
  
 Copyright (c) 1988-2019, Gaussian, Inc.  All Rights Reserved.
  
 This is part of the Gaussian(R) 16 program.  It is based on
 the Gaussian(R) 09 system (copyright 2009, Gaussian, Inc.),
 the Gaussian(R) 03 system (copyright 2003, Gaussian, Inc.),
 the Gaussian(R) 98 system (copyright 1998, Gaussian, Inc.),
 the Gaussian(R) 94 system (copyright 1995, Gaussian, Inc.),
 the Gaussian 92(TM) system (copyright 1992, Gaussian, Inc.),
 the Gaussian 90(TM) system (copyright 1990, Gaussian, Inc.),
 the Gaussian 88(TM) system (copyright 1988, Gaussian, Inc.),
 the Gaussian 86(TM) system (copyright 1986, Carnegie Mellon
 University), and the Gaussian 82(TM) system (copyright 1983,
 Carnegie Mellon University). Gaussian is a federally registered
 trademark of Gaussian, Inc.
  
 This software contains proprietary and confidential information,
 including trade secrets, belonging to Gaussian, Inc.
  
 This software is provided under written license and may be
 used, copied, transmitted, or stored only in accord with that
 written license.
  
 The following legend is applicable only to US Government
 contracts under FAR:
  
                    RESTRICTED RIGHTS LEGEND
  
 Use, reproduction and disclosure by the US Government is
 subject to restrictions as set forth in subparagraphs (a)
 and (c) of the Commercial Computer Software - Restricted
 Rights clause in FAR 52.227-19.
  
 Gaussian, Inc.
 340 Quinnipiac St., Bldg. 40, Wallingford CT 06492
  
  
 ---------------------------------------------------------------
 Warning -- This program may not be used in any manner that
 competes with the business of Gaussian, Inc. or will provide
 assistance to any competitor of Gaussian, Inc.  The licensee
 of this program is prohibited from giving any competitor of
 Gaussian, Inc. access to this program.  By using this program,
 the user acknowledges that Gaussian, Inc. is engaged in the
 business of creating and licensing software in the field of
 computational chemistry and represents and warrants to the
 licensee that it is not a competitor of Gaussian, Inc. and that
 it will not use this program in any manner prohibited above.
 ---------------------------------------------------------------
  

 Cite this work as:
 Gaussian 16, Revision C.01,
 M. J. Frisch, G. W. Trucks, H. B. Schlegel, G. E. Scuseria, 
 M. A. Robb, J. R. Cheeseman, G. Scalmani, V. Barone, 
 G. A. Petersson, H. Nakatsuji, X. Li, M. Caricato, A. V. Marenich, 
 J. Bloino, B. G. Janesko, R. Gomperts, B. Mennucci, H. P. Hratchian, 
 J. V. Ortiz, A. F. Izmaylov, J. L. Sonnenberg, D. Williams-Young, 
 F. Ding, F. Lipparini, F. Egidi, J. Goings, B. Peng, A. Petrone, 
 T. Henderson, D. Ranasinghe, V. G. Zakrzewski, J. Gao, N. Rega, 
 G. Zheng, W. Liang, M. Hada, M. Ehara, K. Toyota, R. Fukuda, 
 J. Hasegawa, M. Ishida, T. Nakajima, Y. Honda, O. Kitao, H. Nakai, 
 T. Vreven, K. Throssell, J. A. Montgomery, Jr., J. E. Peralta, 
 F. Ogliaro, M. J. Bearpark, J. J. Heyd, E. N. Brothers, K. N. Kudin, 
 V. N. Staroverov, T. A. Keith, R. Kobayashi, J. Normand, 
 K. Raghavachari, A. P. Rendell, J. C. Burant, S. S. Iyengar, 
 J. Tomasi, M. Cossi, J. M. Millam, M. Klene, C. Adamo, R. Cammi, 
 J. W. Ochterski, R. L. Martin, K. Morokuma, O. Farkas, 
 J. B. Foresman, and D. J. Fox, Gaussian, Inc., Wallingford CT, 2019.
 
 ******************************************
 Gaussian 16:  ES64L-G16RevC.01  3-Jul-2019
                 7-Dec-2024 
 ******************************************
 Default route: SCF=Direct
 ----------------------------------------------------
 # m06/genecp scf=tight int=ultrafine 5d freq=noraman
 ----------------------------------------------------
 1/10=4,30=1,38=1/1,3;
 2/12=2,17=6,18=5,40=1/2;
 3/5=7,8=1,11=2,16=1,17=8,25=1,30=1,71=2,74=-54,75=-5,140=1/1,2,3;
 4//1;
 5/5=2,32=2,38=5,98=1/2;
 8/6=4,10=90,11=11/1;
 11/6=1,8=1,9=11,15=111,16=1/1,2,10;
 10/6=1/2;
 6/7=2,8=2,9=2,10=2,28=1/1;
 7/8=1,10=1,25=1/1,2,3,16;
 1/10=4,30=1/3;
 99//99;
 ------
 OPT-TS
 ------
 Symbolic Z-matrix:
 Charge =  0 Multiplicity = 1
 C                    -1.05465   3.21473   0.29609 
 C                    -2.71141   1.66701  -0.19139 
 C                    -3.70002   2.64407  -0.14409 
 C                    -3.33378   3.95635   0.12326 
 C                    -1.99536   4.24421   0.34829 
 C                     0.38101   3.4064    0.59264 
 C                     2.43017   2.38406   0.96422 
 C                     3.03532   3.59702   1.26214 
 C                     2.27242   4.75648   1.20574 
 C                     0.92953   4.65717   0.87328 
 H                    -2.94531   0.62431  -0.4203 
 H                    -4.08521   4.74156   0.15997 
 H                    -1.69659   5.26459   0.57276 
 H                     2.97963   1.4421    0.97207 
 H                     2.71354   5.72735   1.42195 
 H                     0.31454   5.55241   0.82877 
 N                    -1.42814   1.95147   0.01455 
 N                     1.13918   2.28675   0.62128 
 Ir                    0.22899   0.41227  -0.0469 
 O                     0.86506  -0.2031    2.83475 
 O                     1.64676  -2.24761   0.4914 
 O                    -3.10858  -1.15263  -1.55971 
 B                     1.74835  -0.90396   0.10728 
 B                    -0.04985  -0.31475   1.78101 
 B                    -2.03667  -1.46168  -2.35344 
 O                    -1.72473  -2.7911   -2.34632 
 O                    -1.21361  -0.93863   2.23309 
 C                    -0.94945  -1.48659   3.53221 
 C                     0.19763  -0.56974   4.04692 
 C                    -3.63465  -2.38396  -1.01986 
 C                    -2.47707  -3.4126   -1.27884 
 C                     2.93378  -2.85956   0.41631 
 C                     3.89188  -1.64076   0.53153 
 O                     3.11508  -0.59334  -0.06418 
 C                    -0.31114   0.71776   4.68438 
 H                     0.53857   1.3971    4.82953 
 H                    -1.03606   1.21973   4.02907 
 H                    -0.78301   0.54037   5.66046 
 C                     1.191    -1.24631   4.97057 
 H                     0.69851  -1.61315   5.88288 
 H                     1.68543  -2.09134   4.47644 
 H                     1.9675   -0.52909   5.26828 
 C                    -2.22243  -1.44478   4.35399 
 H                    -2.64658  -0.4356    4.39824 
 H                    -2.97409  -2.1045    3.89987 
 H                    -2.03993  -1.79547   5.38036 
 C                    -0.51154  -2.93103   3.3274 
 H                    -1.32136  -3.47133   2.81901 
 H                     0.3767   -2.98199   2.68213 
 H                    -0.3052   -3.44034   4.27866 
 C                     3.05918  -3.88138   1.52972 
 H                     2.32453  -4.68347   1.37487 
 H                     4.0615   -4.33393   1.5453 
 H                     2.86262  -3.43214   2.51072 
 C                     3.02355  -3.56056  -0.93456 
 H                     2.95915  -2.83717  -1.75954 
 H                     3.95295  -4.136    -1.04573 
 H                     2.17516  -4.2504   -1.02936 
 C                     4.161    -1.22656   1.97383 
 H                     4.77755  -1.96122   2.50982 
 H                     4.70495  -0.27107   1.96718 
 H                     3.21887  -1.07427   2.51952 
 C                     5.20369  -1.78328  -0.21533 
 H                     5.80248  -2.60846   0.19742 
 H                     5.05014  -1.96887  -1.28521 
 H                     5.78889  -0.8579   -0.11552 
 C                    -1.53262  -3.58934  -0.10105 
 H                    -1.18478  -2.63482   0.31007 
 H                    -2.01548  -4.167     0.69994 
 H                    -0.64523  -4.14162  -0.43782 
 C                    -2.94391  -4.77306  -1.76051 
 H                    -3.5025   -4.7113   -2.70095 
 H                    -2.07271  -5.41931  -1.92574 
 H                    -3.58132  -5.25246  -1.0041 
 C                    -4.90285  -2.67361  -1.80872 
 H                    -5.57666  -1.81296  -1.71303 
 H                    -4.6879   -2.81389  -2.87634 
 H                    -5.42407  -3.56499  -1.4361 
 C                    -3.96453  -2.15543   0.44239 
 H                    -3.09554  -1.785     1.00249 
 H                    -4.76697  -1.40854   0.52105 
 H                    -4.3222   -3.08479   0.91001 
 H                    -0.55297  -0.88999  -0.58553 
 C                     0.84953   0.42856  -2.96201 
 O                     0.39481   1.3882   -2.313 
 C                     2.34245   0.2672   -3.16358 
 H                     2.65215  -0.7013   -2.73594 
 H                     2.56333   0.20752  -4.24256 
 C                    -1.40701  -0.39436  -3.33688 
 H                    -1.62216   0.61591  -2.97443 
 H                    -1.89296  -0.48852  -4.32377 
 N                     0.03827  -0.48602  -3.54512 
 C                     0.54219  -1.74345  -4.06481 
 H                     1.44284  -1.59314  -4.66856 
 H                     0.75792  -2.45355  -3.25121 
 H                    -0.22559  -2.19277  -4.70372 
 C                     3.15243   1.36911  -2.50796 
 H                     2.88178   2.34744  -2.93404 
 H                     2.87862   1.40494  -1.44635 
 C                     4.6486    1.13186  -2.62407 
 H                     4.87315   0.08629  -2.35082 
 H                     4.97938   1.25101  -3.67125 
 C                     5.45777   2.04978  -1.72066 
 H                     5.17503   3.09905  -1.91053 
 H                     5.17166   1.84428  -0.67445 
 C                     6.95663   1.87075  -1.89163 
 H                     7.2522    0.83122  -1.68755 
 H                     7.2671    2.10011  -2.92074 
 H                     7.53198   2.51875  -1.21828 
 C                    -5.12146   2.22679  -0.35656 
 F                    -5.55588   1.46659   0.65679 
 F                    -5.93978   3.28054  -0.4491 
 F                    -5.25632   1.50335  -1.47054 
 H                     4.08988   3.62283   1.52595 
 

 GradGradGradGradGradGradGradGradGradGradGradGradGradGradGradGradGradGrad
 Berny optimization.
 Initialization pass.
 Trust Radius=3.00D-01 FncErr=1.00D-07 GrdErr=1.00D-07 EigMax=2.50D+02 EigMin=1.00D-04
 Number of steps in this run=      2 maximum allowed number of steps=      2.
 GradGradGradGradGradGradGradGradGradGradGradGradGradGradGradGradGradGrad

 Stoichiometry    C37H60B3F3IrN3O7
 Framework group  C1[X(C37H60B3F3IrN3O7)]
 Deg. of freedom   336
 Full point group                 C1      NOp   1
 Largest Abelian subgroup         C1      NOp   1
 Largest concise Abelian subgroup C1      NOp   1
                         Standard orientation:                         
 ---------------------------------------------------------------------
 Center     Atomic      Atomic             Coordinates (Angstroms)
 Number     Number       Type             X           Y           Z
 ---------------------------------------------------------------------
      1          6           0       -1.054652    3.214730    0.296090
      2          6           0       -2.711411    1.667009   -0.191390
      3          6           0       -3.700022    2.644068   -0.144090
      4          6           0       -3.333783    3.956349    0.123260
      5          6           0       -1.995363    4.244209    0.348290
      6          6           0        0.381008    3.406401    0.592640
      7          6           0        2.430168    2.384062    0.964220
      8          6           0        3.035318    3.597022    1.262140
      9          6           0        2.272417    4.756482    1.205740
     10          6           0        0.929527    4.657171    0.873280
     11          1           0       -2.945311    0.624309   -0.420300
     12          1           0       -4.085213    4.741558    0.159970
     13          1           0       -1.696593    5.264589    0.572760
     14          1           0        2.979629    1.442102    0.972070
     15          1           0        2.713536    5.727352    1.421950
     16          1           0        0.314536    5.552411    0.828770
     17          7           0       -1.428141    1.951470    0.014550
     18          7           0        1.139178    2.286751    0.621280
     19         77           0        0.228989    0.412271   -0.046900
     20          8           0        0.865060   -0.203099    2.834750
     21          8           0        1.646761   -2.247609    0.491400
     22          8           0       -3.108580   -1.152631   -1.559710
     23          5           0        1.748350   -0.903959    0.107280
     24          5           0       -0.049850   -0.314750    1.781010
     25          5           0       -2.036670   -1.461681   -2.353440
     26          8           0       -1.724729   -2.791101   -2.346320
     27          8           0       -1.213610   -0.938630    2.233090
     28          6           0       -0.949450   -1.486590    3.532210
     29          6           0        0.197630   -0.569739    4.046920
     30          6           0       -3.634649   -2.383962   -1.019860
     31          6           0       -2.477068   -3.412601   -1.278840
     32          6           0        2.933781   -2.859558    0.416310
     33          6           0        3.891881   -1.640757    0.531530
     34          8           0        3.115080   -0.593338   -0.064180
     35          6           0       -0.311141    0.717760    4.684380
     36          1           0        0.538569    1.397101    4.829530
     37          1           0       -1.036061    1.219730    4.029070
     38          1           0       -0.783011    0.540370    5.660460
     39          6           0        1.191000   -1.246309    4.970570
     40          1           0        0.698511   -1.613149    5.882880
     41          1           0        1.685431   -2.091339    4.476440
     42          1           0        1.967500   -0.529088    5.268280
     43          6           0       -2.222430   -1.444781    4.353990
     44          1           0       -2.646580   -0.435601    4.398240
     45          1           0       -2.974089   -2.104501    3.899870
     46          1           0       -2.039929   -1.795471    5.380360
     47          6           0       -0.511539   -2.931030    3.327400
     48          1           0       -1.321358   -3.471330    2.819010
     49          1           0        0.376701   -2.981989    2.682130
     50          1           0       -0.305198   -3.440340    4.278660
     51          6           0        3.059182   -3.881378    1.529720
     52          1           0        2.324532   -4.683468    1.374870
     53          1           0        4.061502   -4.333927    1.545300
     54          1           0        2.862622   -3.432138    2.510720
     55          6           0        3.023552   -3.560558   -0.934560
     56          1           0        2.959151   -2.837168   -1.759540
     57          1           0        3.952952   -4.135997   -1.045730
     58          1           0        2.175162   -4.250398   -1.029360
     59          6           0        4.161000   -1.226557    1.973830
     60          1           0        4.777551   -1.961217    2.509820
     61          1           0        4.704950   -0.271067    1.967180
     62          1           0        3.218870   -1.074268    2.519520
     63          6           0        5.203691   -1.783277   -0.215330
     64          1           0        5.802481   -2.608456    0.197420
     65          1           0        5.050141   -1.968867   -1.285210
     66          1           0        5.788890   -0.857896   -0.115520
     67          6           0       -1.532618   -3.589340   -0.101050
     68          1           0       -1.184779   -2.634820    0.310070
     69          1           0       -2.015478   -4.167001    0.699940
     70          1           0       -0.645228   -4.141620   -0.437820
     71          6           0       -2.943908   -4.773061   -1.760510
     72          1           0       -3.502498   -4.711302   -2.700950
     73          1           0       -2.072707   -5.419311   -1.925740
     74          1           0       -3.581317   -5.252462   -1.004100
     75          6           0       -4.902849   -2.673612   -1.808720
     76          1           0       -5.576659   -1.812963   -1.713030
     77          1           0       -4.687899   -2.813892   -2.876340
     78          1           0       -5.424068   -3.564993   -1.436100
     79          6           0       -3.964529   -2.155432    0.442390
     80          1           0       -3.095539   -1.785001    1.002490
     81          1           0       -4.766970   -1.408542    0.521050
     82          1           0       -4.322199   -3.084792    0.910010
     83          1           0       -0.552970   -0.889990   -0.585530
     84          6           0        0.849529    0.428561   -2.962010
     85          8           0        0.394809    1.388201   -2.313000
     86          6           0        2.342449    0.267202   -3.163580
     87          1           0        2.652150   -0.701298   -2.735940
     88          1           0        2.563330    0.207522   -4.242560
     89          6           0       -1.407010   -0.394360   -3.336880
     90          1           0       -1.622161    0.615910   -2.974430
     91          1           0       -1.892960   -0.488521   -4.323770
     92          7           0        0.038270   -0.486020   -3.545120
     93          6           0        0.542191   -1.743449   -4.064810
     94          1           0        1.442841   -1.593139   -4.668560
     95          1           0        0.757921   -2.453549   -3.251210
     96          1           0       -0.225589   -2.192770   -4.703720
     97          6           0        3.152429    1.369112   -2.507960
     98          1           0        2.881778    2.347442   -2.934040
     99          1           0        2.878619    1.404942   -1.446350
    100          6           0        4.648599    1.131863   -2.624070
    101          1           0        4.873150    0.086293   -2.350820
    102          1           0        4.979379    1.251013   -3.671250
    103          6           0        5.457768    2.049784   -1.720660
    104          1           0        5.175028    3.099053   -1.910530
    105          1           0        5.171659    1.844283   -0.674450
    106          6           0        6.956629    1.870754   -1.891630
    107          1           0        7.252199    0.831225   -1.687550
    108          1           0        7.267098    2.100115   -2.920740
    109          1           0        7.531978    2.518755   -1.218280
    110          6           0       -5.121462    2.226788   -0.356560
    111          9           0       -5.555881    1.466587    0.656790
    112          9           0       -5.939782    3.280537   -0.449100
    113          9           0       -5.256321    1.503347   -1.470540
    114          1           0        4.089878    3.622833    1.525950
 ---------------------------------------------------------------------
 Rotational constants (GHZ):           0.0626357           0.0455015           0.0419253
 General basis read from cards:  (5D, 7F)
 ======================================================================================================
                                       Pseudopotential Parameters
 ======================================================================================================
  Center     Atomic      Valence      Angular      Power
  Number     Number     Electrons     Momentum     of R      Exponent        Coefficient   SO-Coeffient
 ======================================================================================================
    1          6
                                   No pseudopotential on this center.
    2          6
                                   No pseudopotential on this center.
    3          6
                                   No pseudopotential on this center.
    4          6
                                   No pseudopotential on this center.
    5          6
                                   No pseudopotential on this center.
    6          6
                                   No pseudopotential on this center.
    7          6
                                   No pseudopotential on this center.
    8          6
                                   No pseudopotential on this center.
    9          6
                                   No pseudopotential on this center.
   10          6
                                   No pseudopotential on this center.
   11          1
                                   No pseudopotential on this center.
   12          1
                                   No pseudopotential on this center.
   13          1
                                   No pseudopotential on this center.
   14          1
                                   No pseudopotential on this center.
   15          1
                                   No pseudopotential on this center.
   16          1
                                   No pseudopotential on this center.
   17          7
                                   No pseudopotential on this center.
   18          7
                                   No pseudopotential on this center.
   19         77           17
                                      G and up 
                                                     1      823.5880147       -0.15780140    0.00000000
                                                     2      364.6613336    -1517.52704460    0.00000000
                                                     2       55.7082801     -316.53065290    0.00000000
                                                     2       12.0464544      -91.88809410    0.00000000
                                                     2        3.5120610       -9.22417730    0.00000000
                                      S - G
                                                     0      188.0490770        3.15780140    0.00000000
                                                     1      340.4194712       26.83225770    0.00000000
                                                     2      128.2373673      800.42500070    0.00000000
                                                     2       33.8644961      369.40506830    0.00000000
                                                     2        4.7560005      242.41718990    0.00000000
                                                     2        3.9649974     -118.21732820    0.00000000
                                      P - G
                                                     0      289.7291139        2.15780140    0.00000000
                                                     1       87.4633789       61.96786100    0.00000000
                                                     2       30.4363766      269.05819860    0.00000000
                                                     2        4.0553412      231.16547930    0.00000000
                                                     2        3.5525341     -133.69526670    0.00000000
                                      D - G
                                                     0      136.4017106        3.15780140    0.00000000
                                                     1       95.0776925       45.93498030    0.00000000
                                                     2       49.2258410      359.03446680    0.00000000
                                                     2       15.0874145      176.47401190    0.00000000
                                                     2        4.0405764       54.51552860    0.00000000
                                      F - G
                                                     0      127.3507908        3.95461970    0.00000000
                                                     1       66.2364374       52.97736550    0.00000000
                                                     2       34.4299229      274.86433830    0.00000000
                                                     2       10.1995721      137.20473380    0.00000000
                                                     2        2.5409702       14.86333050    0.00000000
   20          8
                                   No pseudopotential on this center.
   21          8
                                   No pseudopotential on this center.
   22          8
                                   No pseudopotential on this center.
   23          5
                                   No pseudopotential on this center.
   24          5
                                   No pseudopotential on this center.
   25          5
                                   No pseudopotential on this center.
   26          8
                                   No pseudopotential on this center.
   27          8
                                   No pseudopotential on this center.
   28          6
                                   No pseudopotential on this center.
   29          6
                                   No pseudopotential on this center.
   30          6
                                   No pseudopotential on this center.
   31          6
                                   No pseudopotential on this center.
   32          6
                                   No pseudopotential on this center.
   33          6
                                   No pseudopotential on this center.
   34          8
                                   No pseudopotential on this center.
   35          6
                                   No pseudopotential on this center.
   36          1
                                   No pseudopotential on this center.
   37          1
                                   No pseudopotential on this center.
   38          1
                                   No pseudopotential on this center.
   39          6
                                   No pseudopotential on this center.
   40          1
                                   No pseudopotential on this center.
   41          1
                                   No pseudopotential on this center.
   42          1
                                   No pseudopotential on this center.
   43          6
                                   No pseudopotential on this center.
   44          1
                                   No pseudopotential on this center.
   45          1
                                   No pseudopotential on this center.
   46          1
                                   No pseudopotential on this center.
   47          6
                                   No pseudopotential on this center.
   48          1
                                   No pseudopotential on this center.
   49          1
                                   No pseudopotential on this center.
   50          1
                                   No pseudopotential on this center.
   51          6
                                   No pseudopotential on this center.
   52          1
                                   No pseudopotential on this center.
   53          1
                                   No pseudopotential on this center.
   54          1
                                   No pseudopotential on this center.
   55          6
                                   No pseudopotential on this center.
   56          1
                                   No pseudopotential on this center.
   57          1
                                   No pseudopotential on this center.
   58          1
                                   No pseudopotential on this center.
   59          6
                                   No pseudopotential on this center.
   60          1
                                   No pseudopotential on this center.
   61          1
                                   No pseudopotential on this center.
   62          1
                                   No pseudopotential on this center.
   63          6
                                   No pseudopotential on this center.
   64          1
                                   No pseudopotential on this center.
   65          1
                                   No pseudopotential on this center.
   66          1
                                   No pseudopotential on this center.
   67          6
                                   No pseudopotential on this center.
   68          1
                                   No pseudopotential on this center.
   69          1
                                   No pseudopotential on this center.
   70          1
                                   No pseudopotential on this center.
   71          6
                                   No pseudopotential on this center.
   72          1
                                   No pseudopotential on this center.
   73          1
                                   No pseudopotential on this center.
   74          1
                                   No pseudopotential on this center.
   75          6
                                   No pseudopotential on this center.
   76          1
                                   No pseudopotential on this center.
   77          1
                                   No pseudopotential on this center.
   78          1
                                   No pseudopotential on this center.
   79          6
                                   No pseudopotential on this center.
   80          1
                                   No pseudopotential on this center.
   81          1
                                   No pseudopotential on this center.
   82          1
                                   No pseudopotential on this center.
   83          1
                                   No pseudopotential on this center.
   84          6
                                   No pseudopotential on this center.
   85          8
                                   No pseudopotential on this center.
   86          6
                                   No pseudopotential on this center.
   87          1
                                   No pseudopotential on this center.
   88          1
                                   No pseudopotential on this center.
   89          6
                                   No pseudopotential on this center.
   90          1
                                   No pseudopotential on this center.
   91          1
                                   No pseudopotential on this center.
   92          7
                                   No pseudopotential on this center.
   93          6
                                   No pseudopotential on this center.
   94          1
                                   No pseudopotential on this center.
   95          1
                                   No pseudopotential on this center.
   96          1
                                   No pseudopotential on this center.
   97          6
                                   No pseudopotential on this center.
   98          1
                                   No pseudopotential on this center.
   99          1
                                   No pseudopotential on this center.
  100          6
                                   No pseudopotential on this center.
  101          1
                                   No pseudopotential on this center.
  102          1
                                   No pseudopotential on this center.
  103          6
                                   No pseudopotential on this center.
  104          1
                                   No pseudopotential on this center.
  105          1
                                   No pseudopotential on this center.
  106          6
                                   No pseudopotential on this center.
  107          1
                                   No pseudopotential on this center.
  108          1
                                   No pseudopotential on this center.
  109          1
                                   No pseudopotential on this center.
  110          6
                                   No pseudopotential on this center.
  111          9
                                   No pseudopotential on this center.
  112          9
                                   No pseudopotential on this center.
  113          9
                                   No pseudopotential on this center.
  114          1
                                   No pseudopotential on this center.
 ======================================================================================================
 There are   939 symmetry adapted cartesian basis functions of A   symmetry.
 There are   884 symmetry adapted basis functions of A   symmetry.
   884 basis functions,  1767 primitive gaussians,   939 cartesian basis functions
   209 alpha electrons      209 beta electrons
       nuclear repulsion energy      9332.5926110501 Hartrees.
 NAtoms=  114 NActive=  114 NUniq=  114 SFac= 1.00D+00 NAtFMM=   60 NAOKFM=T Big=T
 Integral buffers will be    131072 words long.
 Raffenetti 2 integral format.
 Two-electron integral symmetry is turned on.
 One-electron integrals computed using PRISM.
   1 Symmetry operations used in ECPInt.
 ECPInt:  NShTT=   57970 NPrTT=  353525 LenC2=   43965 LenP2D=  134388.
 LDataN:  DoStor=T MaxTD1= 6 Len=  172
 NBasis=   884 RedAO= T EigKep=  4.64D-04  NBF=   884
 NBsUse=   884 1.00D-06 EigRej= -1.00D+00 NBFU=   884
 Defaulting to unpruned grid for atomic number  77.
 ExpMin= 2.90D-02 ExpMax= 7.00D+03 ExpMxC= 1.05D+03 IAcc=3 IRadAn=         5 AccDes= 0.00D+00
 Harris functional with IExCor= 1009 and IRadAn=       5 diagonalized for initial guess.
 HarFok:  IExCor= 1009 AccDes= 0.00D+00 IRadAn=         5 IDoV= 1 UseB2=F ITyADJ=14
 ICtDFT=  3500011 ScaDFX=  1.000000  1.000000  1.000000  1.000000
 Defaulting to unpruned grid for atomic number  77.
 FoFCou: FMM=F IPFlag=           0 FMFlag=      100000 FMFlg1=        2001
         NFxFlg=           0 DoJE=T BraDBF=F KetDBF=T FulRan=T
         wScrn=  0.000000 ICntrl=       500 IOpCl=  0 I1Cent=   200000004 NGrid=           0
         NMat0=    1 NMatS0=      1 NMatT0=    0 NMatD0=    1 NMtDS0=    0 NMtDT0=    0
 Petite list used in FoFCou.
 Requested convergence on RMS density matrix=1.00D-08 within 128 cycles.
 Requested convergence on MAX density matrix=1.00D-06.
 Requested convergence on             energy=1.00D-06.
 No special actions if energy rises.
 Defaulting to unpruned grid for atomic number  77.
 Defaulting to unpruned grid for atomic number  77.
 Defaulting to unpruned grid for atomic number  77.
 Defaulting to unpruned grid for atomic number  77.
 Defaulting to unpruned grid for atomic number  77.
 Defaulting to unpruned grid for atomic number  77.
 Defaulting to unpruned grid for atomic number  77.
 Defaulting to unpruned grid for atomic number  77.
 Defaulting to unpruned grid for atomic number  77.
 Defaulting to unpruned grid for atomic number  77.
 Defaulting to unpruned grid for atomic number  77.
 Defaulting to unpruned grid for atomic number  77.
 Defaulting to unpruned grid for atomic number  77.
 Defaulting to unpruned grid for atomic number  77.
 Defaulting to unpruned grid for atomic number  77.
 Defaulting to unpruned grid for atomic number  77.
 SCF Done:  E(RM06) =  -2614.48813886     A.U. after   16 cycles
            NFock= 16  Conv=0.59D-08     -V/T= 2.0344
 DoSCS=F DFT=T ScalE2(SS,OS)=  1.000000  1.000000
 Range of M.O.s used for correlation:     1   884
 NBasis=   884 NAE=   209 NBE=   209 NFC=     0 NFV=     0
 NROrb=    884 NOA=   209 NOB=   209 NVA=   675 NVB=   675
   1 Symmetry operations used in ECPInt.
 ECPInt:  NShTT=   57970 NPrTT=  353525 LenC2=   43965 LenP2D=  134388.
 LDataN:  DoStor=T MaxTD1= 7 Len=  274
 Number of processors reduced to   7 by ecpmxn.
 Symmetrizing basis deriv contribution to polar:
 IMax=3 JMax=2 DiffMx= 0.00D+00
 G2DrvN: will do   115 centers at a time, making    1 passes.
 Calling FoFCou, ICntrl=  3107 FMM=T I1Cent=   0 AccDes= 0.00D+00.
 Defaulting to unpruned grid for atomic number  77.
 Defaulting to unpruned grid for atomic number  77.
 Defaulting to unpruned grid for atomic number  77.
 Defaulting to unpruned grid for atomic number  77.
 Defaulting to unpruned grid for atomic number  77.
 Defaulting to unpruned grid for atomic number  77.
 Defaulting to unpruned grid for atomic number  77.
 Defaulting to unpruned grid for atomic number  77.
 Defaulting to unpruned grid for atomic number  77.
 Defaulting to unpruned grid for atomic number  77.
 Defaulting to unpruned grid for atomic number  77.
 Defaulting to unpruned grid for atomic number  77.
 Defaulting to unpruned grid for atomic number  77.
 Defaulting to unpruned grid for atomic number  77.
 Defaulting to unpruned grid for atomic number  77.
 Defaulting to unpruned grid for atomic number  77.
 End of G2Drv F.D. properties file   721 does not exist.
 End of G2Drv F.D. properties file   722 does not exist.
 End of G2Drv F.D. properties file   788 does not exist.
          IDoAtm=11111111111111111111111111111111111111111111111111
          IDoAtm=11111111111111111111111111111111111111111111111111
          IDoAtm=11111111111111
          Differentiating once with respect to electric field.
                with respect to dipole field.
          Differentiating once with respect to nuclear coordinates.
 Defaulting to unpruned grid for atomic number  77.
 CalDSu exits because no D1Ps are significant.
 Defaulting to unpruned grid for atomic number  77.
 Defaulting to unpruned grid for atomic number  77.
 Defaulting to unpruned grid for atomic number  77.
 Defaulting to unpruned grid for atomic number  77.
 Defaulting to unpruned grid for atomic number  77.
 Defaulting to unpruned grid for atomic number  77.
 Defaulting to unpruned grid for atomic number  77.
 Defaulting to unpruned grid for atomic number  77.
 Defaulting to unpruned grid for atomic number  77.
 Defaulting to unpruned grid for atomic number  77.
 Defaulting to unpruned grid for atomic number  77.
 Defaulting to unpruned grid for atomic number  77.
 Defaulting to unpruned grid for atomic number  77.
 Defaulting to unpruned grid for atomic number  77.
 Defaulting to unpruned grid for atomic number  77.
 Defaulting to unpruned grid for atomic number  77.
          There are   345 degrees of freedom in the 1st order CPHF.  IDoFFX=6 NUNeed=     3.
    342 vectors produced by pass  0 Test12= 1.41D-13 1.00D-09 XBig12= 5.11D+02 9.07D+00.
 AX will form    72 AO Fock derivatives at one time.
    342 vectors produced by pass  1 Test12= 1.41D-13 1.00D-09 XBig12= 7.16D+01 9.30D-01.
    342 vectors produced by pass  2 Test12= 1.41D-13 1.00D-09 XBig12= 8.97D-01 1.17D-01.
    342 vectors produced by pass  3 Test12= 1.41D-13 1.00D-09 XBig12= 5.71D-03 9.14D-03.
    342 vectors produced by pass  4 Test12= 1.41D-13 1.00D-09 XBig12= 2.29D-05 5.76D-04.
    299 vectors produced by pass  5 Test12= 1.41D-13 1.00D-09 XBig12= 4.96D-08 2.02D-05.
     68 vectors produced by pass  6 Test12= 1.41D-13 1.00D-09 XBig12= 7.26D-11 6.94D-07.
      3 vectors produced by pass  7 Test12= 1.41D-13 1.00D-09 XBig12= 9.95D-14 1.84D-08.
 InvSVY:  IOpt=1 It=  1 EMax= 1.42D-14
 Solved reduced A of dimension  2080 with   345 vectors.
 Isotropic polarizability for W=    0.000000      509.18 Bohr**3.
 End of Minotr F.D. properties file   721 does not exist.
 End of Minotr F.D. properties file   722 does not exist.
 End of Minotr F.D. properties file   788 does not exist.
 Hyperfine terms turned off by default for NAtoms > 100.

 **********************************************************************

            Population analysis using the SCF Density.

 **********************************************************************

 Orbital symmetries:
       Occupied  (A) (A) (A) (A) (A) (A) (A) (A) (A) (A) (A) (A)
                 (A) (A) (A) (A) (A) (A) (A) (A) (A) (A) (A) (A)
                 (A) (A) (A) (A) (A) (A) (A) (A) (A) (A) (A) (A)
                 (A) (A) (A) (A) (A) (A) (A) (A) (A) (A) (A) (A)
                 (A) (A) (A) (A) (A) (A) (A) (A) (A) (A) (A) (A)
                 (A) (A) (A) (A) (A) (A) (A) (A) (A) (A) (A) (A)
                 (A) (A) (A) (A) (A) (A) (A) (A) (A) (A) (A) (A)
                 (A) (A) (A) (A) (A) (A) (A) (A) (A) (A) (A) (A)
                 (A) (A) (A) (A) (A) (A) (A) (A) (A) (A) (A) (A)
                 (A) (A) (A) (A) (A) (A) (A) (A) (A) (A) (A) (A)
                 (A) (A) (A) (A) (A) (A) (A) (A) (A) (A) (A) (A)
                 (A) (A) (A) (A) (A) (A) (A) (A) (A) (A) (A) (A)
                 (A) (A) (A) (A) (A) (A) (A) (A) (A) (A) (A) (A)
                 (A) (A) (A) (A) (A) (A) (A) (A) (A) (A) (A) (A)
                 (A) (A) (A) (A) (A) (A) (A) (A) (A) (A) (A) (A)
                 (A) (A) (A) (A) (A) (A) (A) (A) (A) (A) (A) (A)
                 (A) (A) (A) (A) (A) (A) (A) (A) (A) (A) (A) (A)
                 (A) (A) (A) (A) (A)
       Virtual   (A) (A) (A) (A) (A) (A) (A) (A) (A) (A) (A) (A)
                 (A) (A) (A) (A) (A) (A) (A) (A) (A) (A) (A) (A)
                 (A) (A) (A) (A) (A) (A) (A) (A) (A) (A) (A) (A)
                 (A) (A) (A) (A) (A) (A) (A) (A) (A) (A) (A) (A)
                 (A) (A) (A) (A) (A) (A) (A) (A) (A) (A) (A) (A)
                 (A) (A) (A) (A) (A) (A) (A) (A) (A) (A) (A) (A)
                 (A) (A) (A) (A) (A) (A) (A) (A) (A) (A) (A) (A)
                 (A) (A) (A) (A) (A) (A) (A) (A) (A) (A) (A) (A)
                 (A) (A) (A) (A) (A) (A) (A) (A) (A) (A) (A) (A)
                 (A) (A) (A) (A) (A) (A) (A) (A) (A) (A) (A) (A)
                 (A) (A) (A) (A) (A) (A) (A) (A) (A) (A) (A) (A)
                 (A) (A) (A) (A) (A) (A) (A) (A) (A) (A) (A) (A)
                 (A) (A) (A) (A) (A) (A) (A) (A) (A) (A) (A) (A)
                 (A) (A) (A) (A) (A) (A) (A) (A) (A) (A) (A) (A)
                 (A) (A) (A) (A) (A) (A) (A) (A) (A) (A) (A) (A)
                 (A) (A) (A) (A) (A) (A) (A) (A) (A) (A) (A) (A)
                 (A) (A) (A) (A) (A) (A) (A) (A) (A) (A) (A) (A)
                 (A) (A) (A) (A) (A) (A) (A) (A) (A) (A) (A) (A)
                 (A) (A) (A) (A) (A) (A) (A) (A) (A) (A) (A) (A)
                 (A) (A) (A) (A) (A) (A) (A) (A) (A) (A) (A) (A)
                 (A) (A) (A) (A) (A) (A) (A) (A) (A) (A) (A) (A)
                 (A) (A) (A) (A) (A) (A) (A) (A) (A) (A) (A) (A)
                 (A) (A) (A) (A) (A) (A) (A) (A) (A) (A) (A) (A)
                 (A) (A) (A) (A) (A) (A) (A) (A) (A) (A) (A) (A)
                 (A) (A) (A) (A) (A) (A) (A) (A) (A) (A) (A) (A)
                 (A) (A) (A) (A) (A) (A) (A) (A) (A) (A) (A) (A)
                 (A) (A) (A) (A) (A) (A) (A) (A) (A) (A) (A) (A)
                 (A) (A) (A) (A) (A) (A) (A) (A) (A) (A) (A) (A)
                 (A) (A) (A) (A) (A) (A) (A) (A) (A) (A) (A) (A)
                 (A) (A) (A) (A) (A) (A) (A) (A) (A) (A) (A) (A)
                 (A) (A) (A) (A) (A) (A) (A) (A) (A) (A) (A) (A)
                 (A) (A) (A) (A) (A) (A) (A) (A) (A) (A) (A) (A)
                 (A) (A) (A) (A) (A) (A) (A) (A) (A) (A) (A) (A)
                 (A) (A) (A) (A) (A) (A) (A) (A) (A) (A) (A) (A)
                 (A) (A) (A) (A) (A) (A) (A) (A) (A) (A) (A) (A)
                 (A) (A) (A) (A) (A) (A) (A) (A) (A) (A) (A) (A)
                 (A) (A) (A) (A) (A) (A) (A) (A) (A) (A) (A) (A)
                 (A) (A) (A) (A) (A) (A) (A) (A) (A) (A) (A) (A)
                 (A) (A) (A) (A) (A) (A) (A) (A) (A) (A) (A) (A)
                 (A) (A) (A) (A) (A) (A) (A) (A) (A) (A) (A) (A)
                 (A) (A) (A) (A) (A) (A) (A) (A) (A) (A) (A) (A)
                 (A) (A) (A) (A) (A) (A) (A) (A) (A) (A) (A) (A)
                 (A) (A) (A) (A) (A) (A) (A) (A) (A) (A) (A) (A)
                 (A) (A) (A) (A) (A) (A) (A) (A) (A) (A) (A) (A)
                 (A) (A) (A) (A) (A) (A) (A) (A) (A) (A) (A) (A)
                 (A) (A) (A) (A) (A) (A) (A) (A) (A) (A) (A) (A)
                 (A) (A) (A) (A) (A) (A) (A) (A) (A) (A) (A) (A)
                 (A) (A) (A) (A) (A) (A) (A) (A) (A) (A) (A) (A)
                 (A) (A) (A) (A) (A) (A) (A) (A) (A) (A) (A) (A)
                 (A) (A) (A) (A) (A) (A) (A) (A) (A) (A) (A) (A)
                 (A) (A) (A) (A) (A) (A) (A) (A) (A) (A) (A) (A)
                 (A) (A) (A) (A) (A) (A) (A) (A) (A) (A) (A) (A)
                 (A) (A) (A) (A) (A) (A) (A) (A) (A) (A) (A) (A)
                 (A) (A) (A) (A) (A) (A) (A) (A) (A) (A) (A) (A)
                 (A) (A) (A) (A) (A) (A) (A) (A) (A) (A) (A) (A)
                 (A) (A) (A) (A) (A) (A) (A) (A) (A) (A) (A) (A)
                 (A) (A) (A)
 The electronic state is 1-A.
 Alpha  occ. eigenvalues --  -24.82793 -24.82125 -24.82057 -19.21652 -19.21507
 Alpha  occ. eigenvalues --  -19.19511 -19.19374 -19.19355 -19.18940 -19.18922
 Alpha  occ. eigenvalues --  -14.44622 -14.44316 -14.42267 -10.50860 -10.34322
 Alpha  occ. eigenvalues --  -10.32284 -10.31630 -10.30369 -10.29892 -10.29701
 Alpha  occ. eigenvalues --  -10.29567 -10.29511 -10.28826 -10.28734 -10.28723
 Alpha  occ. eigenvalues --  -10.28600 -10.28568 -10.28541 -10.28441 -10.28015
 Alpha  occ. eigenvalues --  -10.27341 -10.26759 -10.24520 -10.23956 -10.23143
 Alpha  occ. eigenvalues --  -10.22786 -10.22711 -10.22681 -10.22621 -10.22554
 Alpha  occ. eigenvalues --  -10.22451 -10.22372 -10.22269 -10.22182 -10.22145
 Alpha  occ. eigenvalues --  -10.21988 -10.21842 -10.21717 -10.21333 -10.20728
 Alpha  occ. eigenvalues --   -6.81282  -6.78539  -6.77751  -3.59721  -2.02385
 Alpha  occ. eigenvalues --   -2.01800  -2.00791  -1.35220  -1.26752  -1.26157
 Alpha  occ. eigenvalues --   -1.07350  -1.05305  -1.05078  -1.04400  -1.00781
 Alpha  occ. eigenvalues --   -0.99847  -0.98378  -0.98165  -0.97284  -0.93829
 Alpha  occ. eigenvalues --   -0.85709  -0.83604  -0.82963  -0.80721  -0.80560
 Alpha  occ. eigenvalues --   -0.79816  -0.79706  -0.78653  -0.76665  -0.74893
 Alpha  occ. eigenvalues --   -0.74334  -0.74246  -0.73272  -0.71952  -0.70622
 Alpha  occ. eigenvalues --   -0.70097  -0.70027  -0.69821  -0.68268  -0.68173
 Alpha  occ. eigenvalues --   -0.67304  -0.67148  -0.67084  -0.66904  -0.64880
 Alpha  occ. eigenvalues --   -0.63898  -0.61638  -0.61192  -0.61141  -0.61076
 Alpha  occ. eigenvalues --   -0.60726  -0.60202  -0.59929  -0.57248  -0.56660
 Alpha  occ. eigenvalues --   -0.55520  -0.54388  -0.53935  -0.53788  -0.53388
 Alpha  occ. eigenvalues --   -0.52872  -0.52782  -0.52395  -0.51858  -0.49879
 Alpha  occ. eigenvalues --   -0.49852  -0.48958  -0.48686  -0.48591  -0.48301
 Alpha  occ. eigenvalues --   -0.47868  -0.47556  -0.46951  -0.46838  -0.46328
 Alpha  occ. eigenvalues --   -0.46252  -0.46098  -0.45856  -0.45695  -0.45622
 Alpha  occ. eigenvalues --   -0.45323  -0.44661  -0.44647  -0.44346  -0.44138
 Alpha  occ. eigenvalues --   -0.44035  -0.43808  -0.43692  -0.43416  -0.42963
 Alpha  occ. eigenvalues --   -0.42905  -0.42739  -0.42554  -0.42474  -0.42077
 Alpha  occ. eigenvalues --   -0.40569  -0.40489  -0.40395  -0.40153  -0.39900
 Alpha  occ. eigenvalues --   -0.39801  -0.39749  -0.39674  -0.39658  -0.39537
 Alpha  occ. eigenvalues --   -0.39473  -0.39403  -0.39276  -0.39127  -0.38859
 Alpha  occ. eigenvalues --   -0.38726  -0.38550  -0.38337  -0.37956  -0.37252
 Alpha  occ. eigenvalues --   -0.37120  -0.36977  -0.36827  -0.36258  -0.36215
 Alpha  occ. eigenvalues --   -0.36114  -0.35987  -0.35724  -0.35669  -0.35386
 Alpha  occ. eigenvalues --   -0.35321  -0.34946  -0.34695  -0.34438  -0.34209
 Alpha  occ. eigenvalues --   -0.34018  -0.33531  -0.33301  -0.33247  -0.32970
 Alpha  occ. eigenvalues --   -0.32760  -0.32224  -0.32068  -0.31947  -0.31599
 Alpha  occ. eigenvalues --   -0.31188  -0.30842  -0.30647  -0.30385  -0.30335
 Alpha  occ. eigenvalues --   -0.29650  -0.29246  -0.27887  -0.27220  -0.26800
 Alpha  occ. eigenvalues --   -0.26563  -0.26064  -0.25412  -0.24972  -0.24333
 Alpha  occ. eigenvalues --   -0.23368  -0.20094  -0.19398  -0.18481
 Alpha virt. eigenvalues --   -0.07274  -0.03910  -0.02733   0.01161   0.03119
 Alpha virt. eigenvalues --    0.03655   0.05042   0.05802   0.06601   0.06914
 Alpha virt. eigenvalues --    0.07753   0.08426   0.09158   0.09609   0.10040
 Alpha virt. eigenvalues --    0.10440   0.10896   0.10970   0.11046   0.11733
 Alpha virt. eigenvalues --    0.11988   0.12248   0.12289   0.12676   0.12852
 Alpha virt. eigenvalues --    0.13131   0.13461   0.13582   0.13653   0.14303
 Alpha virt. eigenvalues --    0.14475   0.15074   0.15263   0.15451   0.15712
 Alpha virt. eigenvalues --    0.15877   0.16062   0.16138   0.16356   0.16557
 Alpha virt. eigenvalues --    0.16710   0.16997   0.17186   0.17303   0.17396
 Alpha virt. eigenvalues --    0.17728   0.17827   0.18066   0.18204   0.18403
 Alpha virt. eigenvalues --    0.18731   0.18892   0.18954   0.19233   0.19276
 Alpha virt. eigenvalues --    0.19365   0.19571   0.19783   0.20038   0.20272
 Alpha virt. eigenvalues --    0.20322   0.20419   0.20869   0.21011   0.21202
 Alpha virt. eigenvalues --    0.21335   0.21500   0.21760   0.22121   0.22179
 Alpha virt. eigenvalues --    0.22459   0.22733   0.22936   0.23124   0.23512
 Alpha virt. eigenvalues --    0.23588   0.23993   0.24196   0.24318   0.24518
 Alpha virt. eigenvalues --    0.24615   0.24907   0.25065   0.25271   0.25477
 Alpha virt. eigenvalues --    0.25944   0.26070   0.26133   0.26432   0.26575
 Alpha virt. eigenvalues --    0.26645   0.27044   0.27361   0.27567   0.27743
 Alpha virt. eigenvalues --    0.28252   0.28499   0.28765   0.28901   0.28942
 Alpha virt. eigenvalues --    0.29520   0.29638   0.30027   0.30474   0.31054
 Alpha virt. eigenvalues --    0.31205   0.31634   0.32253   0.32429   0.33533
 Alpha virt. eigenvalues --    0.34317   0.34603   0.35090   0.35667   0.36095
 Alpha virt. eigenvalues --    0.36628   0.37448   0.37704   0.38406   0.38675
 Alpha virt. eigenvalues --    0.39436   0.39999   0.40716   0.40998   0.42023
 Alpha virt. eigenvalues --    0.42206   0.43615   0.45645   0.46708   0.47237
 Alpha virt. eigenvalues --    0.48036   0.48459   0.49093   0.49812   0.50113
 Alpha virt. eigenvalues --    0.50552   0.50940   0.51303   0.51393   0.51664
 Alpha virt. eigenvalues --    0.51904   0.52321   0.52751   0.52855   0.53391
 Alpha virt. eigenvalues --    0.53583   0.53977   0.54246   0.54435   0.54645
 Alpha virt. eigenvalues --    0.55131   0.55399   0.56133   0.56309   0.56532
 Alpha virt. eigenvalues --    0.56760   0.57254   0.57725   0.57832   0.57947
 Alpha virt. eigenvalues --    0.58137   0.58443   0.58652   0.58749   0.58944
 Alpha virt. eigenvalues --    0.59083   0.59344   0.59604   0.60141   0.60224
 Alpha virt. eigenvalues --    0.60463   0.60921   0.61306   0.61741   0.61930
 Alpha virt. eigenvalues --    0.62576   0.62797   0.62828   0.63086   0.63522
 Alpha virt. eigenvalues --    0.63823   0.64301   0.64454   0.64584   0.64981
 Alpha virt. eigenvalues --    0.65311   0.65923   0.66028   0.66154   0.66435
 Alpha virt. eigenvalues --    0.66887   0.67261   0.67825   0.68113   0.68306
 Alpha virt. eigenvalues --    0.68907   0.69153   0.69614   0.69845   0.70194
 Alpha virt. eigenvalues --    0.70248   0.70629   0.70800   0.70995   0.71363
 Alpha virt. eigenvalues --    0.72015   0.72466   0.72923   0.73222   0.73557
 Alpha virt. eigenvalues --    0.73768   0.74114   0.74301   0.74556   0.74887
 Alpha virt. eigenvalues --    0.74998   0.75378   0.75598   0.76013   0.76529
 Alpha virt. eigenvalues --    0.76839   0.77238   0.77668   0.78124   0.78419
 Alpha virt. eigenvalues --    0.78723   0.78786   0.79213   0.79852   0.80226
 Alpha virt. eigenvalues --    0.80394   0.81008   0.81351   0.81915   0.82279
 Alpha virt. eigenvalues --    0.82471   0.82553   0.83061   0.83341   0.83747
 Alpha virt. eigenvalues --    0.84279   0.84404   0.84836   0.84958   0.85145
 Alpha virt. eigenvalues --    0.85227   0.85673   0.85876   0.86033   0.86294
 Alpha virt. eigenvalues --    0.86650   0.86799   0.87235   0.87403   0.87615
 Alpha virt. eigenvalues --    0.87829   0.88016   0.88246   0.88425   0.88605
 Alpha virt. eigenvalues --    0.88984   0.89300   0.89470   0.89589   0.89895
 Alpha virt. eigenvalues --    0.90272   0.90575   0.91085   0.91192   0.91386
 Alpha virt. eigenvalues --    0.91818   0.92000   0.92046   0.92413   0.92481
 Alpha virt. eigenvalues --    0.92826   0.93095   0.93359   0.93476   0.93916
 Alpha virt. eigenvalues --    0.94500   0.94686   0.94883   0.95148   0.95495
 Alpha virt. eigenvalues --    0.95722   0.95946   0.96264   0.96446   0.97060
 Alpha virt. eigenvalues --    0.97287   0.97434   0.97725   0.98299   0.98425
 Alpha virt. eigenvalues --    0.98672   0.99339   0.99704   1.00221   1.00390
 Alpha virt. eigenvalues --    1.00873   1.01120   1.01685   1.02194   1.02887
 Alpha virt. eigenvalues --    1.03280   1.03386   1.03917   1.04189   1.05022
 Alpha virt. eigenvalues --    1.05646   1.05894   1.06276   1.06402   1.07113
 Alpha virt. eigenvalues --    1.07313   1.07882   1.08932   1.09394   1.09865
 Alpha virt. eigenvalues --    1.10451   1.10633   1.11215   1.11658   1.12090
 Alpha virt. eigenvalues --    1.12908   1.13329   1.14071   1.14428   1.14825
 Alpha virt. eigenvalues --    1.15721   1.16662   1.17169   1.17569   1.18610
 Alpha virt. eigenvalues --    1.18692   1.19273   1.20197   1.20447   1.20586
 Alpha virt. eigenvalues --    1.21233   1.21900   1.22288   1.22984   1.23190
 Alpha virt. eigenvalues --    1.23710   1.24388   1.24839   1.25253   1.25576
 Alpha virt. eigenvalues --    1.26461   1.26904   1.27925   1.28075   1.29144
 Alpha virt. eigenvalues --    1.30103   1.30839   1.31768   1.32086   1.32145
 Alpha virt. eigenvalues --    1.33011   1.33807   1.34457   1.35033   1.35115
 Alpha virt. eigenvalues --    1.35644   1.35768   1.36759   1.37400   1.37618
 Alpha virt. eigenvalues --    1.37973   1.38188   1.38969   1.39450   1.39620
 Alpha virt. eigenvalues --    1.40439   1.40960   1.41313   1.41866   1.42270
 Alpha virt. eigenvalues --    1.42483   1.43211   1.43347   1.44383   1.45176
 Alpha virt. eigenvalues --    1.45422   1.45744   1.46104   1.46317   1.46551
 Alpha virt. eigenvalues --    1.47018   1.47582   1.47872   1.48907   1.49696
 Alpha virt. eigenvalues --    1.50153   1.50478   1.50600   1.51202   1.51532
 Alpha virt. eigenvalues --    1.52089   1.53104   1.54264   1.55491   1.55798
 Alpha virt. eigenvalues --    1.56062   1.57342   1.57463   1.58594   1.59361
 Alpha virt. eigenvalues --    1.60566   1.60858   1.61005   1.62453   1.63370
 Alpha virt. eigenvalues --    1.63974   1.64308   1.64741   1.65161   1.66059
 Alpha virt. eigenvalues --    1.66378   1.67302   1.68110   1.68220   1.69350
 Alpha virt. eigenvalues --    1.69942   1.70167   1.70335   1.71196   1.71375
 Alpha virt. eigenvalues --    1.71970   1.72167   1.72436   1.74528   1.75195
 Alpha virt. eigenvalues --    1.75618   1.76122   1.76361   1.76768   1.77385
 Alpha virt. eigenvalues --    1.77870   1.77932   1.78449   1.78821   1.80172
 Alpha virt. eigenvalues --    1.80780   1.81071   1.81394   1.81661   1.82021
 Alpha virt. eigenvalues --    1.82785   1.83552   1.83739   1.84310   1.84562
 Alpha virt. eigenvalues --    1.85055   1.85595   1.85853   1.86145   1.86651
 Alpha virt. eigenvalues --    1.86948   1.87629   1.88184   1.88377   1.88515
 Alpha virt. eigenvalues --    1.89106   1.89376   1.89650   1.90123   1.90220
 Alpha virt. eigenvalues --    1.91098   1.91404   1.91850   1.92022   1.92443
 Alpha virt. eigenvalues --    1.92575   1.93089   1.93112   1.93529   1.93780
 Alpha virt. eigenvalues --    1.93915   1.94056   1.94371   1.94455   1.95062
 Alpha virt. eigenvalues --    1.95344   1.95932   1.96351   1.96601   1.96873
 Alpha virt. eigenvalues --    1.97100   1.97492   1.99056   1.99886   2.00158
 Alpha virt. eigenvalues --    2.00564   2.01187   2.01424   2.02014   2.02246
 Alpha virt. eigenvalues --    2.02644   2.03020   2.03521   2.03654   2.03808
 Alpha virt. eigenvalues --    2.04428   2.04615   2.04934   2.05512   2.05710
 Alpha virt. eigenvalues --    2.06378   2.06653   2.07088   2.07357   2.07672
 Alpha virt. eigenvalues --    2.08090   2.08493   2.09046   2.09391   2.09508
 Alpha virt. eigenvalues --    2.09956   2.10172   2.10422   2.11357   2.11785
 Alpha virt. eigenvalues --    2.12221   2.12597   2.12980   2.13513   2.14160
 Alpha virt. eigenvalues --    2.14637   2.15033   2.15198   2.15512   2.16113
 Alpha virt. eigenvalues --    2.16254   2.16426   2.16789   2.16862   2.17742
 Alpha virt. eigenvalues --    2.18080   2.18512   2.18870   2.19540   2.19647
 Alpha virt. eigenvalues --    2.19891   2.20081   2.20455   2.20835   2.21088
 Alpha virt. eigenvalues --    2.21151   2.22149   2.22333   2.22969   2.23757
 Alpha virt. eigenvalues --    2.23820   2.23970   2.24330   2.24903   2.25444
 Alpha virt. eigenvalues --    2.25583   2.25957   2.26187   2.26312   2.26649
 Alpha virt. eigenvalues --    2.26879   2.27515   2.28170   2.28508   2.28644
 Alpha virt. eigenvalues --    2.29147   2.30529   2.31034   2.31780   2.32019
 Alpha virt. eigenvalues --    2.32574   2.33084   2.33202   2.33677   2.34107
 Alpha virt. eigenvalues --    2.34652   2.35276   2.36157   2.36587   2.37792
 Alpha virt. eigenvalues --    2.38616   2.39185   2.39722   2.40134   2.40326
 Alpha virt. eigenvalues --    2.40550   2.41914   2.43801   2.44745   2.45297
 Alpha virt. eigenvalues --    2.46189   2.46864   2.47529   2.48445   2.48750
 Alpha virt. eigenvalues --    2.49043   2.49531   2.49951   2.50220   2.50385
 Alpha virt. eigenvalues --    2.50949   2.52582   2.54135   2.54362   2.57042
 Alpha virt. eigenvalues --    2.57981   2.60112   2.60525   2.61233   2.61823
 Alpha virt. eigenvalues --    2.62244   2.62410   2.62827   2.64562   2.64813
 Alpha virt. eigenvalues --    2.65217   2.65375   2.66084   2.67224   2.67925
 Alpha virt. eigenvalues --    2.68916   2.70161   2.71429   2.74230   2.75928
 Alpha virt. eigenvalues --    2.77200   2.77804   2.78323   2.78557   2.78700
 Alpha virt. eigenvalues --    2.78876   2.79853   2.80365   2.80662   2.81028
 Alpha virt. eigenvalues --    2.81794   2.82077   2.82836   2.83527   2.84254
 Alpha virt. eigenvalues --    2.84570   2.85014   2.88190   2.89750   2.90008
 Alpha virt. eigenvalues --    2.90646   2.92571   2.93939   2.94613   2.96405
 Alpha virt. eigenvalues --    2.96929   2.97360   2.99276   2.99854   3.02238
 Alpha virt. eigenvalues --    3.04652   3.05995   3.06368   3.06660   3.09246
 Alpha virt. eigenvalues --    3.09995   3.12266   3.12548   3.13036   3.16344
 Alpha virt. eigenvalues --    3.20919   3.26451   3.31367   3.45529  11.75458
          Condensed to atoms (all electrons):
 Mulliken charges:
               1
     1  C    0.311058
     2  C    0.039166
     3  C   -0.085464
     4  C   -0.157550
     5  C   -0.196789
     6  C    0.313511
     7  C    0.068398
     8  C   -0.165996
     9  C   -0.143255
    10  C   -0.180870
    11  H    0.244013
    12  H    0.196612
    13  H    0.174694
    14  H    0.210544
    15  H    0.180011
    16  H    0.167650
    17  N   -0.494571
    18  N   -0.532048
    19  Ir  -0.120805
    20  O   -0.523156
    21  O   -0.518091
    22  O   -0.508169
    23  B    0.442646
    24  B    0.450877
    25  B    0.707399
    26  O   -0.513132
    27  O   -0.511428
    28  C    0.293103
    29  C    0.299616
    30  C    0.284833
    31  C    0.276283
    32  C    0.305840
    33  C    0.298088
    34  O   -0.543184
    35  C   -0.512478
    36  H    0.169867
    37  H    0.174757
    38  H    0.148240
    39  C   -0.506914
    40  H    0.149472
    41  H    0.164520
    42  H    0.164970
    43  C   -0.507947
    44  H    0.169656
    45  H    0.164631
    46  H    0.147655
    47  C   -0.494705
    48  H    0.149922
    49  H    0.181144
    50  H    0.142802
    51  C   -0.503237
    52  H    0.164344
    53  H    0.147578
    54  H    0.162325
    55  C   -0.501234
    56  H    0.154102
    57  H    0.147811
    58  H    0.170357
    59  C   -0.512954
    60  H    0.146308
    61  H    0.148353
    62  H    0.192495
    63  C   -0.503925
    64  H    0.151626
    65  H    0.161534
    66  H    0.159421
    67  C   -0.491553
    68  H    0.228833
    69  H    0.134666
    70  H    0.159680
    71  C   -0.506583
    72  H    0.163006
    73  H    0.171242
    74  H    0.152688
    75  C   -0.500904
    76  H    0.173321
    77  H    0.160660
    78  H    0.155036
    79  C   -0.524972
    80  H    0.213310
    81  H    0.161428
    82  H    0.144617
    83  H    0.009975
    84  C    0.644847
    85  O   -0.515310
    86  C   -0.402375
    87  H    0.175816
    88  H    0.165087
    89  C   -0.381921
    90  H    0.210138
    91  H    0.163258
    92  N   -0.382571
    93  C   -0.362530
    94  H    0.171394
    95  H    0.201557
    96  H    0.179511
    97  C   -0.264001
    98  H    0.155569
    99  H    0.183639
   100  C   -0.266434
   101  H    0.131098
   102  H    0.131861
   103  C   -0.271718
   104  H    0.141815
   105  H    0.134392
   106  C   -0.496692
   107  H    0.157095
   108  H    0.158531
   109  H    0.158528
   110  C    0.968917
   111  F   -0.307704
   112  F   -0.320788
   113  F   -0.304971
   114  H    0.179178
 Sum of Mulliken charges =  -0.00000
 Mulliken charges with hydrogens summed into heavy atoms:
               1
     1  C    0.311058
     2  C    0.283179
     3  C   -0.085464
     4  C    0.039062
     5  C   -0.022095
     6  C    0.313511
     7  C    0.278942
     8  C    0.013182
     9  C    0.036757
    10  C   -0.013220
    17  N   -0.494571
    18  N   -0.532048
    19  Ir  -0.110830
    20  O   -0.523156
    21  O   -0.518091
    22  O   -0.508169
    23  B    0.442646
    24  B    0.450877
    25  B    0.707399
    26  O   -0.513132
    27  O   -0.511428
    28  C    0.293103
    29  C    0.299616
    30  C    0.284833
    31  C    0.276283
    32  C    0.305840
    33  C    0.298088
    34  O   -0.543184
    35  C   -0.019614
    39  C   -0.027953
    43  C   -0.026005
    47  C   -0.020838
    51  C   -0.028990
    55  C   -0.028963
    59  C   -0.025798
    63  C   -0.031344
    67  C    0.031626
    71  C   -0.019646
    75  C   -0.011886
    79  C   -0.005616
    84  C    0.644847
    85  O   -0.515310
    86  C   -0.061472
    89  C   -0.008525
    92  N   -0.382571
    93  C    0.189932
    97  C    0.075207
   100  C   -0.003475
   103  C    0.004489
   106  C   -0.022538
   110  C    0.968917
   111  F   -0.307704
   112  F   -0.320788
   113  F   -0.304971
 APT charges:
               1
     1  C    0.259409
     2  C    0.072030
     3  C   -0.220301
     4  C    0.106816
     5  C   -0.203096
     6  C    0.104207
     7  C    0.015398
     8  C   -0.016229
     9  C    0.056765
    10  C   -0.137669
    11  H    0.158920
    12  H    0.062387
    13  H    0.040568
    14  H    0.103243
    15  H    0.027094
    16  H    0.035890
    17  N   -0.190149
    18  N   -0.022867
    19  Ir  -0.458566
    20  O   -0.971435
    21  O   -0.966135
    22  O   -0.928970
    23  B    1.216955
    24  B    1.295372
    25  B    1.136947
    26  O   -0.882968
    27  O   -0.980783
    28  C    0.466144
    29  C    0.482451
    30  C    0.483082
    31  C    0.476719
    32  C    0.484678
    33  C    0.466856
    34  O   -0.997844
    35  C   -0.029191
    36  H   -0.001064
    37  H   -0.003951
    38  H   -0.023229
    39  C   -0.009756
    40  H   -0.019983
    41  H    0.001849
    42  H   -0.001465
    43  C    0.002874
    44  H   -0.001141
    45  H   -0.007475
    46  H   -0.020584
    47  C   -0.026010
    48  H   -0.005832
    49  H    0.025594
    50  H   -0.028796
    51  C   -0.000044
    52  H    0.000136
    53  H   -0.023388
    54  H   -0.001580
    55  C   -0.019305
    56  H   -0.010918
    57  H   -0.030370
    58  H   -0.000148
    59  C   -0.033790
    60  H   -0.024384
    61  H   -0.010596
    62  H    0.031495
    63  C   -0.008224
    64  H   -0.023066
    65  H    0.003358
    66  H   -0.005809
    67  C   -0.053150
    68  H    0.056227
    69  H   -0.018076
    70  H    0.002200
    71  C   -0.007717
    72  H   -0.009604
    73  H    0.002386
    74  H   -0.006381
    75  C   -0.024550
    76  H    0.005648
    77  H   -0.006273
    78  H   -0.015310
    79  C   -0.025379
    80  H    0.054538
    81  H   -0.005051
    82  H   -0.009595
    83  H   -0.151710
    84  C    1.087727
    85  O   -0.886115
    86  C   -0.009041
    87  H    0.009154
    88  H   -0.032035
    89  C    0.005792
    90  H    0.051934
    91  H   -0.038134
    92  N   -0.725778
    93  C    0.292783
    94  H   -0.007393
    95  H   -0.002186
    96  H    0.006334
    97  C    0.074305
    98  H   -0.035758
    99  H    0.013641
   100  C    0.101131
   101  H   -0.024393
   102  H   -0.066548
   103  C    0.107669
   104  H   -0.045509
   105  H   -0.051055
   106  C    0.072032
   107  H   -0.012852
   108  H   -0.030023
   109  H   -0.035646
   110  C    1.792062
   111  F   -0.563686
   112  F   -0.598610
   113  F   -0.546448
   114  H    0.038318
 Sum of APT charges =   0.00000
 APT charges with hydrogens summed into heavy atoms:
               1
     1  C    0.259409
     2  C    0.230949
     3  C   -0.220301
     4  C    0.169202
     5  C   -0.162529
     6  C    0.104207
     7  C    0.118641
     8  C    0.022089
     9  C    0.083860
    10  C   -0.101779
    17  N   -0.190149
    18  N   -0.022867
    19  Ir  -0.610276
    20  O   -0.971435
    21  O   -0.966135
    22  O   -0.928970
    23  B    1.216955
    24  B    1.295372
    25  B    1.136947
    26  O   -0.882968
    27  O   -0.980783
    28  C    0.466144
    29  C    0.482451
    30  C    0.483082
    31  C    0.476719
    32  C    0.484678
    33  C    0.466856
    34  O   -0.997844
    35  C   -0.057435
    39  C   -0.029354
    43  C   -0.026326
    47  C   -0.035043
    51  C   -0.024876
    55  C   -0.060741
    59  C   -0.037275
    63  C   -0.033741
    67  C   -0.012799
    71  C   -0.021315
    75  C   -0.040485
    79  C    0.014512
    84  C    1.087727
    85  O   -0.886115
    86  C   -0.031921
    89  C    0.019592
    92  N   -0.725778
    93  C    0.289538
    97  C    0.052188
   100  C    0.010190
   103  C    0.011105
   106  C   -0.006489
   110  C    1.792062
   111  F   -0.563686
   112  F   -0.598610
   113  F   -0.546448
 Electronic spatial extent (au):  <R**2>=          31410.7051
 Charge=             -0.0000 electrons
 Dipole moment (field-independent basis, Debye):
    X=              1.3188    Y=              3.3248    Z=              0.7574  Tot=              3.6561
 Quadrupole moment (field-independent basis, Debye-Ang):
   XX=           -333.1626   YY=           -298.7975   ZZ=           -327.1646
   XY=              3.0302   XZ=              0.9497   YZ=             10.1123
 Traceless Quadrupole moment (field-independent basis, Debye-Ang):
   XX=            -13.4544   YY=             20.9107   ZZ=             -7.4563
   XY=              3.0302   XZ=              0.9497   YZ=             10.1123
 Octapole moment (field-independent basis, Debye-Ang**2):
  XXX=            -19.2095  YYY=            229.5851  ZZZ=            -41.6301  XYY=            -35.6170
  XXY=             10.2625  XXZ=              9.9356  XZZ=            -21.4430  YZZ=             -8.9048
  YYZ=             37.0040  XYZ=              9.4254
 Hexadecapole moment (field-independent basis, Debye-Ang**3):
 XXXX=         -19452.6071 YYYY=         -11127.9025 ZZZZ=          -9585.8414 XXXY=            -35.4904
 XXXZ=            194.6212 YYYX=           -191.7650 YYYZ=            188.3433 ZZZX=             16.1400
 ZZZY=            -13.8747 XXYY=          -4852.0327 XXZZ=          -4834.9916 YYZZ=          -3725.9346
 XXYZ=             84.7111 YYXZ=             81.6677 ZZXY=            -38.3976
 N-N= 9.332592611050D+03 E-N=-2.474564012139D+04  KE= 2.527459018539D+03
  Exact polarizability:     570.342       8.815     535.857      14.208      20.162     421.330
 Approx polarizability:     797.041       0.767     789.909      33.385      35.690     603.227
   1 Symmetry operations used in ECPInt.
 ECPInt:  NShTT=   57970 NPrTT=  353525 LenC2=   43965 LenP2D=  134388.
 LDataN:  DoStor=T MaxTD1= 8 Len=  415
 Calling FoFJK, ICntrl=    100127 FMM=F ISym2X=0 I1Cent= 0 IOpClX= 0 NMat=1 NMatS=1 NMatT=0.
 Defaulting to unpruned grid for atomic number  77.
 Defaulting to unpruned grid for atomic number  77.
 Defaulting to unpruned grid for atomic number  77.
 Defaulting to unpruned grid for atomic number  77.
 Defaulting to unpruned grid for atomic number  77.
 Defaulting to unpruned grid for atomic number  77.
 Defaulting to unpruned grid for atomic number  77.
 Defaulting to unpruned grid for atomic number  77.
 Defaulting to unpruned grid for atomic number  77.
 Defaulting to unpruned grid for atomic number  77.
 Defaulting to unpruned grid for atomic number  77.
 Defaulting to unpruned grid for atomic number  77.
 Defaulting to unpruned grid for atomic number  77.
 Defaulting to unpruned grid for atomic number  77.
 Defaulting to unpruned grid for atomic number  77.
 Defaulting to unpruned grid for atomic number  77.
 Full mass-weighted force constant matrix:
 Low frequencies ---   -9.1064   -0.0005    0.0004    0.0004    1.7835    4.9894
 Low frequencies ---    6.6047   17.4179   23.4390
 Diagonal vibrational polarizability:
       97.3036101     601.6089774   15333.8502651
 Harmonic frequencies (cm**-1), IR intensities (KM/Mole), Raman scattering
 activities (A**4/AMU), depolarization ratios for plane and unpolarized
 incident light, reduced masses (AMU), force constants (mDyne/A),
 and normal coordinates:
                      1                      2                      3
                      A                      A                      A
 Frequencies --      0.3431                17.3044                23.3226
 Red. masses --      7.0258                 5.2087                 3.4450
 Frc consts  --      0.0000                 0.0009                 0.0011
 IR Inten    --      0.0681                 2.0394                 0.4061
  Atom AN      X      Y      Z        X      Y      Z        X      Y      Z
     1   6    -0.01  -0.01   0.03    -0.01  -0.02   0.09     0.02  -0.01  -0.00
     2   6    -0.01  -0.01   0.01     0.01  -0.01  -0.02     0.00   0.01  -0.00
     3   6    -0.02  -0.03   0.11     0.00  -0.02   0.00     0.01   0.02  -0.00
     4   6    -0.02  -0.04   0.17    -0.01  -0.03   0.08     0.03   0.01  -0.00
     5   6    -0.02  -0.03   0.12    -0.02  -0.03   0.13     0.03  -0.00  -0.00
     6   6    -0.00  -0.01  -0.01    -0.02  -0.03   0.13     0.02  -0.02  -0.00
     7   6     0.01   0.00  -0.05    -0.00  -0.03   0.05     0.01  -0.04  -0.00
     8   6     0.01   0.00  -0.06    -0.02  -0.05   0.16     0.02  -0.04  -0.01
     9   6     0.01   0.00  -0.05    -0.04  -0.05   0.27     0.03  -0.04  -0.01
    10   6    -0.00  -0.01  -0.02    -0.04  -0.04   0.25     0.03  -0.03  -0.01
    11   1     0.00  -0.00  -0.04     0.02   0.00  -0.08    -0.01   0.01  -0.01
    12   1    -0.03  -0.05   0.25    -0.02  -0.04   0.10     0.03   0.02  -0.00
    13   1    -0.02  -0.04   0.17    -0.03  -0.04   0.19     0.04  -0.00  -0.00
    14   1     0.01   0.00  -0.06     0.01  -0.02  -0.03     0.00  -0.04  -0.00
    15   1     0.01   0.00  -0.06    -0.06  -0.07   0.37     0.04  -0.04  -0.02
    16   1    -0.00  -0.01  -0.01    -0.05  -0.05   0.34     0.04  -0.02  -0.01
    17   7    -0.00  -0.00  -0.03     0.01  -0.01   0.02     0.01  -0.01  -0.00
    18   7     0.00  -0.00  -0.03     0.00  -0.02   0.03     0.01  -0.03  -0.00
    19  77     0.01  -0.00  -0.04     0.01  -0.00  -0.03    -0.01  -0.02   0.01
    20   8    -0.04   0.02  -0.02     0.02  -0.01  -0.03    -0.01  -0.02   0.01
    21   8     0.00   0.01   0.02     0.01   0.01  -0.01    -0.00  -0.02   0.04
    22   8     0.03  -0.01  -0.05    -0.01  -0.01  -0.00     0.02  -0.00  -0.01
    23   5     0.00  -0.00  -0.01     0.01  -0.00  -0.03    -0.01  -0.03   0.00
    24   5    -0.03   0.01  -0.04     0.02   0.01  -0.02    -0.01  -0.02   0.01
    25   5     0.04  -0.00  -0.04    -0.01  -0.01  -0.00     0.02  -0.02   0.00
    26   8     0.04  -0.00  -0.04    -0.01  -0.01   0.01     0.01  -0.02   0.01
    27   8    -0.04   0.03  -0.05    -0.00   0.05  -0.01    -0.02  -0.00   0.01
    28   6    -0.07   0.06  -0.03    -0.01   0.07   0.00    -0.03   0.01   0.01
    29   6    -0.08   0.06  -0.03     0.01   0.06  -0.02    -0.02   0.00   0.01
    30   6     0.02  -0.01  -0.06    -0.00  -0.00   0.01    -0.00   0.01  -0.01
    31   6     0.02  -0.00  -0.05     0.00   0.00   0.02    -0.01  -0.01   0.01
    32   6     0.00   0.01   0.06     0.01   0.00   0.00    -0.01  -0.02   0.03
    33   6     0.00   0.01   0.03     0.01   0.00  -0.03    -0.00  -0.02  -0.04
    34   8     0.01  -0.01  -0.01     0.01  -0.01  -0.05    -0.02  -0.03  -0.04
    35   6    -0.08   0.08  -0.08     0.04   0.10  -0.08    -0.02   0.02  -0.02
    36   1    -0.08   0.08  -0.08     0.06   0.08  -0.10    -0.01   0.01  -0.02
    37   1    -0.06   0.07  -0.11     0.06   0.09  -0.10    -0.00   0.01  -0.03
    38   1    -0.11   0.12  -0.09     0.03   0.15  -0.07    -0.02   0.04  -0.02
    39   6    -0.11   0.08   0.02    -0.02   0.06   0.01    -0.04   0.01   0.03
    40   1    -0.14   0.11   0.01    -0.04   0.12   0.02    -0.05   0.03   0.03
    41   1    -0.11   0.05   0.05    -0.05   0.03   0.05    -0.05  -0.01   0.05
    42   1    -0.11   0.07   0.01     0.00   0.05  -0.01    -0.03  -0.00   0.02
    43   6    -0.09   0.09  -0.06    -0.01   0.12   0.00    -0.03   0.03   0.01
    44   1    -0.08   0.09  -0.09     0.01   0.14  -0.02    -0.02   0.03  -0.01
    45   1    -0.08   0.08  -0.06    -0.03   0.13   0.02    -0.04   0.03   0.01
    46   1    -0.11   0.11  -0.05    -0.02   0.15   0.01    -0.04   0.03   0.01
    47   6    -0.08   0.05   0.00    -0.05   0.06   0.04    -0.04   0.00   0.03
    48   1    -0.07   0.05  -0.01    -0.06   0.07   0.04    -0.04   0.00   0.03
    49   1    -0.06   0.03   0.03    -0.04   0.02   0.05    -0.03  -0.01   0.04
    50   1    -0.11   0.07   0.02    -0.07   0.07   0.05    -0.05   0.01   0.04
    51   6    -0.01   0.04   0.09     0.01   0.03   0.03     0.02   0.02   0.06
    52   1    -0.01   0.03   0.11     0.01   0.03   0.05     0.02   0.01   0.10
    53   1    -0.01   0.04   0.12     0.01   0.04   0.05     0.02   0.02   0.06
    54   1    -0.03   0.07   0.07    -0.00   0.07   0.02     0.03   0.05   0.05
    55   6     0.02  -0.04   0.08     0.01  -0.04   0.02    -0.04  -0.07   0.05
    56   1     0.02  -0.06   0.06     0.00  -0.06   0.00    -0.06  -0.10   0.03
    57   1     0.02  -0.04   0.11     0.01  -0.04   0.04    -0.04  -0.07   0.05
    58   1     0.02  -0.04   0.09     0.01  -0.04   0.04    -0.04  -0.08   0.10
    59   6    -0.01   0.05   0.02     0.03   0.03  -0.04     0.05   0.02  -0.06
    60   1    -0.02   0.07   0.05     0.03   0.04  -0.03     0.06   0.03  -0.06
    61   1    -0.01   0.05  -0.00     0.04   0.03  -0.07     0.06   0.01  -0.10
    62   1    -0.02   0.07   0.01     0.03   0.05  -0.04     0.07   0.04  -0.03
    63   6     0.01  -0.01   0.04     0.01  -0.02  -0.04    -0.03  -0.03  -0.09
    64   1     0.00   0.00   0.07     0.01  -0.01  -0.03    -0.01  -0.03  -0.10
    65   1     0.02  -0.05   0.05    -0.00  -0.04  -0.03    -0.08  -0.05  -0.08
    66   1     0.00  -0.01   0.02     0.01  -0.02  -0.06    -0.03  -0.03  -0.13
    67   6     0.01  -0.00  -0.03     0.01   0.02   0.02    -0.03  -0.02   0.02
    68   1     0.01  -0.00  -0.03    -0.00   0.03   0.01    -0.01  -0.02   0.02
    69   1     0.01  -0.00  -0.04     0.02   0.02   0.03    -0.05  -0.00   0.02
    70   1     0.02  -0.00  -0.02     0.01   0.03   0.02    -0.04  -0.04   0.03
    71   6     0.03  -0.01  -0.05     0.01  -0.01   0.04    -0.03  -0.00   0.01
    72   1     0.04  -0.01  -0.05     0.00  -0.02   0.04    -0.02   0.00   0.00
    73   1     0.03  -0.01  -0.04     0.01  -0.00   0.04    -0.03  -0.02   0.02
    74   1     0.02  -0.01  -0.05     0.01  -0.00   0.05    -0.04   0.01   0.00
    75   6     0.03  -0.00  -0.08    -0.01  -0.02   0.02     0.00   0.02  -0.02
    76   1     0.03  -0.00  -0.09    -0.01  -0.02   0.02     0.01   0.03  -0.03
    77   1     0.05  -0.00  -0.07    -0.01  -0.03   0.02     0.01   0.01  -0.02
    78   1     0.03  -0.00  -0.08     0.00  -0.02   0.04    -0.02   0.03  -0.02
    79   6     0.00  -0.01  -0.06     0.00   0.01   0.01    -0.01   0.02  -0.01
    80   1    -0.01  -0.00  -0.05     0.00   0.03   0.00    -0.01   0.01  -0.01
    81   1    -0.01  -0.02  -0.07    -0.00   0.01   0.01    -0.01   0.03  -0.02
    82   1     0.01  -0.02  -0.07     0.01   0.02   0.03    -0.03   0.02  -0.01
    83   1     0.02  -0.00  -0.05     0.01   0.00  -0.04    -0.01  -0.02   0.01
    84   6     0.05  -0.01  -0.03    -0.02  -0.01  -0.02     0.03  -0.01   0.01
    85   8     0.05  -0.01  -0.03    -0.02  -0.00  -0.03     0.01  -0.02   0.01
    86   6     0.05  -0.02  -0.02    -0.02  -0.01  -0.03     0.03   0.02   0.00
    87   1     0.04  -0.02  -0.01    -0.02  -0.00  -0.03     0.05   0.03   0.00
    88   1     0.05  -0.03  -0.02    -0.03  -0.01  -0.03     0.03   0.03   0.00
    89   6     0.04  -0.00  -0.03    -0.02  -0.01  -0.01     0.03  -0.03  -0.00
    90   1     0.05  -0.00  -0.03    -0.02  -0.01  -0.02     0.03  -0.03  -0.01
    91   1     0.05   0.01  -0.03    -0.03  -0.02  -0.01     0.04  -0.04  -0.01
    92   7     0.04  -0.01  -0.03    -0.02  -0.01  -0.02     0.04  -0.02   0.01
    93   6     0.04  -0.01  -0.02    -0.02  -0.01  -0.01     0.04  -0.02   0.01
    94   1     0.04  -0.02  -0.03    -0.03  -0.01  -0.02     0.07  -0.02   0.06
    95   1     0.05  -0.01  -0.02    -0.01  -0.00  -0.01    -0.00  -0.04   0.01
    96   1     0.04  -0.02  -0.02    -0.03  -0.02   0.00     0.07   0.00  -0.03
    97   6     0.05  -0.03  -0.02    -0.02  -0.00  -0.04     0.00   0.04   0.01
    98   1     0.06  -0.03  -0.02    -0.01  -0.01  -0.06    -0.05   0.04   0.04
    99   1     0.04  -0.02  -0.02    -0.02   0.02  -0.04     0.03  -0.00   0.02
   100   6     0.05  -0.04  -0.00    -0.02  -0.02  -0.03     0.01   0.12  -0.03
   101   1     0.04  -0.04   0.00    -0.03  -0.02  -0.01     0.08   0.11  -0.10
   102   1     0.06  -0.05  -0.00    -0.02  -0.05  -0.04    -0.01   0.20  -0.03
   103   6     0.05  -0.05   0.00    -0.01  -0.01  -0.06    -0.03   0.11   0.01
   104   1     0.06  -0.04  -0.01     0.01  -0.01  -0.09    -0.15   0.10   0.13
   105   1     0.04  -0.04  -0.00    -0.01   0.02  -0.05     0.04  -0.02   0.01
   106   6     0.05  -0.06   0.02    -0.01  -0.03  -0.05    -0.02   0.29  -0.09
   107   1     0.04  -0.06   0.03    -0.03  -0.03  -0.03     0.10   0.30  -0.23
   108   1     0.06  -0.07   0.02    -0.01  -0.07  -0.06    -0.10   0.45  -0.07
   109   1     0.05  -0.06   0.02    -0.00  -0.02  -0.07    -0.05   0.27  -0.04
   110   6    -0.03  -0.02   0.17     0.01  -0.02  -0.05     0.01   0.03  -0.00
   111   9     0.02  -0.04   0.19    -0.03   0.00  -0.05     0.00   0.03  -0.01
   112   9    -0.03  -0.02   0.24     0.02  -0.02  -0.10     0.02   0.04   0.02
   113   9    -0.09  -0.00   0.17     0.06  -0.04  -0.04    -0.01   0.05  -0.01
   114   1     0.02   0.01  -0.08    -0.02  -0.05   0.17     0.02  -0.05  -0.01
                      4                      5                      6
[...]
 756,0.00007891,0.00000944,-0.00115630,-0.00024761,0.00044369,-0.000219
 52,-0.00013566,-0.00007919,-0.00002096,-0.00003901,-0.00045750,-0.0000
 5431,0.00008023,0.00001430,-0.00014085,0.00032523,-0.00001300,0.001250
 30,-0.00084131,0.00072046,0.00026111,-0.00043911,0.00013070,0.00004160
 ,-0.00024993,0.00010321,-0.00141206,0.00052370,0.00000061,0.00031403,-
 0.00053795,0.00019413,-0.00004506,0.00022415,0.00005350,0.00006877,-0.
 00006933,-0.00000784,0.00002635,-0.00007158,-0.00002178,-0.00006873,0.
 00053182,-0.00079647,-0.00007641,0.00007453,-0.00009397,0.00008768,-0.
 00007296,-0.00005678,0.00004227,-0.00009563,0.00001687,-0.00025256,0.0
 0020354,0.00002289,0.00005224,-0.00000170,0.00004873,-0.00000551,0.000
 00625,0.00000362,-0.00001679,0.00001152,-0.00002671,0.00000232,0.00000
 741,0.00000094,-0.00000937,0.00001792,0.00001677,0.00000581,-0.0000023
 4,-0.00000375,-0.00001754,0.00002005,0.00000220,0.00000332,-0.00000560
 ,0.00000110,-0.00001275,-0.00008066,-0.00002273,0.00001194,0.00005810,
 0.00004983,0.00002190,-0.00002103,0.00000107,-0.00002013,0.00002313,-0
 .00001038,-0.00004742,-0.00000612,0.00001096,0.00003354,0.00001439,-0.
 00001555,-0.00002392,0.00000224,-0.00000255,0.00000317,0.00001532,0.00
 000024,-0.00001807,0.00000392,0.00000511,0.00000877,0.00001012,-0.0000
 0612,-0.00000996,0.00000828,-0.00000402,0.00000472,-0.00000253,0.00001
 549,-0.00002062,0.00000986,0.00000463,-0.00000911,-0.00001546,-0.00000
 129,-0.00000669,0.00001061,0.00001341,0.00001019,0.00001855,-0.0000070
 9,-0.00000832,0.00001742,-0.00000528,-0.00000978,0.00001143,-0.0000086
 3,0.00001720,0.00000520,0.00000299,0.00000342,-0.00000943,0.00000938,-
 0.00000647,0.00001121,-0.00001311,-0.00001389,0.00000673,0.00000005,-0
 .00000194,0.00000116,0.00001574,0.00000336,-0.00000043,-0.00000105,0.0
 0006458,-0.00005149,-0.00005664,-0.00001946,-0.00001429,-0.00000961,-0
 .00000307,-0.00002215,0.00003293,0.00003133,-0.00002393,0.00002367,0.0
 0006189,-0.00003324,-0.00000256,0.00000250,0.00004822,0.00006916,0.000
 03852,-0.00003764,-0.00000635,-0.00002601,0.00000380,-0.00000603,-0.00
 047446,0.00038991,0.00026601,0.00057869,-0.00023486,-0.00028998,0.0000
 0821,0.00009112,0.00009700,0.00009871,-0.00021644,0.00004601,0.0000717
 5,0.00002511,0.00012636,0.00006766,-0.00008490,0.00002722,-0.00010048,
 -0.00003677,-0.00036940,0.00000603,-0.00000660,0.00006348,0.00022969,0
 .00023805,0.00020000,-0.00029693,-0.00091751,-0.00086799,-0.00000041,0
 .00033163,0.00079337,0.00002280,0.00005219,0.00001066,0.00001416,-0.00
 000644,-0.00001859,-0.00000106,0.00000087,0.00003864,-0.00015020,0.000
 17568,0.00010033,-0.00030788,-0.00012731,-0.00015232,-0.00002398,0.000
 07763,0.00022072,0.00060996,0.00025360,0.00036517,0.00006455,0.0000741
 4,-0.00007683,0.00002903,-0.00002082,-0.00002406,-0.00002212,-0.000008
 21,0.00000437,0.00000135,0.00002989,0.00004427,0.00001916,-0.00002284,
 -0.00005340,0.00000065,-0.00000145,-0.00000614,0.00002161,0.00000705,0
 .00001086,-0.00000225,0.00002249,0.00001713,0.00000239,0.00000406,-0.0
 0000609,-0.00001382,-0.00000023,0.00002344,0.00001607,-0.00000576,-0.0
 0003911,0.00000109,0.00001020,-0.00001250,0.00000318,-0.00001868,0.000
 03082,0.00000770,0.00000716,0.00001194,-0.00000292,0.00000344,-0.00000
 343,-0.00000961,-0.00000219,0.00001167,0.00000940,0.00000196,-0.000000
 43,-0.04035772,-0.09981343,-0.22689889,0.00986344,-0.00613654,-0.08589
 368,0.01500404,-0.03328884,-0.00332350,0.02873710,0.15971947,0.3322344
 2,-0.00004668,-0.00003741,0.00034226,0.00000136,0.00000550,-0.00000341
 ,-0.00003190,-0.00002135,-0.00000327,0.00001805,0.00000588,0.00001216,
 -0.00006597,0.00001427,-0.00001860,0.00088776,-0.00020125,0.00029571,-
 0.00875284,0.00351777,-0.00182792,-0.32335363,-0.00668932,-0.07201968,
 -0.01077483,-0.00358103,-0.00370492,0.00065235,0.00312823,-0.00130815,
 0.00000193,0.00000989,0.00000365,-0.00000527,0.00000141,0.00000279,0.0
 0003982,-0.00002725,-0.00001971,0.00006118,-0.00011354,0.00082153,0.00
 045574,-0.00015585,0.00101751,-0.00052331,-0.00027104,-0.00019113,-0.0
 0003868,-0.00004092,-0.00004353,0.00082140,-0.00209720,-0.00218309,-0.
 00008419,0.00018241,0.00034399,0.00006459,-0.00003390,0.00021797,0.000
 12643,-0.00011115,0.00004221,-0.00004849,-0.00003910,-0.00001192,-0.00
 030142,0.00022408,-0.00004336,-0.00000014,0.00012580,-0.00032994,0.000
 05978,0.00005124,0.00007341,-0.00002273,-0.00005239,-0.00001249,-0.000
 02066,-0.00005426,0.00014015,-0.00002696,0.00002087,-0.00005459,0.0000
 2270,-0.00000245,-0.00006593,0.00002289,0.00003254,-0.00001277,0.00001
 824,0.00001897,-0.00001135,-0.00006711,0.00001547,0.00001657,-0.000058
 87,0.00003516,-0.00008252,0.00024653,-0.00007384,0.00001280,-0.0000337
 5,-0.00001454,-0.00000171,0.00000398,0.00000929,0.00000389,0.00001349,
 -0.00000135,0.00000086,0.00000125,0.00000409,0.00000793,-0.00001881,-0
 .00001297,-0.00000081,0.00000722,-0.00000032,0.00000593,-0.00000061,-0
 .00000077,-0.00000095,0.00001008,0.00000568,0.00001190,0.00000289,-0.0
 0000276,0.00000826,-0.00000208,0.00000014,-0.00000370,0.00000132,0.000
 00358,-0.00000088,-0.00000285,-0.00000369,0.00000766,0.00000661,-0.000
 00138,0.00001026,0.00000282,0.00000408,-0.00000123,-0.00000268,0.00000
 269,-0.00000535,0.00000021,-0.00000774,0.00000678,0.00001122,-0.000004
 01,-0.00000396,0.00000010,0.00000392,0.00000247,0.00000547,-0.00000776
 ,0.00000225,-0.00000579,-0.00000073,0.00000325,0.00001669,0.00000091,-
 0.00000076,-0.00000531,-0.00000045,0.00000299,0.00000567,-0.00000687,-
 0.00000313,0.00000048,0.00000670,0.00000194,-0.00001401,-0.00001694,0.
 00002391,0.00000695,0.00001020,0.00000852,0.00002381,-0.00004948,-0.00
 000945,-0.00001832,-0.00001501,-0.00000743,0.00000340,-0.00001233,0.00
 001562,0.00000923,-0.00000057,-0.00000355,-0.00000526,-0.00000046,0.00
 000464,0.00001283,0.00000476,-0.00000202,-0.00000276,0.00000250,0.0000
 1786,0.00000328,0.00000692,-0.00001438,-0.00000619,-0.00000964,0.00000
 030,0.00000177,-0.00000097,-0.00000309,-0.00000125,-0.00000034,-0.0000
 0098,-0.00000140,0.00000002,-0.00000202,0.00000207,-0.00000092,-0.0000
 0050,-0.00000172,-0.00000145,0.00000148,-0.00000366,-0.00000318,0.0000
 0217,0.00000154,0.00000153,0.00000009,0.00000136,0.00000040,-0.0000006
 7,-0.00000308,-0.00000372,0.00000046,-0.00000068,-0.00000059,0.0000047
 7,0.00000113,0.00000233,-0.00000524,0.00000184,0.00000209,-0.00000074,
 -0.00000247,-0.00000529,0.00000036,-0.00001909,-0.00016555,-0.00014288
 ,-0.00009551,0.00007676,0.00011281,0.00007442,-0.00003174,-0.00011751,
 0.00000995,-0.00001980,-0.00000036,0.00000058,0.00000607,0.00000284,0.
 00000805,0.00000678,-0.00000103,-0.00000731,-0.00000360,-0.00000676,0.
 00000310,-0.00000488,0.00000733,0.00000349,0.00000219,-0.00001093,0.00
 001080,-0.00002691,-0.00005012,-0.00001115,0.00001598,0.00001977,0.000
 00541,-0.00000071,-0.00000600,-0.00000143,-0.00000314,0.00000261,-0.00
 000068,-0.00000136,-0.00000156,0.00000292,-0.00000021,-0.00000729,-0.0
 0000614,0.00000208,-0.00000098,-0.00004778,-0.00001410,0.00000154,-0.0
 0004101,-0.00002040,0.00001949,0.00000345,0.00001262,0.00000419,0.0000
 1539,0.00001126,0.00002314,-0.00000779,0.00015116,-0.00018325,0.000050
 80,-0.00005179,-0.00011132,0.00009305,0.00004091,0.00018262,0.00002559
 ,0.00001935,0.00007862,-0.00001457,0.00000944,-0.00000183,-0.00003286,
 -0.00000121,0.00000724,-0.00000503,-0.00000838,-0.00000108,0.00010802,
 0.00002911,-0.00000209,-0.00003077,-0.00001821,0.00001380,-0.00003639,
 0.00000731,-0.00000300,-0.00002991,-0.00001740,-0.00001703,0.34066928,
 -0.00012075,0.00015135,0.00014924,0.00003924,0.00002737,0.00001117,-0.
 00000149,0.00002583,0.00001080,-0.00005048,0.00004171,0.00000499,0.000
 01752,-0.00008672,-0.00002167,0.00056460,-0.00222131,-0.00009905,-0.02
 669403,0.00603661,-0.00598783,-0.00627781,-0.05831988,-0.00420329,0.02
 600339,0.00603951,0.00681240,0.00272120,-0.00409451,-0.00059186,0.0000
 0338,-0.00000638,-0.00000436,-0.00000388,-0.00000051,0.00000075,-0.000
 03458,0.00005083,-0.00000174,0.00041793,0.00053582,0.00055156,-0.00076
 195,0.00100447,0.00034614,0.00133985,0.00020027,0.00028504,-0.00001281
 ,-0.00002771,-0.00002348,-0.00355632,-0.00481152,-0.00262399,0.0000870
 7,0.00069590,0.00028130,0.00005606,-0.00003534,0.00008278,0.00012213,-
 0.00003793,0.00002142,-0.00003546,-0.00000466,-0.00000622,-0.00030596,
 0.00015759,0.00000119,-0.00001818,0.00004756,-0.00009398,0.00005437,0.
 00001868,0.00006014,-0.00001694,-0.00002781,-0.00001457,0.00001174,-0.
 00000639,0.00004303,-0.00001009,0.00000643,-0.00001427,-0.00000649,0.0
 0000109,-0.00001061,0.00000953,0.00001314,-0.00000623,0.00001083,0.000
 00998,-0.00000838,-0.00006862,-0.00001111,0.00002375,-0.00002009,0.000
 03425,-0.00010240,0.00026273,-0.00001781,0.00004945,-0.00000461,-0.000
 00678,0.00000122,-0.00000327,0.00000709,0.00000088,0.00000730,-0.00000
 121,0.00000059,0.00000173,0.00000102,0.00000053,-0.00001016,-0.0000030
 8,-0.00000305,0.00000904,0.00000094,0.00000021,-0.00000250,-0.00000910
 ,-0.00000029,0.00000102,0.00000655,0.00001245,0.00000174,-0.00000233,0
 .00000280,0.00000053,-0.00000110,-0.00000072,0.00000140,0.00000152,0.0
 0000005,-0.00000170,-0.00000052,0.00000181,-0.00000134,-0.00000162,0.0
 0000415,0.00000358,0.00000158,-0.00000063,-0.00000206,-0.00000005,-0.0
 0000218,-0.00000041,-0.00000260,0.00000211,0.00001670,0.00000169,0.000
 00047,0.00000462,0.00000979,0.00000412,0.00000230,-0.00000821,0.000000
 49,-0.00000978,-0.00000455,0.00000604,0.00002353,0.00000980,-0.0000020
 1,-0.00000584,-0.00000237,-0.00000002,0.00000125,-0.00000532,-0.000001
 83,0.00000449,0.00001032,0.00000554,-0.00009447,-0.00011512,0.00002326
 ,0.00001760,0.00003810,0.00001038,0.00009031,0.00006189,-0.00001503,-0
 .00001316,0.00000326,0.00000033,-0.00000919,-0.00002596,0.00001691,0.0
 0000751,0.00000577,-0.00000432,-0.00000139,0.00000724,0.00001221,0.000
 02291,0.00001249,-0.00001307,-0.00000216,0.00000348,0.00001784,0.00000
 038,0.00000441,-0.00001259,-0.00000356,-0.00000813,-0.00000141,0.00000
 035,-0.00000346,-0.00000374,-0.00000173,0.00000082,0.00000021,-0.00000
 015,-0.00000030,-0.00000044,0.00000063,-0.00000070,-0.00000045,-0.0000
 0059,-0.00000098,0.00000022,-0.00000069,-0.00000297,0.00000198,-0.0000
 0004,0.00000024,-0.00000010,0.00000036,0.00000030,0.00000032,-0.000001
 65,-0.00000090,-0.00000028,0.00000148,-0.00000060,0.00000212,0.0000003
 9,-0.00000094,-0.00000285,-0.00000123,0.00000012,-0.00000003,-0.000001
 72,-0.00000079,0.00000030,-0.00006712,-0.00026337,-0.00015904,-0.00006
 876,0.00002064,0.00003719,0.00002621,-0.00002093,-0.00004708,0.0000172
 4,-0.00001350,-0.00000425,-0.00000212,-0.00000302,-0.00000410,0.000002
 88,0.00000158,0.00000137,-0.00000956,-0.00000140,-0.00000833,0.0000012
 3,-0.00000357,0.00000190,0.00000458,0.00000332,-0.00000540,0.00001880,
 -0.00000777,-0.00001881,-0.00000538,0.00000714,0.00000670,0.00000165,-
 0.00000020,-0.00000480,-0.00000426,-0.00000122,0.00000292,0.00000169,-
 0.00000070,0.00000055,-0.00000861,0.00001407,-0.00001649,0.00000430,-0
 .00000689,0.00001580,-0.00003879,0.00000548,-0.00000679,-0.00005320,-0
 .00004985,0.00005856,0.00000454,-0.00000218,-0.00001018,0.00002460,0.0
 0002309,0.00003858,0.00009407,0.00010944,-0.00032785,0.00000286,-0.000
 03118,0.00005854,-0.00003777,-0.00020790,-0.00000768,0.00003110,-0.000
 02275,0.00008142,-0.00000109,-0.00000903,-0.00001341,-0.00003506,0.000
 00554,0.00002817,0.00000007,0.00001474,-0.00002112,-0.00001948,-0.0000
 0256,-0.00000926,0.00000863,0.00000487,-0.00000170,0.00000173,0.000001
 28,0.00000102,0.00000509,0.00000510,0.00000547,0.00632653,0.05506417,0
 .00029849,0.00020272,-0.00136843,0.00006572,-0.00000036,0.00002327,-0.
 00004758,0.00002698,-0.00002195,-0.00000276,-0.00002069,-0.00003063,-0
 .00001208,-0.00000071,0.00005287,0.00040907,-0.00012844,-0.00031717,-0
 .00561149,0.00134804,-0.00027122,-0.07176156,-0.00412283,-0.05372321,-
 0.00041627,-0.00055498,0.00251968,-0.00126363,-0.00044436,0.00698862,-
 0.00000240,0.00000786,0.00000147,0.00000020,0.00000271,-0.00001193,0.0
 0000267,-0.00002194,0.00006563,0.00088182,0.00051407,-0.00292779,0.000
 95121,0.00049214,-0.00348282,-0.00005866,-0.00007848,0.00015549,-0.000
 15191,-0.00006617,0.00006189,-0.00228333,-0.00249434,0.00749931,0.0002
 7167,0.00033931,-0.00035952,0.00001387,-0.00000521,-0.00007559,0.00005
 844,-0.00000755,-0.00002006,0.00000565,-0.00000473,-0.00003142,-0.0001
 0268,0.00002795,0.00001960,0.00001515,0.00003849,0.00000446,-0.0000158
 7,-0.00000538,0.00005883,0.00001099,0.00000053,-0.00002518,-0.00001089
 ,-0.00000360,-0.00002041,0.00001128,0.00001264,-0.00000025,-0.00000200
 ,0.00001111,0.00004179,0.00000126,0.00000233,0.00000356,-0.00000167,-0
 .00000260,0.00001198,-0.00001790,-0.00000676,0.00000364,-0.00003313,-0
 .00002240,0.00003461,0.00013900,-0.00004324,-0.00002296,0.00002015,0.0
 0001121,-0.00000072,-0.00000496,-0.00000474,-0.00000409,-0.00000168,-0
 .00000032,-0.00000147,-0.00000112,-0.00000496,-0.00000144,0.00001199,0
 .00001300,0.00000508,-0.00000323,-0.00000197,-0.00000119,-0.00000004,-
 0.00000559,-0.00000059,-0.00000686,-0.00000143,-0.00000619,-0.00000030
 ,-0.00000021,0.00000035,0.00000411,-0.00000114,0.00000029,-0.00000210,
 -0.00000304,-0.00000180,0.00000086,0.00000151,-0.00000061,-0.00000613,
 -0.00000288,-0.00000193,-0.00000239,-0.00000261,-0.00000143,0.00000027
 ,-0.00000007,0.00000296,0.00000128,0.00000137,-0.00000056,0.00000267,0
 .00000085,0.00000172,0.00000056,0.00000248,-0.00000038,0.00000169,-0.0
 0000218,0.00000145,0.00000006,-0.00000054,-0.00000528,-0.00000026,-0.0
 0000469,0.00000299,-0.00000446,0.00000140,-0.00000571,0.00000252,-0.00
 000515,-0.00000112,0.00000280,0.00000304,-0.00000235,0.00001305,-0.000
 00614,-0.00003565,-0.00000163,0.00000482,0.00000061,-0.00001798,-0.000
 01355,0.00003651,0.00001130,0.00001468,-0.00000051,-0.00002025,-0.0000
 2023,-0.00001074,0.00000743,0.00001356,-0.00000710,-0.00000184,-0.0000
 1450,-0.00001191,0.00002235,0.00000414,0.00001967,-0.00000213,0.000004
 21,0.00000586,-0.00000072,0.00000199,-0.00000092,0.00000039,-0.0000010
 2,-0.00000199,0.00000063,-0.00000360,-0.00000150,-0.00000027,0.0000012
 4,-0.00000258,-0.00000163,-0.00000053,-0.00000104,0.00000080,-0.000001
 20,0.00000075,0.00000080,0.00000092,-0.00000035,-0.00000044,0.00000068
 ,-0.00000062,0.00000080,-0.00000019,0.00000057,-0.00000027,-0.00000065
 ,-0.00000201,-0.00000013,-0.00000008,0.00000021,0.00000148,0.00000076,
 0.00000016,0.00000105,0.00000142,0.00000030,0.00000174,-0.00000061,-0.
 00000032,0.00000015,-0.00000077,-0.00000053,-0.00012275,-0.00009866,0.
 00015187,-0.00011295,0.00004665,0.00005393,0.00006667,-0.00000583,-0.0
 0006164,0.00003785,-0.00003245,-0.00002704,0.00000020,0.00000815,0.000
 00863,-0.00000037,0.00000152,-0.00000122,-0.00001356,0.00001330,-0.000
 00424,-0.00000231,-0.00000259,0.00000334,0.00000624,0.00000092,-0.0000
 0191,0.00005354,0.00000150,-0.00001064,-0.00000215,-0.00000311,0.00000
 719,0.00000309,-0.00000231,-0.00000768,-0.00000439,-0.00000105,0.00000
 197,0.00000365,0.00000037,0.00000215,-0.00002563,0.00001458,0.00003451
 ,-0.00000857,0.00000857,-0.00002089,-0.00003046,-0.00000924,-0.0000018
 9,-0.00015548,-0.00005168,0.00001682,0.00001813,0.00004784,0.00002675,
 0.00004912,0.00004409,0.00006730,0.00010148,0.00006464,-0.00022661,-0.
 00000603,0.00009353,-0.00015766,0.00003460,-0.00049991,-0.00006187,0.0
 0007193,0.00000870,0.00007659,-0.00003931,0.00004400,0.00000710,-0.000
 05746,0.00000939,0.00004304,0.00004826,-0.00000846,-0.00000930,0.00004
 882,0.00001522,0.00006800,-0.00002857,-0.00001597,0.00000120,-0.000012
 14,0.00000232,-0.00000851,-0.00000283,-0.00000725,-0.00001433,0.078710
 59,0.00534244,0.04524402\\-0.00000576,0.00000031,0.00000007,-0.0000064
 9,0.00000021,-0.00000193,-0.00000044,0.00000156,0.00000267,0.00000104,
 -0.00000426,-0.00000106,0.00000167,0.00000035,0.00000261,-0.00000226,0
 .00000364,-0.00000056,0.00000314,-0.00000331,-0.00000110,-0.00000006,0
 .00000351,0.00000277,0.00000004,-0.00000298,0.00000100,-0.00000420,0.0
 0000582,0.00000017,-0.00000140,0.00000035,0.00000072,-0.00000145,-0.00
 000032,0.00000054,-0.00000173,-0.00000131,0.00000013,-0.00000069,0.000
 00075,0.00000064,-0.00000091,0.00000211,0.00000112,0.00000053,-0.00000
 393,0.00000107,0.00000695,0.00000039,0.00000026,-0.00000281,-0.0000036
 8,0.00000169,0.00000251,-0.00000282,0.00000237,0.00000138,0.00000003,-
 0.00000069,-0.00000159,-0.00000310,0.00000068,-0.00000179,0.00000151,-
 0.00000055,-0.00000421,0.00000290,0.00000059,0.00000005,0.00000043,-0.
 00000330,0.00000514,0.00000376,-0.00000438,-0.00000110,-0.00000173,0.0
 0000065,-0.00000224,-0.00000066,-0.00000174,0.00000076,-0.00000026,0.0
 0000070,-0.00000285,0.00000105,0.00000379,0.00000343,-0.00000338,0.000
 00152,0.00000042,-0.00000145,0.00000119,-0.00000347,0.00000290,-0.0000
 0280,0.00000323,0.00000603,0.00000405,0.00000341,-0.00000009,-0.000001
 02,-0.00000671,-0.00000291,-0.00000515,0.00000178,0.00000107,0.0000009
 4,0.00000218,-0.00000217,0.00000292,-0.00000012,-0.00000084,0.00000044
 ,0.00000141,-0.00000377,0.00000198,0.00000034,0.00000016,-0.00000238,-
 0.00000003,0.00000085,0.00000070,0.00000022,-0.00000040,-0.00000005,0.
 00000307,0.00000475,0.00000301,0.00000053,-0.00000382,-0.00000061,-0.0
 0000289,-0.00000402,-0.00000179,-0.00000058,-0.00000155,-0.00000177,0.
 00000046,-0.00000041,-0.00000186,0.00000082,-0.00000105,-0.00000044,0.
 00000120,-0.00000054,-0.00000042,0.00000034,-0.00000187,0.00000050,0.0
 0000269,-0.00000019,0.00000167,0.00000042,-0.00000066,-0.00000084,-0.0
 0000047,0.00000074,-0.00000046,-0.00000051,0.00000057,0.00000048,-0.00
 000048,-0.00000433,0.00000027,-0.00000020,0.00000262,-0.00000222,0.000
 00104,0.00000090,-0.00000047,0.00000293,0.00000276,-0.00000050,0.00000
 289,-0.00000434,0.00000075,-0.00000103,0.00000225,-0.00000145,0.000000
 34,0.00000184,-0.00000050,-0.00000221,0.00000054,0.00000024,0.00000505
 ,-0.00000256,0.00000103,-0.00000191,0.00000476,-0.00000158,0.00000012,
 0.00000085,-0.00000108,-0.00000114,-0.00000023,0.00000160,-0.00000300,
 0.00000612,0.00000078,0.00000116,-0.00000133,-0.00000028,0.00000020,-0
 .00000170,-0.00000017,0.00000428,-0.00000251,-0.00000195,-0.00000300,0
 .00000012,-0.00000525,0.00000252,-0.00000069,0.00000057,0.00000294,-0.
 00000118,-0.00000108,0.00000120,-0.00000036,0.00000032,0.00000064,-0.0
 0000127,0.00000038,-0.00000079,0.00000083,-0.00000121,0.00000063,-0.00
 000033,-0.00000245,0.00000033,-0.00000229,-0.00000022,0.00000384,-0.00
 000255,0.00000031,0.00000046,-0.00000100,-0.00000109,-0.00000327,0.000
 00175,-0.00000052,-0.00000027,-0.00000290,-0.00000008,-0.00000008,-0.0
 0000007,0.00000017,-0.00000411,-0.00000201,-0.00000326,-0.00000058,0.0
 0000082,0.00000096,0.00000797,-0.00000020,0.00000097,-0.00000061,0.000
 00079,-0.00000090,-0.00000122,0.00000101,0.00000126,0.00000378,-0.0000
 0615,-0.00000065,-0.00000106,0.00000351,0.00000094,-0.00000023,0.00000
 087,-0.00000039,-0.00000391,0.00000441,0.00000316,0.00000227,0.0000015
 5,-0.00000062,-0.00000027,0.00000028,-0.00000070,0.00000086,-0.0000010
 8,0.00000093,0.00000134,0.00000062,-0.00000053,-0.00000453,0.00000394,
 -0.00000421,0.00000033,0.00000007,0.00000192,-0.00000117,0.00000094,0.
 00000350,0.00000417,-0.00000717,-0.00000052,-0.00000163,0.00000681,-0.
 00000071,-0.00000070,0.00000130,0.00000068,-0.00000019,0.00000236,0.00
 000305,-0.00000063,0.00000256,-0.00000004,-0.00000030,0.00000084,0.000
 00072,-0.00000258,0.00000036,0.00000285,0.00000107,0.00000273,-0.00000
 073,0.00000042,0.00000177,-0.00000048,-0.00000013,0.00000219,0.0000007
 5,-0.00000269,-0.00000730,-0.00000353,0.00000044,-0.00000015,-0.000000
 11,-0.00000090,0.00000010,0.00000122,0.00000172,-0.00000029,0.00000137
 ,-0.00000251,0.00000048,0.00000008\\\@
 The archive entry for this job was punched.


 SUCCESS IS NEVER CERTAIN,
 FAILURE IS NEVER FINAL.
 Job cpu time:       1 days 20 hours 51 minutes  8.7 seconds.
 Elapsed time:       0 days  2 hours 51 minutes 43.1 seconds.
 File lengths (MBytes):  RWF=  10098 Int=      0 D2E=      0 Chk=     55 Scr=      1
 Normal termination of Gaussian 16 at Sat Dec  7 21:40:48 2024.
