/mnt/lustre/scratch/nvme/SLURM/9663514/usccqdma.c58JeLkAbS
OMP_STACKSIZE=0m
GAUSS_PDEF=16
GAUSS_MDEF=65536MB
GAUSS_RDEF=SCF=Direct
 Entering Gaussian System, Link 0=g16.exe
 Initial command:
 /opt/cesga/2020/software/Core/g16/c1/l1.exe "/mnt/lustre/scratch/nvme/SLURM/9663514/usccqdma.c58JeLkAbS/Gau-4162269.inp" -scrdir="/mnt/lustre/scratch/nvme/SLURM/9663514/usccqdma.c58JeLkAbS/"
 Default is to use a total of  16 processors:
                               16 via shared-memory
                                1 via Linda
 Entering Link 1 = /opt/cesga/2020/software/Core/g16/c1/l1.exe PID=   4162295.
  
 Copyright (c) 1988-2019, Gaussian, Inc.  All Rights Reserved.
  
 This is part of the Gaussian(R) 16 program.  It is based on
 the Gaussian(R) 09 system (copyright 2009, Gaussian, Inc.),
 the Gaussian(R) 03 system (copyright 2003, Gaussian, Inc.),
 the Gaussian(R) 98 system (copyright 1998, Gaussian, Inc.),
 the Gaussian(R) 94 system (copyright 1995, Gaussian, Inc.),
 the Gaussian 92(TM) system (copyright 1992, Gaussian, Inc.),
 the Gaussian 90(TM) system (copyright 1990, Gaussian, Inc.),
 the Gaussian 88(TM) system (copyright 1988, Gaussian, Inc.),
 the Gaussian 86(TM) system (copyright 1986, Carnegie Mellon
 University), and the Gaussian 82(TM) system (copyright 1983,
 Carnegie Mellon University). Gaussian is a federally registered
 trademark of Gaussian, Inc.
  
 This software contains proprietary and confidential information,
 including trade secrets, belonging to Gaussian, Inc.
  
 This software is provided under written license and may be
 used, copied, transmitted, or stored only in accord with that
 written license.
  
 The following legend is applicable only to US Government
 contracts under FAR:
  
                    RESTRICTED RIGHTS LEGEND
  
 Use, reproduction and disclosure by the US Government is
 subject to restrictions as set forth in subparagraphs (a)
 and (c) of the Commercial Computer Software - Restricted
 Rights clause in FAR 52.227-19.
  
 Gaussian, Inc.
 340 Quinnipiac St., Bldg. 40, Wallingford CT 06492
  
  
 ---------------------------------------------------------------
 Warning -- This program may not be used in any manner that
 competes with the business of Gaussian, Inc. or will provide
 assistance to any competitor of Gaussian, Inc.  The licensee
 of this program is prohibited from giving any competitor of
 Gaussian, Inc. access to this program.  By using this program,
 the user acknowledges that Gaussian, Inc. is engaged in the
 business of creating and licensing software in the field of
 computational chemistry and represents and warrants to the
 licensee that it is not a competitor of Gaussian, Inc. and that
 it will not use this program in any manner prohibited above.
 ---------------------------------------------------------------
  

 Cite this work as:
 Gaussian 16, Revision C.01,
 M. J. Frisch, G. W. Trucks, H. B. Schlegel, G. E. Scuseria, 
 M. A. Robb, J. R. Cheeseman, G. Scalmani, V. Barone, 
 G. A. Petersson, H. Nakatsuji, X. Li, M. Caricato, A. V. Marenich, 
 J. Bloino, B. G. Janesko, R. Gomperts, B. Mennucci, H. P. Hratchian, 
 J. V. Ortiz, A. F. Izmaylov, J. L. Sonnenberg, D. Williams-Young, 
 F. Ding, F. Lipparini, F. Egidi, J. Goings, B. Peng, A. Petrone, 
 T. Henderson, D. Ranasinghe, V. G. Zakrzewski, J. Gao, N. Rega, 
 G. Zheng, W. Liang, M. Hada, M. Ehara, K. Toyota, R. Fukuda, 
 J. Hasegawa, M. Ishida, T. Nakajima, Y. Honda, O. Kitao, H. Nakai, 
 T. Vreven, K. Throssell, J. A. Montgomery, Jr., J. E. Peralta, 
 F. Ogliaro, M. J. Bearpark, J. J. Heyd, E. N. Brothers, K. N. Kudin, 
 V. N. Staroverov, T. A. Keith, R. Kobayashi, J. Normand, 
 K. Raghavachari, A. P. Rendell, J. C. Burant, S. S. Iyengar, 
 J. Tomasi, M. Cossi, J. M. Millam, M. Klene, C. Adamo, R. Cammi, 
 J. W. Ochterski, R. L. Martin, K. Morokuma, O. Farkas, 
 J. B. Foresman, and D. J. Fox, Gaussian, Inc., Wallingford CT, 2019.
 
 ******************************************
 Gaussian 16:  ES64L-G16RevC.01  3-Jul-2019
                 7-Dec-2024 
 ******************************************
 Default route: SCF=Direct
 ----------------------------------------------------
 # m06/genecp scf=tight int=ultrafine 5d freq=noraman
 ----------------------------------------------------
 1/10=4,30=1,38=1/1,3;
 2/12=2,17=6,18=5,40=1/2;
 3/5=7,8=1,11=2,16=1,17=8,25=1,30=1,71=2,74=-54,75=-5,140=1/1,2,3;
 4//1;
 5/5=2,32=2,38=5,98=1/2;
 8/6=4,10=90,11=11/1;
 11/6=1,8=1,9=11,15=111,16=1/1,2,10;
 10/6=1/2;
 6/7=2,8=2,9=2,10=2,28=1/1;
 7/8=1,10=1,25=1/1,2,3,16;
 1/10=4,30=1/3;
 99//99;
 ------
 OPT-TS
 ------
 Symbolic Z-matrix:
 Charge =  0 Multiplicity = 1
 C                     1.74462   0.23642   1.25499 
 C                     2.13077   1.7363   -0.45949 
 C                     3.25925   2.23419   0.16976 
 C                     3.64632   1.69193   1.39601 
 C                     2.87658   0.68212   1.94527 
 C                     0.79382  -0.72548   1.83483 
 C                    -1.43034  -1.34574   1.95895 
 C                    -1.16121  -2.24874   2.97908 
 C                     0.14875  -2.4182    3.41123 
 C                     1.13552  -1.625     2.84332 
 H                     1.7788    2.14103  -1.4076 
 H                     4.52571   2.07404   1.91275 
 H                     3.12601   0.26964   2.92078 
 H                    -2.44338  -1.16868   1.59125 
 H                     0.38786  -3.14326   4.1854 
 H                     2.16992  -1.71814   3.16843 
 N                     1.39324   0.75365   0.06312 
 N                    -0.47204  -0.63204   1.36452 
 O                    -3.60568   0.11974   0.36815 
 O                     1.23105  -3.13536  -2.92512 
 O                    -2.20583   3.06979  -0.26432 
 B                     1.24799  -1.87651  -2.28486 
 B                    -2.75998   0.30013  -0.74481 
 B                    -1.21072   2.18559   0.14322 
 O                    -0.45646   2.76568   1.17667 
 O                    -3.53447   0.36772  -1.89776 
 C                    -4.9117    0.48069  -1.52427 
 C                    -4.92909  -0.16023  -0.10609 
 C                    -2.26811   4.13627   0.68842 
 C                    -0.82221   4.14798   1.25986 
 C                     0.26999  -3.94097  -2.2552 
 C                    -0.7832   -2.88826  -1.80899 
 O                     0.06118  -1.76831  -1.47001 
 C                    -5.93504   0.43595   0.85836 
 H                    -5.87133  -0.07959   1.826 
 H                    -5.74287   1.50076   1.03049 
 H                    -6.96084   0.32009   0.4792 
 C                    -5.0891   -1.67618  -0.13944 
 H                    -4.8432   -2.08417   0.85216 
 H                    -6.11633  -1.97686  -0.38684 
 H                    -4.41056  -2.13313  -0.87284 
 C                    -5.25279   1.96533  -1.51238 
 H                    -4.61989   2.50347  -0.79509 
 H                    -5.04139   2.37838  -2.50663 
 H                    -6.3117    2.14388  -1.27912 
 C                    -5.76331  -0.23558  -2.55488 
 H                    -6.82122  -0.24582  -2.25394 
 H                    -5.68982   0.28543  -3.51789 
 H                    -5.43121  -1.26897  -2.70884 
 C                    -0.25143  -4.98354  -3.22587 
 H                    -1.08074  -5.55639  -2.78692 
 H                    -0.59572  -4.5236   -4.15842 
 H                     0.55255  -5.68872  -3.47448 
 C                     0.94173  -4.63574  -1.07182 
 H                     1.25112  -3.91626  -0.30236 
 H                     0.28264  -5.38301  -0.60859 
 H                     1.84073  -5.14852  -1.43753 
 C                    -1.70472  -2.45936  -2.94286 
 H                    -2.42618  -3.24909  -3.19682 
 H                    -2.26308  -1.56111  -2.64725 
 H                    -1.12703  -2.21306  -3.84425 
 C                    -1.59404  -3.30156  -0.59979 
 H                    -2.29562  -2.50226  -0.32807 
 H                    -2.18213  -4.20508  -0.81743 
 H                    -0.9547   -3.50501   0.26793 
 C                     0.15799   4.92175   0.38434 
 H                     0.07701   4.61093  -0.66652 
 H                     0.00054   6.00739   0.4413 
 H                     1.18097   4.70755   0.72554 
 C                    -0.70659   4.61145   2.69801 
 H                    -1.07149   5.64292   2.80918 
 H                    -1.27436   3.96387   3.37509 
 H                     0.34525   4.58951   3.01253 
 C                    -3.31315   3.75001   1.72898 
 H                    -4.27461   3.59429   1.22145 
 H                    -3.0451    2.8094    2.22851 
 H                    -3.45285   4.5326    2.48717 
 C                    -2.68862   5.40835  -0.0198 
 H                    -2.03613   5.63161  -0.87096 
 H                    -3.71093   5.29467  -0.40395 
 H                    -2.67706   6.26521   0.66967 
 H                    -0.8683    1.04764  -2.0276 
 C                     3.38783  -1.00491  -1.65761 
 O                     2.53754  -1.84381  -1.24062 
 C                     4.70954  -0.86453  -0.96727 
 H                     5.50992  -1.0983   -1.68806 
 H                     4.85885   0.19443  -0.70081 
 C                     1.71311  -0.63068  -3.21878 
 H                     1.04676   0.24267  -3.14647 
 H                     1.80461  -0.92167  -4.27486 
 N                     3.04402  -0.27256  -2.71059 
 C                     3.85505   0.72927  -3.3622 
 H                     3.24476   1.62432  -3.54082 
 H                     4.71251   1.01763  -2.74568 
 H                     4.21604   0.36315  -4.33304 
 C                     4.83514  -1.73599   0.27274 
 H                     3.94749  -1.58804   0.90773 
 H                     4.81578  -2.79771  -0.01426 
 C                     6.08999  -1.42224   1.06928 
 H                     6.98634  -1.60222   0.45101 
 H                     6.10948  -0.3444    1.31434 
 C                     6.18639  -2.22941   2.35481 
 H                     5.292    -2.02934   2.96993 
 H                     6.14768  -3.30361   2.11344 
 C                     7.44263  -1.91951   3.15061 
 H                     8.34474  -2.14274   2.56459 
 H                     7.48585  -0.85588   3.4239 
 H                     7.49574  -2.50368   4.07719 
 C                     4.10174   3.28871  -0.46799 
 F                     5.29606   2.77752  -0.83217 
 F                     3.53871   3.79637  -1.56461 
 F                     4.35551   4.29255   0.37358 
 C                    -2.29436  -3.07952   3.49468 
 F                    -2.64172  -4.01554   2.60223 
 F                    -1.97602  -3.70501   4.63197 
 F                    -3.38103  -2.33676   3.7216 
 Ir                   -0.75519   0.38019  -0.56354 
 

 GradGradGradGradGradGradGradGradGradGradGradGradGradGradGradGradGradGrad
 Berny optimization.
 Initialization pass.
 Trust Radius=3.00D-01 FncErr=1.00D-07 GrdErr=1.00D-07 EigMax=2.50D+02 EigMin=1.00D-04
 Number of steps in this run=      2 maximum allowed number of steps=      2.
 GradGradGradGradGradGradGradGradGradGradGradGradGradGradGradGradGradGrad

 Stoichiometry    C38H59B3F6IrN3O7
 Framework group  C1[X(C38H59B3F6IrN3O7)]
 Deg. of freedom   345
 Full point group                 C1      NOp   1
 Largest Abelian subgroup         C1      NOp   1
 Largest concise Abelian subgroup C1      NOp   1
                         Standard orientation:                         
 ---------------------------------------------------------------------
 Center     Atomic      Atomic             Coordinates (Angstroms)
 Number     Number       Type             X           Y           Z
 ---------------------------------------------------------------------
      1          6           0        1.744620    0.236421    1.254991
      2          6           0        2.130769    1.736301   -0.459489
      3          6           0        3.259249    2.234191    0.169761
      4          6           0        3.646319    1.691931    1.396011
      5          6           0        2.876580    0.682121    1.945271
      6          6           0        0.793820   -0.725480    1.834831
      7          6           0       -1.430339   -1.345741    1.958951
      8          6           0       -1.161209   -2.248741    2.979081
      9          6           0        0.148751   -2.418200    3.411231
     10          6           0        1.135521   -1.625000    2.843321
     11          1           0        1.778799    2.141031   -1.407599
     12          1           0        4.525709    2.074042    1.912751
     13          1           0        3.126010    0.269641    2.920781
     14          1           0       -2.443380   -1.168681    1.591251
     15          1           0        0.387861   -3.143260    4.185401
     16          1           0        2.169921   -1.718139    3.168431
     17          7           0        1.393240    0.753650    0.063121
     18          7           0       -0.472040   -0.632040    1.364521
     19          8           0       -3.605680    0.119738    0.368151
     20          8           0        1.231051   -3.135360   -2.925119
     21          8           0       -2.205831    3.069789   -0.264319
     22          5           0        1.247991   -1.876510   -2.284859
     23          5           0       -2.759980    0.300129   -0.744809
     24          5           0       -1.210721    2.185589    0.143221
     25          8           0       -0.456461    2.765680    1.176671
     26          8           0       -3.534470    0.367718   -1.897759
     27          6           0       -4.911700    0.480688   -1.524269
     28          6           0       -4.929090   -0.160232   -0.106089
     29          6           0       -2.268112    4.136269    0.688421
     30          6           0       -0.822212    4.147980    1.259861
     31          6           0        0.269992   -3.940970   -2.255199
     32          6           0       -0.783199   -2.888260   -1.808989
     33          8           0        0.061181   -1.768310   -1.470009
     34          6           0       -5.935040    0.435947    0.858361
     35          1           0       -5.871330   -0.079592    1.826001
     36          1           0       -5.742871    1.500758    1.030491
     37          1           0       -6.960840    0.320087    0.479201
     38          6           0       -5.089099   -1.676182   -0.139439
     39          1           0       -4.843199   -2.084172    0.852161
     40          1           0       -6.116329   -1.976863   -0.386839
     41          1           0       -4.410559   -2.133132   -0.872839
     42          6           0       -5.252791    1.965328   -1.512379
     43          1           0       -4.619891    2.503468   -0.795089
     44          1           0       -5.041391    2.378378   -2.506629
     45          1           0       -6.311701    2.143877   -1.279119
     46          6           0       -5.763310   -0.235582   -2.554879
     47          1           0       -6.821220   -0.245823   -2.253939
     48          1           0       -5.689820    0.285428   -3.517889
     49          1           0       -5.431209   -1.268972   -2.708839
     50          6           0       -0.251428   -4.983540   -3.225869
     51          1           0       -1.080738   -5.556391   -2.786919
     52          1           0       -0.595718   -4.523600   -4.158419
     53          1           0        0.552552   -5.688720   -3.474479
     54          6           0        0.941732   -4.635740   -1.071819
     55          1           0        1.251122   -3.916260   -0.302359
     56          1           0        0.282642   -5.383010   -0.608589
     57          1           0        1.840732   -5.148519   -1.437529
     58          6           0       -1.704719   -2.459361   -2.942859
     59          1           0       -2.426179   -3.249091   -3.196819
     60          1           0       -2.263079   -1.561111   -2.647249
     61          1           0       -1.127029   -2.213061   -3.844249
     62          6           0       -1.594039   -3.301561   -0.599789
     63          1           0       -2.295619   -2.502261   -0.328069
     64          1           0       -2.182128   -4.205081   -0.817429
     65          1           0       -0.954699   -3.505011    0.267931
     66          6           0        0.157988    4.921750    0.384341
     67          1           0        0.077008    4.610930   -0.666519
     68          1           0        0.000538    6.007390    0.441301
     69          1           0        1.180968    4.707550    0.725541
     70          6           0       -0.706592    4.611450    2.698011
     71          1           0       -1.071492    5.642919    2.809181
     72          1           0       -1.274362    3.963869    3.375091
     73          1           0        0.345248    4.589510    3.012531
     74          6           0       -3.313151    3.750009    1.728981
     75          1           0       -4.274611    3.594288    1.221451
     76          1           0       -3.045101    2.809399    2.228511
     77          1           0       -3.452852    4.532598    2.487171
     78          6           0       -2.688622    5.408349   -0.019799
     79          1           0       -2.036132    5.631609   -0.870959
     80          1           0       -3.710932    5.294668   -0.403949
     81          1           0       -2.677062    6.265209    0.669671
     82          1           0       -0.868300    1.047639   -2.027599
     83          6           0        3.387830   -1.004909   -1.657609
     84          8           0        2.537541   -1.843809   -1.240619
     85          6           0        4.709540   -0.864528   -0.967269
     86          1           0        5.509920   -1.098298   -1.688059
     87          1           0        4.858850    0.194432   -0.700809
     88          6           0        1.713110   -0.630680   -3.218779
     89          1           0        1.046760    0.242670   -3.146469
     90          1           0        1.804610   -0.921669   -4.274859
     91          7           0        3.044020   -0.272559   -2.710589
     92          6           0        3.855050    0.729271   -3.362199
     93          1           0        3.244759    1.624321   -3.540819
     94          1           0        4.712510    1.017632   -2.745679
     95          1           0        4.216040    0.363151   -4.333039
     96          6           0        4.835141   -1.735988    0.272741
     97          1           0        3.947491   -1.588039    0.907731
     98          1           0        4.815781   -2.797708   -0.014259
     99          6           0        6.089991   -1.422238    1.069281
    100          1           0        6.986341   -1.602217    0.451011
    101          1           0        6.109480   -0.344398    1.314341
    102          6           0        6.186391   -2.229408    2.354811
    103          1           0        5.292001   -2.029338    2.969931
    104          1           0        6.147681   -3.303608    2.113441
    105          6           0        7.442631   -1.919507    3.150611
    106          1           0        8.344741   -2.142737    2.564591
    107          1           0        7.485850   -0.855877    3.423901
    108          1           0        7.495741   -2.503677    4.077191
    109          6           0        4.101739    3.288711   -0.467989
    110          9           0        5.296059    2.777522   -0.832169
    111          9           0        3.538709    3.796371   -1.564609
    112          9           0        4.355508    4.292552    0.373581
    113          6           0       -2.294359   -3.079521    3.494681
    114          9           0       -2.641718   -4.015541    2.602231
    115          9           0       -1.976019   -3.705011    4.631971
    116          9           0       -3.381029   -2.336762    3.721601
    117         77           0       -0.755190    0.380190   -0.563539
 ---------------------------------------------------------------------
 Rotational constants (GHZ):           0.0525836           0.0394038           0.0328484
 General basis read from cards:  (5D, 7F)
 ======================================================================================================
                                       Pseudopotential Parameters
 ======================================================================================================
  Center     Atomic      Valence      Angular      Power
  Number     Number     Electrons     Momentum     of R      Exponent        Coefficient   SO-Coeffient
 ======================================================================================================
    1          6
                                   No pseudopotential on this center.
    2          6
                                   No pseudopotential on this center.
    3          6
                                   No pseudopotential on this center.
    4          6
                                   No pseudopotential on this center.
    5          6
                                   No pseudopotential on this center.
    6          6
                                   No pseudopotential on this center.
    7          6
                                   No pseudopotential on this center.
    8          6
                                   No pseudopotential on this center.
    9          6
                                   No pseudopotential on this center.
   10          6
                                   No pseudopotential on this center.
   11          1
                                   No pseudopotential on this center.
   12          1
                                   No pseudopotential on this center.
   13          1
                                   No pseudopotential on this center.
   14          1
                                   No pseudopotential on this center.
   15          1
                                   No pseudopotential on this center.
   16          1
                                   No pseudopotential on this center.
   17          7
                                   No pseudopotential on this center.
   18          7
                                   No pseudopotential on this center.
   19          8
                                   No pseudopotential on this center.
   20          8
                                   No pseudopotential on this center.
   21          8
                                   No pseudopotential on this center.
   22          5
                                   No pseudopotential on this center.
   23          5
                                   No pseudopotential on this center.
   24          5
                                   No pseudopotential on this center.
   25          8
                                   No pseudopotential on this center.
   26          8
                                   No pseudopotential on this center.
   27          6
                                   No pseudopotential on this center.
   28          6
                                   No pseudopotential on this center.
   29          6
                                   No pseudopotential on this center.
   30          6
                                   No pseudopotential on this center.
   31          6
                                   No pseudopotential on this center.
   32          6
                                   No pseudopotential on this center.
   33          8
                                   No pseudopotential on this center.
   34          6
                                   No pseudopotential on this center.
   35          1
                                   No pseudopotential on this center.
   36          1
                                   No pseudopotential on this center.
   37          1
                                   No pseudopotential on this center.
   38          6
                                   No pseudopotential on this center.
   39          1
                                   No pseudopotential on this center.
   40          1
                                   No pseudopotential on this center.
   41          1
                                   No pseudopotential on this center.
   42          6
                                   No pseudopotential on this center.
   43          1
                                   No pseudopotential on this center.
   44          1
                                   No pseudopotential on this center.
   45          1
                                   No pseudopotential on this center.
   46          6
                                   No pseudopotential on this center.
   47          1
                                   No pseudopotential on this center.
   48          1
                                   No pseudopotential on this center.
   49          1
                                   No pseudopotential on this center.
   50          6
                                   No pseudopotential on this center.
   51          1
                                   No pseudopotential on this center.
   52          1
                                   No pseudopotential on this center.
   53          1
                                   No pseudopotential on this center.
   54          6
                                   No pseudopotential on this center.
   55          1
                                   No pseudopotential on this center.
   56          1
                                   No pseudopotential on this center.
   57          1
                                   No pseudopotential on this center.
   58          6
                                   No pseudopotential on this center.
   59          1
                                   No pseudopotential on this center.
   60          1
                                   No pseudopotential on this center.
   61          1
                                   No pseudopotential on this center.
   62          6
                                   No pseudopotential on this center.
   63          1
                                   No pseudopotential on this center.
   64          1
                                   No pseudopotential on this center.
   65          1
                                   No pseudopotential on this center.
   66          6
                                   No pseudopotential on this center.
   67          1
                                   No pseudopotential on this center.
   68          1
                                   No pseudopotential on this center.
   69          1
                                   No pseudopotential on this center.
   70          6
                                   No pseudopotential on this center.
   71          1
                                   No pseudopotential on this center.
   72          1
                                   No pseudopotential on this center.
   73          1
                                   No pseudopotential on this center.
   74          6
                                   No pseudopotential on this center.
   75          1
                                   No pseudopotential on this center.
   76          1
                                   No pseudopotential on this center.
   77          1
                                   No pseudopotential on this center.
   78          6
                                   No pseudopotential on this center.
   79          1
                                   No pseudopotential on this center.
   80          1
                                   No pseudopotential on this center.
   81          1
                                   No pseudopotential on this center.
   82          1
                                   No pseudopotential on this center.
   83          6
                                   No pseudopotential on this center.
   84          8
                                   No pseudopotential on this center.
   85          6
                                   No pseudopotential on this center.
   86          1
                                   No pseudopotential on this center.
   87          1
                                   No pseudopotential on this center.
   88          6
                                   No pseudopotential on this center.
   89          1
                                   No pseudopotential on this center.
   90          1
                                   No pseudopotential on this center.
   91          7
                                   No pseudopotential on this center.
   92          6
                                   No pseudopotential on this center.
   93          1
                                   No pseudopotential on this center.
   94          1
                                   No pseudopotential on this center.
   95          1
                                   No pseudopotential on this center.
   96          6
                                   No pseudopotential on this center.
   97          1
                                   No pseudopotential on this center.
   98          1
                                   No pseudopotential on this center.
   99          6
                                   No pseudopotential on this center.
  100          1
                                   No pseudopotential on this center.
  101          1
                                   No pseudopotential on this center.
  102          6
                                   No pseudopotential on this center.
  103          1
                                   No pseudopotential on this center.
  104          1
                                   No pseudopotential on this center.
  105          6
                                   No pseudopotential on this center.
  106          1
                                   No pseudopotential on this center.
  107          1
                                   No pseudopotential on this center.
  108          1
                                   No pseudopotential on this center.
  109          6
                                   No pseudopotential on this center.
  110          9
                                   No pseudopotential on this center.
  111          9
                                   No pseudopotential on this center.
  112          9
                                   No pseudopotential on this center.
  113          6
                                   No pseudopotential on this center.
  114          9
                                   No pseudopotential on this center.
  115          9
                                   No pseudopotential on this center.
  116          9
                                   No pseudopotential on this center.
  117         77           17
                                      G and up 
                                                     1      823.5880147       -0.15780140    0.00000000
                                                     2      364.6613336    -1517.52704460    0.00000000
                                                     2       55.7082801     -316.53065290    0.00000000
                                                     2       12.0464544      -91.88809410    0.00000000
                                                     2        3.5120610       -9.22417730    0.00000000
                                      S - G
                                                     0      188.0490770        3.15780140    0.00000000
                                                     1      340.4194712       26.83225770    0.00000000
                                                     2      128.2373673      800.42500070    0.00000000
                                                     2       33.8644961      369.40506830    0.00000000
                                                     2        4.7560005      242.41718990    0.00000000
                                                     2        3.9649974     -118.21732820    0.00000000
                                      P - G
                                                     0      289.7291139        2.15780140    0.00000000
                                                     1       87.4633789       61.96786100    0.00000000
                                                     2       30.4363766      269.05819860    0.00000000
                                                     2        4.0553412      231.16547930    0.00000000
                                                     2        3.5525341     -133.69526670    0.00000000
                                      D - G
                                                     0      136.4017106        3.15780140    0.00000000
                                                     1       95.0776925       45.93498030    0.00000000
                                                     2       49.2258410      359.03446680    0.00000000
                                                     2       15.0874145      176.47401190    0.00000000
                                                     2        4.0405764       54.51552860    0.00000000
                                      F - G
                                                     0      127.3507908        3.95461970    0.00000000
                                                     1       66.2364374       52.97736550    0.00000000
                                                     2       34.4299229      274.86433830    0.00000000
                                                     2       10.1995721      137.20473380    0.00000000
                                                     2        2.5409702       14.86333050    0.00000000
 ======================================================================================================
 There are   997 symmetry adapted cartesian basis functions of A   symmetry.
 There are   938 symmetry adapted basis functions of A   symmetry.
   938 basis functions,  1875 primitive gaussians,   997 cartesian basis functions
   225 alpha electrons      225 beta electrons
       nuclear repulsion energy     10488.0537939234 Hartrees.
 NAtoms=  117 NActive=  117 NUniq=  117 SFac= 1.00D+00 NAtFMM=   60 NAOKFM=T Big=T
 Integral buffers will be    131072 words long.
 Raffenetti 2 integral format.
 Two-electron integral symmetry is turned on.
 One-electron integrals computed using PRISM.
   1 Symmetry operations used in ECPInt.
 ECPInt:  NShTT=   62835 NPrTT=  387974 LenC2=   45166 LenP2D=  137548.
 LDataN:  DoStor=T MaxTD1= 6 Len=  172
 NBasis=   938 RedAO= T EigKep=  5.05D-04  NBF=   938
 NBsUse=   938 1.00D-06 EigRej= -1.00D+00 NBFU=   938
 Defaulting to unpruned grid for atomic number  77.
 ExpMin= 2.90D-02 ExpMax= 7.00D+03 ExpMxC= 1.05D+03 IAcc=3 IRadAn=         5 AccDes= 0.00D+00
 Harris functional with IExCor= 1009 and IRadAn=       5 diagonalized for initial guess.
 HarFok:  IExCor= 1009 AccDes= 0.00D+00 IRadAn=         5 IDoV= 1 UseB2=F ITyADJ=14
 ICtDFT=  3500011 ScaDFX=  1.000000  1.000000  1.000000  1.000000
 Defaulting to unpruned grid for atomic number  77.
 FoFCou: FMM=F IPFlag=           0 FMFlag=      100000 FMFlg1=        2001
         NFxFlg=           0 DoJE=T BraDBF=F KetDBF=T FulRan=T
         wScrn=  0.000000 ICntrl=       500 IOpCl=  0 I1Cent=   200000004 NGrid=           0
         NMat0=    1 NMatS0=      1 NMatT0=    0 NMatD0=    1 NMtDS0=    0 NMtDT0=    0
 Petite list used in FoFCou.
 Requested convergence on RMS density matrix=1.00D-08 within 128 cycles.
 Requested convergence on MAX density matrix=1.00D-06.
 Requested convergence on             energy=1.00D-06.
 No special actions if energy rises.
 Defaulting to unpruned grid for atomic number  77.
 Defaulting to unpruned grid for atomic number  77.
 Defaulting to unpruned grid for atomic number  77.
 Defaulting to unpruned grid for atomic number  77.
 Defaulting to unpruned grid for atomic number  77.
 Defaulting to unpruned grid for atomic number  77.
 Defaulting to unpruned grid for atomic number  77.
 Defaulting to unpruned grid for atomic number  77.
 Defaulting to unpruned grid for atomic number  77.
 Defaulting to unpruned grid for atomic number  77.
 Defaulting to unpruned grid for atomic number  77.
 Defaulting to unpruned grid for atomic number  77.
 Defaulting to unpruned grid for atomic number  77.
 Defaulting to unpruned grid for atomic number  77.
 Defaulting to unpruned grid for atomic number  77.
 Defaulting to unpruned grid for atomic number  77.
 SCF Done:  E(RM06) =  -2951.42301593     A.U. after   17 cycles
            NFock= 17  Conv=0.46D-08     -V/T= 2.0309
 DoSCS=F DFT=T ScalE2(SS,OS)=  1.000000  1.000000
 Range of M.O.s used for correlation:     1   938
 NBasis=   938 NAE=   225 NBE=   225 NFC=     0 NFV=     0
 NROrb=    938 NOA=   225 NOB=   225 NVA=   713 NVB=   713
   1 Symmetry operations used in ECPInt.
 ECPInt:  NShTT=   62835 NPrTT=  387974 LenC2=   45166 LenP2D=  137548.
 LDataN:  DoStor=T MaxTD1= 7 Len=  274
 Number of processors reduced to   6 by ecpmxn.
 Symmetrizing basis deriv contribution to polar:
 IMax=3 JMax=2 DiffMx= 0.00D+00
 G2DrvN: will do   118 centers at a time, making    1 passes.
 Calling FoFCou, ICntrl=  3107 FMM=T I1Cent=   0 AccDes= 0.00D+00.
 Defaulting to unpruned grid for atomic number  77.
 Defaulting to unpruned grid for atomic number  77.
 Defaulting to unpruned grid for atomic number  77.
 Defaulting to unpruned grid for atomic number  77.
 Defaulting to unpruned grid for atomic number  77.
 Defaulting to unpruned grid for atomic number  77.
 Defaulting to unpruned grid for atomic number  77.
 Defaulting to unpruned grid for atomic number  77.
 Defaulting to unpruned grid for atomic number  77.
 Defaulting to unpruned grid for atomic number  77.
 Defaulting to unpruned grid for atomic number  77.
 Defaulting to unpruned grid for atomic number  77.
 Defaulting to unpruned grid for atomic number  77.
 Defaulting to unpruned grid for atomic number  77.
 Defaulting to unpruned grid for atomic number  77.
 Defaulting to unpruned grid for atomic number  77.
 End of G2Drv F.D. properties file   721 does not exist.
 End of G2Drv F.D. properties file   722 does not exist.
 End of G2Drv F.D. properties file   788 does not exist.
          IDoAtm=11111111111111111111111111111111111111111111111111
          IDoAtm=11111111111111111111111111111111111111111111111111
          IDoAtm=11111111111111111
          Differentiating once with respect to electric field.
                with respect to dipole field.
          Differentiating once with respect to nuclear coordinates.
 Defaulting to unpruned grid for atomic number  77.
 CalDSu exits because no D1Ps are significant.
 Defaulting to unpruned grid for atomic number  77.
 Defaulting to unpruned grid for atomic number  77.
 Defaulting to unpruned grid for atomic number  77.
 Defaulting to unpruned grid for atomic number  77.
 Defaulting to unpruned grid for atomic number  77.
 Defaulting to unpruned grid for atomic number  77.
 Defaulting to unpruned grid for atomic number  77.
 Defaulting to unpruned grid for atomic number  77.
 Defaulting to unpruned grid for atomic number  77.
 Defaulting to unpruned grid for atomic number  77.
 Defaulting to unpruned grid for atomic number  77.
 Defaulting to unpruned grid for atomic number  77.
 Defaulting to unpruned grid for atomic number  77.
 Defaulting to unpruned grid for atomic number  77.
 Defaulting to unpruned grid for atomic number  77.
 Defaulting to unpruned grid for atomic number  77.
          There are   354 degrees of freedom in the 1st order CPHF.  IDoFFX=6 NUNeed=     3.
    351 vectors produced by pass  0 Test12= 1.60D-13 1.00D-09 XBig12= 5.72D+02 8.52D+00.
 AX will form    72 AO Fock derivatives at one time.
    351 vectors produced by pass  1 Test12= 1.60D-13 1.00D-09 XBig12= 9.69D+01 1.08D+00.
    351 vectors produced by pass  2 Test12= 1.60D-13 1.00D-09 XBig12= 1.36D+00 9.64D-02.
    351 vectors produced by pass  3 Test12= 1.60D-13 1.00D-09 XBig12= 8.92D-03 1.13D-02.
    351 vectors produced by pass  4 Test12= 1.60D-13 1.00D-09 XBig12= 2.74D-05 3.40D-04.
    315 vectors produced by pass  5 Test12= 1.60D-13 1.00D-09 XBig12= 5.66D-08 2.22D-05.
     87 vectors produced by pass  6 Test12= 1.60D-13 1.00D-09 XBig12= 8.82D-11 8.02D-07.
      3 vectors produced by pass  7 Test12= 1.60D-13 1.00D-09 XBig12= 1.25D-13 2.66D-08.
 InvSVY:  IOpt=1 It=  1 EMax= 2.49D-14
 Solved reduced A of dimension  2160 with   354 vectors.
 Isotropic polarizability for W=    0.000000      520.51 Bohr**3.
 End of Minotr F.D. properties file   721 does not exist.
 End of Minotr F.D. properties file   722 does not exist.
 End of Minotr F.D. properties file   788 does not exist.
 Hyperfine terms turned off by default for NAtoms > 100.

 **********************************************************************

            Population analysis using the SCF Density.

 **********************************************************************

 Orbital symmetries:
       Occupied  (A) (A) (A) (A) (A) (A) (A) (A) (A) (A) (A) (A)
                 (A) (A) (A) (A) (A) (A) (A) (A) (A) (A) (A) (A)
                 (A) (A) (A) (A) (A) (A) (A) (A) (A) (A) (A) (A)
                 (A) (A) (A) (A) (A) (A) (A) (A) (A) (A) (A) (A)
                 (A) (A) (A) (A) (A) (A) (A) (A) (A) (A) (A) (A)
                 (A) (A) (A) (A) (A) (A) (A) (A) (A) (A) (A) (A)
                 (A) (A) (A) (A) (A) (A) (A) (A) (A) (A) (A) (A)
                 (A) (A) (A) (A) (A) (A) (A) (A) (A) (A) (A) (A)
                 (A) (A) (A) (A) (A) (A) (A) (A) (A) (A) (A) (A)
                 (A) (A) (A) (A) (A) (A) (A) (A) (A) (A) (A) (A)
                 (A) (A) (A) (A) (A) (A) (A) (A) (A) (A) (A) (A)
                 (A) (A) (A) (A) (A) (A) (A) (A) (A) (A) (A) (A)
                 (A) (A) (A) (A) (A) (A) (A) (A) (A) (A) (A) (A)
                 (A) (A) (A) (A) (A) (A) (A) (A) (A) (A) (A) (A)
                 (A) (A) (A) (A) (A) (A) (A) (A) (A) (A) (A) (A)
                 (A) (A) (A) (A) (A) (A) (A) (A) (A) (A) (A) (A)
                 (A) (A) (A) (A) (A) (A) (A) (A) (A) (A) (A) (A)
                 (A) (A) (A) (A) (A) (A) (A) (A) (A) (A) (A) (A)
                 (A) (A) (A) (A) (A) (A) (A) (A) (A)
       Virtual   (A) (A) (A) (A) (A) (A) (A) (A) (A) (A) (A) (A)
                 (A) (A) (A) (A) (A) (A) (A) (A) (A) (A) (A) (A)
                 (A) (A) (A) (A) (A) (A) (A) (A) (A) (A) (A) (A)
                 (A) (A) (A) (A) (A) (A) (A) (A) (A) (A) (A) (A)
                 (A) (A) (A) (A) (A) (A) (A) (A) (A) (A) (A) (A)
                 (A) (A) (A) (A) (A) (A) (A) (A) (A) (A) (A) (A)
                 (A) (A) (A) (A) (A) (A) (A) (A) (A) (A) (A) (A)
                 (A) (A) (A) (A) (A) (A) (A) (A) (A) (A) (A) (A)
                 (A) (A) (A) (A) (A) (A) (A) (A) (A) (A) (A) (A)
                 (A) (A) (A) (A) (A) (A) (A) (A) (A) (A) (A) (A)
                 (A) (A) (A) (A) (A) (A) (A) (A) (A) (A) (A) (A)
                 (A) (A) (A) (A) (A) (A) (A) (A) (A) (A) (A) (A)
                 (A) (A) (A) (A) (A) (A) (A) (A) (A) (A) (A) (A)
                 (A) (A) (A) (A) (A) (A) (A) (A) (A) (A) (A) (A)
                 (A) (A) (A) (A) (A) (A) (A) (A) (A) (A) (A) (A)
                 (A) (A) (A) (A) (A) (A) (A) (A) (A) (A) (A) (A)
                 (A) (A) (A) (A) (A) (A) (A) (A) (A) (A) (A) (A)
                 (A) (A) (A) (A) (A) (A) (A) (A) (A) (A) (A) (A)
                 (A) (A) (A) (A) (A) (A) (A) (A) (A) (A) (A) (A)
                 (A) (A) (A) (A) (A) (A) (A) (A) (A) (A) (A) (A)
                 (A) (A) (A) (A) (A) (A) (A) (A) (A) (A) (A) (A)
                 (A) (A) (A) (A) (A) (A) (A) (A) (A) (A) (A) (A)
                 (A) (A) (A) (A) (A) (A) (A) (A) (A) (A) (A) (A)
                 (A) (A) (A) (A) (A) (A) (A) (A) (A) (A) (A) (A)
                 (A) (A) (A) (A) (A) (A) (A) (A) (A) (A) (A) (A)
                 (A) (A) (A) (A) (A) (A) (A) (A) (A) (A) (A) (A)
                 (A) (A) (A) (A) (A) (A) (A) (A) (A) (A) (A) (A)
                 (A) (A) (A) (A) (A) (A) (A) (A) (A) (A) (A) (A)
                 (A) (A) (A) (A) (A) (A) (A) (A) (A) (A) (A) (A)
                 (A) (A) (A) (A) (A) (A) (A) (A) (A) (A) (A) (A)
                 (A) (A) (A) (A) (A) (A) (A) (A) (A) (A) (A) (A)
                 (A) (A) (A) (A) (A) (A) (A) (A) (A) (A) (A) (A)
                 (A) (A) (A) (A) (A) (A) (A) (A) (A) (A) (A) (A)
                 (A) (A) (A) (A) (A) (A) (A) (A) (A) (A) (A) (A)
                 (A) (A) (A) (A) (A) (A) (A) (A) (A) (A) (A) (A)
                 (A) (A) (A) (A) (A) (A) (A) (A) (A) (A) (A) (A)
                 (A) (A) (A) (A) (A) (A) (A) (A) (A) (A) (A) (A)
                 (A) (A) (A) (A) (A) (A) (A) (A) (A) (A) (A) (A)
                 (A) (A) (A) (A) (A) (A) (A) (A) (A) (A) (A) (A)
                 (A) (A) (A) (A) (A) (A) (A) (A) (A) (A) (A) (A)
                 (A) (A) (A) (A) (A) (A) (A) (A) (A) (A) (A) (A)
                 (A) (A) (A) (A) (A) (A) (A) (A) (A) (A) (A) (A)
                 (A) (A) (A) (A) (A) (A) (A) (A) (A) (A) (A) (A)
                 (A) (A) (A) (A) (A) (A) (A) (A) (A) (A) (A) (A)
                 (A) (A) (A) (A) (A) (A) (A) (A) (A) (A) (A) (A)
                 (A) (A) (A) (A) (A) (A) (A) (A) (A) (A) (A) (A)
                 (A) (A) (A) (A) (A) (A) (A) (A) (A) (A) (A) (A)
                 (A) (A) (A) (A) (A) (A) (A) (A) (A) (A) (A) (A)
                 (A) (A) (A) (A) (A) (A) (A) (A) (A) (A) (A) (A)
                 (A) (A) (A) (A) (A) (A) (A) (A) (A) (A) (A) (A)
                 (A) (A) (A) (A) (A) (A) (A) (A) (A) (A) (A) (A)
                 (A) (A) (A) (A) (A) (A) (A) (A) (A) (A) (A) (A)
                 (A) (A) (A) (A) (A) (A) (A) (A) (A) (A) (A) (A)
                 (A) (A) (A) (A) (A) (A) (A) (A) (A) (A) (A) (A)
                 (A) (A) (A) (A) (A) (A) (A) (A) (A) (A) (A) (A)
                 (A) (A) (A) (A) (A) (A) (A) (A) (A) (A) (A) (A)
                 (A) (A) (A) (A) (A) (A) (A) (A) (A) (A) (A) (A)
                 (A) (A) (A) (A) (A) (A) (A) (A) (A) (A) (A) (A)
                 (A) (A) (A) (A) (A) (A) (A) (A) (A) (A) (A) (A)
                 (A) (A) (A) (A) (A)
 The electronic state is 1-A.
 Alpha  occ. eigenvalues --  -24.84727 -24.84341 -24.84250 -24.83184 -24.82698
 Alpha  occ. eigenvalues --  -24.82404 -19.25299 -19.20011 -19.19560 -19.19239
 Alpha  occ. eigenvalues --  -19.19099 -19.18376 -19.18013 -14.46398 -14.45552
 Alpha  occ. eigenvalues --  -14.45390 -10.52825 -10.51295 -10.38760 -10.33248
 Alpha  occ. eigenvalues --  -10.32803 -10.32329 -10.30802 -10.30782 -10.30405
 Alpha  occ. eigenvalues --  -10.30330 -10.29938 -10.29878 -10.29370 -10.29258
 Alpha  occ. eigenvalues --  -10.28881 -10.28654 -10.28507 -10.28480 -10.28258
 Alpha  occ. eigenvalues --  -10.28255 -10.27836 -10.26406 -10.26083 -10.25891
 Alpha  occ. eigenvalues --  -10.24728 -10.24385 -10.22607 -10.22469 -10.22179
 Alpha  occ. eigenvalues --  -10.22013 -10.21867 -10.21862 -10.21790 -10.21789
 Alpha  occ. eigenvalues --  -10.21539 -10.21528 -10.20534 -10.20474  -6.81447
 Alpha  occ. eigenvalues --   -6.78531  -6.77507  -3.60081  -2.02627  -2.01929
 Alpha  occ. eigenvalues --   -2.01490  -1.37219  -1.35652  -1.28771  -1.28228
 Alpha  occ. eigenvalues --   -1.27203  -1.26583  -1.11474  -1.05387  -1.04761
 Alpha  occ. eigenvalues --   -1.04627  -1.01086  -0.98627  -0.98411  -0.98135
 Alpha  occ. eigenvalues --   -0.97855  -0.97706  -0.87362  -0.86094  -0.84638
 Alpha  occ. eigenvalues --   -0.84452  -0.80961  -0.80396  -0.79846  -0.79331
 Alpha  occ. eigenvalues --   -0.79168  -0.76251  -0.75310  -0.74412  -0.74122
 Alpha  occ. eigenvalues --   -0.73822  -0.73612  -0.72993  -0.70028  -0.69695
 Alpha  occ. eigenvalues --   -0.69352  -0.69293  -0.69285  -0.69209  -0.67314
 Alpha  occ. eigenvalues --   -0.66920  -0.66641  -0.66423  -0.65657  -0.63517
 Alpha  occ. eigenvalues --   -0.63267  -0.63073  -0.61640  -0.61601  -0.61518
 Alpha  occ. eigenvalues --   -0.61119  -0.61040  -0.60587  -0.60307  -0.60154
 Alpha  occ. eigenvalues --   -0.58000  -0.57138  -0.56309  -0.54787  -0.54305
 Alpha  occ. eigenvalues --   -0.53950  -0.53253  -0.52819  -0.52654  -0.52498
 Alpha  occ. eigenvalues --   -0.52084  -0.51967  -0.50801  -0.50661  -0.50241
 Alpha  occ. eigenvalues --   -0.49694  -0.49670  -0.49338  -0.49005  -0.48520
 Alpha  occ. eigenvalues --   -0.48043  -0.47556  -0.47027  -0.46938  -0.46874
 Alpha  occ. eigenvalues --   -0.46582  -0.46398  -0.46270  -0.46086  -0.45985
 Alpha  occ. eigenvalues --   -0.45589  -0.45395  -0.45219  -0.45083  -0.44995
 Alpha  occ. eigenvalues --   -0.44714  -0.44375  -0.44261  -0.43984  -0.43875
 Alpha  occ. eigenvalues --   -0.43830  -0.43535  -0.43387  -0.43108  -0.43085
 Alpha  occ. eigenvalues --   -0.42905  -0.42770  -0.42609  -0.42217  -0.41545
 Alpha  occ. eigenvalues --   -0.41228  -0.40946  -0.40075  -0.39889  -0.39799
 Alpha  occ. eigenvalues --   -0.39673  -0.39662  -0.39381  -0.39220  -0.38956
 Alpha  occ. eigenvalues --   -0.38829  -0.38705  -0.38551  -0.38431  -0.38166
 Alpha  occ. eigenvalues --   -0.38025  -0.37745  -0.37094  -0.36887  -0.36747
 Alpha  occ. eigenvalues --   -0.36671  -0.36528  -0.36402  -0.36171  -0.36118
 Alpha  occ. eigenvalues --   -0.35683  -0.35625  -0.35530  -0.35383  -0.35086
 Alpha  occ. eigenvalues --   -0.34847  -0.34804  -0.34704  -0.34474  -0.34198
 Alpha  occ. eigenvalues --   -0.34058  -0.33588  -0.33390  -0.33068  -0.33030
 Alpha  occ. eigenvalues --   -0.32368  -0.31740  -0.31179  -0.30479  -0.30230
 Alpha  occ. eigenvalues --   -0.29617  -0.29318  -0.28851  -0.28589  -0.28124
 Alpha  occ. eigenvalues --   -0.27359  -0.26486  -0.26212  -0.25363  -0.25191
 Alpha  occ. eigenvalues --   -0.24749  -0.24159  -0.20040  -0.19707  -0.19182
 Alpha virt. eigenvalues --   -0.08704  -0.05251  -0.04330  -0.01126  -0.00661
 Alpha virt. eigenvalues --    0.02682   0.04366   0.05004   0.06643   0.06801
 Alpha virt. eigenvalues --    0.07404   0.08119   0.08735   0.09094   0.09490
 Alpha virt. eigenvalues --    0.09858   0.09909   0.10967   0.11158   0.11174
 Alpha virt. eigenvalues --    0.11828   0.12119   0.12524   0.12607   0.12782
 Alpha virt. eigenvalues --    0.12914   0.13311   0.13625   0.14028   0.14036
 Alpha virt. eigenvalues --    0.14182   0.14437   0.14508   0.14805   0.15023
 Alpha virt. eigenvalues --    0.15237   0.15455   0.15527   0.15680   0.15943
 Alpha virt. eigenvalues --    0.16239   0.16328   0.16462   0.16650   0.16702
 Alpha virt. eigenvalues --    0.16917   0.17095   0.17178   0.17576   0.17882
 Alpha virt. eigenvalues --    0.17961   0.18045   0.18124   0.18248   0.18502
 Alpha virt. eigenvalues --    0.18593   0.18762   0.18946   0.19191   0.19388
 Alpha virt. eigenvalues --    0.19620   0.19698   0.19893   0.20147   0.20433
 Alpha virt. eigenvalues --    0.20695   0.20752   0.20819   0.21036   0.21221
 Alpha virt. eigenvalues --    0.21293   0.21472   0.21555   0.21788   0.22112
 Alpha virt. eigenvalues --    0.22295   0.22418   0.22578   0.22760   0.23068
 Alpha virt. eigenvalues --    0.23145   0.23559   0.23697   0.23968   0.24279
 Alpha virt. eigenvalues --    0.24570   0.24768   0.24812   0.25078   0.25391
 Alpha virt. eigenvalues --    0.25477   0.25643   0.26094   0.26140   0.26442
 Alpha virt. eigenvalues --    0.26881   0.27218   0.27268   0.27548   0.27829
 Alpha virt. eigenvalues --    0.28055   0.28503   0.28770   0.29098   0.29668
 Alpha virt. eigenvalues --    0.30005   0.30066   0.30647   0.31351   0.31594
 Alpha virt. eigenvalues --    0.32499   0.32839   0.33460   0.33499   0.34100
 Alpha virt. eigenvalues --    0.34691   0.35319   0.35402   0.35839   0.36036
 Alpha virt. eigenvalues --    0.36684   0.37523   0.37756   0.38223   0.38868
 Alpha virt. eigenvalues --    0.39253   0.39559   0.40315   0.41233   0.41679
 Alpha virt. eigenvalues --    0.42391   0.43507   0.45050   0.45549   0.46038
 Alpha virt. eigenvalues --    0.46202   0.47255   0.48001   0.48082   0.48556
 Alpha virt. eigenvalues --    0.48990   0.49261   0.49954   0.50807   0.51048
 Alpha virt. eigenvalues --    0.51248   0.51744   0.51994   0.52183   0.52471
 Alpha virt. eigenvalues --    0.52713   0.53096   0.53543   0.53663   0.54058
 Alpha virt. eigenvalues --    0.54393   0.54610   0.54800   0.55240   0.55572
 Alpha virt. eigenvalues --    0.55796   0.56214   0.56341   0.56720   0.56863
 Alpha virt. eigenvalues --    0.57201   0.57639   0.57912   0.58257   0.58447
 Alpha virt. eigenvalues --    0.58920   0.59053   0.59075   0.59236   0.59570
 Alpha virt. eigenvalues --    0.60064   0.60281   0.60438   0.60942   0.61306
 Alpha virt. eigenvalues --    0.61546   0.61901   0.62002   0.62753   0.62803
 Alpha virt. eigenvalues --    0.63235   0.63669   0.64046   0.64178   0.64581
 Alpha virt. eigenvalues --    0.64845   0.64993   0.65386   0.65837   0.66007
 Alpha virt. eigenvalues --    0.66394   0.66817   0.67571   0.67611   0.67962
 Alpha virt. eigenvalues --    0.68212   0.68284   0.68864   0.69010   0.69233
 Alpha virt. eigenvalues --    0.69479   0.70353   0.70621   0.70718   0.71011
 Alpha virt. eigenvalues --    0.71411   0.71551   0.72077   0.72544   0.72994
 Alpha virt. eigenvalues --    0.73317   0.73660   0.73932   0.74150   0.74296
 Alpha virt. eigenvalues --    0.74595   0.74924   0.75283   0.75451   0.75887
 Alpha virt. eigenvalues --    0.76351   0.76655   0.76837   0.77108   0.77391
 Alpha virt. eigenvalues --    0.77766   0.78117   0.78181   0.78595   0.79406
 Alpha virt. eigenvalues --    0.79483   0.79681   0.79865   0.80462   0.80872
 Alpha virt. eigenvalues --    0.81419   0.81667   0.82218   0.82624   0.82756
 Alpha virt. eigenvalues --    0.83034   0.83469   0.83768   0.84256   0.84627
 Alpha virt. eigenvalues --    0.84761   0.84789   0.85262   0.85307   0.85529
 Alpha virt. eigenvalues --    0.85834   0.86020   0.86154   0.86638   0.86828
 Alpha virt. eigenvalues --    0.87005   0.87114   0.87209   0.87997   0.88163
 Alpha virt. eigenvalues --    0.88336   0.88595   0.88643   0.89012   0.89292
 Alpha virt. eigenvalues --    0.89681   0.89783   0.89924   0.90207   0.90307
 Alpha virt. eigenvalues --    0.90540   0.90740   0.90934   0.91164   0.91265
 Alpha virt. eigenvalues --    0.91456   0.91748   0.91810   0.92161   0.92642
 Alpha virt. eigenvalues --    0.92829   0.93079   0.93225   0.93393   0.93715
 Alpha virt. eigenvalues --    0.94020   0.94571   0.94727   0.95093   0.95447
 Alpha virt. eigenvalues --    0.95813   0.96272   0.96405   0.96666   0.96954
 Alpha virt. eigenvalues --    0.97056   0.97511   0.98041   0.98062   0.98561
 Alpha virt. eigenvalues --    0.98652   0.99191   0.99775   0.99930   1.00378
 Alpha virt. eigenvalues --    1.01018   1.01139   1.01460   1.01784   1.02662
 Alpha virt. eigenvalues --    1.03356   1.03441   1.03777   1.04547   1.05071
 Alpha virt. eigenvalues --    1.05249   1.05785   1.06241   1.06944   1.07230
 Alpha virt. eigenvalues --    1.07361   1.08114   1.08613   1.09770   1.09895
 Alpha virt. eigenvalues --    1.10634   1.11094   1.11602   1.12511   1.13104
 Alpha virt. eigenvalues --    1.14005   1.14058   1.14935   1.15500   1.15706
 Alpha virt. eigenvalues --    1.16225   1.16686   1.16825   1.17405   1.18012
 Alpha virt. eigenvalues --    1.18604   1.18781   1.18999   1.19862   1.20107
 Alpha virt. eigenvalues --    1.20539   1.21316   1.21789   1.21989   1.22918
 Alpha virt. eigenvalues --    1.23134   1.23766   1.23981   1.25148   1.25493
 Alpha virt. eigenvalues --    1.25764   1.26470   1.26959   1.27602   1.27873
 Alpha virt. eigenvalues --    1.28764   1.29169   1.29862   1.30751   1.30990
 Alpha virt. eigenvalues --    1.31546   1.31709   1.32216   1.33218   1.33457
 Alpha virt. eigenvalues --    1.33819   1.34008   1.34268   1.34825   1.34971
 Alpha virt. eigenvalues --    1.35597   1.36052   1.36403   1.37117   1.37783
 Alpha virt. eigenvalues --    1.38105   1.38696   1.39039   1.39309   1.39570
 Alpha virt. eigenvalues --    1.39906   1.40566   1.40806   1.41290   1.41477
 Alpha virt. eigenvalues --    1.41800   1.42439   1.42636   1.43384   1.43914
 Alpha virt. eigenvalues --    1.44155   1.44417   1.44762   1.45792   1.46316
 Alpha virt. eigenvalues --    1.46918   1.47108   1.47687   1.47811   1.48058
 Alpha virt. eigenvalues --    1.48490   1.49314   1.50097   1.50514   1.51627
 Alpha virt. eigenvalues --    1.51922   1.52958   1.53385   1.53743   1.55023
 Alpha virt. eigenvalues --    1.55269   1.56294   1.56878   1.57352   1.59068
 Alpha virt. eigenvalues --    1.59262   1.59739   1.61396   1.62323   1.62409
 Alpha virt. eigenvalues --    1.62912   1.63595   1.63899   1.64762   1.65431
 Alpha virt. eigenvalues --    1.65568   1.65751   1.66281   1.66924   1.67005
 Alpha virt. eigenvalues --    1.67651   1.67809   1.67946   1.69081   1.69414
 Alpha virt. eigenvalues --    1.69565   1.69934   1.70419   1.70492   1.71739
 Alpha virt. eigenvalues --    1.72272   1.72516   1.73483   1.73853   1.74781
 Alpha virt. eigenvalues --    1.75397   1.75905   1.76032   1.76592   1.76960
 Alpha virt. eigenvalues --    1.77577   1.78146   1.78755   1.79309   1.79726
 Alpha virt. eigenvalues --    1.80224   1.80349   1.80845   1.81474   1.82017
 Alpha virt. eigenvalues --    1.82410   1.82646   1.83273   1.83692   1.83913
 Alpha virt. eigenvalues --    1.84124   1.84842   1.85359   1.85720   1.85869
 Alpha virt. eigenvalues --    1.86239   1.86602   1.86837   1.87022   1.87480
 Alpha virt. eigenvalues --    1.87643   1.88232   1.88509   1.88608   1.89016
 Alpha virt. eigenvalues --    1.89387   1.89833   1.90526   1.90643   1.91049
 Alpha virt. eigenvalues --    1.91764   1.91931   1.92136   1.92569   1.92745
 Alpha virt. eigenvalues --    1.92871   1.93371   1.93638   1.94001   1.94116
 Alpha virt. eigenvalues --    1.94510   1.94759   1.94806   1.95431   1.95781
 Alpha virt. eigenvalues --    1.96187   1.96209   1.96674   1.97013   1.97386
 Alpha virt. eigenvalues --    1.97831   1.98488   1.99480   1.99685   2.00094
 Alpha virt. eigenvalues --    2.00427   2.00907   2.01396   2.01493   2.02131
 Alpha virt. eigenvalues --    2.02342   2.02536   2.02961   2.03190   2.03432
 Alpha virt. eigenvalues --    2.03717   2.03982   2.04384   2.04713   2.05359
 Alpha virt. eigenvalues --    2.05438   2.06196   2.06453   2.07196   2.07457
 Alpha virt. eigenvalues --    2.07614   2.07879   2.07943   2.08154   2.09022
 Alpha virt. eigenvalues --    2.09426   2.09880   2.10125   2.10186   2.10692
 Alpha virt. eigenvalues --    2.11014   2.11229   2.11483   2.11815   2.12144
 Alpha virt. eigenvalues --    2.12764   2.13013   2.13278   2.14120   2.14475
 Alpha virt. eigenvalues --    2.14678   2.14933   2.14977   2.15256   2.15914
 Alpha virt. eigenvalues --    2.16447   2.16692   2.17120   2.17904   2.18497
 Alpha virt. eigenvalues --    2.18685   2.19088   2.19481   2.19559   2.19952
 Alpha virt. eigenvalues --    2.20016   2.20421   2.20775   2.20990   2.21646
 Alpha virt. eigenvalues --    2.21905   2.22343   2.22681   2.23207   2.23404
 Alpha virt. eigenvalues --    2.23945   2.24066   2.24356   2.24522   2.24981
 Alpha virt. eigenvalues --    2.25351   2.26063   2.26370   2.26928   2.27386
 Alpha virt. eigenvalues --    2.27783   2.27958   2.28730   2.28957   2.29406
 Alpha virt. eigenvalues --    2.30405   2.30652   2.31287   2.31988   2.32065
 Alpha virt. eigenvalues --    2.32757   2.32959   2.33499   2.33997   2.34335
 Alpha virt. eigenvalues --    2.34525   2.34961   2.35690   2.35974   2.36843
 Alpha virt. eigenvalues --    2.37109   2.38997   2.39450   2.39911   2.40311
 Alpha virt. eigenvalues --    2.40780   2.41645   2.42979   2.44572   2.44836
 Alpha virt. eigenvalues --    2.45812   2.46398   2.46782   2.47939   2.48361
 Alpha virt. eigenvalues --    2.49137   2.49769   2.50136   2.50508   2.50989
 Alpha virt. eigenvalues --    2.51055   2.51879   2.52727   2.53548   2.54520
 Alpha virt. eigenvalues --    2.54909   2.56011   2.57796   2.59663   2.59905
 Alpha virt. eigenvalues --    2.60189   2.60507   2.61563   2.62661   2.63525
 Alpha virt. eigenvalues --    2.64691   2.64915   2.65541   2.66119   2.66238
 Alpha virt. eigenvalues --    2.67097   2.68308   2.68650   2.70524   2.70888
 Alpha virt. eigenvalues --    2.73215   2.74270   2.76612   2.76708   2.77532
 Alpha virt. eigenvalues --    2.78187   2.78523   2.78960   2.79757   2.79976
 Alpha virt. eigenvalues --    2.80237   2.80775   2.81122   2.81715   2.82032
 Alpha virt. eigenvalues --    2.82251   2.82521   2.83109   2.83966   2.84342
 Alpha virt. eigenvalues --    2.85787   2.86447   2.88190   2.88623   2.90955
 Alpha virt. eigenvalues --    2.91007   2.92574   2.94244   2.95257   2.95778
 Alpha virt. eigenvalues --    2.96130   2.97069   2.97623   3.02400   3.03128
 Alpha virt. eigenvalues --    3.05227   3.06324   3.06571   3.07036   3.07295
 Alpha virt. eigenvalues --    3.08811   3.09060   3.11425   3.12047   3.12400
 Alpha virt. eigenvalues --    3.12905   3.13232   3.15656   3.20835   3.24680
 Alpha virt. eigenvalues --    3.32049   3.43929  11.32470
          Condensed to atoms (all electrons):
 Mulliken charges:
               1
     1  C    0.304770
     2  C    0.025786
     3  C   -0.076783
     4  C   -0.169421
     5  C   -0.178820
     6  C    0.305101
     7  C    0.038682
     8  C   -0.071301
     9  C   -0.161134
    10  C   -0.181600
    11  H    0.210628
    12  H    0.199152
    13  H    0.180117
    14  H    0.236458
    15  H    0.198985
    16  H    0.167929
    17  N   -0.471537
    18  N   -0.523214
    19  O   -0.536846
    20  O   -0.559267
    21  O   -0.509690
    22  B    0.851988
    23  B    0.439239
    24  B    0.416291
    25  O   -0.527401
    26  O   -0.506084
    27  C    0.291446
    28  C    0.301807
    29  C    0.295935
    30  C    0.305174
    31  C    0.310365
    32  C    0.330342
    33  O   -0.582699
    34  C   -0.506020
    35  H    0.163932
    36  H    0.169018
    37  H    0.147544
    38  C   -0.500239
    39  H    0.154949
    40  H    0.153254
    41  H    0.159411
    42  C   -0.503336
    43  H    0.177931
    44  H    0.172987
    45  H    0.136846
    46  C   -0.506103
    47  H    0.144134
    48  H    0.171291
    49  H    0.162807
    50  C   -0.516244
    51  H    0.146437
    52  H    0.171192
    53  H    0.162727
    54  C   -0.510529
    55  H    0.172758
    56  H    0.145061
    57  H    0.160288
    58  C   -0.524752
    59  H    0.140281
    60  H    0.218621
    61  H    0.167205
    62  C   -0.493969
    63  H    0.158650
    64  H    0.154306
    65  H    0.144394
    66  C   -0.507120
    67  H    0.177151
    68  H    0.153317
    69  H    0.147087
    70  C   -0.511128
    71  H    0.149593
    72  H    0.173389
    73  H    0.160992
    74  C   -0.506449
    75  H    0.159797
    76  H    0.186880
    77  H    0.146656
    78  C   -0.508522
    79  H    0.172429
    80  H    0.169679
    81  H    0.145830
    82  H    0.081524
    83  C    0.620197
    84  O   -0.515946
    85  C   -0.421499
    86  H    0.199947
    87  H    0.168498
    88  C   -0.405316
    89  H    0.205637
    90  H    0.175447
    91  N   -0.380377
    92  C   -0.395365
    93  H    0.200714
    94  H    0.185891
    95  H    0.201695
    96  C   -0.263370
    97  H    0.138966
    98  H    0.177657
    99  C   -0.278273
   100  H    0.150291
   101  H    0.129866
   102  C   -0.280310
   103  H    0.132788
   104  H    0.158981
   105  C   -0.499962
   106  H    0.166019
   107  H    0.159098
   108  H    0.171343
   109  C    0.973737
   110  F   -0.316324
   111  F   -0.309059
   112  F   -0.307901
   113  C    0.967216
   114  F   -0.302949
   115  F   -0.318695
   116  F   -0.309133
   117  Ir  -0.119844
 Sum of Mulliken charges =  -0.00000
 Mulliken charges with hydrogens summed into heavy atoms:
               1
     1  C    0.304770
     2  C    0.236414
     3  C   -0.076783
     4  C    0.029730
     5  C    0.001297
     6  C    0.305101
     7  C    0.275140
     8  C   -0.071301
     9  C    0.037851
    10  C   -0.013671
    17  N   -0.471537
    18  N   -0.523214
    19  O   -0.536846
    20  O   -0.559267
    21  O   -0.509690
    22  B    0.851988
    23  B    0.439239
    24  B    0.416291
    25  O   -0.527401
    26  O   -0.506084
    27  C    0.291446
    28  C    0.301807
    29  C    0.295935
    30  C    0.305174
    31  C    0.310365
    32  C    0.330342
    33  O   -0.582699
    34  C   -0.025526
    38  C   -0.032626
    42  C   -0.015571
    46  C   -0.027870
    50  C   -0.035888
    54  C   -0.032421
    58  C    0.001355
    62  C   -0.036618
    66  C   -0.029565
    70  C   -0.027154
    74  C   -0.013115
    78  C   -0.020584
    83  C    0.620197
    84  O   -0.515946
    85  C   -0.053054
    88  C   -0.024233
    91  N   -0.380377
    92  C    0.192934
    96  C    0.053253
    99  C    0.001884
   102  C    0.011459
   105  C   -0.003502
   109  C    0.973737
   110  F   -0.316324
   111  F   -0.309059
   112  F   -0.307901
   113  C    0.967216
   114  F   -0.302949
   115  F   -0.318695
   116  F   -0.309133
   117  Ir  -0.038320
 APT charges:
               1
     1  C    0.186324
     2  C    0.051250
     3  C   -0.149672
     4  C    0.003761
     5  C   -0.135202
     6  C    0.119754
     7  C    0.018174
     8  C   -0.143812
     9  C    0.023668
    10  C   -0.137135
    11  H    0.075361
    12  H    0.064721
    13  H    0.054046
    14  H    0.150173
    15  H    0.066205
    16  H    0.045988
    17  N   -0.066247
    18  N   -0.001264
    19  O   -1.005703
    20  O   -0.922298
    21  O   -1.001558
    22  B    1.310756
    23  B    1.326233
    24  B    1.298683
    25  O   -0.933504
    26  O   -1.052977
    27  C    0.504400
    28  C    0.515097
    29  C    0.479851
    30  C    0.493480
    31  C    0.481095
    32  C    0.448771
    33  O   -0.953606
    34  C   -0.004830
    35  H   -0.001956
    36  H    0.001082
    37  H   -0.025200
    38  C   -0.033643
    39  H   -0.005635
    40  H   -0.028734
    41  H    0.000168
    42  C   -0.037423
    43  H    0.023918
    44  H    0.000982
    45  H   -0.034914
    46  C   -0.001206
    47  H   -0.024962
    48  H   -0.003154
    49  H   -0.004829
    50  C   -0.008945
    51  H   -0.008768
    52  H    0.006702
    53  H   -0.017574
    54  C   -0.033066
    55  H   -0.005436
    56  H   -0.013530
    57  H   -0.011332
    58  C   -0.063541
    59  H   -0.015515
    60  H    0.061427
    61  H    0.004616
    62  C   -0.021946
    63  H    0.012161
    64  H   -0.006962
    65  H   -0.015363
    66  C   -0.045463
    67  H    0.011214
    68  H   -0.019583
    69  H   -0.012116
    70  C   -0.013553
    71  H   -0.016829
    72  H    0.005128
    73  H   -0.006541
    74  C   -0.027255
    75  H    0.001986
    76  H   -0.002164
    77  H   -0.025947
    78  C   -0.002913
    79  H    0.003132
    80  H   -0.001648
    81  H   -0.021396
    82  H   -0.090599
    83  C    0.890893
    84  O   -0.890820
    85  C   -0.035519
    86  H   -0.002374
    87  H    0.025288
    88  C   -0.029251
    89  H    0.036629
    90  H   -0.009812
    91  N   -0.604473
    92  C    0.287093
    93  H    0.011943
    94  H    0.022963
    95  H   -0.015502
    96  C    0.097633
    97  H   -0.018947
    98  H   -0.017379
    99  C    0.096537
   100  H   -0.048596
   101  H   -0.036257
   102  C    0.126439
   103  H   -0.070802
   104  H   -0.040557
   105  C    0.063004
   106  H   -0.019968
   107  H   -0.015965
   108  H   -0.027251
   109  C    1.781848
   110  F   -0.625106
   111  F   -0.499778
   112  F   -0.582521
   113  C    1.771760
   114  F   -0.557669
   115  F   -0.584420
   116  F   -0.537425
   117  Ir  -0.574497
 Sum of APT charges =   0.00000
 APT charges with hydrogens summed into heavy atoms:
               1
     1  C    0.186324
     2  C    0.126611
     3  C   -0.149672
     4  C    0.068482
     5  C   -0.081156
     6  C    0.119754
     7  C    0.168347
     8  C   -0.143812
     9  C    0.089874
    10  C   -0.091147
    17  N   -0.066247
    18  N   -0.001264
    19  O   -1.005703
    20  O   -0.922298
    21  O   -1.001558
    22  B    1.310756
    23  B    1.326233
    24  B    1.298683
    25  O   -0.933504
    26  O   -1.052977
    27  C    0.504400
    28  C    0.515097
    29  C    0.479851
    30  C    0.493480
    31  C    0.481095
    32  C    0.448771
    33  O   -0.953606
    34  C   -0.030905
    38  C   -0.067844
    42  C   -0.047437
    46  C   -0.034151
    50  C   -0.028585
    54  C   -0.063364
    58  C   -0.013013
    62  C   -0.032110
    66  C   -0.065948
    70  C   -0.031795
    74  C   -0.053380
    78  C   -0.022825
    83  C    0.890893
    84  O   -0.890820
    85  C   -0.012604
    88  C   -0.002433
    91  N   -0.604473
    92  C    0.306498
    96  C    0.061307
    99  C    0.011683
   102  C    0.015080
   105  C   -0.000180
   109  C    1.781848
   110  F   -0.625106
   111  F   -0.499778
   112  F   -0.582521
   113  C    1.771760
   114  F   -0.557669
   115  F   -0.584420
   116  F   -0.537425
   117  Ir  -0.665096
 Electronic spatial extent (au):  <R**2>=          37282.0981
 Charge=             -0.0000 electrons
 Dipole moment (field-independent basis, Debye):
    X=              8.0500    Y=             -0.2433    Z=              3.4300  Tot=              8.7536
 Quadrupole moment (field-independent basis, Debye-Ang):
   XX=           -328.0021   YY=           -360.1085   ZZ=           -351.0694
   XY=             -2.8353   XZ=              1.6296   YZ=             -3.3156
 Traceless Quadrupole moment (field-independent basis, Debye-Ang):
   XX=             18.3912   YY=            -13.7151   ZZ=             -4.6761
   XY=             -2.8353   XZ=              1.6296   YZ=             -3.3156
 Octapole moment (field-independent basis, Debye-Ang**2):
  XXX=             20.0308  YYY=             83.5113  ZZZ=            -24.7851  XYY=            -45.1837
  XXY=            -11.8046  XXZ=            -31.3954  XZZ=             65.3731  YZZ=             31.5639
  YYZ=             16.5535  XYZ=            -43.2883
 Hexadecapole moment (field-independent basis, Debye-Ang**3):
 XXXX=         -22838.5458 YYYY=         -15167.2243 ZZZZ=          -8717.0447 XXXY=            133.0815
 XXXZ=           -217.9198 YYYX=            212.8171 YYYZ=           -194.2645 ZZZX=           -228.5743
 ZZZY=           -391.7818 XXYY=          -6579.2705 XXZZ=          -5277.8738 YYZZ=          -4073.4559
 XXYZ=            -39.7886 YYXZ=             26.3152 ZZXY=            117.4246
 N-N= 1.048805379392D+04 E-N=-2.785528701869D+04  KE= 2.862824810907D+03
  Exact polarizability:     594.496      27.141     504.640      35.773     -31.648     462.388
 Approx polarizability:     821.416      66.347     722.475      56.925     -89.179     744.810
   1 Symmetry operations used in ECPInt.
 ECPInt:  NShTT=   62835 NPrTT=  387974 LenC2=   45166 LenP2D=  137548.
 LDataN:  DoStor=T MaxTD1= 8 Len=  415
 Calling FoFJK, ICntrl=    100127 FMM=F ISym2X=0 I1Cent= 0 IOpClX= 0 NMat=1 NMatS=1 NMatT=0.
 Defaulting to unpruned grid for atomic number  77.
 Defaulting to unpruned grid for atomic number  77.
 Defaulting to unpruned grid for atomic number  77.
 Defaulting to unpruned grid for atomic number  77.
 Defaulting to unpruned grid for atomic number  77.
 Defaulting to unpruned grid for atomic number  77.
 Defaulting to unpruned grid for atomic number  77.
 Defaulting to unpruned grid for atomic number  77.
 Defaulting to unpruned grid for atomic number  77.
 Defaulting to unpruned grid for atomic number  77.
 Defaulting to unpruned grid for atomic number  77.
 Defaulting to unpruned grid for atomic number  77.
 Defaulting to unpruned grid for atomic number  77.
 Defaulting to unpruned grid for atomic number  77.
 Defaulting to unpruned grid for atomic number  77.
 Defaulting to unpruned grid for atomic number  77.
 Full mass-weighted force constant matrix:
 Low frequencies ---   -5.6977   -0.8246   -0.0006    0.0001    0.0004    5.3150
 Low frequencies ---   20.3826   22.5657   26.7209
 Diagonal vibrational polarizability:
      116.3784325     107.4251077      82.5517858
 Harmonic frequencies (cm**-1), IR intensities (KM/Mole), Raman scattering
 activities (A**4/AMU), depolarization ratios for plane and unpolarized
 incident light, reduced masses (AMU), force constants (mDyne/A),
 and normal coordinates:
                      1                      2                      3
                      A                      A                      A
 Frequencies --     20.2522                22.2382                26.6514
 Red. masses --      4.9268                 4.6909                 4.6839
 Frc consts  --      0.0012                 0.0014                 0.0020
 IR Inten    --      0.4387                 0.0806                 0.3092
  Atom AN      X      Y      Z        X      Y      Z        X      Y      Z
     1   6     0.00   0.04  -0.02    -0.01  -0.00   0.01    -0.02  -0.01   0.03
     2   6     0.00   0.00  -0.05     0.01  -0.03  -0.01     0.01  -0.03   0.02
     3   6    -0.02   0.05  -0.04     0.00  -0.02  -0.00    -0.01  -0.01   0.04
     4   6    -0.03   0.09  -0.02    -0.01   0.00   0.01    -0.04   0.02   0.06
     5   6    -0.02   0.08  -0.01    -0.02   0.01   0.02    -0.04   0.02   0.05
     6   6     0.02   0.03  -0.01    -0.02   0.01   0.01    -0.01  -0.02   0.02
     7   6     0.03  -0.02  -0.03    -0.02   0.02  -0.00    -0.01  -0.04  -0.01
     8   6     0.04   0.01  -0.01    -0.04   0.04   0.01    -0.01  -0.05  -0.01
     9   6     0.03   0.04   0.01    -0.05   0.04   0.03    -0.01  -0.04  -0.00
    10   6     0.02   0.06   0.01    -0.04   0.02   0.03    -0.01  -0.02   0.01
    11   1     0.01  -0.03  -0.07     0.02  -0.04  -0.02     0.03  -0.04   0.01
    12   1    -0.06   0.12  -0.01    -0.02   0.01   0.02    -0.05   0.03   0.08
    13   1    -0.04   0.12   0.01    -0.03   0.03   0.03    -0.07   0.04   0.07
    14   1     0.03  -0.04  -0.04    -0.02   0.02  -0.02    -0.01  -0.05  -0.01
    15   1     0.04   0.06   0.03    -0.06   0.05   0.05    -0.01  -0.04  -0.00
    16   1     0.02   0.09   0.02    -0.04   0.02   0.04    -0.01  -0.01   0.02
    17   7     0.01   0.00  -0.04     0.00  -0.02  -0.00     0.01  -0.03   0.02
    18   7     0.02  -0.01  -0.03    -0.01   0.01  -0.00    -0.01  -0.03   0.00
    19   8     0.03  -0.01   0.00    -0.01  -0.05  -0.04     0.01   0.06   0.02
    20   8    -0.01  -0.03  -0.02    -0.01  -0.03   0.01    -0.01  -0.01  -0.02
    21   8     0.01  -0.01   0.04     0.02   0.01   0.05     0.04  -0.00  -0.03
    22   5     0.00  -0.03  -0.02    -0.01  -0.02  -0.00    -0.01  -0.01  -0.01
    23   5     0.01  -0.00  -0.01     0.00   0.00  -0.03     0.00   0.00   0.01
    24   5     0.02  -0.02   0.00     0.01  -0.01   0.02     0.02  -0.02  -0.00
    25   8     0.04  -0.04   0.00     0.03  -0.05   0.04     0.01  -0.02   0.01
    26   8    -0.01   0.02   0.00     0.01   0.04  -0.03     0.00  -0.02   0.01
    27   6    -0.00   0.02   0.03     0.01   0.02  -0.04     0.01   0.02   0.01
    28   6     0.02   0.01   0.02     0.00  -0.05  -0.07    -0.00   0.08   0.04
    29   6     0.02  -0.04   0.07     0.04  -0.02   0.08     0.04   0.01  -0.05
    30   6     0.03  -0.04   0.04     0.04  -0.05   0.08     0.03  -0.01  -0.02
    31   6    -0.03  -0.01  -0.03    -0.00  -0.02   0.03    -0.02  -0.01  -0.02
    32   6    -0.02   0.01  -0.05    -0.00  -0.02   0.02    -0.02  -0.01  -0.02
    33   8    -0.01  -0.01  -0.04    -0.00  -0.01   0.01    -0.01  -0.02  -0.01
    34   6     0.04   0.01   0.05    -0.02  -0.11  -0.05     0.02   0.14   0.02
    35   1     0.05  -0.00   0.04    -0.02  -0.15  -0.07     0.01   0.18   0.04
    36   1     0.07   0.01   0.06    -0.05  -0.11  -0.00     0.06   0.14  -0.02
    37   1     0.03   0.04   0.07    -0.01  -0.11  -0.07     0.01   0.16   0.03
    38   6    -0.01   0.01   0.01     0.03  -0.05  -0.14    -0.04   0.08   0.09
    39   1     0.01  -0.00   0.00     0.02  -0.09  -0.15    -0.06   0.11   0.11
    40   1    -0.02   0.03   0.03     0.03  -0.05  -0.16    -0.05   0.10   0.10
    41   1    -0.03   0.01  -0.01     0.04  -0.00  -0.15    -0.06   0.03   0.11
    42   6     0.01   0.03   0.05     0.00   0.02   0.03     0.04   0.03  -0.04
    43   1     0.03   0.02   0.04    -0.01  -0.01   0.07     0.06   0.05  -0.07
    44   1    -0.00   0.04   0.05     0.01   0.07   0.05     0.04  -0.01  -0.06
    45   1     0.01   0.03   0.07    -0.00   0.00   0.03     0.05   0.07  -0.04
    46   6    -0.03   0.04   0.04     0.02   0.06  -0.08    -0.02   0.01   0.05
    47   1    -0.02   0.05   0.05     0.02   0.04  -0.09    -0.01   0.04   0.05
    48   1    -0.04   0.05   0.04     0.03   0.11  -0.05    -0.01  -0.03   0.03
    49   1    -0.04   0.04   0.02     0.03   0.07  -0.12    -0.04  -0.01   0.08
    50   6    -0.03  -0.00  -0.04    -0.01  -0.03   0.05    -0.02  -0.01  -0.03
    51   1    -0.05   0.01  -0.05    -0.01  -0.03   0.06    -0.02  -0.01  -0.04
    52   1    -0.01   0.00  -0.05    -0.02  -0.05   0.04    -0.01  -0.00  -0.03
    53   1    -0.04  -0.02  -0.03    -0.01  -0.04   0.05    -0.02  -0.01  -0.03
    54   6    -0.06  -0.02  -0.02     0.00  -0.00   0.03    -0.02  -0.02  -0.03
    55   1    -0.06  -0.02  -0.02     0.01   0.01   0.02    -0.02  -0.03  -0.02
    56   1    -0.08  -0.01  -0.03     0.01   0.00   0.05    -0.02  -0.02  -0.03
    57   1    -0.06  -0.04  -0.00     0.00  -0.01   0.04    -0.02  -0.02  -0.03
    58   6    -0.00   0.02  -0.06    -0.00  -0.03   0.02    -0.01  -0.00  -0.02
    59   1    -0.01   0.03  -0.08    -0.02  -0.02   0.04    -0.01  -0.00  -0.03
    60   1     0.00   0.02  -0.07     0.01  -0.01   0.01    -0.02  -0.01  -0.01
    61   1     0.02   0.02  -0.05    -0.01  -0.05   0.01    -0.01   0.01  -0.01
    62   6    -0.05   0.02  -0.06     0.00  -0.01   0.03    -0.02  -0.02  -0.03
    63   1    -0.03   0.04  -0.07    -0.00  -0.01   0.02    -0.02  -0.02  -0.02
    64   1    -0.06   0.03  -0.07     0.00  -0.01   0.04    -0.02  -0.02  -0.03
    65   1    -0.06   0.01  -0.05     0.00   0.00   0.03    -0.02  -0.02  -0.02
    66   6     0.01  -0.02   0.04     0.05  -0.03   0.10     0.06  -0.04  -0.00
    67   1    -0.00   0.01   0.04     0.04   0.00   0.09     0.09  -0.05   0.00
    68   1     0.00  -0.02   0.07     0.06  -0.03   0.13     0.08  -0.03  -0.02
    69   1     0.02  -0.02   0.02     0.05  -0.06   0.08     0.05  -0.04   0.03
    70   6     0.05  -0.08   0.05     0.05  -0.09   0.09     0.01   0.00  -0.02
    71   1     0.05  -0.08   0.08     0.07  -0.09   0.13     0.03   0.01  -0.04
    72   1     0.06  -0.09   0.05     0.05  -0.11   0.07    -0.02   0.02  -0.02
    73   1     0.06  -0.08   0.03     0.06  -0.12   0.08     0.00  -0.02   0.01
    74   6     0.04  -0.07   0.07     0.04  -0.03   0.08     0.01   0.05  -0.06
    75   1     0.04  -0.09   0.08     0.03   0.02   0.08     0.02   0.05  -0.08
    76   1     0.07  -0.07   0.06     0.02  -0.06   0.03    -0.01   0.06  -0.03
    77   1     0.03  -0.08   0.08     0.07  -0.06   0.12     0.00   0.07  -0.09
    78   6    -0.00  -0.02   0.10     0.05   0.01   0.12     0.08   0.01  -0.08
    79   1    -0.02   0.00   0.10     0.05   0.03   0.13     0.10  -0.02  -0.07
    80   1    -0.01  -0.02   0.12     0.05   0.03   0.12     0.09   0.03  -0.09
    81   1     0.01  -0.04   0.13     0.06  -0.01   0.15     0.09   0.02  -0.09
    82   1     0.00  -0.00  -0.03     0.01   0.00  -0.01     0.01  -0.02   0.01
    83   6    -0.01  -0.03   0.03    -0.01   0.00  -0.03    -0.02   0.01  -0.02
    84   8    -0.02  -0.03   0.00     0.00  -0.00  -0.02    -0.01  -0.01  -0.02
    85   6    -0.03  -0.02   0.07    -0.00   0.02  -0.05    -0.02   0.03  -0.03
    86   1    -0.01  -0.03   0.10    -0.01   0.00  -0.05    -0.02   0.02  -0.02
    87   1    -0.05  -0.01   0.06    -0.00   0.03  -0.08    -0.03   0.04  -0.06
    88   6     0.03  -0.04  -0.02    -0.02  -0.03  -0.02    -0.03  -0.01  -0.02
    89   1     0.03  -0.03  -0.04    -0.03  -0.03  -0.02    -0.04  -0.02  -0.02
[...]
 28,0.00005704,-0.00008480,0.00000041,-0.00000421,0.00002924,-0.0000000
 3,-0.00002071,0.00000031,0.00001850,-0.00012961,0.00021366,-0.00019531
 ,-0.00080645,0.00028702,-0.00194432,-0.00005502,-0.00000819,0.00001420
 ,0.00004350,-0.00003586,0.00014216,-0.00001132,0.00000419,-0.00000030,
 0.00001383,-0.00000554,-0.00000340,0.00000241,0.00000303,0.00000036,-0
 .00002680,0.00001027,-0.00000089,-0.00000566,-0.00000173,-0.00000702,-
 0.00001836,-0.00000168,-0.00000028,0.00000221,-0.00000015,-0.00000753,
 0.00000568,0.00000746,0.00000846,0.00000155,-0.00000526,-0.00000432,0.
 00000293,0.00001469,0.00001058,-0.00000444,0.00000764,-0.00000943,0.00
 001523,-0.00001216,-0.00000649,-0.00000012,-0.00001475,0.00000641,-0.0
 0003468,-0.00001231,-0.00000457,-0.00000526,0.00004013,0.00001008,0.00
 002564,-0.00000749,-0.00002759,0.00005507,0.00001989,-0.00004941,-0.00
 000218,-0.00001055,0.00001032,0.00001195,-0.00000916,0.00001049,-0.000
 00315,0.00001750,-0.00003978,0.00016134,0.00004748,-0.00004725,0.00001
 471,-0.00006031,0.00010706,0.00000569,0.00002112,0.00006543,-0.0001739
 4,-0.00000271,-0.00005361,-0.00000428,0.00002814,0.00000881,-0.0000004
 4,-0.00001045,0.00001615,-0.00000076,0.00002026,-0.00000258,-0.0000060
 7,-0.00001082,-0.00000712,0.00001734,0.00003039,-0.00000449,-0.0000044
 7,0.00001430,0.00000963,-0.00000858,-0.00001019,0.00000213,0.00000328,
 -0.00000579,-0.00000101,-0.00003376,0.00001961,0.00002275,-0.00000039,
 -0.00000815,-0.00000908,0.00002356,-0.00000654,-0.00002605,-0.00000457
 ,0.00002514,0.00001608,-0.00001805,0.00000806,0.00001911,-0.00000067,-
 0.00001082,0.00000708,-0.00000421,-0.00000220,-0.00000876,0.00000077,0
 .00001819,0.00000398,0.00001318,0.00001956,-0.00008808,-0.00010662,-0.
 00009439,0.00007766,0.00016293,0.00006690,-0.00001895,0.00002185,0.000
 00976,0.00000340,0.00000491,-0.00000309,-0.00000633,-0.00000810,0.0000
 0082,0.00000811,0.00001593,0.00002459,-0.00001885,-0.00000796,-0.00000
 783,0.00001951,0.00000903,-0.00000848,-0.00000850,0.00003149,0.0000507
 1,-0.00006447,-0.00002345,-0.00003143,0.00003267,-0.00000187,0.0000033
 2,0.00000391,0.00000238,0.00000523,0.00000378,0.00000335,-0.00000246,-
 0.00001186,-0.00002752,0.00000710,0.00001437,0.00000224,-0.00000363,-0
 .00000970,-0.00000145,-0.00000131,-0.00000130,-0.00000610,0.00000178,-
 0.00000554,0.00001344,-0.00000265,-0.00000250,-0.00000541,-0.00000141,
 0.00000255,-0.00001144,0.00001059,0.00000430,0.00000992,-0.00000320,-0
 .00001224,-0.00000015,-0.00000141,-0.00000039,-0.00000338,-0.00000463,
 -0.00000534,0.00000687,0.00000175,-0.00000149,0.00000007,0.00000494,-0
 .00000217,0.00000467,-0.00000640,0.00001159,-0.00016616,-0.00023190,0.
 00006968,0.00008168,0.00004080,-0.00003098,0.00002057,0.00005607,-0.00
 004116,0.00005531,0.00010141,0.00002373,0.04146799,-0.01758267,-0.0879
 5855,0.02649062,-0.04229827,-0.01299731,-0.03859439,0.02895209,0.00372
 436,-0.04950736,0.03624212,0.09340386,-0.00884799,0.01358397,-0.022200
 45,-0.01862221,-0.01967013,0.00726846,0.00791453,0.00285898,0.00227260
 ,-0.00544295,-0.00004405,-0.00554482,0.00268580,-0.00106369,0.00464345
 ,-0.00964707,0.00033024,-0.00895990,0.00376834,-0.00392853,0.00477530,
 0.00097616,-0.00270723,0.00099736,-0.00205555,-0.00049848,-0.00031866,
 -0.00076040,0.00093561,-0.00170034,-0.00093345,0.00168095,-0.00169853,
 0.00018298,0.00021360,0.00009101,0.00055345,0.00042366,0.00034356,-0.0
 0152713,0.00050737,0.00123717,-0.00002531,0.00006266,0.00011847,-0.000
 19361,0.00072792,0.00012556,0.00464821,-0.00032042,0.00640995,-0.02883
 308,-0.00189824,0.00687981,-0.02460624,-0.00477966,0.01028415,0.000830
 61,0.00044910,-0.00011774,-0.00041846,0.01777532,0.00457455,-0.0043345
 9,0.00073079,0.00204547,-0.11080362,0.01377827,-0.00922365,-0.05182056
 ,0.02224997,0.01342530,0.00822751,-0.00608819,-0.00468663,-0.02154459,
 -0.00259054,-0.01113184,0.00616442,-0.00098148,-0.00274726,0.00444192,
 -0.00032846,0.00330704,-0.00051721,-0.00116480,-0.00416236,-0.00010700
 ,0.00070821,-0.00233843,-0.00127141,-0.00089819,-0.00015469,0.00425415
 ,-0.00124246,-0.00122843,-0.01173289,0.00254240,0.00233449,-0.00071644
 ,-0.00043564,-0.00022301,-0.00002338,-0.00006997,0.00021349,0.00013873
 ,0.00000464,-0.00010016,-0.00039083,0.00009225,0.00011531,-0.00107724,
 0.00004686,-0.00037138,-0.00001949,0.00001464,0.00026547,-0.00020489,-
 0.00058671,-0.00013688,-0.00001624,0.00011031,-0.00020461,-0.00055518,
 0.00002776,0.00029361,0.00016051,-0.00020536,-0.00001050,0.00006978,-0
 .00006912,-0.00008453,-0.00039212,0.00029812,0.00007425,-0.00111150,0.
 00028479,0.00034958,-0.00045735,-0.00016486,-0.00021876,0.00006024,0.0
 0007192,-0.00010629,0.00010826,-0.00005520,0.00005945,0.00042672,-0.00
 017261,-0.00003558,0.00000884,0.00005561,0.00000089,-0.00003091,0.0000
 0860,0.00003418,-0.00002549,-0.00014415,-0.00010674,0.00009359,-0.0000
 0828,-0.00013132,-0.00003468,0.00003967,0.00002436,0.00000616,0.000008
 78,-0.00002913,0.00005119,-0.00007750,0.00002519,0.00005585,-0.0005012
 4,0.00013553,-0.00014927,0.00014665,-0.00007531,-0.00086328,0.00017751
 ,-0.00021859,0.00000876,-0.00001370,0.00000786,0.00029600,-0.00020513,
 -0.00008244,-0.00072167,-0.00046625,-0.00000507,-0.00020181,0.00021781
 ,0.00017940,0.00011970,-0.00016329,0.00001000,0.00006532,0.00017671,0.
 00027759,-0.00025912,0.00022625,-0.00000246,0.00008618,-0.00006366,-0.
 00012905,0.00030713,0.00012288,0.00012265,0.00068390,-0.00086613,0.000
 09957,-0.00005389,-0.00025086,-0.00031715,-0.00007547,0.00003980,-0.00
 006907,0.00017067,0.00011817,0.00023206,0.00013341,0.00007113,0.000244
 00,0.00027625,-0.00016447,-0.00003562,-0.00008125,-0.00005224,-0.00020
 080,-0.00008642,0.00018703,0.00023295,0.00020430,0.00085887,0.00104377
 ,-0.00000020,-0.00003507,-0.00010347,0.00014145,-0.00018626,0.00002466
 ,-0.00019240,0.00055112,-0.00007200,-0.03455449,0.00344644,-0.00707548
 ,-0.00113507,-0.00179861,0.00084322,0.00198193,0.00102011,-0.00017507,
 0.00003515,0.00001017,-0.00004491,-0.00000039,0.00007100,0.00006545,0.
 00017039,0.00004916,-0.00016722,0.00012696,0.00031576,0.00167745,-0.00
 032014,0.00036556,-0.00058855,-0.00051520,0.00058883,0.00028152,-0.000
 23339,0.00102654,-0.00045355,0.00008591,-0.00006828,-0.00020234,0.0000
 5742,0.00007456,-0.00015819,0.00012928,0.00000022,-0.00002911,0.000018
 34,0.00011864,0.00002254,0.00009842,-0.00006014,-0.00015706,0.00001401
 ,-0.00022758,0.00004433,-0.00008735,0.00009871,0.00004358,-0.00008211,
 -0.00014975,-0.00001024,-0.00008300,0.00008071,0.00002344,0.00015383,0
 .00008894,0.00003402,0.00006456,-0.00005327,0.00002678,-0.00005131,-0.
 00001972,0.00004533,-0.00001672,0.00006463,-0.00001059,0.00001765,0.00
 000276,-0.00000476,-0.00003395,-0.00000082,0.00002442,0.00002308,0.000
 00734,0.00002315,-0.00001254,0.00002432,-0.00005028,0.00141597,0.00170
 709,-0.00017132,-0.00023249,-0.00016621,0.00012888,-0.00019466,-0.0006
 7218,0.00056735,-0.00003003,-0.00026178,0.00008128,-0.00193581,-0.0009
 7704,0.00036981,0.00063736,0.00055070,0.00010025,0.00028249,0.00005993
 ,0.00015728,0.00104340,-0.00009999,-0.00012399,0.29662732,-0.00051611,
 -0.00205179,0.00257215,-0.00501431,-0.00044910,0.00129243,-0.00284543,
 0.00115898,-0.00223073,0.00073669,-0.00214334,0.00268179,0.00082116,0.
 00315985,0.00177950,0.01340403,0.00490551,0.00601635,-0.00786368,-0.00
 676570,0.01508814,-0.00335043,0.00572192,-0.00191378,0.00502777,-0.001
 80298,0.00200901,-0.00416634,0.00148400,0.00347732,-0.00085794,-0.0002
 0152,-0.00092477,0.00005586,-0.00007818,-0.00003960,0.00034977,-0.0000
 0347,0.00019626,0.00076051,-0.00083672,-0.00051457,0.00013545,-0.00024
 456,-0.00042853,0.00000146,0.00038664,-0.00030946,-0.00199432,-0.02294
 434,-0.00325133,-0.00144356,-0.03089144,-0.01713215,-0.00763593,0.0077
 9672,0.00270125,-0.00162218,0.00275048,0.00221498,0.01495273,-0.023427
 01,-0.00698194,0.01215043,0.00279987,-0.00627885,0.00771763,-0.0524765
 4,0.00418004,0.02332156,-0.11626598,-0.01977456,-0.00456585,-0.0174932
 3,-0.02039781,-0.00031064,0.00809118,-0.00068524,0.00100637,0.00254600
 ,0.00050521,0.00181931,0.00244399,0.00132019,0.00157107,0.00558577,0.0
 0492438,-0.00170097,0.00511642,-0.00097546,0.00046225,0.00023847,0.001
 19264,-0.00861279,-0.00795541,-0.00163691,-0.00176656,-0.00913908,0.00
 134621,-0.00071105,-0.00034475,-0.00034403,0.00005978,0.00001148,-0.00
 002728,-0.00005187,0.00005816,-0.00001013,-0.00029255,0.00007856,0.000
 16828,0.00037591,-0.00010173,-0.00000142,0.00004514,0.00008886,-0.0000
 8718,-0.00007397,0.00006781,-0.00002269,0.00008740,0.00009479,0.000072
 70,-0.00098801,-0.00015323,-0.00020641,-0.00042194,-0.00009829,0.00018
 870,-0.00004657,-0.00001723,-0.00010045,-0.00001638,0.00041737,0.00010
 322,0.00047791,0.00024813,-0.00026664,0.00011090,0.00001261,0.00013127
 ,-0.00003575,-0.00003459,-0.00009391,0.00004505,0.00006324,0.00003966,
 -0.00062022,0.00031945,-0.00000900,0.00009612,0.00006465,-0.00002654,0
 .00001178,-0.00001826,0.00004665,0.00008645,0.00020820,0.00021806,0.00
 002785,-0.00000965,0.00009458,0.00008258,-0.00017526,0.00012154,0.0000
 6107,0.00019523,-0.00004601,-0.00004292,0.00009505,-0.00002406,0.00003
 605,0.00045018,-0.00042629,0.00063158,-0.00025475,0.00053257,0.0005170
 8,0.00004578,0.00024563,0.00001962,0.00010214,-0.00009847,-0.00056496,
 -0.00067537,0.00039844,0.00065270,-0.00050236,-0.00055126,0.00069599,-
 0.00016568,-0.00049318,-0.00005398,-0.00005631,0.00007735,0.00035528,-
 0.00036708,0.00023416,0.00027085,0.00024247,0.00000401,-0.00015440,-0.
 00035134,0.00018531,-0.00024419,-0.00006562,-0.00030963,-0.00005096,-0
 .00098325,0.00012927,0.00001216,-0.00029499,-0.00035872,0.00012087,0.0
 0008682,0.00008546,-0.00027513,-0.00004937,-0.00018047,-0.00021803,-0.
 00136864,-0.00077625,0.00006693,-0.00011786,0.00017937,-0.00019014,0.0
 0016503,0.00002344,0.00047952,-0.00000317,-0.00074788,0.00007626,-0.00
 063015,-0.00098530,-0.00007430,0.00018299,0.00003997,0.00012546,0.0000
 3904,0.00009116,0.00015269,-0.00058996,0.00001663,0.00878322,-0.052416
 97,0.04333509,0.00109973,0.00227907,-0.00099223,-0.00356909,-0.0013467
 8,-0.00034365,-0.00011530,-0.00018516,0.00003981,-0.00001426,-0.000048
 75,-0.00007197,-0.00022175,-0.00001290,0.00008465,-0.00093915,0.000269
 04,0.00002348,-0.00038735,-0.00075748,0.00041247,0.00021293,-0.0004107
 5,-0.00000312,0.00032336,-0.00142636,0.00084485,-0.00006504,0.00004410
 ,0.00004156,-0.00001550,-0.00007456,0.00007574,-0.00013348,-0.00003147
 ,0.00002996,-0.00002422,-0.00007413,-0.00001253,-0.00016338,0.00002473
 ,0.00019025,0.00000763,0.00014377,-0.00003157,0.00009032,-0.00007401,-
 0.00002011,0.00006636,0.00008823,-0.00001656,0.00006738,-0.00004311,-0
 .00002722,-0.00010137,-0.00006109,-0.00001739,-0.00012568,0.00002997,0
 .00004217,0.00007867,-0.00000573,-0.00006175,0.00001532,-0.00003177,0.
 00000619,0.00000004,-0.00000490,-0.00002588,0.00003792,-0.00000099,-0.
 00001552,-0.00001834,-0.00000039,-0.00000645,-0.00000491,-0.00000939,0
 .00002042,-0.00086309,-0.00266550,0.00070953,0.00068797,0.00045016,-0.
 00033792,-0.00002999,0.00073077,-0.00062463,0.00024308,0.00076638,0.00
 009112,0.00195608,0.00113654,-0.00120862,-0.00081449,-0.00099134,-0.00
 014761,-0.00038748,-0.00025318,0.00026936,-0.00078541,-0.00014620,0.00
 029307,-0.03557143,0.30018556,-0.00821689,0.00251457,-0.00651032,0.002
 82327,0.00198262,0.00544452,-0.00115704,0.00305202,-0.00031347,0.00084
 393,-0.00060068,0.00090121,-0.00118055,0.00316761,0.00035425,-0.019604
 23,-0.00103711,-0.01038949,0.01330645,0.01341265,-0.01198385,-0.001161
 06,-0.00336078,0.00675925,-0.00268923,0.00228581,-0.00305468,0.0032854
 2,-0.00013731,0.00321490,0.00186896,0.00001916,-0.00044089,0.00021746,
 -0.00023019,-0.00015869,-0.00006208,-0.00023912,-0.00010744,-0.0007240
 2,-0.00132162,-0.00081290,0.00002249,-0.00038330,-0.00002004,0.0002909
 6,-0.00048523,0.00048031,0.00194721,-0.00509828,-0.02808844,0.00690271
 ,-0.00998860,-0.01382729,0.01820377,0.00218029,0.00515617,-0.00000497,
 0.00092007,0.00052728,-0.00092978,0.00098518,0.00885218,0.00526144,-0.
 00258646,-0.00235894,0.00176688,0.00483857,-0.04804136,0.01667747,-0.0
 3083462,-0.05532736,-0.00379564,-0.01867302,-0.00495112,-0.02055681,0.
 00020967,-0.00140799,0.00176365,0.00046243,-0.00321155,0.00040047,-0.0
 0064761,-0.00315278,-0.00142368,0.00105905,0.00062408,-0.00337620,0.00
 043265,-0.00008306,0.00059690,0.00026744,0.00043435,-0.00416580,-0.002
 47977,-0.00196705,0.00090718,0.00197229,-0.00837982,0.00101856,0.00012
 335,0.00093341,-0.00010645,0.00002781,0.00010742,-0.00008226,0.0000049
 3,-0.00005470,0.00045866,-0.00011720,-0.00029183,0.00042833,-0.0001683
 1,0.00029858,-0.00006012,-0.00006218,0.00003221,0.00008397,0.00027169,
 -0.00000751,-0.00003467,0.00020198,-0.00001915,-0.00079312,-0.00016544
 ,0.00035148,0.00005582,0.00005323,-0.00002105,0.00005621,-0.00010434,0
 .00005019,-0.00025525,0.00040329,0.00005944,-0.00097990,0.00004971,0.0
 0076831,-0.00042848,-0.00018598,-0.00029281,0.00009778,0.00006295,0.00
 009961,0.00008842,-0.00001325,-0.00002342,-0.00028547,0.00012927,-0.00
 000229,0.00005019,0.00003941,-0.00002214,0.00000137,-0.00001948,0.0000
 2626,0.00002746,0.00009524,0.00012630,0.00007939,0.00006804,0.00011257
 ,0.00002088,-0.00006582,0.00007544,0.00001439,0.00009457,-0.00002454,-
 0.00004943,0.00001822,-0.00001912,0.00011350,-0.00081224,-0.00033724,0
 .00023619,-0.00002712,0.00008913,-0.00022731,0.00022352,0.00033322,0.0
 0013615,-0.00005080,-0.00023028,0.00013458,0.00040984,0.00063138,0.000
 08863,-0.00018702,-0.00007302,0.00019630,0.00011267,-0.00023506,-0.000
 09184,0.00011089,-0.00011134,0.00059395,-0.00084068,-0.00027177,-0.000
 01735,-0.00003301,0.00012462,-0.00025535,-0.00029458,0.00028728,-0.000
 05329,-0.00001025,-0.00008678,0.00031325,-0.00046675,0.00019058,0.0000
 0736,-0.00013833,-0.00021763,0.00000330,0.00007404,0.00001327,-0.00005
 370,-0.00001876,0.00003415,-0.00001294,0.00055871,0.00012247,0.0000442
 4,-0.00004153,-0.00002319,-0.00007477,0.00004553,0.00014353,-0.0001256
 4,-0.00006829,0.00014117,0.00008993,0.00002875,0.00026573,-0.00001846,
 0.00000411,-0.00003430,0.00005166,-0.00004252,0.00000858,-0.00001416,0
 .00010897,-0.00004684,-0.01740031,0.04972959,-0.13154088,0.00016389,0.
 00013103,0.00067387,-0.00123333,-0.00035992,-0.00095131,-0.00007422,-0
 .00002605,-0.00007538,-0.00001693,-0.00002537,-0.00006661,-0.00016162,
 -0.00000498,0.00005052,0.00118337,-0.00072801,0.00004454,0.00030609,0.
 00085863,-0.00084918,-0.00036371,0.00008061,-0.00000081,-0.00068059,-0
 .00028665,-0.00023411,0.00001941,0.00014303,-0.00024689,0.00007045,0.0
 0004190,0.00007081,-0.00017215,-0.00002460,0.00003865,0.00001036,-0.00
 002557,0.00001633,-0.00017192,-0.00006711,0.00012286,0.00003685,0.0000
 9383,-0.00004990,0.00006740,-0.00005230,-0.00002370,0.00004936,0.00010
 734,-0.00002073,0.00003287,-0.00002779,-0.00001168,-0.00006180,-0.0000
 5247,-0.00001726,-0.00007575,0.00000213,0.00001398,0.00003458,0.000005
 51,-0.00003060,0.00001344,-0.00002771,0.00000169,0.00000439,0.00001107
 ,-0.00001750,0.00001544,-0.00000113,-0.00000483,-0.00001120,-0.0000091
 3,-0.00000655,-0.00000324,-0.00000526,0.00000673,-0.00041809,-0.001269
 35,0.00091395,0.00060982,0.00012604,-0.00036141,0.00003392,0.00036123,
 -0.00039651,0.00015654,0.00048414,-0.00004859,0.00162629,0.00054053,-0
 .00009317,-0.00053923,-0.00046692,-0.00026107,-0.00017520,-0.00052570,
 0.00051929,-0.00033102,0.00002557,0.00001998,0.00894669,-0.00980134,0.
 30167520\\0.00000016,0.00000029,0.00000289,0.00000267,0.00000266,-0.00
 000156,0.00000213,-0.00000035,0.00000227,-0.00000984,-0.00000796,0.000
 00202,0.00000507,0.00000636,-0.00000242,0.00000126,-0.00000396,0.00000
 120,0.00000280,-0.00000178,0.00000212,-0.00000437,-0.00000123,-0.00000
 098,0.00000153,-0.00000719,0.00000515,0.00000338,0.00000257,-0.0000019
 0,0.00000062,-0.00000015,0.00000345,0.00000241,0.00000053,0.00000414,-
 0.00000058,-0.00000220,0.00000287,-0.00000366,-0.00000057,-0.00000282,
 -0.00000300,0.00000129,-0.00000446,-0.00000302,-0.00000153,-0.00000022
 ,-0.00000423,-0.00000272,-0.00000003,-0.00000241,0.00000230,-0.0000037
 5,-0.00000311,-0.00000150,-0.00000544,0.00000040,-0.00000141,-0.000001
 08,0.00000340,-0.00000190,0.00000235,-0.00000121,0.00000171,0.00000215
 ,-0.00000176,-0.00000142,0.00000275,-0.00000365,0.00000097,-0.00000169
 ,0.00000024,-0.00000266,0.00000058,-0.00000266,0.00000113,0.00000075,0
 .00000301,0.00000277,-0.00000692,0.00000520,0.00000392,-0.00000033,-0.
 00000274,-0.00000136,0.00000249,-0.00000339,0.00000536,0.00000610,0.00
 000073,0.00000335,-0.00000415,0.00000466,0.00000095,0.00000116,-0.0000
 0158,-0.00000080,-0.00000082,0.00000338,0.00000335,0.00000143,-0.00000
 055,-0.00000064,-0.00000208,-0.00000155,-0.00000468,-0.00000187,-0.000
 00322,-0.00000038,-0.00000329,0.00000528,-0.00000008,0.00000153,-0.000
 00104,-0.00000059,-0.00000291,-0.00000441,-0.00000187,-0.00000363,0.00
 000077,-0.00000003,-0.00000331,0.00000535,0.00000288,0.00000134,-0.000
 00147,-0.00000196,-0.00000345,0.00000024,-0.00000079,0.00000138,-0.000
 00216,0.00000045,-0.00000117,0.00000202,-0.00000090,0.00000326,-0.0000
 0065,0.00000107,-0.00000275,0.00000110,0.00000249,-0.00000385,0.000000
 90,0.00000004,-0.00000309,-0.00000138,-0.00000001,0.00000134,0.0000016
 7,0.00000184,-0.00000327,0.00000105,0.00000255,-0.00000278,0.00000327,
 0.00000012,-0.00000247,0.00000875,0.00000077,-0.00000708,0.00000039,0.
 00000045,-0.00000011,-0.00000310,-0.00000338,0.00000053,-0.00000366,0.
 00000295,0.00000093,-0.00000356,0.00000747,-0.00000129,0.00000001,-0.0
 0000065,-0.00000245,0.00000391,-0.00000304,-0.00000241,0.00000183,0.00
 000177,-0.00000229,0.00000213,0.00000610,0.00000326,0.00000150,-0.0000
 0239,-0.00000288,-0.00000266,-0.00000326,-0.00000386,-0.00000053,0.000
 00033,-0.00000300,-0.00000385,0.00000238,-0.00000373,0.00000059,0.0000
 0077,0.00000422,0.00000013,-0.00000288,0.00000291,0.00000354,-0.000000
 82,0.00000335,0.00000529,-0.00001126,-0.00000137,-0.00000399,0.0000055
 8,0.00000267,0.00000013,0.00000066,0.00000059,-0.00000504,-0.00000126,
 0.00000179,0.00000320,-0.00000525,-0.00000298,-0.00000162,0.00000034,-
 0.00000016,-0.00000089,0.00000137,0.00000021,-0.00000166,0.00000041,0.
 00000236,0.00000205,-0.00000271,0.00000589,0.00000098,0.00000179,-0.00
 000113,-0.00000141,0.00000032,-0.00000011,-0.00000069,0.00000018,0.000
 00088,0.00000099,0.00000025,0.00000157,0.00000864,0.00000656,-0.000001
 76,-0.00000169,-0.00000311,0.00000295,-0.00000483,0.00000721,0.0000000
 2,0.00000139,-0.00000056,0.00000061,-0.00000079,-0.00000455,0.00000094
 ,0.00000398,0.00000001,-0.00000249,-0.00000076,0.00000316,0.00000068,0
 .00000079,0.00000190,-0.00000003,-0.00000087,-0.00000224,0.00000518,-0
 .00000166,0.00000078,-0.00000403,0.00000242,0.00000080,0.00000181,0.00
 000318,0.00000230,0.00000456,0.00000056,0.00000280,0.00000266,0.000007
 46,-0.00000016,-0.00000064,-0.00000483,0.00000012,0.00000341,-0.000000
 87,-0.00000214,0.00000027,0.00000191,0.00000010,-0.00000148,-0.0000025
 6,0.00000018,0.00000270,-0.00000018,0.00000092,0.00000228,-0.00000443,
 0.00000195,0.00000411,0.00000008,-0.00000171,-0.00000006,-0.00000031,-
 0.00000412,0.00000020,0.00000218,-0.00000031,0.00000258,-0.00000132,-0
 .00000032,0.00000236,-0.00000127,-0.00000290,0.00000154,-0.00000172,-0
 .00000086,0.00000022,-0.00000061,0.00000468,-0.00000346,-0.00000301,0.
 00000090,0.00000433,0.00000277,-0.00000156,0.00000674,0.00000001,-0.00
 000155,0.00000268,0.00000654,0.00000148,-0.00000150,-0.00000246,-0.000
 00438,-0.00000352,-0.00000252,-0.00000187,-0.00000339,-0.00000502,-0.0
 0000032,-0.00000065,0.,0.00000147,-0.00000235\\\@
 The archive entry for this job was punched.


 DEFINE YOUR TERMS, YOU WILL PERMIT ME AGAIN TO SAY, 
 OR WE SHALL NEVER UNDERSTAND ONE ANOTHER.

                                    -- VOLTAIRE
 Job cpu time:       2 days  7 hours  6 minutes 30.2 seconds.
 Elapsed time:       0 days  3 hours 30 minutes 39.5 seconds.
 File lengths (MBytes):  RWF=  11754 Int=      0 D2E=      0 Chk=     62 Scr=      1
 Normal termination of Gaussian 16 at Sat Dec  7 22:18:17 2024.
