/mnt/lustre/scratch/nvme/SLURM/9663529/usccqdma.hxTXdGCHz0
OMP_STACKSIZE=0m
GAUSS_PDEF=16
GAUSS_MDEF=65536MB
GAUSS_RDEF=SCF=Direct
 Entering Gaussian System, Link 0=g16.exe
 Initial command:
 /opt/cesga/2020/software/Core/g16/c1/l1.exe "/mnt/lustre/scratch/nvme/SLURM/9663529/usccqdma.hxTXdGCHz0/Gau-2879180.inp" -scrdir="/mnt/lustre/scratch/nvme/SLURM/9663529/usccqdma.hxTXdGCHz0/"
 Default is to use a total of  16 processors:
                               16 via shared-memory
                                1 via Linda
 Entering Link 1 = /opt/cesga/2020/software/Core/g16/c1/l1.exe PID=   2879206.
  
 Copyright (c) 1988-2019, Gaussian, Inc.  All Rights Reserved.
  
 This is part of the Gaussian(R) 16 program.  It is based on
 the Gaussian(R) 09 system (copyright 2009, Gaussian, Inc.),
 the Gaussian(R) 03 system (copyright 2003, Gaussian, Inc.),
 the Gaussian(R) 98 system (copyright 1998, Gaussian, Inc.),
 the Gaussian(R) 94 system (copyright 1995, Gaussian, Inc.),
 the Gaussian 92(TM) system (copyright 1992, Gaussian, Inc.),
 the Gaussian 90(TM) system (copyright 1990, Gaussian, Inc.),
 the Gaussian 88(TM) system (copyright 1988, Gaussian, Inc.),
 the Gaussian 86(TM) system (copyright 1986, Carnegie Mellon
 University), and the Gaussian 82(TM) system (copyright 1983,
 Carnegie Mellon University). Gaussian is a federally registered
 trademark of Gaussian, Inc.
  
 This software contains proprietary and confidential information,
 including trade secrets, belonging to Gaussian, Inc.
  
 This software is provided under written license and may be
 used, copied, transmitted, or stored only in accord with that
 written license.
  
 The following legend is applicable only to US Government
 contracts under FAR:
  
                    RESTRICTED RIGHTS LEGEND
  
 Use, reproduction and disclosure by the US Government is
 subject to restrictions as set forth in subparagraphs (a)
 and (c) of the Commercial Computer Software - Restricted
 Rights clause in FAR 52.227-19.
  
 Gaussian, Inc.
 340 Quinnipiac St., Bldg. 40, Wallingford CT 06492
  
  
 ---------------------------------------------------------------
 Warning -- This program may not be used in any manner that
 competes with the business of Gaussian, Inc. or will provide
 assistance to any competitor of Gaussian, Inc.  The licensee
 of this program is prohibited from giving any competitor of
 Gaussian, Inc. access to this program.  By using this program,
 the user acknowledges that Gaussian, Inc. is engaged in the
 business of creating and licensing software in the field of
 computational chemistry and represents and warrants to the
 licensee that it is not a competitor of Gaussian, Inc. and that
 it will not use this program in any manner prohibited above.
 ---------------------------------------------------------------
  

 Cite this work as:
 Gaussian 16, Revision C.01,
 M. J. Frisch, G. W. Trucks, H. B. Schlegel, G. E. Scuseria, 
 M. A. Robb, J. R. Cheeseman, G. Scalmani, V. Barone, 
 G. A. Petersson, H. Nakatsuji, X. Li, M. Caricato, A. V. Marenich, 
 J. Bloino, B. G. Janesko, R. Gomperts, B. Mennucci, H. P. Hratchian, 
 J. V. Ortiz, A. F. Izmaylov, J. L. Sonnenberg, D. Williams-Young, 
 F. Ding, F. Lipparini, F. Egidi, J. Goings, B. Peng, A. Petrone, 
 T. Henderson, D. Ranasinghe, V. G. Zakrzewski, J. Gao, N. Rega, 
 G. Zheng, W. Liang, M. Hada, M. Ehara, K. Toyota, R. Fukuda, 
 J. Hasegawa, M. Ishida, T. Nakajima, Y. Honda, O. Kitao, H. Nakai, 
 T. Vreven, K. Throssell, J. A. Montgomery, Jr., J. E. Peralta, 
 F. Ogliaro, M. J. Bearpark, J. J. Heyd, E. N. Brothers, K. N. Kudin, 
 V. N. Staroverov, T. A. Keith, R. Kobayashi, J. Normand, 
 K. Raghavachari, A. P. Rendell, J. C. Burant, S. S. Iyengar, 
 J. Tomasi, M. Cossi, J. M. Millam, M. Klene, C. Adamo, R. Cammi, 
 J. W. Ochterski, R. L. Martin, K. Morokuma, O. Farkas, 
 J. B. Foresman, and D. J. Fox, Gaussian, Inc., Wallingford CT, 2019.
 
 ******************************************
 Gaussian 16:  ES64L-G16RevC.01  3-Jul-2019
                 7-Dec-2024 
 ******************************************
 Default route: SCF=Direct
 ----------------------------------------------------
 # m06/genecp scf=tight int=ultrafine 5d freq=noraman
 ----------------------------------------------------
 1/10=4,30=1,38=1/1,3;
 2/12=2,17=6,18=5,40=1/2;
 3/5=7,8=1,11=2,16=1,17=8,25=1,30=1,71=2,74=-54,75=-5,140=1/1,2,3;
 4//1;
 5/5=2,32=2,38=5,98=1/2;
 8/6=4,10=90,11=11/1;
 11/6=1,8=1,9=11,15=111,16=1/1,2,10;
 10/6=1/2;
 6/7=2,8=2,9=2,10=2,28=1/1;
 7/8=1,10=1,25=1/1,2,3,16;
 1/10=4,30=1/3;
 99//99;
 ------
 OPT-TS
 ------
 Symbolic Z-matrix:
 Charge =  0 Multiplicity = 1
 C                     0.29104  -1.90102  -1.7938 
 C                    -1.40331  -2.53108  -0.36837 
 C                    -1.88986  -3.45527  -1.27806 
 C                    -1.23457  -3.61295  -2.49723 
 C                    -0.12481  -2.83347  -2.7514 
 C                     1.38212  -0.95954  -2.05618 
 C                     2.38244   1.06314  -1.53521 
 C                     3.3511    0.88377  -2.50914 
 C                     3.34335  -0.27879  -3.26606 
 C                     2.34209  -1.20573  -3.03311 
 H                    -1.90333  -2.35724   0.58249 
 H                    -1.60329  -4.32381  -3.23472 
 H                     0.38431  -2.90489  -3.70842 
 H                     2.34918   1.96614  -0.9357 
 H                     4.10573  -0.46396  -4.01944 
 H                     2.32299  -2.14283  -3.58253 
 N                    -0.33879  -1.76338  -0.6164 
 N                     1.40453   0.16806  -1.30485 
 Ir                    0.07215   0.42781   0.30078 
 O                    -1.81281   0.26224  -2.11749 
 O                     0.44287   3.19225  -0.88923 
 O                    -2.19978  -0.83086   1.94251 
 B                    -0.00086   2.45017   0.20639 
 B                    -1.63553   0.83083  -0.86149 
 B                    -1.01704  -0.13408   2.09253 
 O                    -0.56674  -0.16967   3.38989 
 O                    -2.80164   1.46284  -0.45001 
 C                    -3.86067   1.02016  -1.31413 
 C                    -3.0929    0.67545  -2.62126 
 C                    -2.63241  -1.23332   3.25991 
 C                    -1.29402  -1.22195   4.05079 
 C                     0.44503   4.57634  -0.50468 
 C                    -0.62604   4.60394   0.62217 
 O                    -0.48849   3.29566   1.19497 
 C                    -3.68585  -0.45783  -3.4349 
 H                    -4.70098  -0.20859  -3.77664 
 H                    -3.0646   -0.63731  -4.32263 
 H                    -3.73101  -1.39139  -2.86171 
 C                    -2.85148   1.8879   -3.51012 
 H                    -2.13208   1.61408  -4.29195 
 H                    -3.77373   2.2361   -3.9947 
 H                    -2.41747   2.71784  -2.93528 
 C                    -4.49248  -0.19981  -0.65132 
 H                    -4.8307    0.08573   0.35309 
 H                    -5.35406  -0.57926  -1.21744 
 H                    -3.76387  -1.01398  -0.53074 
 C                    -4.89112   2.12317  -1.44554 
 H                    -5.35194   2.31461  -0.46787 
 H                    -4.44482   3.06102  -1.79431 
 H                    -5.6877    1.83343  -2.14624 
 C                     1.84626   4.90407  -0.00415 
 H                     2.57023   4.66076  -0.79396 
 H                     1.95884   5.96812   0.24277 
 H                     2.09854   4.31157   0.88589 
 C                     0.11862   5.42397  -1.71728 
 H                     0.01617   6.4823   -1.43731 
 H                     0.92659   5.34536  -2.45611 
 H                    -0.80976   5.09702  -2.19828 
 C                    -0.39116   5.6428    1.69984 
 H                     0.56177   5.48363   2.21651 
 H                    -0.39706   6.6567    1.27412 
 H                    -1.19206   5.58533   2.44766 
 C                    -2.04769   4.71823   0.08732 
 H                    -2.74768   4.50234   0.90439 
 H                    -2.26029   5.72391  -0.30016 
 H                    -2.23516   3.97575  -0.69891 
 C                    -1.42284  -0.88771   5.52139 
 H                    -0.43172  -0.89775   5.99151 
 H                    -1.85844   0.10554   5.67369 
 H                    -2.04995  -1.63089   6.03411 
 C                    -0.47904  -2.49514   3.86622 
 H                    -0.9205   -3.3469    4.40026 
 H                    -0.37992  -2.7564    2.80266 
 H                     0.53217  -2.32551   4.25647 
 C                    -3.31821  -2.57904   3.15899 
 H                    -4.20455  -2.49051   2.51623 
 H                    -2.66743  -3.3471    2.72629 
 H                    -3.64658  -2.9225    4.15005 
 C                    -3.61879  -0.17751   3.73649 
 H                    -4.05509  -0.44005   4.70921 
 H                    -3.14036   0.80659   3.81808 
 H                    -4.43173  -0.09689   3.00406 
 H                    -0.86074   1.08903   1.51947 
 C                     4.03662  -0.348     0.52177 
 O                     3.84064  -1.44364  -0.00404 
 C                     5.38176   0.36018   0.37799 
 H                     5.22539   1.33028  -0.12181 
 H                     5.78096   0.60791   1.37582 
 C                     1.7958   -0.34563   1.52124 
 H                     1.91694  -1.41508   1.31028 
 H                     1.60408  -0.21911   2.59353 
 N                     3.07711   0.29479   1.24204 
 C                     3.27272   1.5677    1.89532 
 H                     3.63722   1.4508    2.9291 
 H                     3.97285   2.21263   1.3517 
 H                     2.29897   2.07812   1.9388 
 C                     6.39672  -0.46433  -0.39743 
 H                     5.92537  -0.83379  -1.32109 
 H                     7.2325    0.18751  -0.70059 
 C                     6.94488  -1.64565   0.38851 
 H                     7.41568  -1.28072   1.3192 
 H                     6.10646  -2.29018   0.69166 
 C                     7.95873  -2.46025  -0.39979 
 H                     7.48299  -2.82864  -1.32324 
 H                     8.78285  -1.80382  -0.72638 
 C                     8.51442  -3.62959   0.3957 
 H                     9.23987  -4.21574  -0.18262 
 H                     9.0192   -3.281     1.30784 
 H                     7.70888  -4.30838   0.70834 
 C                    -3.15559  -4.20331  -1.01427 
 F                    -3.04517  -5.4909   -1.36027 
 F                    -3.51747  -4.15186   0.26956 
 F                    -4.16886  -3.69639  -1.73483 
 H                     4.1094    1.65009  -2.65192 
 

 GradGradGradGradGradGradGradGradGradGradGradGradGradGradGradGradGradGrad
 Berny optimization.
 Initialization pass.
 Trust Radius=3.00D-01 FncErr=1.00D-07 GrdErr=1.00D-07 EigMax=2.50D+02 EigMin=1.00D-04
 Number of steps in this run=      2 maximum allowed number of steps=      2.
 GradGradGradGradGradGradGradGradGradGradGradGradGradGradGradGradGradGrad

 Stoichiometry    C37H60B3F3IrN3O7
 Framework group  C1[X(C37H60B3F3IrN3O7)]
 Deg. of freedom   336
 Full point group                 C1      NOp   1
 Largest Abelian subgroup         C1      NOp   1
 Largest concise Abelian subgroup C1      NOp   1
                         Standard orientation:                         
 ---------------------------------------------------------------------
 Center     Atomic      Atomic             Coordinates (Angstroms)
 Number     Number       Type             X           Y           Z
 ---------------------------------------------------------------------
      1          6           0        0.291039   -1.901020   -1.793799
      2          6           0       -1.403311   -2.531079   -0.368369
      3          6           0       -1.889862   -3.455269   -1.278059
      4          6           0       -1.234572   -3.612949   -2.497229
      5          6           0       -0.124811   -2.833470   -2.751399
      6          6           0        1.382120   -0.959540   -2.056179
      7          6           0        2.382441    1.063139   -1.535209
      8          6           0        3.351101    0.883769   -2.509139
      9          6           0        3.343350   -0.278791   -3.266059
     10          6           0        2.342090   -1.205731   -3.033109
     11          1           0       -1.903331   -2.357239    0.582491
     12          1           0       -1.603292   -4.323809   -3.234719
     13          1           0        0.384309   -2.904890   -3.708419
     14          1           0        2.349181    1.966139   -0.935699
     15          1           0        4.105730   -0.463962   -4.019439
     16          1           0        2.322989   -2.142831   -3.582529
     17          7           0       -0.338791   -1.763380   -0.616399
     18          7           0        1.404530    0.168060   -1.304849
     19         77           0        0.072150    0.427810    0.300781
     20          8           0       -1.812810    0.262241   -2.117489
     21          8           0        0.442872    3.192250   -0.889229
     22          8           0       -2.199780   -0.830859    1.942511
     23          5           0       -0.000859    2.450170    0.206391
     24          5           0       -1.635529    0.830831   -0.861489
     25          5           0       -1.017040   -0.134079    2.092531
     26          8           0       -0.566740   -0.169669    3.389891
     27          8           0       -2.801639    1.462842   -0.450009
     28          6           0       -3.860669    1.020162   -1.314129
     29          6           0       -3.092900    0.675452   -2.621259
     30          6           0       -2.632411   -1.233318    3.259911
     31          6           0       -1.294020   -1.221949    4.050791
     32          6           0        0.445032    4.576340   -0.504679
     33          6           0       -0.626038    4.603941    0.622171
     34          8           0       -0.488488    3.295660    1.194971
     35          6           0       -3.685850   -0.457828   -3.434899
     36          1           0       -4.700980   -0.208587   -3.776639
     37          1           0       -3.064600   -0.637308   -4.322629
     38          1           0       -3.731011   -1.391388   -2.861709
     39          6           0       -2.851479    1.887902   -3.510119
     40          1           0       -2.132079    1.614081   -4.291949
     41          1           0       -3.773729    2.236102   -3.994699
     42          1           0       -2.417468    2.717841   -2.935279
     43          6           0       -4.492480   -0.199807   -0.651319
     44          1           0       -4.830700    0.085733    0.353091
     45          1           0       -5.354060   -0.579257   -1.217439
     46          1           0       -3.763870   -1.013978   -0.530739
     47          6           0       -4.891119    2.123173   -1.445539
     48          1           0       -5.351939    2.314613   -0.467869
     49          1           0       -4.444818    3.061022   -1.794309
     50          1           0       -5.687699    1.833433   -2.146239
     51          6           0        1.846263    4.904069   -0.004149
     52          1           0        2.570232    4.660759   -0.793959
     53          1           0        1.958843    5.968119    0.242771
     54          1           0        2.098542    4.311569    0.885891
     55          6           0        0.118623    5.423970   -1.717279
     56          1           0        0.016173    6.482300   -1.437309
     57          1           0        0.926593    5.345360   -2.456109
     58          1           0       -0.809757    5.097021   -2.198279
     59          6           0       -0.391157    5.642800    1.699841
     60          1           0        0.561773    5.483630    2.216511
     61          1           0       -0.397056    6.656700    1.274121
     62          1           0       -1.192057    5.585331    2.447661
     63          6           0       -2.047687    4.718231    0.087321
     64          1           0       -2.747678    4.502342    0.904391
     65          1           0       -2.260287    5.723911   -0.300159
     66          1           0       -2.235158    3.975751   -0.698909
     67          6           0       -1.422840   -0.887709    5.521391
     68          1           0       -0.431720   -0.897750    5.991511
     69          1           0       -1.858440    0.105541    5.673691
     70          1           0       -2.049951   -1.630889    6.034111
     71          6           0       -0.479041   -2.495140    3.866221
     72          1           0       -0.920502   -3.346899    4.400261
     73          1           0       -0.379921   -2.756400    2.802661
     74          1           0        0.532169   -2.325510    4.256471
     75          6           0       -3.318211   -2.579038    3.158991
     76          1           0       -4.204551   -2.490508    2.516231
     77          1           0       -2.667432   -3.347098    2.726291
     78          1           0       -3.646581   -2.922498    4.150051
     79          6           0       -3.618790   -0.177508    3.736491
     80          1           0       -4.055090   -0.440048    4.709211
     81          1           0       -3.140359    0.806592    3.818081
     82          1           0       -4.431730   -0.096888    3.004061
     83          1           0       -0.860739    1.089031    1.519471
     84          6           0        4.036620   -0.348002    0.521771
     85          8           0        3.840639   -1.443642   -0.004039
     86          6           0        5.381760    0.360177    0.377991
     87          1           0        5.225391    1.330278   -0.121809
     88          1           0        5.780960    0.607907    1.375821
     89          6           0        1.795800   -0.345631    1.521241
     90          1           0        1.916939   -1.415081    1.310281
     91          1           0        1.604080   -0.219111    2.593531
     92          7           0        3.077110    0.294789    1.242041
     93          6           0        3.272721    1.567699    1.895321
     94          1           0        3.637221    1.450798    2.929101
     95          1           0        3.972851    2.212628    1.351701
     96          1           0        2.298971    2.078119    1.938801
     97          6           0        6.396720   -0.464333   -0.397429
     98          1           0        5.925370   -0.833793   -1.321089
     99          1           0        7.232500    0.187507   -0.700589
    100          6           0        6.944879   -1.645653    0.388511
    101          1           0        7.415679   -1.280724    1.319201
    102          1           0        6.106459   -2.290183    0.691661
    103          6           0        7.958729   -2.460254   -0.399789
    104          1           0        7.482989   -2.828644   -1.323239
    105          1           0        8.782849   -1.803824   -0.726379
    106          6           0        8.514418   -3.629594    0.395701
    107          1           0        9.239868   -4.215744   -0.182619
    108          1           0        9.019198   -3.281004    1.307841
    109          1           0        7.708878   -4.308384    0.708341
    110          6           0       -3.155592   -4.203308   -1.014269
    111          9           0       -3.045173   -5.490898   -1.360269
    112          9           0       -3.517472   -4.151858    0.269561
    113          9           0       -4.168862   -3.696388   -1.734829
    114          1           0        4.109401    1.650088   -2.651919
 ---------------------------------------------------------------------
 Rotational constants (GHZ):           0.0569269           0.0437843           0.0370603
 General basis read from cards:  (5D, 7F)
 ======================================================================================================
                                       Pseudopotential Parameters
 ======================================================================================================
  Center     Atomic      Valence      Angular      Power
  Number     Number     Electrons     Momentum     of R      Exponent        Coefficient   SO-Coeffient
 ======================================================================================================
    1          6
                                   No pseudopotential on this center.
    2          6
                                   No pseudopotential on this center.
    3          6
                                   No pseudopotential on this center.
    4          6
                                   No pseudopotential on this center.
    5          6
                                   No pseudopotential on this center.
    6          6
                                   No pseudopotential on this center.
    7          6
                                   No pseudopotential on this center.
    8          6
                                   No pseudopotential on this center.
    9          6
                                   No pseudopotential on this center.
   10          6
                                   No pseudopotential on this center.
   11          1
                                   No pseudopotential on this center.
   12          1
                                   No pseudopotential on this center.
   13          1
                                   No pseudopotential on this center.
   14          1
                                   No pseudopotential on this center.
   15          1
                                   No pseudopotential on this center.
   16          1
                                   No pseudopotential on this center.
   17          7
                                   No pseudopotential on this center.
   18          7
                                   No pseudopotential on this center.
   19         77           17
                                      G and up 
                                                     1      823.5880147       -0.15780140    0.00000000
                                                     2      364.6613336    -1517.52704460    0.00000000
                                                     2       55.7082801     -316.53065290    0.00000000
                                                     2       12.0464544      -91.88809410    0.00000000
                                                     2        3.5120610       -9.22417730    0.00000000
                                      S - G
                                                     0      188.0490770        3.15780140    0.00000000
                                                     1      340.4194712       26.83225770    0.00000000
                                                     2      128.2373673      800.42500070    0.00000000
                                                     2       33.8644961      369.40506830    0.00000000
                                                     2        4.7560005      242.41718990    0.00000000
                                                     2        3.9649974     -118.21732820    0.00000000
                                      P - G
                                                     0      289.7291139        2.15780140    0.00000000
                                                     1       87.4633789       61.96786100    0.00000000
                                                     2       30.4363766      269.05819860    0.00000000
                                                     2        4.0553412      231.16547930    0.00000000
                                                     2        3.5525341     -133.69526670    0.00000000
                                      D - G
                                                     0      136.4017106        3.15780140    0.00000000
                                                     1       95.0776925       45.93498030    0.00000000
                                                     2       49.2258410      359.03446680    0.00000000
                                                     2       15.0874145      176.47401190    0.00000000
                                                     2        4.0405764       54.51552860    0.00000000
                                      F - G
                                                     0      127.3507908        3.95461970    0.00000000
                                                     1       66.2364374       52.97736550    0.00000000
                                                     2       34.4299229      274.86433830    0.00000000
                                                     2       10.1995721      137.20473380    0.00000000
                                                     2        2.5409702       14.86333050    0.00000000
   20          8
                                   No pseudopotential on this center.
   21          8
                                   No pseudopotential on this center.
   22          8
                                   No pseudopotential on this center.
   23          5
                                   No pseudopotential on this center.
   24          5
                                   No pseudopotential on this center.
   25          5
                                   No pseudopotential on this center.
   26          8
                                   No pseudopotential on this center.
   27          8
                                   No pseudopotential on this center.
   28          6
                                   No pseudopotential on this center.
   29          6
                                   No pseudopotential on this center.
   30          6
                                   No pseudopotential on this center.
   31          6
                                   No pseudopotential on this center.
   32          6
                                   No pseudopotential on this center.
   33          6
                                   No pseudopotential on this center.
   34          8
                                   No pseudopotential on this center.
   35          6
                                   No pseudopotential on this center.
   36          1
                                   No pseudopotential on this center.
   37          1
                                   No pseudopotential on this center.
   38          1
                                   No pseudopotential on this center.
   39          6
                                   No pseudopotential on this center.
   40          1
                                   No pseudopotential on this center.
   41          1
                                   No pseudopotential on this center.
   42          1
                                   No pseudopotential on this center.
   43          6
                                   No pseudopotential on this center.
   44          1
                                   No pseudopotential on this center.
   45          1
                                   No pseudopotential on this center.
   46          1
                                   No pseudopotential on this center.
   47          6
                                   No pseudopotential on this center.
   48          1
                                   No pseudopotential on this center.
   49          1
                                   No pseudopotential on this center.
   50          1
                                   No pseudopotential on this center.
   51          6
                                   No pseudopotential on this center.
   52          1
                                   No pseudopotential on this center.
   53          1
                                   No pseudopotential on this center.
   54          1
                                   No pseudopotential on this center.
   55          6
                                   No pseudopotential on this center.
   56          1
                                   No pseudopotential on this center.
   57          1
                                   No pseudopotential on this center.
   58          1
                                   No pseudopotential on this center.
   59          6
                                   No pseudopotential on this center.
   60          1
                                   No pseudopotential on this center.
   61          1
                                   No pseudopotential on this center.
   62          1
                                   No pseudopotential on this center.
   63          6
                                   No pseudopotential on this center.
   64          1
                                   No pseudopotential on this center.
   65          1
                                   No pseudopotential on this center.
   66          1
                                   No pseudopotential on this center.
   67          6
                                   No pseudopotential on this center.
   68          1
                                   No pseudopotential on this center.
   69          1
                                   No pseudopotential on this center.
   70          1
                                   No pseudopotential on this center.
   71          6
                                   No pseudopotential on this center.
   72          1
                                   No pseudopotential on this center.
   73          1
                                   No pseudopotential on this center.
   74          1
                                   No pseudopotential on this center.
   75          6
                                   No pseudopotential on this center.
   76          1
                                   No pseudopotential on this center.
   77          1
                                   No pseudopotential on this center.
   78          1
                                   No pseudopotential on this center.
   79          6
                                   No pseudopotential on this center.
   80          1
                                   No pseudopotential on this center.
   81          1
                                   No pseudopotential on this center.
   82          1
                                   No pseudopotential on this center.
   83          1
                                   No pseudopotential on this center.
   84          6
                                   No pseudopotential on this center.
   85          8
                                   No pseudopotential on this center.
   86          6
                                   No pseudopotential on this center.
   87          1
                                   No pseudopotential on this center.
   88          1
                                   No pseudopotential on this center.
   89          6
                                   No pseudopotential on this center.
   90          1
                                   No pseudopotential on this center.
   91          1
                                   No pseudopotential on this center.
   92          7
                                   No pseudopotential on this center.
   93          6
                                   No pseudopotential on this center.
   94          1
                                   No pseudopotential on this center.
   95          1
                                   No pseudopotential on this center.
   96          1
                                   No pseudopotential on this center.
   97          6
                                   No pseudopotential on this center.
   98          1
                                   No pseudopotential on this center.
   99          1
                                   No pseudopotential on this center.
  100          6
                                   No pseudopotential on this center.
  101          1
                                   No pseudopotential on this center.
  102          1
                                   No pseudopotential on this center.
  103          6
                                   No pseudopotential on this center.
  104          1
                                   No pseudopotential on this center.
  105          1
                                   No pseudopotential on this center.
  106          6
                                   No pseudopotential on this center.
  107          1
                                   No pseudopotential on this center.
  108          1
                                   No pseudopotential on this center.
  109          1
                                   No pseudopotential on this center.
  110          6
                                   No pseudopotential on this center.
  111          9
                                   No pseudopotential on this center.
  112          9
                                   No pseudopotential on this center.
  113          9
                                   No pseudopotential on this center.
  114          1
                                   No pseudopotential on this center.
 ======================================================================================================
 There are   939 symmetry adapted cartesian basis functions of A   symmetry.
 There are   884 symmetry adapted basis functions of A   symmetry.
   884 basis functions,  1767 primitive gaussians,   939 cartesian basis functions
   209 alpha electrons      209 beta electrons
       nuclear repulsion energy      9209.6590163513 Hartrees.
 NAtoms=  114 NActive=  114 NUniq=  114 SFac= 1.00D+00 NAtFMM=   60 NAOKFM=T Big=T
 Integral buffers will be    131072 words long.
 Raffenetti 2 integral format.
 Two-electron integral symmetry is turned on.
 One-electron integrals computed using PRISM.
   1 Symmetry operations used in ECPInt.
 ECPInt:  NShTT=   57970 NPrTT=  353525 LenC2=   42047 LenP2D=  128476.
 LDataN:  DoStor=T MaxTD1= 6 Len=  172
 NBasis=   884 RedAO= T EigKep=  5.39D-04  NBF=   884
 NBsUse=   884 1.00D-06 EigRej= -1.00D+00 NBFU=   884
 Defaulting to unpruned grid for atomic number  77.
 ExpMin= 2.90D-02 ExpMax= 7.00D+03 ExpMxC= 1.05D+03 IAcc=3 IRadAn=         5 AccDes= 0.00D+00
 Harris functional with IExCor= 1009 and IRadAn=       5 diagonalized for initial guess.
 HarFok:  IExCor= 1009 AccDes= 0.00D+00 IRadAn=         5 IDoV= 1 UseB2=F ITyADJ=14
 ICtDFT=  3500011 ScaDFX=  1.000000  1.000000  1.000000  1.000000
 Defaulting to unpruned grid for atomic number  77.
 FoFCou: FMM=F IPFlag=           0 FMFlag=      100000 FMFlg1=        2001
         NFxFlg=           0 DoJE=T BraDBF=F KetDBF=T FulRan=T
         wScrn=  0.000000 ICntrl=       500 IOpCl=  0 I1Cent=   200000004 NGrid=           0
         NMat0=    1 NMatS0=      1 NMatT0=    0 NMatD0=    1 NMtDS0=    0 NMtDT0=    0
 Petite list used in FoFCou.
 Requested convergence on RMS density matrix=1.00D-08 within 128 cycles.
 Requested convergence on MAX density matrix=1.00D-06.
 Requested convergence on             energy=1.00D-06.
 No special actions if energy rises.
 Defaulting to unpruned grid for atomic number  77.
 Defaulting to unpruned grid for atomic number  77.
 Defaulting to unpruned grid for atomic number  77.
 Defaulting to unpruned grid for atomic number  77.
 Defaulting to unpruned grid for atomic number  77.
 Defaulting to unpruned grid for atomic number  77.
 Defaulting to unpruned grid for atomic number  77.
 Defaulting to unpruned grid for atomic number  77.
 Defaulting to unpruned grid for atomic number  77.
 Defaulting to unpruned grid for atomic number  77.
 Defaulting to unpruned grid for atomic number  77.
 Defaulting to unpruned grid for atomic number  77.
 Defaulting to unpruned grid for atomic number  77.
 Defaulting to unpruned grid for atomic number  77.
 Defaulting to unpruned grid for atomic number  77.
 Defaulting to unpruned grid for atomic number  77.
 EnCoef did     4 forward-backward iterations
 EnCoef did     7 forward-backward iterations
 SCF Done:  E(RM06) =  -2614.43131808     A.U. after   18 cycles
            NFock= 18  Conv=0.56D-08     -V/T= 2.0345
 DoSCS=F DFT=T ScalE2(SS,OS)=  1.000000  1.000000
 Range of M.O.s used for correlation:     1   884
 NBasis=   884 NAE=   209 NBE=   209 NFC=     0 NFV=     0
 NROrb=    884 NOA=   209 NOB=   209 NVA=   675 NVB=   675

 **** Warning!!: The smallest alpha delta epsilon is  0.96361332D-01

   1 Symmetry operations used in ECPInt.
 ECPInt:  NShTT=   57970 NPrTT=  353525 LenC2=   42047 LenP2D=  128476.
 LDataN:  DoStor=T MaxTD1= 7 Len=  274
 Number of processors reduced to   7 by ecpmxn.
 Symmetrizing basis deriv contribution to polar:
 IMax=3 JMax=2 DiffMx= 0.00D+00
 G2DrvN: will do   115 centers at a time, making    1 passes.
 Calling FoFCou, ICntrl=  3107 FMM=T I1Cent=   0 AccDes= 0.00D+00.
 Defaulting to unpruned grid for atomic number  77.
 Defaulting to unpruned grid for atomic number  77.
 Defaulting to unpruned grid for atomic number  77.
 Defaulting to unpruned grid for atomic number  77.
 Defaulting to unpruned grid for atomic number  77.
 Defaulting to unpruned grid for atomic number  77.
 Defaulting to unpruned grid for atomic number  77.
 Defaulting to unpruned grid for atomic number  77.
 Defaulting to unpruned grid for atomic number  77.
 Defaulting to unpruned grid for atomic number  77.
 Defaulting to unpruned grid for atomic number  77.
 Defaulting to unpruned grid for atomic number  77.
 Defaulting to unpruned grid for atomic number  77.
 Defaulting to unpruned grid for atomic number  77.
 Defaulting to unpruned grid for atomic number  77.
 Defaulting to unpruned grid for atomic number  77.
 End of G2Drv F.D. properties file   721 does not exist.
 End of G2Drv F.D. properties file   722 does not exist.
 End of G2Drv F.D. properties file   788 does not exist.
          IDoAtm=11111111111111111111111111111111111111111111111111
          IDoAtm=11111111111111111111111111111111111111111111111111
          IDoAtm=11111111111111
          Differentiating once with respect to electric field.
                with respect to dipole field.
          Differentiating once with respect to nuclear coordinates.
 Defaulting to unpruned grid for atomic number  77.
 CalDSu exits because no D1Ps are significant.
 Defaulting to unpruned grid for atomic number  77.
 Defaulting to unpruned grid for atomic number  77.
 Defaulting to unpruned grid for atomic number  77.
 Defaulting to unpruned grid for atomic number  77.
 Defaulting to unpruned grid for atomic number  77.
 Defaulting to unpruned grid for atomic number  77.
 Defaulting to unpruned grid for atomic number  77.
 Defaulting to unpruned grid for atomic number  77.
 Defaulting to unpruned grid for atomic number  77.
 Defaulting to unpruned grid for atomic number  77.
 Defaulting to unpruned grid for atomic number  77.
 Defaulting to unpruned grid for atomic number  77.
 Defaulting to unpruned grid for atomic number  77.
 Defaulting to unpruned grid for atomic number  77.
 Defaulting to unpruned grid for atomic number  77.
 Defaulting to unpruned grid for atomic number  77.
          There are   345 degrees of freedom in the 1st order CPHF.  IDoFFX=6 NUNeed=     3.
    342 vectors produced by pass  0 Test12= 1.41D-13 1.00D-09 XBig12= 4.70D+02 6.33D+00.
 AX will form    72 AO Fock derivatives at one time.
    342 vectors produced by pass  1 Test12= 1.41D-13 1.00D-09 XBig12= 8.52D+01 9.50D-01.
    342 vectors produced by pass  2 Test12= 1.41D-13 1.00D-09 XBig12= 1.00D+00 8.69D-02.
    342 vectors produced by pass  3 Test12= 1.41D-13 1.00D-09 XBig12= 6.51D-03 6.71D-03.
    342 vectors produced by pass  4 Test12= 1.41D-13 1.00D-09 XBig12= 2.15D-05 2.69D-04.
    305 vectors produced by pass  5 Test12= 1.41D-13 1.00D-09 XBig12= 4.19D-08 1.41D-05.
     78 vectors produced by pass  6 Test12= 1.41D-13 1.00D-09 XBig12= 5.88D-11 4.18D-07.
      3 vectors produced by pass  7 Test12= 1.41D-13 1.00D-09 XBig12= 7.53D-14 1.74D-08.
 InvSVY:  IOpt=1 It=  1 EMax= 1.07D-14
 Solved reduced A of dimension  2096 with   345 vectors.
 Isotropic polarizability for W=    0.000000      515.19 Bohr**3.
 End of Minotr F.D. properties file   721 does not exist.
 End of Minotr F.D. properties file   722 does not exist.
 End of Minotr F.D. properties file   788 does not exist.
 Hyperfine terms turned off by default for NAtoms > 100.

 **********************************************************************

            Population analysis using the SCF Density.

 **********************************************************************

 Orbital symmetries:
       Occupied  (A) (A) (A) (A) (A) (A) (A) (A) (A) (A) (A) (A)
                 (A) (A) (A) (A) (A) (A) (A) (A) (A) (A) (A) (A)
                 (A) (A) (A) (A) (A) (A) (A) (A) (A) (A) (A) (A)
                 (A) (A) (A) (A) (A) (A) (A) (A) (A) (A) (A) (A)
                 (A) (A) (A) (A) (A) (A) (A) (A) (A) (A) (A) (A)
                 (A) (A) (A) (A) (A) (A) (A) (A) (A) (A) (A) (A)
                 (A) (A) (A) (A) (A) (A) (A) (A) (A) (A) (A) (A)
                 (A) (A) (A) (A) (A) (A) (A) (A) (A) (A) (A) (A)
                 (A) (A) (A) (A) (A) (A) (A) (A) (A) (A) (A) (A)
                 (A) (A) (A) (A) (A) (A) (A) (A) (A) (A) (A) (A)
                 (A) (A) (A) (A) (A) (A) (A) (A) (A) (A) (A) (A)
                 (A) (A) (A) (A) (A) (A) (A) (A) (A) (A) (A) (A)
                 (A) (A) (A) (A) (A) (A) (A) (A) (A) (A) (A) (A)
                 (A) (A) (A) (A) (A) (A) (A) (A) (A) (A) (A) (A)
                 (A) (A) (A) (A) (A) (A) (A) (A) (A) (A) (A) (A)
                 (A) (A) (A) (A) (A) (A) (A) (A) (A) (A) (A) (A)
                 (A) (A) (A) (A) (A) (A) (A) (A) (A) (A) (A) (A)
                 (A) (A) (A) (A) (A)
       Virtual   (A) (A) (A) (A) (A) (A) (A) (A) (A) (A) (A) (A)
                 (A) (A) (A) (A) (A) (A) (A) (A) (A) (A) (A) (A)
                 (A) (A) (A) (A) (A) (A) (A) (A) (A) (A) (A) (A)
                 (A) (A) (A) (A) (A) (A) (A) (A) (A) (A) (A) (A)
                 (A) (A) (A) (A) (A) (A) (A) (A) (A) (A) (A) (A)
                 (A) (A) (A) (A) (A) (A) (A) (A) (A) (A) (A) (A)
                 (A) (A) (A) (A) (A) (A) (A) (A) (A) (A) (A) (A)
                 (A) (A) (A) (A) (A) (A) (A) (A) (A) (A) (A) (A)
                 (A) (A) (A) (A) (A) (A) (A) (A) (A) (A) (A) (A)
                 (A) (A) (A) (A) (A) (A) (A) (A) (A) (A) (A) (A)
                 (A) (A) (A) (A) (A) (A) (A) (A) (A) (A) (A) (A)
                 (A) (A) (A) (A) (A) (A) (A) (A) (A) (A) (A) (A)
                 (A) (A) (A) (A) (A) (A) (A) (A) (A) (A) (A) (A)
                 (A) (A) (A) (A) (A) (A) (A) (A) (A) (A) (A) (A)
                 (A) (A) (A) (A) (A) (A) (A) (A) (A) (A) (A) (A)
                 (A) (A) (A) (A) (A) (A) (A) (A) (A) (A) (A) (A)
                 (A) (A) (A) (A) (A) (A) (A) (A) (A) (A) (A) (A)
                 (A) (A) (A) (A) (A) (A) (A) (A) (A) (A) (A) (A)
                 (A) (A) (A) (A) (A) (A) (A) (A) (A) (A) (A) (A)
                 (A) (A) (A) (A) (A) (A) (A) (A) (A) (A) (A) (A)
                 (A) (A) (A) (A) (A) (A) (A) (A) (A) (A) (A) (A)
                 (A) (A) (A) (A) (A) (A) (A) (A) (A) (A) (A) (A)
                 (A) (A) (A) (A) (A) (A) (A) (A) (A) (A) (A) (A)
                 (A) (A) (A) (A) (A) (A) (A) (A) (A) (A) (A) (A)
                 (A) (A) (A) (A) (A) (A) (A) (A) (A) (A) (A) (A)
                 (A) (A) (A) (A) (A) (A) (A) (A) (A) (A) (A) (A)
                 (A) (A) (A) (A) (A) (A) (A) (A) (A) (A) (A) (A)
                 (A) (A) (A) (A) (A) (A) (A) (A) (A) (A) (A) (A)
                 (A) (A) (A) (A) (A) (A) (A) (A) (A) (A) (A) (A)
                 (A) (A) (A) (A) (A) (A) (A) (A) (A) (A) (A) (A)
                 (A) (A) (A) (A) (A) (A) (A) (A) (A) (A) (A) (A)
                 (A) (A) (A) (A) (A) (A) (A) (A) (A) (A) (A) (A)
                 (A) (A) (A) (A) (A) (A) (A) (A) (A) (A) (A) (A)
                 (A) (A) (A) (A) (A) (A) (A) (A) (A) (A) (A) (A)
                 (A) (A) (A) (A) (A) (A) (A) (A) (A) (A) (A) (A)
                 (A) (A) (A) (A) (A) (A) (A) (A) (A) (A) (A) (A)
                 (A) (A) (A) (A) (A) (A) (A) (A) (A) (A) (A) (A)
                 (A) (A) (A) (A) (A) (A) (A) (A) (A) (A) (A) (A)
                 (A) (A) (A) (A) (A) (A) (A) (A) (A) (A) (A) (A)
                 (A) (A) (A) (A) (A) (A) (A) (A) (A) (A) (A) (A)
                 (A) (A) (A) (A) (A) (A) (A) (A) (A) (A) (A) (A)
                 (A) (A) (A) (A) (A) (A) (A) (A) (A) (A) (A) (A)
                 (A) (A) (A) (A) (A) (A) (A) (A) (A) (A) (A) (A)
                 (A) (A) (A) (A) (A) (A) (A) (A) (A) (A) (A) (A)
                 (A) (A) (A) (A) (A) (A) (A) (A) (A) (A) (A) (A)
                 (A) (A) (A) (A) (A) (A) (A) (A) (A) (A) (A) (A)
                 (A) (A) (A) (A) (A) (A) (A) (A) (A) (A) (A) (A)
                 (A) (A) (A) (A) (A) (A) (A) (A) (A) (A) (A) (A)
                 (A) (A) (A) (A) (A) (A) (A) (A) (A) (A) (A) (A)
                 (A) (A) (A) (A) (A) (A) (A) (A) (A) (A) (A) (A)
                 (A) (A) (A) (A) (A) (A) (A) (A) (A) (A) (A) (A)
                 (A) (A) (A) (A) (A) (A) (A) (A) (A) (A) (A) (A)
                 (A) (A) (A) (A) (A) (A) (A) (A) (A) (A) (A) (A)
                 (A) (A) (A) (A) (A) (A) (A) (A) (A) (A) (A) (A)
                 (A) (A) (A) (A) (A) (A) (A) (A) (A) (A) (A) (A)
                 (A) (A) (A) (A) (A) (A) (A) (A) (A) (A) (A) (A)
                 (A) (A) (A)
 The electronic state is 1-A.
 Alpha  occ. eigenvalues --  -24.83298 -24.82881 -24.82636 -19.22620 -19.22162
 Alpha  occ. eigenvalues --  -19.20853 -19.20377 -19.20350 -19.20225 -19.15909
 Alpha  occ. eigenvalues --  -14.46117 -14.44352 -14.39948 -10.51363 -10.32190
 Alpha  occ. eigenvalues --  -10.31615 -10.31556 -10.30940 -10.30823 -10.30615
 Alpha  occ. eigenvalues --  -10.29965 -10.29852 -10.29561 -10.29455 -10.29399
 Alpha  occ. eigenvalues --  -10.29361 -10.28977 -10.28422 -10.28162 -10.27625
 Alpha  occ. eigenvalues --  -10.27286 -10.25734 -10.23948 -10.23680 -10.23610
 Alpha  occ. eigenvalues --  -10.23379 -10.23378 -10.23271 -10.23167 -10.22930
 Alpha  occ. eigenvalues --  -10.22850 -10.22847 -10.22572 -10.22564 -10.22555
 Alpha  occ. eigenvalues --  -10.22379 -10.21993 -10.21957 -10.21807 -10.20888
 Alpha  occ. eigenvalues --   -6.83745  -6.80710  -6.79406  -3.64934  -2.08150
 Alpha  occ. eigenvalues --   -2.06920  -2.05081  -1.35771  -1.27317  -1.26718
 Alpha  occ. eigenvalues --   -1.08491  -1.06603  -1.06187  -1.01708  -1.01540
 Alpha  occ. eigenvalues --   -1.00140  -0.99668  -0.99210  -0.97632  -0.91375
 Alpha  occ. eigenvalues --   -0.85982  -0.83773  -0.83079  -0.81880  -0.80743
 Alpha  occ. eigenvalues --   -0.80440  -0.80124  -0.78748  -0.76230  -0.75848
 Alpha  occ. eigenvalues --   -0.75165  -0.74939  -0.73584  -0.71511  -0.70714
 Alpha  occ. eigenvalues --   -0.70452  -0.69389  -0.69272  -0.68806  -0.68568
 Alpha  occ. eigenvalues --   -0.68403  -0.67882  -0.67719  -0.65257  -0.64439
 Alpha  occ. eigenvalues --   -0.64086  -0.63197  -0.62009  -0.61765  -0.61580
 Alpha  occ. eigenvalues --   -0.61529  -0.60123  -0.59216  -0.57278  -0.56743
 Alpha  occ. eigenvalues --   -0.56287  -0.56157  -0.54964  -0.54642  -0.53956
 Alpha  occ. eigenvalues --   -0.53561  -0.53211  -0.52291  -0.50938  -0.50260
 Alpha  occ. eigenvalues --   -0.50054  -0.49275  -0.49147  -0.49103  -0.48647
 Alpha  occ. eigenvalues --   -0.48166  -0.47753  -0.47315  -0.47160  -0.47030
 Alpha  occ. eigenvalues --   -0.46624  -0.46516  -0.46437  -0.46069  -0.45809
 Alpha  occ. eigenvalues --   -0.45417  -0.45224  -0.45192  -0.45036  -0.44851
 Alpha  occ. eigenvalues --   -0.44509  -0.44447  -0.44101  -0.43901  -0.43710
 Alpha  occ. eigenvalues --   -0.43549  -0.43313  -0.43053  -0.43023  -0.42221
 Alpha  occ. eigenvalues --   -0.41076  -0.40910  -0.40870  -0.40524  -0.40432
 Alpha  occ. eigenvalues --   -0.40283  -0.40137  -0.40077  -0.40016  -0.39856
 Alpha  occ. eigenvalues --   -0.39737  -0.39626  -0.39528  -0.39464  -0.39132
 Alpha  occ. eigenvalues --   -0.38936  -0.38884  -0.38610  -0.38119  -0.37724
 Alpha  occ. eigenvalues --   -0.37642  -0.37491  -0.37221  -0.36815  -0.36805
 Alpha  occ. eigenvalues --   -0.36664  -0.36521  -0.36249  -0.36151  -0.35958
 Alpha  occ. eigenvalues --   -0.35607  -0.35189  -0.35024  -0.34942  -0.34807
 Alpha  occ. eigenvalues --   -0.34579  -0.33879  -0.33625  -0.33274  -0.33077
 Alpha  occ. eigenvalues --   -0.32933  -0.32536  -0.32320  -0.32124  -0.31947
 Alpha  occ. eigenvalues --   -0.31787  -0.31615  -0.31407  -0.31275  -0.31142
 Alpha  occ. eigenvalues --   -0.30808  -0.30505  -0.30291  -0.28802  -0.28008
 Alpha  occ. eigenvalues --   -0.26978  -0.26568  -0.26469  -0.26261  -0.24627
 Alpha  occ. eigenvalues --   -0.23311  -0.22985  -0.21343  -0.16748
 Alpha virt. eigenvalues --   -0.07112  -0.03894  -0.02983   0.01026   0.01323
 Alpha virt. eigenvalues --    0.01633   0.05322   0.05658   0.05943   0.06327
 Alpha virt. eigenvalues --    0.07345   0.08370   0.08867   0.09566   0.09966
 Alpha virt. eigenvalues --    0.10399   0.10665   0.11166   0.11253   0.11553
 Alpha virt. eigenvalues --    0.11965   0.12433   0.12550   0.12746   0.13080
 Alpha virt. eigenvalues --    0.13361   0.13834   0.13952   0.14056   0.14226
 Alpha virt. eigenvalues --    0.14330   0.14529   0.14710   0.15044   0.15186
 Alpha virt. eigenvalues --    0.15339   0.15388   0.15708   0.15930   0.16101
 Alpha virt. eigenvalues --    0.16258   0.16434   0.16522   0.16569   0.16954
 Alpha virt. eigenvalues --    0.17107   0.17269   0.17396   0.17580   0.17934
 Alpha virt. eigenvalues --    0.18090   0.18328   0.18499   0.18842   0.19040
 Alpha virt. eigenvalues --    0.19154   0.19219   0.19432   0.19549   0.19768
 Alpha virt. eigenvalues --    0.19949   0.20041   0.20204   0.20264   0.20556
 Alpha virt. eigenvalues --    0.20660   0.20782   0.21131   0.21448   0.21722
 Alpha virt. eigenvalues --    0.21891   0.22238   0.22307   0.22748   0.22825
 Alpha virt. eigenvalues --    0.22973   0.23471   0.23538   0.23625   0.23928
 Alpha virt. eigenvalues --    0.24159   0.24292   0.24481   0.24632   0.24909
 Alpha virt. eigenvalues --    0.24972   0.25403   0.25515   0.25701   0.25787
 Alpha virt. eigenvalues --    0.26313   0.26526   0.26719   0.26905   0.27030
 Alpha virt. eigenvalues --    0.27313   0.27493   0.27758   0.28515   0.28618
 Alpha virt. eigenvalues --    0.28672   0.29199   0.29244   0.29979   0.30078
 Alpha virt. eigenvalues --    0.30779   0.31102   0.31168   0.31794   0.31966
 Alpha virt. eigenvalues --    0.32323   0.33321   0.33504   0.34486   0.35008
 Alpha virt. eigenvalues --    0.35347   0.36069   0.36841   0.37189   0.37924
 Alpha virt. eigenvalues --    0.37932   0.38602   0.38902   0.40492   0.41611
 Alpha virt. eigenvalues --    0.43272   0.44079   0.45057   0.46097   0.46703
 Alpha virt. eigenvalues --    0.48172   0.48572   0.48622   0.48873   0.49284
 Alpha virt. eigenvalues --    0.49553   0.50250   0.50380   0.50712   0.51026
 Alpha virt. eigenvalues --    0.51331   0.51635   0.52267   0.52429   0.52537
 Alpha virt. eigenvalues --    0.53328   0.53528   0.53847   0.54042   0.54599
 Alpha virt. eigenvalues --    0.55071   0.55375   0.55562   0.55783   0.56177
 Alpha virt. eigenvalues --    0.56447   0.57115   0.57131   0.57231   0.57495
 Alpha virt. eigenvalues --    0.57714   0.58080   0.58147   0.58374   0.58582
 Alpha virt. eigenvalues --    0.58861   0.59011   0.59341   0.59436   0.59677
 Alpha virt. eigenvalues --    0.59912   0.60437   0.60851   0.61221   0.61277
 Alpha virt. eigenvalues --    0.62042   0.62373   0.62780   0.62858   0.63170
 Alpha virt. eigenvalues --    0.63631   0.63786   0.63983   0.64719   0.64862
 Alpha virt. eigenvalues --    0.64935   0.65081   0.65740   0.65992   0.66421
 Alpha virt. eigenvalues --    0.66615   0.66818   0.67312   0.67491   0.67724
 Alpha virt. eigenvalues --    0.68353   0.68524   0.68767   0.69590   0.69801
 Alpha virt. eigenvalues --    0.70031   0.70226   0.70374   0.70869   0.71129
 Alpha virt. eigenvalues --    0.71659   0.71829   0.72226   0.72366   0.72592
 Alpha virt. eigenvalues --    0.72639   0.73460   0.73509   0.74143   0.74298
 Alpha virt. eigenvalues --    0.74671   0.75078   0.75429   0.76373   0.76850
 Alpha virt. eigenvalues --    0.77062   0.77256   0.77625   0.78246   0.78453
 Alpha virt. eigenvalues --    0.78814   0.78893   0.79417   0.79872   0.80565
 Alpha virt. eigenvalues --    0.80710   0.81269   0.81797   0.82306   0.82473
 Alpha virt. eigenvalues --    0.82812   0.82979   0.83297   0.83377   0.83408
 Alpha virt. eigenvalues --    0.83783   0.83887   0.84298   0.84498   0.84640
 Alpha virt. eigenvalues --    0.84959   0.85037   0.85345   0.85598   0.85764
 Alpha virt. eigenvalues --    0.86273   0.86375   0.86560   0.86843   0.87202
 Alpha virt. eigenvalues --    0.87416   0.87564   0.87866   0.88026   0.88338
 Alpha virt. eigenvalues --    0.88730   0.88932   0.89057   0.89310   0.89543
 Alpha virt. eigenvalues --    0.89707   0.90063   0.90194   0.90290   0.90648
 Alpha virt. eigenvalues --    0.90796   0.91098   0.91234   0.91454   0.91990
 Alpha virt. eigenvalues --    0.92245   0.92526   0.92834   0.93151   0.93228
 Alpha virt. eigenvalues --    0.93884   0.94061   0.94164   0.94376   0.94480
 Alpha virt. eigenvalues --    0.94945   0.95071   0.95326   0.95541   0.95902
 Alpha virt. eigenvalues --    0.96185   0.96509   0.96807   0.97283   0.97431
 Alpha virt. eigenvalues --    0.97881   0.98152   0.98611   0.99040   0.99276
 Alpha virt. eigenvalues --    0.99774   1.00108   1.00246   1.00918   1.01264
 Alpha virt. eigenvalues --    1.02015   1.02090   1.02662   1.03182   1.03666
 Alpha virt. eigenvalues --    1.03995   1.04826   1.05389   1.05505   1.06494
 Alpha virt. eigenvalues --    1.06810   1.07333   1.07960   1.08334   1.08873
 Alpha virt. eigenvalues --    1.10028   1.10303   1.10845   1.11065   1.11963
 Alpha virt. eigenvalues --    1.12617   1.12819   1.13024   1.14133   1.14402
 Alpha virt. eigenvalues --    1.14475   1.15391   1.16112   1.16561   1.16636
 Alpha virt. eigenvalues --    1.17595   1.17778   1.18097   1.18329   1.19496
 Alpha virt. eigenvalues --    1.19976   1.21304   1.21515   1.21766   1.22252
 Alpha virt. eigenvalues --    1.22683   1.23127   1.23306   1.24168   1.24578
 Alpha virt. eigenvalues --    1.26123   1.26647   1.26829   1.27508   1.28053
 Alpha virt. eigenvalues --    1.28649   1.28736   1.29170   1.30139   1.30205
 Alpha virt. eigenvalues --    1.31280   1.31656   1.32649   1.33487   1.34680
 Alpha virt. eigenvalues --    1.34964   1.35526   1.35773   1.35935   1.36043
 Alpha virt. eigenvalues --    1.36428   1.37151   1.38051   1.39259   1.39464
 Alpha virt. eigenvalues --    1.39737   1.39827   1.40391   1.40584   1.40995
 Alpha virt. eigenvalues --    1.42066   1.42238   1.42930   1.43394   1.43633
 Alpha virt. eigenvalues --    1.44253   1.44573   1.44845   1.45202   1.45839
 Alpha virt. eigenvalues --    1.46200   1.46419   1.47041   1.47458   1.47912
 Alpha virt. eigenvalues --    1.48351   1.48864   1.49433   1.50189   1.50914
 Alpha virt. eigenvalues --    1.51627   1.52279   1.52999   1.53513   1.54188
 Alpha virt. eigenvalues --    1.54836   1.55334   1.56742   1.58386   1.59120
 Alpha virt. eigenvalues --    1.59290   1.60087   1.60762   1.61321   1.61925
 Alpha virt. eigenvalues --    1.62920   1.63241   1.64644   1.65110   1.66076
 Alpha virt. eigenvalues --    1.66426   1.66778   1.67221   1.67348   1.68316
 Alpha virt. eigenvalues --    1.68704   1.69010   1.69556   1.70288   1.70876
 Alpha virt. eigenvalues --    1.71848   1.72230   1.73136   1.73581   1.73820
 Alpha virt. eigenvalues --    1.75190   1.75510   1.76234   1.76868   1.77309
 Alpha virt. eigenvalues --    1.78110   1.78215   1.78895   1.78957   1.79622
 Alpha virt. eigenvalues --    1.80217   1.80616   1.80952   1.81191   1.81912
 Alpha virt. eigenvalues --    1.82635   1.82764   1.83657   1.84148   1.84286
 Alpha virt. eigenvalues --    1.84744   1.85176   1.85746   1.86273   1.86455
 Alpha virt. eigenvalues --    1.86988   1.87119   1.87881   1.88454   1.88955
 Alpha virt. eigenvalues --    1.89307   1.89508   1.89923   1.90080   1.90343
 Alpha virt. eigenvalues --    1.90657   1.90981   1.91322   1.91454   1.91591
 Alpha virt. eigenvalues --    1.92043   1.92314   1.92534   1.92605   1.92727
 Alpha virt. eigenvalues --    1.92894   1.93138   1.93327   1.93724   1.94305
 Alpha virt. eigenvalues --    1.95007   1.95484   1.96135   1.96320   1.96815
 Alpha virt. eigenvalues --    1.97709   1.97925   1.98312   1.98464   1.98889
 Alpha virt. eigenvalues --    1.99734   2.00381   2.00782   2.00940   2.01573
 Alpha virt. eigenvalues --    2.01728   2.02110   2.02467   2.02787   2.03300
 Alpha virt. eigenvalues --    2.03669   2.04377   2.04528   2.04852   2.05513
 Alpha virt. eigenvalues --    2.05859   2.06013   2.06476   2.06575   2.06852
 Alpha virt. eigenvalues --    2.07598   2.08145   2.08932   2.09139   2.09536
 Alpha virt. eigenvalues --    2.09785   2.10081   2.10290   2.10569   2.10846
 Alpha virt. eigenvalues --    2.11590   2.12054   2.12579   2.12700   2.13032
 Alpha virt. eigenvalues --    2.13711   2.14008   2.14219   2.14377   2.15091
 Alpha virt. eigenvalues --    2.15534   2.15977   2.16775   2.17162   2.17247
 Alpha virt. eigenvalues --    2.17499   2.18024   2.18413   2.18529   2.18845
 Alpha virt. eigenvalues --    2.19021   2.19376   2.19541   2.19800   2.20948
 Alpha virt. eigenvalues --    2.21359   2.21579   2.21810   2.21936   2.22558
 Alpha virt. eigenvalues --    2.22814   2.22885   2.23573   2.23893   2.24039
 Alpha virt. eigenvalues --    2.24575   2.24872   2.25030   2.25611   2.26141
 Alpha virt. eigenvalues --    2.26346   2.26622   2.27106   2.28007   2.28471
 Alpha virt. eigenvalues --    2.29680   2.29997   2.30959   2.31167   2.31791
 Alpha virt. eigenvalues --    2.32201   2.32405   2.32845   2.33320   2.33477
 Alpha virt. eigenvalues --    2.34381   2.34675   2.35778   2.36154   2.36363
 Alpha virt. eigenvalues --    2.37632   2.38176   2.38810   2.39430   2.39581
 Alpha virt. eigenvalues --    2.39929   2.41938   2.42831   2.43414   2.44276
 Alpha virt. eigenvalues --    2.44623   2.45575   2.46911   2.47018   2.47686
 Alpha virt. eigenvalues --    2.48006   2.49031   2.49316   2.50635   2.51032
 Alpha virt. eigenvalues --    2.51805   2.52848   2.53921   2.55361   2.55839
 Alpha virt. eigenvalues --    2.57436   2.58759   2.58804   2.59703   2.60194
 Alpha virt. eigenvalues --    2.61015   2.61686   2.62521   2.62931   2.64266
 Alpha virt. eigenvalues --    2.64646   2.65146   2.66970   2.67108   2.68164
 Alpha virt. eigenvalues --    2.69617   2.70591   2.71001   2.72902   2.76547
 Alpha virt. eigenvalues --    2.77425   2.77676   2.77821   2.78003   2.78173
 Alpha virt. eigenvalues --    2.78603   2.78813   2.79467   2.79705   2.80266
 Alpha virt. eigenvalues --    2.81054   2.81216   2.81654   2.83427   2.83601
 Alpha virt. eigenvalues --    2.84166   2.86121   2.86467   2.87830   2.88468
 Alpha virt. eigenvalues --    2.89272   2.90976   2.93389   2.94289   2.95434
 Alpha virt. eigenvalues --    2.95779   2.96281   2.97776   3.01057   3.02515
 Alpha virt. eigenvalues --    3.04044   3.06044   3.06361   3.07687   3.09213
 Alpha virt. eigenvalues --    3.10508   3.11468   3.12005   3.12578   3.13627
 Alpha virt. eigenvalues --    3.23366   3.25492   3.32325   3.44834  13.03296
          Condensed to atoms (all electrons):
 Mulliken charges:
               1
     1  C    0.294179
     2  C    0.025637
     3  C   -0.071694
     4  C   -0.154670
     5  C   -0.179831
     6  C    0.352866
     7  C    0.096416
     8  C   -0.163504
     9  C   -0.131483
    10  C   -0.162112
    11  H    0.204169
    12  H    0.198503
    13  H    0.177395
    14  H    0.186700
    15  H    0.182324
    16  H    0.172937
    17  N   -0.436009
    18  N   -0.569980
    19  Ir  -0.149354
    20  O   -0.519235
    21  O   -0.532973
    22  O   -0.493553
    23  B    0.382678
    24  B    0.499644
    25  B    0.561865
    26  O   -0.482519
    27  O   -0.509581
    28  C    0.284992
    29  C    0.301755
    30  C    0.290901
    31  C    0.290291
    32  C    0.299019
    33  C    0.288342
    34  O   -0.513269
    35  C   -0.504009
    36  H    0.151359
    37  H    0.161413
    38  H    0.156946
    39  C   -0.502105
    40  H    0.171601
    41  H    0.149181
    42  H    0.165958
    43  C   -0.475851
    44  H    0.167850
    45  H    0.149254
    46  H    0.142334
    47  C   -0.511490
    48  H    0.171776
    49  H    0.167701
    50  H    0.150397
    51  C   -0.510255
    52  H    0.159174
    53  H    0.158416
    54  H    0.165428
    55  C   -0.509072
    56  H    0.151835
    57  H    0.167376
    58  H    0.174170
    59  C   -0.513190
    60  H    0.170497
    61  H    0.148705
    62  H    0.174355
    63  C   -0.493863
    64  H    0.175053
    65  H    0.142906
    66  H    0.168217
    67  C   -0.517775
    68  H    0.178992
    69  H    0.178360
    70  H    0.154424
    71  C   -0.510216
    72  H    0.156773
    73  H    0.175228
    74  H    0.186524
    75  C   -0.512973
    76  H    0.174373
    77  H    0.168062
    78  H    0.160538
    79  C   -0.512635
    80  H    0.155972
    81  H    0.188141
    82  H    0.176675
    83  H    0.161454
    84  C    0.571361
    85  O   -0.532573
    86  C   -0.404717
    87  H    0.146322
    88  H    0.163952
    89  C   -0.342060
    90  H    0.186522
    91  H    0.161857
    92  N   -0.363233
    93  C   -0.373638
    94  H    0.176291
    95  H    0.153083
    96  H    0.205268
    97  C   -0.263961
    98  H    0.147751
    99  H    0.128761
   100  C   -0.278765
   101  H    0.126665
   102  H    0.177258
   103  C   -0.281136
   104  H    0.146690
   105  H    0.137399
   106  C   -0.497831
   107  H    0.158134
   108  H    0.155761
   109  H    0.163046
   110  C    0.962154
   111  F   -0.316023
   112  F   -0.310972
   113  F   -0.304517
   114  H    0.176319
 Sum of Mulliken charges =  -0.00000
 Mulliken charges with hydrogens summed into heavy atoms:
               1
     1  C    0.294179
     2  C    0.229807
     3  C   -0.071694
     4  C    0.043833
     5  C   -0.002437
     6  C    0.352866
     7  C    0.283116
     8  C    0.012815
     9  C    0.050841
    10  C    0.010825
    17  N   -0.436009
    18  N   -0.569980
    19  Ir  -0.149354
    20  O   -0.519235
    21  O   -0.532973
    22  O   -0.493553
    23  B    0.382678
    24  B    0.499644
    25  B    0.723319
    26  O   -0.482519
    27  O   -0.509581
    28  C    0.284992
    29  C    0.301755
    30  C    0.290901
    31  C    0.290291
    32  C    0.299019
    33  C    0.288342
    34  O   -0.513269
    35  C   -0.034291
    39  C   -0.015365
    43  C   -0.016414
    47  C   -0.021616
    51  C   -0.027237
    55  C   -0.015691
    59  C   -0.019632
    63  C   -0.007687
    67  C   -0.005999
    71  C    0.008308
    75  C   -0.010000
    79  C    0.008153
    84  C    0.571361
    85  O   -0.532573
    86  C   -0.094443
    89  C    0.006319
    92  N   -0.363233
    93  C    0.161004
    97  C    0.012551
   100  C    0.025158
   103  C    0.002953
   106  C   -0.020891
   110  C    0.962154
   111  F   -0.316023
   112  F   -0.310972
   113  F   -0.304517
 APT charges:
               1
     1  C    0.303826
     2  C    0.069390
     3  C   -0.239723
     4  C    0.127227
     5  C   -0.214517
     6  C    0.053098
     7  C    0.043334
     8  C   -0.033353
     9  C    0.071711
    10  C   -0.122071
    11  H    0.135146
    12  H    0.057180
    13  H    0.047699
    14  H    0.090215
    15  H    0.035859
    16  H    0.045085
    17  N   -0.259766
    18  N    0.052510
    19  Ir  -0.864965
    20  O   -0.868986
    21  O   -1.004345
    22  O   -1.003710
    23  B    1.294407
    24  B    1.111414
    25  B    1.416142
    26  O   -0.992706
    27  O   -0.914844
    28  C    0.438340
    29  C    0.451355
    30  C    0.528552
    31  C    0.511305
    32  C    0.535806
    33  C    0.513603
    34  O   -1.012941
    35  C   -0.011932
    36  H   -0.012414
    37  H   -0.000501
    38  H    0.001234
    39  C   -0.011816
    40  H   -0.001057
    41  H   -0.024643
    42  H   -0.008181
    43  C   -0.013765
    44  H   -0.004051
    45  H   -0.020056
    46  H   -0.016038
    47  C   -0.000693
    48  H    0.001458
    49  H   -0.000684
    50  H   -0.017944
    51  C   -0.043070
    52  H   -0.001433
    53  H   -0.020366
    54  H    0.007057
    55  C   -0.004849
    56  H   -0.017885
    57  H   -0.001607
    58  H    0.001602
    59  C   -0.006234
    60  H    0.000085
    61  H   -0.018110
    62  H    0.000756
    63  C   -0.042658
    64  H    0.006948
    65  H   -0.027915
    66  H    0.023055
    67  C   -0.008410
    68  H    0.004611
    69  H    0.007966
    70  H   -0.011170
    71  C   -0.033014
    72  H   -0.011507
    73  H   -0.005785
    74  H    0.016533
    75  C   -0.022984
    76  H    0.015009
    77  H    0.005293
    78  H   -0.009020
    79  C   -0.045070
    80  H   -0.020382
    81  H    0.017547
    82  H    0.008342
    83  H    0.035127
    84  C    0.855444
    85  O   -0.693453
    86  C    0.013935
    87  H   -0.044784
    88  H   -0.032464
    89  C    0.267857
    90  H   -0.032585
    91  H   -0.047887
    92  N   -0.788052
    93  C    0.292183
    94  H   -0.059186
    95  H   -0.006104
    96  H    0.021636
    97  C    0.113322
    98  H   -0.006659
    99  H   -0.068952
   100  C    0.068346
   101  H   -0.058805
   102  H    0.014081
   103  C    0.135281
   104  H   -0.047750
   105  H   -0.063182
   106  C    0.059374
   107  H   -0.044718
   108  H   -0.022230
   109  H   -0.014292
   110  C    1.824847
   111  F   -0.620337
   112  F   -0.525123
   113  F   -0.590700
   114  H    0.042301
 Sum of APT charges =  -0.00000
 APT charges with hydrogens summed into heavy atoms:
               1
     1  C    0.303826
     2  C    0.204537
     3  C   -0.239723
     4  C    0.184407
     5  C   -0.166817
     6  C    0.053098
     7  C    0.133550
     8  C    0.008948
     9  C    0.107570
    10  C   -0.076986
    17  N   -0.259766
    18  N    0.052510
    19  Ir  -0.864965
    20  O   -0.868986
    21  O   -1.004345
    22  O   -1.003710
    23  B    1.294407
    24  B    1.111414
    25  B    1.451270
    26  O   -0.992706
    27  O   -0.914844
    28  C    0.438340
    29  C    0.451355
    30  C    0.528552
    31  C    0.511305
    32  C    0.535806
    33  C    0.513603
    34  O   -1.012941
    35  C   -0.023613
    39  C   -0.045698
    43  C   -0.053910
    47  C   -0.017865
    51  C   -0.057812
    55  C   -0.022739
    59  C   -0.023504
    63  C   -0.040570
    67  C   -0.007004
    71  C   -0.033774
    75  C   -0.011702
    79  C   -0.039563
    84  C    0.855444
    85  O   -0.693453
    86  C   -0.063313
    89  C    0.187385
    92  N   -0.788052
    93  C    0.248529
    97  C    0.037711
   100  C    0.023623
   103  C    0.024349
   106  C   -0.021866
   110  C    1.824847
   111  F   -0.620337
   112  F   -0.525123
   113  F   -0.590700
 Electronic spatial extent (au):  <R**2>=          34468.3333
 Charge=              0.0000 electrons
 Dipole moment (field-independent basis, Debye):
    X=             -0.6537    Y=              0.9030    Z=             -2.5840  Tot=              2.8142
 Quadrupole moment (field-independent basis, Debye-Ang):
   XX=           -334.9147   YY=           -327.0619   ZZ=           -310.9020
   XY=             11.4457   XZ=            -12.7067   YZ=              1.9342
 Traceless Quadrupole moment (field-independent basis, Debye-Ang):
   XX=            -10.6218   YY=             -2.7690   ZZ=             13.3909
   XY=             11.4457   XZ=            -12.7067   YZ=              1.9342
 Octapole moment (field-independent basis, Debye-Ang**2):
  XXX=           -118.4960  YYY=             71.2832  ZZZ=             25.1938  XYY=            -13.9699
  XXY=             85.3171  XXZ=             -7.7308  XZZ=            -25.4453  YZZ=            -76.6641
  YYZ=            -10.7089  XYZ=             26.1493
 Hexadecapole moment (field-independent basis, Debye-Ang**3):
 XXXX=         -22226.6593 YYYY=         -13672.0476 ZZZZ=          -8952.8207 XXXY=            533.9577
 XXXZ=            -37.6440 YYYX=            260.5330 YYYZ=            147.8830 ZZZX=           -179.5147
 ZZZY=            129.4654 XXYY=          -6193.4183 XXZZ=          -4938.4552 YYZZ=          -3742.1919
 XXYZ=            -21.2356 YYXZ=            -44.4745 ZZXY=            130.0016
 N-N= 9.209659016351D+03 E-N=-2.449739327244D+04  KE= 2.527303643183D+03
  Exact polarizability:     560.238      26.245     505.466     -28.946      25.605     479.881
 Approx polarizability:     756.511      69.047     743.691     -59.396      61.122     735.987
   1 Symmetry operations used in ECPInt.
 ECPInt:  NShTT=   57970 NPrTT=  353525 LenC2=   42047 LenP2D=  128476.
 LDataN:  DoStor=T MaxTD1= 8 Len=  415
 Calling FoFJK, ICntrl=    100127 FMM=F ISym2X=0 I1Cent= 0 IOpClX= 0 NMat=1 NMatS=1 NMatT=0.
 Defaulting to unpruned grid for atomic number  77.
 Defaulting to unpruned grid for atomic number  77.
 Defaulting to unpruned grid for atomic number  77.
 Defaulting to unpruned grid for atomic number  77.
 Defaulting to unpruned grid for atomic number  77.
 Defaulting to unpruned grid for atomic number  77.
 Defaulting to unpruned grid for atomic number  77.
 Defaulting to unpruned grid for atomic number  77.
 Defaulting to unpruned grid for atomic number  77.
 Defaulting to unpruned grid for atomic number  77.
 Defaulting to unpruned grid for atomic number  77.
 Defaulting to unpruned grid for atomic number  77.
 Defaulting to unpruned grid for atomic number  77.
 Defaulting to unpruned grid for atomic number  77.
 Defaulting to unpruned grid for atomic number  77.
 Defaulting to unpruned grid for atomic number  77.
 Full mass-weighted force constant matrix:
 Low frequencies ---  -30.4637   -6.5980   -3.5186   -0.0003    0.0001    0.0008
 Low frequencies ---    6.5694    9.0617   13.5503
 ******    1 imaginary frequencies (negative Signs) ****** 
 Diagonal vibrational polarizability:
      166.9403263      83.7738933      76.1767145
 Harmonic frequencies (cm**-1), IR intensities (KM/Mole), Raman scattering
 activities (A**4/AMU), depolarization ratios for plane and unpolarized
 incident light, reduced masses (AMU), force constants (mDyne/A),
 and normal coordinates:
                      1                      2                      3
                      A                      A                      A
 Frequencies --    -30.4274                 7.6134                13.4781
 Red. masses --      4.3595                 4.2868                 4.4983
 Frc consts  --      0.0024                 0.0001                 0.0005
 IR Inten    --      0.0813                 0.1365                 0.1340
  Atom AN      X      Y      Z        X      Y      Z        X      Y      Z
     1   6     0.00  -0.01   0.01     0.01   0.03  -0.02    -0.04  -0.01  -0.03
     2   6    -0.01   0.01   0.00     0.02   0.01  -0.01    -0.04   0.00  -0.02
     3   6     0.01  -0.01   0.01     0.03   0.00  -0.01    -0.05   0.01  -0.02
     4   6     0.02  -0.02   0.02     0.02   0.01  -0.01    -0.06   0.01  -0.02
     5   6     0.01  -0.02   0.02     0.01   0.03  -0.02    -0.05  -0.01  -0.03
     6   6    -0.00  -0.01   0.00    -0.00   0.04  -0.02    -0.03  -0.02  -0.03
     7   6    -0.01   0.01  -0.01    -0.01   0.04  -0.02    -0.01  -0.03  -0.04
     8   6    -0.01   0.00  -0.01    -0.01   0.05  -0.02    -0.02  -0.04  -0.04
     9   6     0.00  -0.01   0.00    -0.01   0.05  -0.03    -0.03  -0.04  -0.04
    10   6     0.00  -0.01   0.01    -0.00   0.05  -0.03    -0.03  -0.03  -0.03
    11   1    -0.01   0.02  -0.00     0.03  -0.00  -0.01    -0.03   0.01  -0.01
    12   1     0.02  -0.04   0.03     0.03   0.01  -0.01    -0.07   0.01  -0.02
    13   1     0.02  -0.04   0.03     0.01   0.03  -0.02    -0.06  -0.01  -0.03
    14   1    -0.02   0.01  -0.02    -0.02   0.04  -0.01    -0.00  -0.03  -0.04
    15   1     0.00  -0.01   0.01    -0.01   0.06  -0.03    -0.03  -0.05  -0.04
    16   1     0.01  -0.01   0.02     0.00   0.05  -0.03    -0.04  -0.03  -0.03
    17   7    -0.01   0.01   0.00     0.01   0.02  -0.01    -0.03  -0.01  -0.02
    18   7    -0.01   0.00  -0.01    -0.01   0.04  -0.02    -0.02  -0.02  -0.03
    19  77    -0.02  -0.00  -0.03    -0.00   0.02  -0.01    -0.00  -0.02  -0.02
    20   8    -0.01  -0.05  -0.04    -0.02   0.01  -0.00    -0.04   0.01   0.00
    21   8    -0.01   0.02   0.04    -0.02   0.03   0.00     0.01  -0.02  -0.01
    22   8    -0.00  -0.02   0.01     0.03  -0.02   0.01     0.01  -0.01   0.00
    23   5     0.04   0.00   0.05    -0.02   0.02  -0.00     0.02  -0.02  -0.01
    24   5    -0.00  -0.02  -0.06    -0.01   0.01  -0.00    -0.01  -0.00   0.00
    25   5    -0.02   0.01  -0.01     0.02   0.01  -0.00     0.02  -0.02  -0.01
    26   8    -0.01   0.04  -0.01     0.03   0.02  -0.01     0.03  -0.03  -0.01
    27   8     0.01   0.03  -0.09    -0.01  -0.01   0.01    -0.00   0.01   0.02
    28   6     0.00   0.02  -0.08    -0.02  -0.01   0.02    -0.02   0.02   0.04
    29   6     0.00  -0.05  -0.06    -0.02   0.01   0.01    -0.04   0.02   0.02
    30   6     0.01  -0.01   0.01     0.05  -0.03   0.01     0.02  -0.01   0.01
    31   6     0.02   0.03   0.01     0.06  -0.00  -0.00     0.03  -0.03  -0.01
    32   6     0.01   0.02   0.06    -0.04   0.03   0.00     0.02  -0.02  -0.01
    33   6     0.07  -0.00   0.12    -0.04   0.01  -0.00     0.04  -0.01   0.01
    34   8     0.10  -0.02   0.09    -0.03   0.01  -0.00     0.04  -0.02   0.00
    35   6    -0.01  -0.08  -0.02    -0.02   0.01   0.00    -0.06   0.03   0.03
    36   1    -0.01  -0.07  -0.04    -0.03   0.00   0.01    -0.07   0.04   0.05
    37   1    -0.01  -0.13  -0.00    -0.03   0.03  -0.01    -0.08   0.03   0.01
    38   1    -0.04  -0.05   0.03    -0.00   0.00  -0.01    -0.06   0.03   0.02
    39   6     0.02  -0.10  -0.12    -0.04   0.02   0.02    -0.04   0.02   0.03
    40   1     0.01  -0.15  -0.11    -0.04   0.03   0.01    -0.05   0.02   0.02
    41   1     0.03  -0.10  -0.13    -0.05   0.02   0.03    -0.04   0.03   0.04
    42   1     0.05  -0.08  -0.16    -0.04   0.02   0.03    -0.02   0.02   0.02
    43   6    -0.02   0.05  -0.04     0.00  -0.03   0.01    -0.02   0.03   0.04
    44   1     0.00   0.09  -0.04     0.01  -0.04   0.02    -0.00   0.03   0.04
    45   1    -0.04   0.06  -0.01     0.00  -0.03   0.02    -0.03   0.04   0.05
    46   1    -0.05   0.03  -0.02     0.01  -0.02   0.00    -0.03   0.02   0.02
    47   6     0.03   0.04  -0.12    -0.03  -0.02   0.04    -0.01   0.03   0.05
    48   1     0.03   0.08  -0.13    -0.03  -0.04   0.04     0.01   0.03   0.06
    49   1     0.06   0.01  -0.15    -0.04  -0.02   0.04    -0.00   0.03   0.05
    50   1     0.03   0.04  -0.12    -0.03  -0.03   0.04    -0.02   0.05   0.06
    51   6     0.03   0.02  -0.02    -0.04   0.04   0.01     0.03  -0.03  -0.03
    52   1    -0.01   0.04  -0.06    -0.03   0.05   0.02     0.02  -0.03  -0.04
    53   1     0.04   0.02  -0.01    -0.05   0.04   0.01     0.04  -0.03  -0.03
    54   1     0.09   0.01  -0.04    -0.04   0.04   0.01     0.04  -0.03  -0.03
    55   6    -0.07   0.03   0.09    -0.04   0.03   0.01     0.01  -0.01   0.00
    56   1    -0.06   0.02   0.10    -0.05   0.02   0.01     0.02  -0.01   0.01
    57   1    -0.11   0.04   0.04    -0.03   0.04   0.01    -0.01  -0.01  -0.01
    58   1    -0.10   0.03   0.14    -0.03   0.02  -0.00    -0.00  -0.00   0.01
    59   6     0.14  -0.03   0.13    -0.06   0.01   0.00     0.06  -0.02   0.01
    60   1     0.17  -0.04   0.07    -0.06   0.02   0.01     0.07  -0.03  -0.00
    61   1     0.11  -0.02   0.15    -0.07   0.01   0.00     0.06  -0.02   0.02
    62   1     0.18  -0.04   0.18    -0.06   0.00  -0.00     0.07  -0.02   0.02
    63   6     0.04   0.01   0.21    -0.04  -0.00  -0.01     0.03  -0.00   0.03
    64   1     0.09   0.03   0.26    -0.04  -0.02  -0.01     0.04   0.00   0.04
    65   1     0.02   0.02   0.23    -0.05  -0.01  -0.01     0.03   0.00   0.04
    66   1    -0.02   0.02   0.23    -0.03  -0.00  -0.01     0.01   0.00   0.03
    67   6     0.02   0.05   0.00     0.06  -0.01   0.00     0.06  -0.04  -0.01
    68   1     0.02   0.08  -0.00     0.07   0.01  -0.01     0.06  -0.05  -0.02
    69   1    -0.01   0.04  -0.01     0.04  -0.02   0.01     0.07  -0.04   0.01
    70   1     0.04   0.04   0.02     0.08  -0.02   0.00     0.06  -0.04  -0.01
    71   6     0.05   0.05   0.02     0.08   0.02  -0.01     0.02  -0.04  -0.04
    72   1     0.08   0.05   0.03     0.10   0.00  -0.01     0.02  -0.04  -0.03
    73   1     0.05   0.04   0.02     0.08   0.02  -0.01    -0.00  -0.03  -0.04
    74   1     0.05   0.08   0.01     0.08   0.04  -0.02     0.03  -0.05  -0.05
    75   6     0.05  -0.04   0.05     0.08  -0.04   0.01     0.01  -0.00   0.01
    76   1     0.03  -0.08   0.08     0.07  -0.06   0.03     0.00   0.01   0.01
    77   1     0.07  -0.02   0.03     0.09  -0.03   0.00    -0.01  -0.01  -0.01
    78   1     0.10  -0.04   0.06     0.10  -0.06   0.02     0.01  -0.00   0.01
    79   6    -0.01  -0.03   0.00     0.03  -0.05   0.02     0.04  -0.00   0.03
    80   1    -0.00  -0.03   0.01     0.04  -0.06   0.02     0.05  -0.01   0.03
    81   1    -0.04  -0.02  -0.01     0.01  -0.04   0.02     0.05  -0.01   0.03
    82   1    -0.02  -0.07   0.00     0.02  -0.07   0.03     0.03   0.01   0.04
    83   1    -0.11  -0.02  -0.08    -0.01   0.00  -0.01     0.02  -0.02  -0.00
    84   6    -0.01   0.02  -0.00    -0.01  -0.02  -0.05     0.02   0.02  -0.03
    85   8    -0.02   0.02   0.01    -0.04  -0.01  -0.04     0.05   0.01  -0.03
    86   6    -0.01   0.01  -0.01     0.01  -0.05  -0.05     0.01   0.05  -0.02
    87   1    -0.01   0.01  -0.01     0.05  -0.07  -0.09    -0.01   0.03  -0.05
    88   1    -0.01   0.02  -0.01    -0.00  -0.02  -0.05    -0.02   0.10  -0.02
    89   6    -0.01   0.04   0.00     0.01   0.03  -0.02     0.01  -0.02  -0.04
    90   1    -0.01   0.04   0.03    -0.01   0.03   0.01     0.03  -0.02  -0.07
    91   1    -0.02   0.07  -0.00     0.02   0.06  -0.02     0.02  -0.05  -0.04
    92   7    -0.01   0.03  -0.01     0.01   0.01  -0.04     0.00   0.00  -0.04
    93   6    -0.00   0.04  -0.02     0.04   0.02  -0.07    -0.02   0.00  -0.03
    94   1     0.01   0.05  -0.03     0.07   0.03  -0.07    -0.01   0.01  -0.03
    95   1    -0.01   0.03  -0.04     0.04   0.00  -0.10    -0.04   0.02  -0.03
    96   1    -0.00   0.04  -0.02     0.05   0.03  -0.05    -0.03  -0.02  -0.02
    97   6    -0.02   0.00  -0.00     0.01  -0.12   0.01     0.05   0.04   0.04
    98   1    -0.02  -0.00  -0.00     0.01  -0.15   0.02     0.08  -0.01   0.05
    99   1    -0.01  -0.00  -0.01     0.03  -0.16  -0.00     0.04   0.05   0.03
   100   6    -0.02   0.00   0.00    -0.05  -0.10   0.08     0.06   0.09   0.11
   101   1    -0.02   0.01  -0.00    -0.06  -0.07   0.07     0.02   0.15   0.11
   102   1    -0.02   0.01   0.01    -0.08  -0.06   0.09     0.07   0.08   0.11
   103   6    -0.02  -0.00   0.00    -0.06  -0.17   0.14     0.11   0.09   0.18
   104   1    -0.03  -0.01   0.01    -0.05  -0.20   0.15     0.14   0.02   0.18
   105   1    -0.02  -0.01  -0.00    -0.03  -0.22   0.13     0.09   0.10   0.16
   106   6    -0.02   0.00   0.01    -0.12  -0.15   0.21     0.12   0.15   0.25
   107   1    -0.03  -0.01   0.01    -0.13  -0.21   0.26     0.16   0.14   0.30
   108   1    -0.02   0.01   0.01    -0.13  -0.13   0.21     0.09   0.21   0.24
   109   1    -0.02   0.00   0.02    -0.15  -0.11   0.23     0.14   0.14   0.27
   110   6     0.01  -0.01   0.02     0.04  -0.01  -0.00    -0.06   0.02  -0.01
   111   9     0.00  -0.01   0.02     0.05  -0.01  -0.01    -0.07   0.02  -0.01
   112   9     0.01  -0.01   0.02     0.05  -0.03   0.00    -0.05   0.03  -0.01
[...]
 -0.00021912,0.00010880,-0.00033685,-0.00055765,0.00015761,-0.00012806,
 0.00033137,-0.00010119,-0.00090688,0.00005751,-0.00082093,0.00048892,0
 .00043809,-0.00041855,-0.00022697,-0.00024637,0.00015946,0.00069276,0.
 00013254,0.00049959,-0.00020284,-0.00018971,-0.00026414,-0.00077166,-0
 .00009729,-0.00083165,0.00023195,0.00045403,-0.00020443,0.00015624,0.0
 0013075,0.00003762,-0.00001206,0.00007893,0.00000589,-0.00005897,0.000
 09929,-0.00005584,0.00007716,-0.00021989,0.00003072,0.00021074,-0.0003
 0516,0.00081147,0.00002626,0.00006421,-0.00000869,-0.00000681,0.000114
 46,-0.00006622,-0.00016649,-0.00033194,-0.00025935,0.00018410,0.000153
 91,0.00026486,-0.00003617,-0.00003145,-0.00001252,0.00001585,-0.000064
 96,0.00002671,0.00005038,0.00017566,-0.00002217,0.00017948,0.00002849,
 0.00024387,-0.00009937,0.00030158,0.00010090,0.00037753,-0.00031088,-0
 .00003440,-0.00060042,-0.00237591,-0.00161099,0.00003240,0.00003871,-0
 .00000340,-0.00002342,0.00000344,0.00003019,0.00000221,0.00002793,-0.0
 0001972,0.00006464,-0.00002921,0.00002263,0.00000204,-0.00001506,-0.00
 000319,0.00000323,0.00000696,-0.00000549,-0.00000087,-0.00000799,-0.00
 000288,0.00000498,0.00000259,0.00001399,-0.00002985,-0.00001614,-0.000
 01050,0.00000521,-0.00000563,0.00000701,-0.00000160,0.00000118,0.00000
 167,0.00001651,-0.00000484,0.00000573,0.00001963,-0.00001412,0.0000065
 4,0.00001096,0.00000815,0.00000726,-0.00000273,-0.00001137,0.00000072,
 -0.00000470,0.00000368,-0.00000596,0.00002203,-0.00002559,-0.00001312,
 -0.00000346,0.00000132,-0.00000752,0.00000887,-0.00000819,0.00000782,-
 0.00002092,-0.00000380,0.00000442,-0.00001316,-0.00002504,0.00000155,-
 0.00001748,0.00000081,-0.00001161,0.00001269,-0.00002103,-0.00000995,-
 0.00000128,0.00000146,0.00002987,-0.00001795,-0.00001184,0.00003475,0.
 00001288,-0.00002366,0.00006237,0.00007485,0.00003744,-0.00003804,-0.0
 0002576,-0.00002917,-0.00003918,-0.00023380,0.00006245,0.00002218,-0.0
 0025557,0.00020129,0.00005217,0.00041742,-0.00014913,0.00013231,-0.000
 00886,-0.00012038,-0.00014095,-0.00013445,-0.00014095,0.00000956,0.000
 00383,0.00001583,0.00001613,0.00001106,-0.00008024,-0.00003136,0.00001
 743,0.00004636,-0.00000820,-0.00007467,0.00004865,0.00000129,0.0000769
 7,0.00001737,-0.00004265,-0.00006379,-0.00003371,0.00000114,-0.0000070
 7,-0.00000027,0.00000237,0.00000073,-0.00000199,0.00000856,-0.00000334
 ,0.00000006,-0.00000278,0.00022742,-0.00000384,0.00008867,0.00002160,-
 0.00001704,-0.00001651,0.00000299,0.00001981,0.00000487,-0.00010743,-0
 .00006322,0.00004832,-0.00000917,0.00004871,0.00002278,0.00000368,-0.0
 0000526,-0.00000830,-0.00001354,-0.00001060,0.00000630,0.00001229,0.00
 000510,-0.00000387,0.00000629,0.00000052,-0.00000192,0.00000686,0.0000
 0125,-0.00000398,-0.00001227,-0.00000440,0.00000258,0.00000686,0.00000
 409,0.00000200,-0.00000218,0.00000033,-0.00000197,0.00000137,-0.000006
 93,0.00000432,0.00000495,0.00000007,-0.00000553,0.00000250,0.00000126,
 -0.00000103,-0.00000713,-0.00000450,0.00000265,0.00000390,0.00000326,0
 .00000085,-0.00000506,0.00000459,0.00000292,0.00000081,-0.00000109,-0.
 00000222,-0.00000173,-0.00000465,0.00000046,-0.08187431,0.03277193,-0.
 12479773,-0.00447119,0.01208475,0.01290211,-0.03966181,0.02211560,-0.0
 7055704,0.13780482,-0.06717493,0.17719252,-0.00043453,0.00026146,-0.00
 046071,-0.00005737,-0.00006546,-0.00003866,-0.00001620,0.00003807,0.00
 004922,0.00003069,0.00001819,-0.00008345,-0.00008321,-0.00005807,0.000
 06133,-0.00005465,0.00134989,0.00055723,-0.01075751,-0.01604109,-0.001
 06300,-0.18774621,-0.14480526,0.03585256,0.00375711,0.00199956,0.00045
 119,0.00348742,-0.00105582,0.00239074,0.00000336,0.00000455,0.00000171
 ,-0.00000906,0.00000334,-0.00000405,0.00003874,-0.00003146,0.00000581,
 -0.00068775,0.00091663,-0.00168993,-0.00091662,0.00085942,-0.00182539,
 0.00013813,0.00016696,0.00011971,0.00008725,0.00001390,0.00002366,0.00
 022571,-0.00128815,0.00635737,0.00006565,-0.00029893,-0.00056451,-0.00
 006940,0.00001715,-0.00008325,0.00007476,0.00044403,-0.00016226,-0.000
 08899,-0.00007890,0.00006216,-0.00001665,-0.00043684,0.00011062,0.0001
 4596,-0.00005568,0.00010833,0.00006724,0.00024547,-0.00013643,-0.00002
 927,-0.00007133,0.00012024,-0.00008995,0.00003788,-0.00004338,0.000017
 86,0.00000970,0.00002336,0.00003863,-0.00003499,0.00003404,0.00001977,
 0.00000962,-0.00004509,0.00003484,0.00003139,-0.00002603,-0.00010613,-
 0.00013874,-0.00001787,-0.00001103,-0.00006044,0.00007880,0.00001148,0
 .00022161,-0.00004652,-0.00000634,0.00000733,-0.00000524,-0.00000486,-
 0.00000115,-0.00000200,0.00000238,-0.00000459,-0.00000080,0.00000384,0
 .00000513,-0.00000053,-0.00000958,0.00000479,-0.00000822,-0.00000005,-
 0.00001091,-0.00000646,-0.00000046,0.00000588,-0.00000441,-0.00000431,
 0.00000367,0.00001189,-0.00000101,-0.00000443,-0.00000726,0.00000235,0
 .00000025,-0.00000154,-0.00000401,-0.00000171,-0.00000157,0.00000056,0
 .00000594,0.00000179,-0.00000409,-0.00000524,-0.00000124,0.00000007,0.
 00000020,0.00000002,0.00000064,0.00000487,-0.00000107,-0.00000427,0.00
 000166,-0.00000121,-0.00009061,0.00001992,0.00010537,0.00003901,0.0000
 5369,-0.00000953,0.00003693,-0.00000641,-0.00002297,0.00000561,-0.0000
 0336,-0.00001933,-0.00004088,0.00001090,0.00005026,0.00001150,0.000000
 99,-0.00002422,0.00001880,0.00003009,-0.00003239,0.00000745,-0.0000023
 1,0.00000366,0.00000256,0.00001069,-0.00001103,-0.00000041,-0.00000282
 ,0.00001122,-0.00000400,0.00001202,0.00000376,0.00001001,-0.00000176,-
 0.00000378,0.00001197,0.00001464,-0.00002438,0.00001156,-0.00000265,-0
 .00000640,-0.00000831,0.00001081,-0.00000022,-0.00000375,-0.00001160,0
 .00000719,-0.00000176,-0.00000574,0.00000176,0.00000188,0.00000015,0.0
 0000022,-0.00000081,0.00000180,-0.00000084,-0.00000182,-0.00000132,0.0
 0000416,-0.00000719,-0.00000942,0.00000500,-0.00000049,-0.00000618,0.0
 0000251,0.00000015,0.00000337,0.00000306,0.00000011,0.00000192,-0.0000
 0212,-0.00000317,0.00000040,0.00000681,-0.00000134,-0.00000063,-0.0000
 0198,0.00000084,0.00000194,-0.00000078,-0.00000203,-0.00000335,0.00000
 290,-0.00000231,-0.00000226,0.00000840,-0.00000384,0.00000084,0.000004
 66,0.00000365,-0.00000210,-0.00000171,-0.00000113,-0.00000105,-0.00000
 187,-0.00008616,-0.00002635,0.00022104,0.00007051,-0.00011187,-0.00000
 224,-0.00001406,0.00004605,0.00003132,0.00000044,0.00011962,-0.0000691
 1,0.00013784,-0.00008116,-0.00010440,-0.00000488,-0.00001532,0.0000176
 3,-0.00016798,-0.00000440,-0.00008101,0.00002123,0.00000808,0.00001356
 ,0.00001971,-0.00000523,0.00001668,0.00005000,0.00011663,-0.00009972,-
 0.00002016,-0.00005607,0.00002145,0.00001235,0.00002174,-0.00000315,0.
 00004468,0.00001275,0.00002656,-0.00002299,-0.00001105,0.00000769,0.00
 008047,-0.00009449,0.00001067,0.00005052,0.00003889,0.00008208,-0.0000
 4738,-0.00003577,0.00000357,-0.00003334,0.00003404,0.00002534,0.000010
 38,-0.00001114,0.00001485,0.00000399,-0.00001445,0.00000823,-0.0000048
 4,0.00000505,0.00000415,0.00000131,0.00000358,0.00000080,-0.00000310,-
 0.00000005,-0.00000197,0.00000020,0.00000062,-0.00000390,0.00000414,-0
 .00000430,-0.00000178,0.00000038,0.00000052,0.00000304,-0.00000153,-0.
 00000079,0.00000176,0.00004881,-0.00000471,0.00002224,-0.00001171,-0.0
 0001724,-0.00000356,-0.00001221,-0.00000285,-0.00000278,-0.00000932,0.
 00000446,-0.00000696,0.19285357,0.00033584,-0.00015170,0.00038423,0.00
 006481,0.00005952,0.00003894,-0.00002396,-0.00005917,-0.00003080,-0.00
 002245,0.00001120,0.00008481,0.00001514,0.00000714,-0.00009417,0.00091
 332,-0.00034803,-0.00070623,0.00497437,0.00553787,-0.00107061,-0.14543
 197,-0.19319853,0.01967367,-0.01868214,-0.01238803,0.00595199,-0.00067
 915,-0.00183192,-0.00521663,-0.00000121,-0.00001242,-0.00000907,0.0000
 0225,-0.00000605,0.00000097,0.00000881,0.00005413,0.00005988,0.0007742
 5,-0.00032092,0.00139262,0.00124089,0.00023060,0.00146973,-0.00098451,
 -0.00060715,0.00027514,-0.00013991,-0.00007284,0.00003696,-0.00024344,
 0.00301181,-0.00341906,-0.00003504,0.00011890,0.00033132,-0.00005961,0
 .00002003,-0.00002569,0.00000165,-0.00006871,-0.00001206,-0.00001273,0
 .00000163,0.00004693,0.00002358,-0.00002726,-0.00004643,0.00011072,-0.
 00001938,-0.00003291,0.00000778,-0.00003209,-0.00009049,0.00000581,-0.
 00000240,0.00003710,-0.00004061,0.00001046,0.00000005,0.00001306,0.000
 00316,0.00000383,0.00002551,-0.00001966,0.00001379,0.00000459,0.000004
 11,-0.00002446,0.00000017,0.00001087,-0.00000868,0.00002926,0.00002239
 ,0.00002481,0.00000136,-0.00000650,-0.00002391,-0.00001181,0.00001038,
 0.00002340,-0.00000485,-0.00000025,-0.00000159,-0.00000433,0.00000153,
 -0.00000170,0.00000215,-0.00000195,0.00000287,0.00000335,0.00000111,-0
 .00000129,-0.00000139,0.00000301,0.00000058,0.00000089,-0.00000188,0.0
 0000159,-0.00000333,0.00000180,-0.00000208,0.00000079,-0.00000027,-0.0
 0000026,0.00000045,-0.00000371,-0.00000052,-0.00000107,0.00000158,0.00
 000209,-0.00000187,-0.00000104,-0.00000091,0.00000030,0.00000222,-0.00
 000200,-0.00000079,0.00000064,0.00000077,-0.00000077,0.00000099,0.0000
 0188,0.00000093,0.00000044,0.00000006,-0.00000147,-0.00000066,-0.00000
 153,0.00006185,-0.00000597,-0.00007851,-0.00007805,0.00002586,0.000080
 61,-0.00001759,0.00000499,0.00001500,-0.00001244,0.00000209,0.00001000
 ,0.00000822,-0.00000122,-0.00001434,-0.00000249,0.00000242,0.00000448,
 -0.00000061,-0.00000341,0.00001124,-0.00000630,-0.00000029,0.00000078,
 -0.00000235,-0.00000117,0.00000186,0.00000115,0.00000079,-0.00000467,0
 .00000215,-0.00000029,-0.00000091,-0.00000505,-0.00000050,0.00000179,-
 0.00000492,-0.00000161,0.00000777,-0.00000461,-0.00000053,0.00000081,0
 .00000079,0.00000141,-0.00000129,0.00000137,0.00000067,0.00000042,-0.0
 0000016,-0.00000017,0.00000044,0.00000201,0.00000014,0.00000142,-0.000
 00054,0.00000026,-0.00000045,-0.00000085,-0.00000045,0.00000071,-0.000
 00101,-0.00000227,-0.00000417,-0.00000090,-0.00000121,0.00000066,-0.00
 000184,0.00000162,0.00000044,0.00000163,0.00000174,0.00000215,0.000000
 17,-0.00000247,0.00000268,0.00000283,-0.00000031,-0.00000144,-0.000001
 69,0.00000199,-0.00000288,-0.00000140,-0.00000027,0.00000314,-0.000000
 81,-0.00000070,0.00000327,-0.00000184,-0.00000016,0.00000260,-0.000000
 18,0.00000002,-0.00000045,0.00000195,-0.00000005,-0.00000058,0.0000055
 7,-0.00000738,-0.00005883,-0.00057190,-0.00005627,0.00024211,0.0002744
 1,-0.00002305,0.00004576,-0.00007932,0.00005454,-0.00010535,0.00009895
 ,0.00010853,0.00028045,0.00000611,0.00005835,-0.00009369,-0.00010263,-
 0.00002913,-0.00004926,0.00000676,0.00000086,0.00000974,0.00003647,-0.
 00000121,0.00001037,0.00030948,-0.00011406,0.00003501,0.00000584,-0.00
 000758,0.00000562,-0.00000231,-0.00000738,0.00000122,-0.00002390,0.000
 03521,0.00002421,0.00001801,-0.00000398,-0.00001991,0.00006915,0.00006
 875,0.00005924,-0.00003226,-0.00021739,-0.00004495,0.00007271,0.000002
 56,0.00002671,-0.00000763,-0.00007755,-0.00002645,-0.00002503,0.000036
 24,-0.00003728,-0.00000651,0.00003825,-0.00002158,0.00001395,0.0000049
 9,-0.00003466,-0.00000423,-0.00001100,0.00000370,0.00001092,0.00000109
 ,0.00000398,-0.00001025,-0.00000195,0.00001825,-0.00001236,0.00001452,
 0.00000128,-0.00000011,-0.00000037,-0.00000662,0.00000598,0.00000541,-
 0.00000716,0.00007434,0.00007047,-0.00003023,-0.00001541,-0.00002441,0
 .00000121,-0.00002186,-0.00001277,0.00002394,-0.00003966,-0.00001050,-
 0.00000483,0.15783466,0.20014023,-0.00051304,0.00045200,-0.00039764,-0
 .00012084,-0.00009329,-0.00001209,-0.00000107,0.00006162,0.00009449,0.
 00007514,0.00006065,-0.00005957,-0.00008787,-0.00007965,-0.00000957,0.
 00014331,-0.00087636,-0.00123360,0.01342699,0.01746115,0.00098373,0.03
 550653,0.01937167,-0.05239589,-0.01358164,-0.01178930,0.00641769,0.002
 78648,-0.00511990,0.00146745,-0.00000178,0.00000226,-0.00000653,-0.000
 00485,0.00000812,-0.00000476,0.00003975,-0.00002540,0.00004011,-0.0017
 6447,0.00083305,-0.00122377,-0.00146175,0.00182484,-0.00125897,-0.0006
 6240,-0.00062839,0.00025001,0.00018736,0.00003425,-0.00009103,0.006823
 57,-0.00267469,0.00029263,-0.00041106,0.00031270,0.00061490,0.00001586
 ,-0.00000892,-0.00002210,-0.00012966,-0.00001236,0.00005686,0.00003290
 ,0.00005328,-0.00004339,-0.00006958,0.00016145,-0.00006148,-0.00000661
 ,0.00006454,0.00001656,0.00006739,-0.00018854,0.00007790,-0.00001837,0
 .00004641,-0.00007327,-0.00001087,-0.00001538,-0.00000980,-0.00000012,
 0.00000113,0.00000714,-0.00000821,-0.00000368,-0.00000310,-0.00000604,
 -0.00000338,0.00002711,-0.00001039,-0.00001088,0.00000825,0.00004337,-
 0.00000663,0.00006850,0.00000270,0.00001966,-0.00001555,-0.00001527,-0
 .00004810,0.00001100,-0.00000030,0.00000013,0.00000096,-0.00000048,0.0
 0000057,0.00000058,0.00000075,-0.00000243,-0.00000074,0.00000101,0.000
 00162,-0.00000137,-0.00000102,0.00000800,0.00000459,-0.00000051,-0.000
 00619,-0.00000474,0.00000060,0.00000011,-0.00000083,-0.00000181,0.0000
 0019,0.00000324,0.00000037,-0.00000187,-0.00000348,0.00000030,0.000000
 62,-0.00000133,-0.00000074,-0.00000081,0.00000075,0.00000061,-0.000000
 85,0.00000066,0.00000042,0.00000017,-0.00000271,0.00000159,0.00000028,
 -0.00000135,0.00000030,0.00000134,0.00000208,-0.00000143,-0.00000073,-
 0.00000004,0.00002059,0.00000542,-0.00007403,-0.00001256,-0.00003627,0
 .00006636,-0.00002230,0.00000980,0.00001551,0.00001274,0.00000098,-0.0
 0002251,-0.00002658,-0.00001175,0.00000391,0.00000299,-0.00000114,-0.0
 0000316,0.00001300,0.00000387,0.00000791,-0.00001275,0.00000357,-0.000
 00654,-0.00000109,-0.00000582,0.00000804,-0.00000264,-0.00000038,-0.00
 000846,0.00000147,-0.00000122,-0.00000153,-0.00000457,0.00000123,0.000
 00213,-0.00000571,-0.00000784,0.00001049,-0.00000572,0.00000163,-0.000
 00039,0.00000022,0.00000207,0.00000050,0.00000117,-0.00000067,-0.00000
 240,0.00000053,0.00000350,0.00000056,-0.00000176,0.00000041,-0.0000026
 2,0.00000065,0.00000041,0.00000108,0.00000009,-0.00000068,-0.00000170,
 0.00000592,0.00000487,-0.00000316,-0.00000253,0.00000329,0.00000096,0.
 00000393,-0.00000022,0.00000203,-0.00000171,-0.00000032,-0.00000468,0.
 00000123,-0.00000038,-0.00000596,-0.00000110,-0.00000009,0.00000036,0.
 00000012,0.00000051,0.00000129,0.00000181,0.00000227,-0.00000089,-0.00
 000031,0.00000116,-0.00000500,0.00000214,-0.00000023,-0.00000184,-0.00
 000092,0.00000015,0.00000266,-0.00000169,0.00000008,0.00000028,0.00012
 216,0.00003716,-0.00017148,0.00067965,0.00011392,-0.00014872,-0.000277
 62,-0.00003848,-0.00007536,-0.00004272,0.00028032,-0.00001053,-0.00012
 638,-0.00013185,-0.00048356,0.00001225,-0.00012357,0.00009008,0.000043
 80,-0.00001749,0.00000324,0.00001246,-0.00001306,0.00001594,-0.0000175
 8,-0.00000322,-0.00000765,-0.00037056,0.00009193,-0.00011243,0.0000716
 5,0.00011764,-0.00000700,-0.00001780,-0.00002562,0.00001316,-0.0000268
 8,-0.00006940,-0.00002034,-0.00000154,0.00000256,0.00002127,-0.0000356
 4,-0.00006432,0.00014643,-0.00000756,0.00005243,0.00000358,-0.00001855
 ,0.00001285,-0.00000492,0.00003737,0.00002238,-0.00006666,0.00000727,-
 0.00001010,0.00000886,-0.00000198,-0.00001117,0.00000578,-0.00001507,-
 0.00001566,0.00005796,-0.00000497,-0.00000557,-0.00000863,0.00000709,0
 .00000577,-0.00000099,0.00001590,-0.00000582,-0.00002445,0.00001360,-0
 .00001735,0.00000044,-0.00000247,0.00000282,0.00000250,-0.00000406,0.0
 0000134,0.00000280,0.00002272,-0.00002848,0.00002682,-0.00000533,-0.00
 000008,-0.00000196,-0.00000718,0.00000302,-0.00000215,0.00000732,0.000
 00635,-0.00000313,-0.04029912,-0.01933152,0.04726339\\-0.00000075,0.00
 000110,0.00000557,0.00000138,-0.00000117,-0.00000291,-0.00000357,0.000
 00157,0.00000195,0.00000319,-0.00000249,-0.00000927,0.00000126,0.00000
 594,0.,0.00000617,0.00000383,-0.00000721,-0.00000352,-0.00000545,-0.00
 000065,0.00000435,0.00000839,0.00000112,-0.00000624,-0.00000504,-0.000
 00003,0.00000342,0.00000884,0.00000326,-0.00000051,-0.00000047,-0.0000
 0056,0.00000085,0.00000124,-0.00000181,0.00000214,0.00000052,-0.000003
 97,-0.00000071,0.00000263,0.00000276,0.00000196,0.00000293,-0.00000028
 ,0.00000121,0.00000043,-0.00000228,0.00000307,-0.00000015,-0.00000796,
 0.00000018,0.00000846,0.00000607,0.00000217,-0.00000274,-0.00000318,-0
 .00000119,0.00000175,-0.00000022,0.00000197,0.00000327,-0.00000171,-0.
 00000380,-0.00000663,-0.00000017,-0.00000388,-0.00000438,0.00000680,-0
 .00000136,0.00000059,0.00000292,0.00000026,0.00000050,-0.00000425,0.00
 000118,-0.00000594,0.00000537,0.00000096,-0.00000334,-0.00000281,-0.00
 000256,0.00000432,0.00000531,0.00000220,0.00000326,-0.00000649,-0.0000
 0123,-0.00000168,-0.00000531,-0.00000161,0.00000131,0.00000128,-0.0000
 0505,0.00000419,0.00000363,-0.00000180,0.00000213,0.00000777,-0.000001
 25,-0.00000168,0.00000287,-0.00000024,0.00000092,0.00000219,0.00000036
 ,0.00000111,-0.00000093,0.00000139,0.00000086,-0.00000145,0.00000057,-
 0.00000027,-0.00000221,0.00000380,0.00000570,0.00000473,-0.00000031,0.
 00000118,0.00000057,-0.00000104,0.00000036,0.00000009,-0.00000133,-0.0
 0000208,-0.00000139,0.00000340,-0.00000582,-0.00000493,-0.00000155,0.0
 0000084,0.00000262,0.00000072,0.00000055,-0.00000057,-0.00000083,0.000
 00042,-0.00000065,0.00000179,-0.00000205,-0.00000761,-0.00000212,-0.00
 000055,0.00000472,-0.00000031,-0.00000131,0.00000086,0.00000079,0.0000
 0100,0.00000147,-0.00000300,0.00000930,0.00000464,0.00000155,0.0000003
 6,0.00000009,-0.00000144,-0.00000553,0.00000056,0.00000008,-0.00000277
 ,0.00000537,0.00000096,-0.00000087,0.00000987,-0.00000060,0.00000228,0
 .00000329,0.00000124,0.00000105,-0.00000040,-0.00000365,-0.00000073,-0
 .00000033,-0.00000561,0.00000216,0.00000065,0.00000093,-0.00000165,0.0
 0000301,-0.00000150,-0.00000510,0.00000446,-0.00000017,-0.00000096,0.0
 0000072,0.00000405,0.00000112,-0.00000240,-0.00000477,-0.00000265,0.00
 000546,-0.00000046,-0.00000099,0.00000203,-0.00000118,0.00000062,0.000
 00259,-0.00000259,-0.00000451,-0.00000526,0.00000005,-0.00000219,0.000
 00015,0.00000031,-0.00000282,-0.00000030,-0.00000077,-0.00000389,0.000
 00048,0.00000604,-0.00000313,-0.00000490,-0.00000143,-0.00000460,0.000
 00081,0.00000008,-0.00000124,-0.00000153,-0.00000308,-0.00000189,-0.00
 000156,-0.00000004,-0.00000530,-0.00000207,0.00000051,-0.00000168,-0.0
 0000094,0.00000049,-0.00000216,-0.00000180,0.00000005,-0.00000108,-0.0
 0000341,0.00000225,-0.00000558,0.00000355,-0.00000073,-0.00000248,-0.0
 0000040,0.00000020,-0.00000053,-0.00000019,-0.00000340,-0.00000197,-0.
 00000404,-0.00000108,0.00000057,0.00000109,-0.00000416,0.00000153,0.00
 000315,0.00000244,0.00000372,0.00000046,-0.00000397,0.00000195,-0.0000
 0227,0.00000098,-0.00000238,0.00000286,0.00000062,0.00000087,0.0000022
 5,0.00000325,-0.00000619,-0.00000182,-0.00000066,0.00000499,0.00000031
 ,-0.00000077,-0.00000015,0.00000169,-0.00000182,-0.00000300,-0.0000015
 9,-0.00000020,-0.00000271,0.00000521,-0.00000080,0.00000011,0.00000044
 ,0.00000100,0.00000209,0.,-0.00000116,-0.00000030,0.00000058,0.0000036
 0,0.00000461,-0.00000233,0.00000002,0.00000171,0.00000162,-0.00000019,
 0.00000053,0.00000136,-0.00000300,0.00000148,0.00000232,0.00000064,0.0
 0000030,-0.00000014,0.00000130,0.00000063,-0.00000031,0.00000149,0.000
 00115,-0.00000316,0.00000246,0.00000312,0.00000320,0.00000006,0.000000
 91,-0.00000003,0.00000005,0.00000487,-0.00000217,0.00000016,0.00000131
 ,0.00000019,0.00000090,0.00000073,-0.00000044,0.00000061,-0.00000010,-
 0.00000104,0.00000679,-0.00000284,0.00000071,0.00000263,0.00000175,-0.
 00000645,0.00000278,-0.00000252,-0.00001015,-0.00000164,0.00000264,-0.
 00000828,-0.00000068,0.00000111,0.00000140\\\@
 The archive entry for this job was punched.


 ALL PAPERS THAT YOU SAVE WILL NEVER BE NEEDED UNTIL
 SUCH TIME AS THEY ARE DISPOSED OF, WHEN THEY BECOME
 ESSENTIAL.

           -- JOHN CORCORAN IN
              PAUL DICKSON'S "THE OFFICIAL RULES"
 Job cpu time:       1 days 16 hours 24 minutes 42.1 seconds.
 Elapsed time:       0 days  2 hours 34 minutes 45.4 seconds.
 File lengths (MBytes):  RWF=  10098 Int=      0 D2E=      0 Chk=     55 Scr=      1
 Normal termination of Gaussian 16 at Sat Dec  7 21:23:49 2024.
