/mnt/lustre/scratch/nvme/SLURM/9663722/usccqdma.YYJhqYfXna
OMP_STACKSIZE=0m
GAUSS_PDEF=16
GAUSS_MDEF=65536MB
GAUSS_RDEF=SCF=Direct
 Entering Gaussian System, Link 0=g16.exe
 Initial command:
 /opt/cesga/2020/software/Core/g16/c1/l1.exe "/mnt/lustre/scratch/nvme/SLURM/9663722/usccqdma.YYJhqYfXna/Gau-4079606.inp" -scrdir="/mnt/lustre/scratch/nvme/SLURM/9663722/usccqdma.YYJhqYfXna/"
 Default is to use a total of  16 processors:
                               16 via shared-memory
                                1 via Linda
 Entering Link 1 = /opt/cesga/2020/software/Core/g16/c1/l1.exe PID=   4079633.
  
 Copyright (c) 1988-2019, Gaussian, Inc.  All Rights Reserved.
  
 This is part of the Gaussian(R) 16 program.  It is based on
 the Gaussian(R) 09 system (copyright 2009, Gaussian, Inc.),
 the Gaussian(R) 03 system (copyright 2003, Gaussian, Inc.),
 the Gaussian(R) 98 system (copyright 1998, Gaussian, Inc.),
 the Gaussian(R) 94 system (copyright 1995, Gaussian, Inc.),
 the Gaussian 92(TM) system (copyright 1992, Gaussian, Inc.),
 the Gaussian 90(TM) system (copyright 1990, Gaussian, Inc.),
 the Gaussian 88(TM) system (copyright 1988, Gaussian, Inc.),
 the Gaussian 86(TM) system (copyright 1986, Carnegie Mellon
 University), and the Gaussian 82(TM) system (copyright 1983,
 Carnegie Mellon University). Gaussian is a federally registered
 trademark of Gaussian, Inc.
  
 This software contains proprietary and confidential information,
 including trade secrets, belonging to Gaussian, Inc.
  
 This software is provided under written license and may be
 used, copied, transmitted, or stored only in accord with that
 written license.
  
 The following legend is applicable only to US Government
 contracts under FAR:
  
                    RESTRICTED RIGHTS LEGEND
  
 Use, reproduction and disclosure by the US Government is
 subject to restrictions as set forth in subparagraphs (a)
 and (c) of the Commercial Computer Software - Restricted
 Rights clause in FAR 52.227-19.
  
 Gaussian, Inc.
 340 Quinnipiac St., Bldg. 40, Wallingford CT 06492
  
  
 ---------------------------------------------------------------
 Warning -- This program may not be used in any manner that
 competes with the business of Gaussian, Inc. or will provide
 assistance to any competitor of Gaussian, Inc.  The licensee
 of this program is prohibited from giving any competitor of
 Gaussian, Inc. access to this program.  By using this program,
 the user acknowledges that Gaussian, Inc. is engaged in the
 business of creating and licensing software in the field of
 computational chemistry and represents and warrants to the
 licensee that it is not a competitor of Gaussian, Inc. and that
 it will not use this program in any manner prohibited above.
 ---------------------------------------------------------------
  

 Cite this work as:
 Gaussian 16, Revision C.01,
 M. J. Frisch, G. W. Trucks, H. B. Schlegel, G. E. Scuseria, 
 M. A. Robb, J. R. Cheeseman, G. Scalmani, V. Barone, 
 G. A. Petersson, H. Nakatsuji, X. Li, M. Caricato, A. V. Marenich, 
 J. Bloino, B. G. Janesko, R. Gomperts, B. Mennucci, H. P. Hratchian, 
 J. V. Ortiz, A. F. Izmaylov, J. L. Sonnenberg, D. Williams-Young, 
 F. Ding, F. Lipparini, F. Egidi, J. Goings, B. Peng, A. Petrone, 
 T. Henderson, D. Ranasinghe, V. G. Zakrzewski, J. Gao, N. Rega, 
 G. Zheng, W. Liang, M. Hada, M. Ehara, K. Toyota, R. Fukuda, 
 J. Hasegawa, M. Ishida, T. Nakajima, Y. Honda, O. Kitao, H. Nakai, 
 T. Vreven, K. Throssell, J. A. Montgomery, Jr., J. E. Peralta, 
 F. Ogliaro, M. J. Bearpark, J. J. Heyd, E. N. Brothers, K. N. Kudin, 
 V. N. Staroverov, T. A. Keith, R. Kobayashi, J. Normand, 
 K. Raghavachari, A. P. Rendell, J. C. Burant, S. S. Iyengar, 
 J. Tomasi, M. Cossi, J. M. Millam, M. Klene, C. Adamo, R. Cammi, 
 J. W. Ochterski, R. L. Martin, K. Morokuma, O. Farkas, 
 J. B. Foresman, and D. J. Fox, Gaussian, Inc., Wallingford CT, 2019.
 
 ******************************************
 Gaussian 16:  ES64L-G16RevC.01  3-Jul-2019
                 7-Dec-2024 
 ******************************************
 Default route: SCF=Direct
 ----------------------------------------------------
 # m06/genecp scf=tight int=ultrafine 5d freq=noraman
 ----------------------------------------------------
 1/10=4,30=1,38=1/1,3;
 2/12=2,17=6,18=5,40=1/2;
 3/5=7,8=1,11=2,16=1,17=8,25=1,30=1,71=2,74=-54,75=-5,140=1/1,2,3;
 4//1;
 5/5=2,32=2,38=5,98=1/2;
 8/6=4,10=90,11=11/1;
 11/6=1,8=1,9=11,15=111,16=1/1,2,10;
 10/6=1/2;
 6/7=2,8=2,9=2,10=2,28=1/1;
 7/8=1,10=1,25=1/1,2,3,16;
 1/10=4,30=1/3;
 99//99;
 ------
 OPT-TS
 ------
 Symbolic Z-matrix:
 Charge =  0 Multiplicity = 1
 C                     2.47939  -1.81724   0.90175 
 C                     2.06621   0.16127   2.04379 
 C                     3.07017  -0.09986   2.96164 
 C                     3.80363  -1.27479   2.83461 
 C                     3.49598  -2.1461    1.8026 
 C                     2.08134  -2.71525  -0.19792 
 C                     0.4749   -3.22077  -1.79123 
 C                     1.18006  -4.33432  -2.22412 
 C                     2.3966   -4.6279   -1.61696 
 C                     2.85133  -3.81144  -0.5935 
 H                     1.43949   1.05276   2.10651 
 H                     4.59586  -1.51877   3.53972 
 H                     4.02709  -3.09015   1.7113 
 H                    -0.49061  -2.94017  -2.21278 
 H                     2.98794  -5.48262  -1.93922 
 H                     3.8089   -4.01383  -0.12018 
 N                     1.78751  -0.66407   1.02315 
 N                     0.91381  -2.42609  -0.80859 
 Ir                    0.0524   -0.36248  -0.33927 
 O                    -0.88698   2.51049  -0.74688 
 O                    -2.44921  -0.35211   1.53525 
 O                    -2.36555  -1.85648  -1.37025 
 B                    -1.1248   -0.73022   1.34325 
 B                    -0.46381   1.5378    0.13679 
 B                    -1.84228  -0.58585  -1.11492 
 O                    -2.71491   0.38983  -1.55452 
 O                    -0.35628   2.08099   1.42477 
 C                    -0.59223   3.49928   1.33366 
 C                    -1.40986   3.60385   0.01621 
 C                    -3.4925   -1.69029  -2.24595 
 C                    -3.94587  -0.23427  -1.93314 
 C                    -2.90396  -0.91085   2.7754 
 C                    -1.57231  -1.1036    3.55408 
 O                    -0.63392  -1.34206   2.49175 
 C                    -2.89485   3.32676   0.22051 
 H                    -3.40051   4.15612   0.73459 
 H                    -3.35813   3.18746  -0.76462 
 H                    -3.04857   2.39823   0.79031 
 C                    -1.2054    4.88513  -0.76667 
 H                    -0.16936   4.98037  -1.11254 
 H                    -1.85255   4.87761  -1.65346 
 H                    -1.47041   5.76498  -0.16211 
 C                    -1.32281   3.94747   2.58335 
 H                    -2.21956   3.34219   2.76362 
 H                    -0.66395   3.84659   3.45679 
 H                    -1.62168   5.00279   2.50606 
 C                     0.76193   4.18803   1.24252 
 H                     1.39377   3.84491   2.07432 
 H                     1.26822   3.95892   0.29605 
 H                     0.66609   5.27985   1.31643 
 C                    -3.8853    0.05612   3.40639 
 H                    -4.20448  -0.29265   4.39934 
 H                    -3.44931   1.05704   3.50794 
 H                    -4.77815   0.14276   2.77259 
 C                    -3.5951   -2.23008   2.45189 
 H                    -2.9047   -2.92317   1.95282 
 H                    -3.99955  -2.71434   3.35099 
 H                    -4.43186  -2.04035   1.76667 
 C                    -1.11249   0.15837   4.27284 
 H                    -1.74146   0.39034   5.14323 
 H                    -0.08361   0.00192   4.6253 
 H                    -1.10649   1.01794   3.58884 
 C                    -1.55182  -2.28194   4.50643 
 H                    -1.71804  -3.22957   3.98252 
 H                    -0.57463  -2.33837   5.00325 
 H                    -2.32111  -2.17013   5.28446 
 C                    -4.5286    0.5196   -3.11306 
 H                    -3.80502   0.61797  -3.93006 
 H                    -5.42976   0.01853  -3.49564 
 H                    -4.81297   1.53138  -2.79622 
 C                    -4.89302  -0.14162  -0.74491 
 H                    -5.88934  -0.5389   -0.98253 
 H                    -4.48094  -0.67181   0.12117 
 H                    -4.9978    0.91444  -0.46274 
 C                    -4.52005  -2.76074  -1.94136 
 H                    -5.43094  -2.61109  -2.53893 
 H                    -4.11274  -3.75031  -2.18657 
 H                    -4.79289  -2.7628   -0.88011 
 C                    -2.97136  -1.85485  -3.66929 
 H                    -2.20205  -1.10202  -3.89636 
 H                    -2.51549  -2.84937  -3.7691 
 H                    -3.77049  -1.77412  -4.41805 
 H                    -0.15962   0.1262   -1.88693 
 C                     2.20622   2.62622  -1.88326 
 O                     2.08052   3.81625  -2.15162 
 C                     3.15671   2.17124  -0.79583 
 H                     3.37906   3.05704  -0.18724 
 H                     2.65325   1.44612  -0.14006 
 C                     1.47452   0.26297  -2.13874 
 H                     1.37164  -0.37618  -3.02898 
 H                     2.40057  -0.0415   -1.64257 
 N                     1.5301    1.63843  -2.55667 
 C                     0.5265    2.02724  -3.52541 
 H                    -0.48027   1.81839  -3.12917 
 H                     0.61695   3.10019  -3.708 
 H                     0.67405   1.47365  -4.46388 
 C                     4.4659    1.57568  -1.3206 
 H                     4.27548   0.91809  -2.18432 
 H                     5.10689   2.38683  -1.7001 
 C                     5.19407   0.78596  -0.24432 
 H                     5.30493   1.40753   0.66216 
 H                     4.56096  -0.06881   0.06009 
 C                     6.55697   0.26683  -0.67268 
 H                     6.45083  -0.30341  -1.61011 
 H                     7.21379   1.11832  -0.91202 
 C                     7.20051  -0.60525   0.39272 
 H                     7.30394  -0.05716   1.34035 
 H                     6.58336  -1.49281   0.5964 
 H                     8.19811  -0.95364   0.09784 
 H                     0.78195  -4.95258  -3.02481 
 H                     3.26388   0.60718   3.7643 
 

 GradGradGradGradGradGradGradGradGradGradGradGradGradGradGradGradGradGrad
 Berny optimization.
 Initialization pass.
 Trust Radius=3.00D-01 FncErr=1.00D-07 GrdErr=1.00D-07 EigMax=2.50D+02 EigMin=1.00D-04
 Number of steps in this run=      2 maximum allowed number of steps=      2.
 GradGradGradGradGradGradGradGradGradGradGradGradGradGradGradGradGradGrad

 Stoichiometry    C36H61B3IrN3O7
 Framework group  C1[X(C36H61B3IrN3O7)]
 Deg. of freedom   327
 Full point group                 C1      NOp   1
 Largest Abelian subgroup         C1      NOp   1
 Largest concise Abelian subgroup C1      NOp   1
                         Standard orientation:                         
 ---------------------------------------------------------------------
 Center     Atomic      Atomic             Coordinates (Angstroms)
 Number     Number       Type             X           Y           Z
 ---------------------------------------------------------------------
      1          6           0        2.479389   -1.817241    0.901749
      2          6           0        2.066210    0.161269    2.043789
      3          6           0        3.070170   -0.099861    2.961639
      4          6           0        3.803629   -1.274792    2.834609
      5          6           0        3.495979   -2.146101    1.802599
      6          6           0        2.081339   -2.715251   -0.197921
      7          6           0        0.474899   -3.220770   -1.791231
      8          6           0        1.180058   -4.334321   -2.224121
      9          6           0        2.396598   -4.627901   -1.616961
     10          6           0        2.851328   -3.811441   -0.593501
     11          1           0        1.439490    1.052759    2.106509
     12          1           0        4.595859   -1.518772    3.539719
     13          1           0        4.027089   -3.090152    1.711299
     14          1           0       -0.490611   -2.940170   -2.212781
     15          1           0        2.987938   -5.482621   -1.939221
     16          1           0        3.808898   -4.013832   -0.120181
     17          7           0        1.787510   -0.664071    1.023149
     18          7           0        0.913809   -2.426090   -0.808591
     19         77           0        0.052400   -0.362480   -0.339271
     20          8           0       -0.886979    2.510490   -0.746881
     21          8           0       -2.449210   -0.352109    1.535249
     22          8           0       -2.365551   -1.856479   -1.370251
     23          5           0       -1.124800   -0.730220    1.343249
     24          5           0       -0.463810    1.537800    0.136789
     25          5           0       -1.842280   -0.585849   -1.114921
     26          8           0       -2.714910    0.389831   -1.554521
     27          8           0       -0.356279    2.080990    1.424769
     28          6           0       -0.592229    3.499280    1.333659
     29          6           0       -1.409859    3.603851    0.016209
     30          6           0       -3.492501   -1.690289   -2.245951
     31          6           0       -3.945870   -0.234268   -1.933141
     32          6           0       -2.903961   -0.910849    2.775399
     33          6           0       -1.572311   -1.103599    3.554079
     34          8           0       -0.633921   -1.342060    2.491749
     35          6           0       -2.894849    3.326761    0.220509
     36          1           0       -3.400508    4.156121    0.734589
     37          1           0       -3.358129    3.187461   -0.764621
     38          1           0       -3.048569    2.398231    0.790309
     39          6           0       -1.205398    4.885130   -0.766671
     40          1           0       -0.169358    4.980370   -1.112541
     41          1           0       -1.852548    4.877611   -1.653461
     42          1           0       -1.470408    5.764981   -0.162111
     43          6           0       -1.322809    3.947470    2.583349
     44          1           0       -2.219559    3.342191    2.763619
     45          1           0       -0.663949    3.846590    3.456789
     46          1           0       -1.621678    5.002791    2.506059
     47          6           0        0.761932    4.188030    1.242519
     48          1           0        1.393771    3.844909    2.074319
     49          1           0        1.268221    3.958919    0.296049
     50          1           0        0.666092    5.279850    1.316429
     51          6           0       -3.885300    0.056122    3.406389
     52          1           0       -4.204480   -0.292648    4.399339
     53          1           0       -3.449310    1.057041    3.507939
     54          1           0       -4.778150    0.142762    2.772589
     55          6           0       -3.595101   -2.230079    2.451889
     56          1           0       -2.904701   -2.923169    1.952819
     57          1           0       -3.999551   -2.714338    3.350989
     58          1           0       -4.431861   -2.040348    1.766669
     59          6           0       -1.112490    0.158370    4.272839
     60          1           0       -1.741460    0.390341    5.143229
     61          1           0       -0.083610    0.001920    4.625299
     62          1           0       -1.106490    1.017940    3.588839
     63          6           0       -1.551821   -2.281939    4.506429
     64          1           0       -1.718041   -3.229569    3.982519
     65          1           0       -0.574631   -2.338370    5.003249
     66          1           0       -2.321111   -2.170129    5.284459
     67          6           0       -4.528600    0.519602   -3.113061
     68          1           0       -3.805020    0.617971   -3.930061
     69          1           0       -5.429760    0.018532   -3.495641
     70          1           0       -4.812970    1.531382   -2.796221
     71          6           0       -4.893020   -0.141618   -0.744911
     72          1           0       -5.889340   -0.538898   -0.982531
     73          1           0       -4.480940   -0.671808    0.121169
     74          1           0       -4.997800    0.914442   -0.462741
     75          6           0       -4.520051   -2.760738   -1.941361
     76          1           0       -5.430941   -2.611088   -2.538931
     77          1           0       -4.112742   -3.750308   -2.186571
     78          1           0       -4.792891   -2.762798   -0.880111
     79          6           0       -2.971361   -1.854849   -3.669291
     80          1           0       -2.202051   -1.102019   -3.896361
     81          1           0       -2.515491   -2.849369   -3.769101
     82          1           0       -3.770491   -1.774119   -4.418051
     83          1           0       -0.159620    0.126200   -1.886931
     84          6           0        2.206221    2.626219   -1.883261
     85          8           0        2.080521    3.816249   -2.151621
     86          6           0        3.156711    2.171239   -0.795831
     87          1           0        3.379061    3.057039   -0.187241
     88          1           0        2.653250    1.446119   -0.140061
     89          6           0        1.474520    0.262969   -2.138741
     90          1           0        1.371640   -0.376181   -3.028981
     91          1           0        2.400570   -0.041501   -1.642571
     92          7           0        1.530101    1.638429   -2.556671
     93          6           0        0.526501    2.027240   -3.525411
     94          1           0       -0.480269    1.818390   -3.129171
     95          1           0        0.616951    3.100190   -3.708001
     96          1           0        0.674050    1.473650   -4.463881
     97          6           0        4.465900    1.575678   -1.320601
     98          1           0        4.275480    0.918088   -2.184321
     99          1           0        5.106891    2.386828   -1.700101
    100          6           0        5.194070    0.785958   -0.244321
    101          1           0        5.304930    1.407528    0.662159
    102          1           0        4.560960   -0.068812    0.060089
    103          6           0        6.556970    0.266827   -0.672681
    104          1           0        6.450830   -0.303413   -1.610111
    105          1           0        7.213790    1.118317   -0.912021
    106          6           0        7.200510   -0.605253    0.392719
    107          1           0        7.303940   -0.057163    1.340349
    108          1           0        6.583359   -1.492813    0.596399
    109          1           0        8.198109   -0.953643    0.097839
    110          1           0        0.781948   -4.952580   -3.024811
    111          1           0        3.263880    0.607179    3.764299
 ---------------------------------------------------------------------
 Rotational constants (GHZ):           0.0730209           0.0552656           0.0516483
 General basis read from cards:  (5D, 7F)
 ======================================================================================================
                                       Pseudopotential Parameters
 ======================================================================================================
  Center     Atomic      Valence      Angular      Power
  Number     Number     Electrons     Momentum     of R      Exponent        Coefficient   SO-Coeffient
 ======================================================================================================
    1          6
                                   No pseudopotential on this center.
    2          6
                                   No pseudopotential on this center.
    3          6
                                   No pseudopotential on this center.
    4          6
                                   No pseudopotential on this center.
    5          6
                                   No pseudopotential on this center.
    6          6
                                   No pseudopotential on this center.
    7          6
                                   No pseudopotential on this center.
    8          6
                                   No pseudopotential on this center.
    9          6
                                   No pseudopotential on this center.
   10          6
                                   No pseudopotential on this center.
   11          1
                                   No pseudopotential on this center.
   12          1
                                   No pseudopotential on this center.
   13          1
                                   No pseudopotential on this center.
   14          1
                                   No pseudopotential on this center.
   15          1
                                   No pseudopotential on this center.
   16          1
                                   No pseudopotential on this center.
   17          7
                                   No pseudopotential on this center.
   18          7
                                   No pseudopotential on this center.
   19         77           17
                                      G and up 
                                                     1      823.5880147       -0.15780140    0.00000000
                                                     2      364.6613336    -1517.52704460    0.00000000
                                                     2       55.7082801     -316.53065290    0.00000000
                                                     2       12.0464544      -91.88809410    0.00000000
                                                     2        3.5120610       -9.22417730    0.00000000
                                      S - G
                                                     0      188.0490770        3.15780140    0.00000000
                                                     1      340.4194712       26.83225770    0.00000000
                                                     2      128.2373673      800.42500070    0.00000000
                                                     2       33.8644961      369.40506830    0.00000000
                                                     2        4.7560005      242.41718990    0.00000000
                                                     2        3.9649974     -118.21732820    0.00000000
                                      P - G
                                                     0      289.7291139        2.15780140    0.00000000
                                                     1       87.4633789       61.96786100    0.00000000
                                                     2       30.4363766      269.05819860    0.00000000
                                                     2        4.0553412      231.16547930    0.00000000
                                                     2        3.5525341     -133.69526670    0.00000000
                                      D - G
                                                     0      136.4017106        3.15780140    0.00000000
                                                     1       95.0776925       45.93498030    0.00000000
                                                     2       49.2258410      359.03446680    0.00000000
                                                     2       15.0874145      176.47401190    0.00000000
                                                     2        4.0405764       54.51552860    0.00000000
                                      F - G
                                                     0      127.3507908        3.95461970    0.00000000
                                                     1       66.2364374       52.97736550    0.00000000
                                                     2       34.4299229      274.86433830    0.00000000
                                                     2       10.1995721      137.20473380    0.00000000
                                                     2        2.5409702       14.86333050    0.00000000
   20          8
                                   No pseudopotential on this center.
   21          8
                                   No pseudopotential on this center.
   22          8
                                   No pseudopotential on this center.
   23          5
                                   No pseudopotential on this center.
   24          5
                                   No pseudopotential on this center.
   25          5
                                   No pseudopotential on this center.
   26          8
                                   No pseudopotential on this center.
   27          8
                                   No pseudopotential on this center.
   28          6
                                   No pseudopotential on this center.
   29          6
                                   No pseudopotential on this center.
   30          6
                                   No pseudopotential on this center.
   31          6
                                   No pseudopotential on this center.
   32          6
                                   No pseudopotential on this center.
   33          6
                                   No pseudopotential on this center.
   34          8
                                   No pseudopotential on this center.
   35          6
                                   No pseudopotential on this center.
   36          1
                                   No pseudopotential on this center.
   37          1
                                   No pseudopotential on this center.
   38          1
                                   No pseudopotential on this center.
   39          6
                                   No pseudopotential on this center.
   40          1
                                   No pseudopotential on this center.
   41          1
                                   No pseudopotential on this center.
   42          1
                                   No pseudopotential on this center.
   43          6
                                   No pseudopotential on this center.
   44          1
                                   No pseudopotential on this center.
   45          1
                                   No pseudopotential on this center.
   46          1
                                   No pseudopotential on this center.
   47          6
                                   No pseudopotential on this center.
   48          1
                                   No pseudopotential on this center.
   49          1
                                   No pseudopotential on this center.
   50          1
                                   No pseudopotential on this center.
   51          6
                                   No pseudopotential on this center.
   52          1
                                   No pseudopotential on this center.
   53          1
                                   No pseudopotential on this center.
   54          1
                                   No pseudopotential on this center.
   55          6
                                   No pseudopotential on this center.
   56          1
                                   No pseudopotential on this center.
   57          1
                                   No pseudopotential on this center.
   58          1
                                   No pseudopotential on this center.
   59          6
                                   No pseudopotential on this center.
   60          1
                                   No pseudopotential on this center.
   61          1
                                   No pseudopotential on this center.
   62          1
                                   No pseudopotential on this center.
   63          6
                                   No pseudopotential on this center.
   64          1
                                   No pseudopotential on this center.
   65          1
                                   No pseudopotential on this center.
   66          1
                                   No pseudopotential on this center.
   67          6
                                   No pseudopotential on this center.
   68          1
                                   No pseudopotential on this center.
   69          1
                                   No pseudopotential on this center.
   70          1
                                   No pseudopotential on this center.
   71          6
                                   No pseudopotential on this center.
   72          1
                                   No pseudopotential on this center.
   73          1
                                   No pseudopotential on this center.
   74          1
                                   No pseudopotential on this center.
   75          6
                                   No pseudopotential on this center.
   76          1
                                   No pseudopotential on this center.
   77          1
                                   No pseudopotential on this center.
   78          1
                                   No pseudopotential on this center.
   79          6
                                   No pseudopotential on this center.
   80          1
                                   No pseudopotential on this center.
   81          1
                                   No pseudopotential on this center.
   82          1
                                   No pseudopotential on this center.
   83          1
                                   No pseudopotential on this center.
   84          6
                                   No pseudopotential on this center.
   85          8
                                   No pseudopotential on this center.
   86          6
                                   No pseudopotential on this center.
   87          1
                                   No pseudopotential on this center.
   88          1
                                   No pseudopotential on this center.
   89          6
                                   No pseudopotential on this center.
   90          1
                                   No pseudopotential on this center.
   91          1
                                   No pseudopotential on this center.
   92          7
                                   No pseudopotential on this center.
   93          6
                                   No pseudopotential on this center.
   94          1
                                   No pseudopotential on this center.
   95          1
                                   No pseudopotential on this center.
   96          1
                                   No pseudopotential on this center.
   97          6
                                   No pseudopotential on this center.
   98          1
                                   No pseudopotential on this center.
   99          1
                                   No pseudopotential on this center.
  100          6
                                   No pseudopotential on this center.
  101          1
                                   No pseudopotential on this center.
  102          1
                                   No pseudopotential on this center.
  103          6
                                   No pseudopotential on this center.
  104          1
                                   No pseudopotential on this center.
  105          1
                                   No pseudopotential on this center.
  106          6
                                   No pseudopotential on this center.
  107          1
                                   No pseudopotential on this center.
  108          1
                                   No pseudopotential on this center.
  109          1
                                   No pseudopotential on this center.
  110          1
                                   No pseudopotential on this center.
  111          1
                                   No pseudopotential on this center.
 ======================================================================================================
 There are   881 symmetry adapted cartesian basis functions of A   symmetry.
 There are   830 symmetry adapted basis functions of A   symmetry.
   830 basis functions,  1659 primitive gaussians,   881 cartesian basis functions
   193 alpha electrons      193 beta electrons
       nuclear repulsion energy      8266.7173705410 Hartrees.
 NAtoms=  111 NActive=  111 NUniq=  111 SFac= 1.00D+00 NAtFMM=   60 NAOKFM=T Big=T
 Integral buffers will be    131072 words long.
 Raffenetti 2 integral format.
 Two-electron integral symmetry is turned on.
 One-electron integrals computed using PRISM.
   1 Symmetry operations used in ECPInt.
 ECPInt:  NShTT=   53301 NPrTT=  320676 LenC2=   41692 LenP2D=  128294.
 LDataN:  DoStor=T MaxTD1= 6 Len=  172
 NBasis=   830 RedAO= T EigKep=  5.47D-04  NBF=   830
 NBsUse=   830 1.00D-06 EigRej= -1.00D+00 NBFU=   830
 Defaulting to unpruned grid for atomic number  77.
 ExpMin= 2.90D-02 ExpMax= 5.48D+03 ExpMxC= 8.25D+02 IAcc=3 IRadAn=         5 AccDes= 0.00D+00
 Harris functional with IExCor= 1009 and IRadAn=       5 diagonalized for initial guess.
 HarFok:  IExCor= 1009 AccDes= 0.00D+00 IRadAn=         5 IDoV= 1 UseB2=F ITyADJ=14
 ICtDFT=  3500011 ScaDFX=  1.000000  1.000000  1.000000  1.000000
 Defaulting to unpruned grid for atomic number  77.
 FoFCou: FMM=F IPFlag=           0 FMFlag=      100000 FMFlg1=        2001
         NFxFlg=           0 DoJE=T BraDBF=F KetDBF=T FulRan=T
         wScrn=  0.000000 ICntrl=       500 IOpCl=  0 I1Cent=   200000004 NGrid=           0
         NMat0=    1 NMatS0=      1 NMatT0=    0 NMatD0=    1 NMtDS0=    0 NMtDT0=    0
 Petite list used in FoFCou.
 Requested convergence on RMS density matrix=1.00D-08 within 128 cycles.
 Requested convergence on MAX density matrix=1.00D-06.
 Requested convergence on             energy=1.00D-06.
 No special actions if energy rises.
 Defaulting to unpruned grid for atomic number  77.
 Defaulting to unpruned grid for atomic number  77.
 Defaulting to unpruned grid for atomic number  77.
 Defaulting to unpruned grid for atomic number  77.
 Defaulting to unpruned grid for atomic number  77.
 Defaulting to unpruned grid for atomic number  77.
 Defaulting to unpruned grid for atomic number  77.
 Defaulting to unpruned grid for atomic number  77.
 Defaulting to unpruned grid for atomic number  77.
 Defaulting to unpruned grid for atomic number  77.
 Defaulting to unpruned grid for atomic number  77.
 Defaulting to unpruned grid for atomic number  77.
 Defaulting to unpruned grid for atomic number  77.
 Defaulting to unpruned grid for atomic number  77.
 Defaulting to unpruned grid for atomic number  77.
 Defaulting to unpruned grid for atomic number  77.
 SCF Done:  E(RM06) =  -2277.50494900     A.U. after   15 cycles
            NFock= 15  Conv=0.62D-08     -V/T= 2.0391
 DoSCS=F DFT=T ScalE2(SS,OS)=  1.000000  1.000000
 Range of M.O.s used for correlation:     1   830
 NBasis=   830 NAE=   193 NBE=   193 NFC=     0 NFV=     0
 NROrb=    830 NOA=   193 NOB=   193 NVA=   637 NVB=   637

 **** Warning!!: The largest alpha MO coefficient is  0.17067878D+02

   1 Symmetry operations used in ECPInt.
 ECPInt:  NShTT=   53301 NPrTT=  320676 LenC2=   41692 LenP2D=  128294.
 LDataN:  DoStor=T MaxTD1= 7 Len=  274
 Number of processors reduced to   8 by ecpmxn.
 Symmetrizing basis deriv contribution to polar:
 IMax=3 JMax=2 DiffMx= 0.00D+00
 G2DrvN: will do   112 centers at a time, making    1 passes.
 Calling FoFCou, ICntrl=  3107 FMM=T I1Cent=   0 AccDes= 0.00D+00.
 Defaulting to unpruned grid for atomic number  77.
 Defaulting to unpruned grid for atomic number  77.
 Defaulting to unpruned grid for atomic number  77.
 Defaulting to unpruned grid for atomic number  77.
 Defaulting to unpruned grid for atomic number  77.
 Defaulting to unpruned grid for atomic number  77.
 Defaulting to unpruned grid for atomic number  77.
 Defaulting to unpruned grid for atomic number  77.
 Defaulting to unpruned grid for atomic number  77.
 Defaulting to unpruned grid for atomic number  77.
 Defaulting to unpruned grid for atomic number  77.
 Defaulting to unpruned grid for atomic number  77.
 Defaulting to unpruned grid for atomic number  77.
 Defaulting to unpruned grid for atomic number  77.
 Defaulting to unpruned grid for atomic number  77.
 Defaulting to unpruned grid for atomic number  77.
 End of G2Drv F.D. properties file   721 does not exist.
 End of G2Drv F.D. properties file   722 does not exist.
 End of G2Drv F.D. properties file   788 does not exist.
          IDoAtm=11111111111111111111111111111111111111111111111111
          IDoAtm=11111111111111111111111111111111111111111111111111
          IDoAtm=11111111111
          Differentiating once with respect to electric field.
                with respect to dipole field.
          Differentiating once with respect to nuclear coordinates.
 Defaulting to unpruned grid for atomic number  77.
 CalDSu exits because no D1Ps are significant.
 Defaulting to unpruned grid for atomic number  77.
 Defaulting to unpruned grid for atomic number  77.
 Defaulting to unpruned grid for atomic number  77.
 Defaulting to unpruned grid for atomic number  77.
 Defaulting to unpruned grid for atomic number  77.
 Defaulting to unpruned grid for atomic number  77.
 Defaulting to unpruned grid for atomic number  77.
 Defaulting to unpruned grid for atomic number  77.
 Defaulting to unpruned grid for atomic number  77.
 Defaulting to unpruned grid for atomic number  77.
 Defaulting to unpruned grid for atomic number  77.
 Defaulting to unpruned grid for atomic number  77.
 Defaulting to unpruned grid for atomic number  77.
 Defaulting to unpruned grid for atomic number  77.
 Defaulting to unpruned grid for atomic number  77.
 Defaulting to unpruned grid for atomic number  77.
          There are   336 degrees of freedom in the 1st order CPHF.  IDoFFX=6 NUNeed=     3.
    333 vectors produced by pass  0 Test12= 1.23D-13 1.00D-09 XBig12= 4.94D+02 7.92D+00.
 AX will form    72 AO Fock derivatives at one time.
    333 vectors produced by pass  1 Test12= 1.23D-13 1.00D-09 XBig12= 6.69D+01 1.16D+00.
    333 vectors produced by pass  2 Test12= 1.23D-13 1.00D-09 XBig12= 7.28D-01 6.27D-02.
    333 vectors produced by pass  3 Test12= 1.23D-13 1.00D-09 XBig12= 4.00D-03 6.03D-03.
    333 vectors produced by pass  4 Test12= 1.23D-13 1.00D-09 XBig12= 1.17D-05 3.33D-04.
    285 vectors produced by pass  5 Test12= 1.23D-13 1.00D-09 XBig12= 2.06D-08 1.01D-05.
     69 vectors produced by pass  6 Test12= 1.23D-13 1.00D-09 XBig12= 2.74D-11 3.08D-07.
      3 vectors produced by pass  7 Test12= 1.23D-13 1.00D-09 XBig12= 3.67D-14 1.02D-08.
 InvSVY:  IOpt=1 It=  1 EMax= 1.42D-14
 Solved reduced A of dimension  2022 with   336 vectors.
 Isotropic polarizability for W=    0.000000      500.09 Bohr**3.
 End of Minotr F.D. properties file   721 does not exist.
 End of Minotr F.D. properties file   722 does not exist.
 End of Minotr F.D. properties file   788 does not exist.
 Hyperfine terms turned off by default for NAtoms > 100.

 **********************************************************************

            Population analysis using the SCF Density.

 **********************************************************************

 Orbital symmetries:
       Occupied  (A) (A) (A) (A) (A) (A) (A) (A) (A) (A) (A) (A)
                 (A) (A) (A) (A) (A) (A) (A) (A) (A) (A) (A) (A)
                 (A) (A) (A) (A) (A) (A) (A) (A) (A) (A) (A) (A)
                 (A) (A) (A) (A) (A) (A) (A) (A) (A) (A) (A) (A)
                 (A) (A) (A) (A) (A) (A) (A) (A) (A) (A) (A) (A)
                 (A) (A) (A) (A) (A) (A) (A) (A) (A) (A) (A) (A)
                 (A) (A) (A) (A) (A) (A) (A) (A) (A) (A) (A) (A)
                 (A) (A) (A) (A) (A) (A) (A) (A) (A) (A) (A) (A)
                 (A) (A) (A) (A) (A) (A) (A) (A) (A) (A) (A) (A)
                 (A) (A) (A) (A) (A) (A) (A) (A) (A) (A) (A) (A)
                 (A) (A) (A) (A) (A) (A) (A) (A) (A) (A) (A) (A)
                 (A) (A) (A) (A) (A) (A) (A) (A) (A) (A) (A) (A)
                 (A) (A) (A) (A) (A) (A) (A) (A) (A) (A) (A) (A)
                 (A) (A) (A) (A) (A) (A) (A) (A) (A) (A) (A) (A)
                 (A) (A) (A) (A) (A) (A) (A) (A) (A) (A) (A) (A)
                 (A) (A) (A) (A) (A) (A) (A) (A) (A) (A) (A) (A)
                 (A)
       Virtual   (A) (A) (A) (A) (A) (A) (A) (A) (A) (A) (A) (A)
                 (A) (A) (A) (A) (A) (A) (A) (A) (A) (A) (A) (A)
                 (A) (A) (A) (A) (A) (A) (A) (A) (A) (A) (A) (A)
                 (A) (A) (A) (A) (A) (A) (A) (A) (A) (A) (A) (A)
                 (A) (A) (A) (A) (A) (A) (A) (A) (A) (A) (A) (A)
                 (A) (A) (A) (A) (A) (A) (A) (A) (A) (A) (A) (A)
                 (A) (A) (A) (A) (A) (A) (A) (A) (A) (A) (A) (A)
                 (A) (A) (A) (A) (A) (A) (A) (A) (A) (A) (A) (A)
                 (A) (A) (A) (A) (A) (A) (A) (A) (A) (A) (A) (A)
                 (A) (A) (A) (A) (A) (A) (A) (A) (A) (A) (A) (A)
                 (A) (A) (A) (A) (A) (A) (A) (A) (A) (A) (A) (A)
                 (A) (A) (A) (A) (A) (A) (A) (A) (A) (A) (A) (A)
                 (A) (A) (A) (A) (A) (A) (A) (A) (A) (A) (A) (A)
                 (A) (A) (A) (A) (A) (A) (A) (A) (A) (A) (A) (A)
                 (A) (A) (A) (A) (A) (A) (A) (A) (A) (A) (A) (A)
                 (A) (A) (A) (A) (A) (A) (A) (A) (A) (A) (A) (A)
                 (A) (A) (A) (A) (A) (A) (A) (A) (A) (A) (A) (A)
                 (A) (A) (A) (A) (A) (A) (A) (A) (A) (A) (A) (A)
                 (A) (A) (A) (A) (A) (A) (A) (A) (A) (A) (A) (A)
                 (A) (A) (A) (A) (A) (A) (A) (A) (A) (A) (A) (A)
                 (A) (A) (A) (A) (A) (A) (A) (A) (A) (A) (A) (A)
                 (A) (A) (A) (A) (A) (A) (A) (A) (A) (A) (A) (A)
                 (A) (A) (A) (A) (A) (A) (A) (A) (A) (A) (A) (A)
                 (A) (A) (A) (A) (A) (A) (A) (A) (A) (A) (A) (A)
                 (A) (A) (A) (A) (A) (A) (A) (A) (A) (A) (A) (A)
                 (A) (A) (A) (A) (A) (A) (A) (A) (A) (A) (A) (A)
                 (A) (A) (A) (A) (A) (A) (A) (A) (A) (A) (A) (A)
                 (A) (A) (A) (A) (A) (A) (A) (A) (A) (A) (A) (A)
                 (A) (A) (A) (A) (A) (A) (A) (A) (A) (A) (A) (A)
                 (A) (A) (A) (A) (A) (A) (A) (A) (A) (A) (A) (A)
                 (A) (A) (A) (A) (A) (A) (A) (A) (A) (A) (A) (A)
                 (A) (A) (A) (A) (A) (A) (A) (A) (A) (A) (A) (A)
                 (A) (A) (A) (A) (A) (A) (A) (A) (A) (A) (A) (A)
                 (A) (A) (A) (A) (A) (A) (A) (A) (A) (A) (A) (A)
                 (A) (A) (A) (A) (A) (A) (A) (A) (A) (A) (A) (A)
                 (A) (A) (A) (A) (A) (A) (A) (A) (A) (A) (A) (A)
                 (A) (A) (A) (A) (A) (A) (A) (A) (A) (A) (A) (A)
                 (A) (A) (A) (A) (A) (A) (A) (A) (A) (A) (A) (A)
                 (A) (A) (A) (A) (A) (A) (A) (A) (A) (A) (A) (A)
                 (A) (A) (A) (A) (A) (A) (A) (A) (A) (A) (A) (A)
                 (A) (A) (A) (A) (A) (A) (A) (A) (A) (A) (A) (A)
                 (A) (A) (A) (A) (A) (A) (A) (A) (A) (A) (A) (A)
                 (A) (A) (A) (A) (A) (A) (A) (A) (A) (A) (A) (A)
                 (A) (A) (A) (A) (A) (A) (A) (A) (A) (A) (A) (A)
                 (A) (A) (A) (A) (A) (A) (A) (A) (A) (A) (A) (A)
                 (A) (A) (A) (A) (A) (A) (A) (A) (A) (A) (A) (A)
                 (A) (A) (A) (A) (A) (A) (A) (A) (A) (A) (A) (A)
                 (A) (A) (A) (A) (A) (A) (A) (A) (A) (A) (A) (A)
                 (A) (A) (A) (A) (A) (A) (A) (A) (A) (A) (A) (A)
                 (A) (A) (A) (A) (A) (A) (A) (A) (A) (A) (A) (A)
                 (A) (A) (A) (A) (A) (A) (A) (A) (A) (A) (A) (A)
                 (A) (A) (A) (A) (A) (A) (A) (A) (A) (A) (A) (A)
                 (A) (A) (A) (A) (A) (A) (A) (A) (A) (A) (A) (A)
                 (A)
 The electronic state is 1-A.
 Alpha  occ. eigenvalues --  -19.20337 -19.20052 -19.20040 -19.19910 -19.19636
 Alpha  occ. eigenvalues --  -19.18757 -19.16583 -14.45137 -14.44666 -14.40670
 Alpha  occ. eigenvalues --  -10.32279 -10.32166 -10.32143 -10.30326 -10.30049
 Alpha  occ. eigenvalues --  -10.29423 -10.29132 -10.29083 -10.29074 -10.28940
 Alpha  occ. eigenvalues --  -10.28931 -10.28507 -10.28501 -10.28366 -10.28000
 Alpha  occ. eigenvalues --  -10.27959 -10.27628 -10.26798 -10.24072 -10.23941
 Alpha  occ. eigenvalues --  -10.23880 -10.23862 -10.23675 -10.23046 -10.23038
 Alpha  occ. eigenvalues --  -10.22877 -10.22720 -10.22634 -10.22421 -10.22346
 Alpha  occ. eigenvalues --  -10.22292 -10.21896 -10.21527 -10.21437 -10.20919
 Alpha  occ. eigenvalues --  -10.20804  -6.80521  -6.79463  -6.78690  -3.63273
 Alpha  occ. eigenvalues --   -2.05784  -2.05391  -2.04403  -1.06126  -1.05919
 Alpha  occ. eigenvalues --   -1.05304  -1.02347  -1.00045  -0.99118  -0.99020
 Alpha  occ. eigenvalues --   -0.98323  -0.97508  -0.92266  -0.84443  -0.83629
 Alpha  occ. eigenvalues --   -0.82886  -0.81524  -0.80334  -0.80185  -0.79337
 Alpha  occ. eigenvalues --   -0.77454  -0.76964  -0.74748  -0.74663  -0.73677
 Alpha  occ. eigenvalues --   -0.70920  -0.70398  -0.70233  -0.69302  -0.69023
 Alpha  occ. eigenvalues --   -0.68972  -0.67978  -0.67489  -0.67460  -0.66398
 Alpha  occ. eigenvalues --   -0.66059  -0.64654  -0.63607  -0.61767  -0.61201
 Alpha  occ. eigenvalues --   -0.61166  -0.60445  -0.58340  -0.57643  -0.54584
 Alpha  occ. eigenvalues --   -0.54544  -0.53749  -0.53634  -0.53405  -0.53314
 Alpha  occ. eigenvalues --   -0.52982  -0.52591  -0.52336  -0.50952  -0.49912
 Alpha  occ. eigenvalues --   -0.48765  -0.48222  -0.47726  -0.47306  -0.46943
 Alpha  occ. eigenvalues --   -0.46686  -0.46305  -0.46228  -0.46107  -0.46094
 Alpha  occ. eigenvalues --   -0.45750  -0.45652  -0.45238  -0.45047  -0.44346
 Alpha  occ. eigenvalues --   -0.44232  -0.44171  -0.43447  -0.43304  -0.43244
 Alpha  occ. eigenvalues --   -0.43042  -0.42973  -0.42591  -0.42465  -0.42092
 Alpha  occ. eigenvalues --   -0.40949  -0.40623  -0.40076  -0.40019  -0.39920
 Alpha  occ. eigenvalues --   -0.39873  -0.39630  -0.39501  -0.39344  -0.39152
 Alpha  occ. eigenvalues --   -0.38953  -0.38930  -0.38768  -0.38551  -0.38346
 Alpha  occ. eigenvalues --   -0.37932  -0.37908  -0.37601  -0.37487  -0.37378
 Alpha  occ. eigenvalues --   -0.37196  -0.36595  -0.36414  -0.36321  -0.36098
 Alpha  occ. eigenvalues --   -0.35936  -0.35776  -0.35505  -0.35474  -0.35224
 Alpha  occ. eigenvalues --   -0.35170  -0.34730  -0.34622  -0.34510  -0.34106
 Alpha  occ. eigenvalues --   -0.33838  -0.33451  -0.33109  -0.33035  -0.32703
 Alpha  occ. eigenvalues --   -0.32541  -0.32405  -0.31974  -0.31912  -0.31647
 Alpha  occ. eigenvalues --   -0.31273  -0.30806  -0.30695  -0.30216  -0.29698
 Alpha  occ. eigenvalues --   -0.29118  -0.28123  -0.27218  -0.26910  -0.26654
 Alpha  occ. eigenvalues --   -0.25940  -0.25827  -0.25692  -0.24770  -0.23405
 Alpha  occ. eigenvalues --   -0.22680  -0.22295  -0.18330
 Alpha virt. eigenvalues --   -0.07094  -0.03938  -0.03349   0.01331   0.02254
 Alpha virt. eigenvalues --    0.03579   0.04409   0.05450   0.05915   0.07334
 Alpha virt. eigenvalues --    0.07544   0.08933   0.09372   0.09935   0.10021
 Alpha virt. eigenvalues --    0.10352   0.10947   0.11127   0.11512   0.11775
 Alpha virt. eigenvalues --    0.11889   0.11924   0.12483   0.12911   0.13227
 Alpha virt. eigenvalues --    0.13420   0.13828   0.13919   0.14201   0.14281
 Alpha virt. eigenvalues --    0.14993   0.15084   0.15335   0.15524   0.15615
 Alpha virt. eigenvalues --    0.15860   0.15973   0.16121   0.16330   0.16480
 Alpha virt. eigenvalues --    0.16568   0.16670   0.17088   0.17135   0.17278
 Alpha virt. eigenvalues --    0.17471   0.17927   0.18046   0.18218   0.18375
 Alpha virt. eigenvalues --    0.18576   0.18796   0.18911   0.19065   0.19240
 Alpha virt. eigenvalues --    0.19500   0.19530   0.19560   0.19798   0.19973
 Alpha virt. eigenvalues --    0.20086   0.20437   0.20667   0.20745   0.20871
 Alpha virt. eigenvalues --    0.21065   0.21100   0.21289   0.21461   0.22100
 Alpha virt. eigenvalues --    0.22201   0.22718   0.22891   0.23094   0.23187
 Alpha virt. eigenvalues --    0.23318   0.23987   0.24143   0.24291   0.24425
 Alpha virt. eigenvalues --    0.24568   0.24715   0.25203   0.25455   0.25556
 Alpha virt. eigenvalues --    0.25997   0.26216   0.26491   0.26696   0.26981
 Alpha virt. eigenvalues --    0.27210   0.27296   0.27612   0.27944   0.28170
 Alpha virt. eigenvalues --    0.28411   0.28510   0.28749   0.29185   0.29318
 Alpha virt. eigenvalues --    0.29705   0.29935   0.30347   0.31567   0.31752
 Alpha virt. eigenvalues --    0.31980   0.32293   0.32711   0.33177   0.34123
 Alpha virt. eigenvalues --    0.34603   0.34930   0.35226   0.36319   0.36725
 Alpha virt. eigenvalues --    0.37163   0.37843   0.39575   0.40068   0.40174
 Alpha virt. eigenvalues --    0.41882   0.43028   0.43948   0.45322   0.46348
 Alpha virt. eigenvalues --    0.47397   0.47778   0.47853   0.49028   0.49050
 Alpha virt. eigenvalues --    0.50015   0.50722   0.50882   0.51216   0.51420
 Alpha virt. eigenvalues --    0.52007   0.52302   0.52523   0.52980   0.53230
 Alpha virt. eigenvalues --    0.53684   0.53964   0.54466   0.54983   0.55365
 Alpha virt. eigenvalues --    0.55451   0.55615   0.56030   0.56341   0.56961
 Alpha virt. eigenvalues --    0.57155   0.57394   0.57640   0.57808   0.58238
 Alpha virt. eigenvalues --    0.58442   0.58553   0.58651   0.58814   0.59165
 Alpha virt. eigenvalues --    0.59405   0.59640   0.59913   0.60220   0.60420
 Alpha virt. eigenvalues --    0.60516   0.61078   0.61252   0.61501   0.61789
 Alpha virt. eigenvalues --    0.62126   0.62377   0.62816   0.62934   0.63222
 Alpha virt. eigenvalues --    0.63665   0.63910   0.64371   0.65117   0.65418
 Alpha virt. eigenvalues --    0.65818   0.65970   0.66298   0.66511   0.66896
 Alpha virt. eigenvalues --    0.67110   0.67397   0.67516   0.67993   0.68060
 Alpha virt. eigenvalues --    0.68747   0.69125   0.69397   0.69756   0.70082
 Alpha virt. eigenvalues --    0.70743   0.71289   0.71632   0.71894   0.72028
 Alpha virt. eigenvalues --    0.72131   0.72886   0.73028   0.73465   0.73597
 Alpha virt. eigenvalues --    0.73922   0.74047   0.74690   0.74892   0.75249
 Alpha virt. eigenvalues --    0.75770   0.76153   0.76365   0.76829   0.77011
 Alpha virt. eigenvalues --    0.77554   0.77795   0.78077   0.78216   0.78387
 Alpha virt. eigenvalues --    0.78962   0.79261   0.79739   0.80160   0.80768
 Alpha virt. eigenvalues --    0.80971   0.81094   0.81752   0.82303   0.82453
 Alpha virt. eigenvalues --    0.82761   0.82875   0.83014   0.83488   0.83904
 Alpha virt. eigenvalues --    0.84074   0.84372   0.84848   0.84909   0.84992
 Alpha virt. eigenvalues --    0.85634   0.85736   0.85877   0.86253   0.86304
 Alpha virt. eigenvalues --    0.86700   0.86876   0.86975   0.87376   0.87588
 Alpha virt. eigenvalues --    0.87879   0.88208   0.88459   0.88590   0.88920
 Alpha virt. eigenvalues --    0.89155   0.89330   0.89541   0.89705   0.89895
 Alpha virt. eigenvalues --    0.90032   0.90497   0.90603   0.91070   0.91348
 Alpha virt. eigenvalues --    0.91655   0.91949   0.92071   0.92196   0.92650
 Alpha virt. eigenvalues --    0.92859   0.93468   0.93709   0.93811   0.94193
 Alpha virt. eigenvalues --    0.94483   0.94598   0.94780   0.95031   0.95361
 Alpha virt. eigenvalues --    0.95708   0.96364   0.96542   0.96697   0.96788
 Alpha virt. eigenvalues --    0.97010   0.97153   0.97929   0.98092   0.98689
 Alpha virt. eigenvalues --    0.98809   0.99135   0.99160   0.99476   0.99786
 Alpha virt. eigenvalues --    1.00902   1.01696   1.02181   1.02340   1.02710
 Alpha virt. eigenvalues --    1.03137   1.03971   1.04703   1.05281   1.05723
 Alpha virt. eigenvalues --    1.06165   1.06475   1.06912   1.07540   1.08115
 Alpha virt. eigenvalues --    1.08440   1.08843   1.09459   1.10476   1.10857
 Alpha virt. eigenvalues --    1.11222   1.12567   1.12822   1.13452   1.13771
 Alpha virt. eigenvalues --    1.14540   1.14870   1.15471   1.15796   1.16594
 Alpha virt. eigenvalues --    1.17328   1.17738   1.18556   1.18924   1.19601
 Alpha virt. eigenvalues --    1.19915   1.20119   1.20733   1.21751   1.22510
 Alpha virt. eigenvalues --    1.22942   1.23571   1.24433   1.24525   1.24828
 Alpha virt. eigenvalues --    1.25419   1.26581   1.27638   1.27884   1.28738
 Alpha virt. eigenvalues --    1.28869   1.30035   1.30304   1.30772   1.31537
 Alpha virt. eigenvalues --    1.32875   1.33305   1.33788   1.34629   1.35214
 Alpha virt. eigenvalues --    1.35865   1.36592   1.36920   1.37534   1.38139
 Alpha virt. eigenvalues --    1.39179   1.39689   1.40755   1.40930   1.41118
 Alpha virt. eigenvalues --    1.42348   1.42745   1.43004   1.43799   1.44382
 Alpha virt. eigenvalues --    1.44892   1.44997   1.45399   1.45764   1.46614
 Alpha virt. eigenvalues --    1.46956   1.47118   1.47443   1.47859   1.48978
 Alpha virt. eigenvalues --    1.49474   1.49737   1.50266   1.50526   1.51143
 Alpha virt. eigenvalues --    1.52630   1.52820   1.53786   1.54965   1.56551
 Alpha virt. eigenvalues --    1.57131   1.58237   1.58754   1.59096   1.59998
 Alpha virt. eigenvalues --    1.60744   1.61531   1.61651   1.63528   1.64100
 Alpha virt. eigenvalues --    1.64682   1.64883   1.65646   1.65914   1.66859
 Alpha virt. eigenvalues --    1.67246   1.67628   1.68425   1.69556   1.69656
 Alpha virt. eigenvalues --    1.70319   1.71015   1.71982   1.72124   1.72824
 Alpha virt. eigenvalues --    1.74567   1.75423   1.76256   1.77056   1.77217
 Alpha virt. eigenvalues --    1.77778   1.78294   1.78495   1.79426   1.79798
 Alpha virt. eigenvalues --    1.80005   1.80723   1.81456   1.81781   1.82120
 Alpha virt. eigenvalues --    1.82538   1.83008   1.83741   1.84293   1.84853
 Alpha virt. eigenvalues --    1.84947   1.85402   1.85654   1.86106   1.87099
 Alpha virt. eigenvalues --    1.87334   1.87781   1.88398   1.88620   1.88786
 Alpha virt. eigenvalues --    1.89547   1.90546   1.90941   1.91186   1.91518
 Alpha virt. eigenvalues --    1.91733   1.91978   1.92340   1.92535   1.92726
 Alpha virt. eigenvalues --    1.92873   1.93255   1.93499   1.93790   1.93908
 Alpha virt. eigenvalues --    1.94270   1.94791   1.95161   1.95571   1.95938
 Alpha virt. eigenvalues --    1.96584   1.96834   1.97838   1.98311   1.99221
 Alpha virt. eigenvalues --    1.99309   1.99480   2.00421   2.00753   2.01380
 Alpha virt. eigenvalues --    2.02075   2.02183   2.02493   2.03183   2.03468
 Alpha virt. eigenvalues --    2.04084   2.04363   2.04874   2.05975   2.06537
 Alpha virt. eigenvalues --    2.06829   2.07358   2.07411   2.07916   2.08283
 Alpha virt. eigenvalues --    2.08704   2.08863   2.09136   2.09720   2.10533
 Alpha virt. eigenvalues --    2.10598   2.11291   2.11365   2.12023   2.12848
 Alpha virt. eigenvalues --    2.13024   2.13720   2.14169   2.14661   2.14957
 Alpha virt. eigenvalues --    2.15206   2.15809   2.15907   2.16349   2.16637
 Alpha virt. eigenvalues --    2.16988   2.17680   2.17937   2.18259   2.18793
 Alpha virt. eigenvalues --    2.19029   2.19164   2.19269   2.19527   2.20222
 Alpha virt. eigenvalues --    2.20620   2.20876   2.21412   2.21852   2.22033
 Alpha virt. eigenvalues --    2.22540   2.22846   2.23077   2.23536   2.24211
 Alpha virt. eigenvalues --    2.24654   2.25215   2.25728   2.25919   2.26261
 Alpha virt. eigenvalues --    2.26538   2.27288   2.27896   2.27973   2.28344
 Alpha virt. eigenvalues --    2.28876   2.29277   2.30165   2.31008   2.31393
 Alpha virt. eigenvalues --    2.31693   2.32126   2.32468   2.33565   2.33810
 Alpha virt. eigenvalues --    2.34062   2.34876   2.35521   2.36559   2.37117
 Alpha virt. eigenvalues --    2.38148   2.38614   2.39141   2.39472   2.39875
 Alpha virt. eigenvalues --    2.40685   2.40995   2.42298   2.45087   2.45167
 Alpha virt. eigenvalues --    2.45988   2.47045   2.48030   2.48148   2.49083
 Alpha virt. eigenvalues --    2.49713   2.49912   2.50335   2.50964   2.53511
 Alpha virt. eigenvalues --    2.55202   2.56315   2.56479   2.57843   2.59552
 Alpha virt. eigenvalues --    2.60125   2.60294   2.60582   2.61511   2.62000
 Alpha virt. eigenvalues --    2.62565   2.63592   2.64329   2.65082   2.65226
 Alpha virt. eigenvalues --    2.66036   2.66761   2.67648   2.68384   2.69592
 Alpha virt. eigenvalues --    2.71176   2.71572   2.75621   2.77651   2.78131
 Alpha virt. eigenvalues --    2.78266   2.78810   2.79610   2.79724   2.80573
 Alpha virt. eigenvalues --    2.80900   2.81424   2.81707   2.82236   2.82710
 Alpha virt. eigenvalues --    2.83491   2.83708   2.84770   2.85812   2.86027
 Alpha virt. eigenvalues --    2.87586   2.91288   2.92613   2.94829   2.95677
 Alpha virt. eigenvalues --    2.95997   2.97300   2.98354   2.98473   2.99250
 Alpha virt. eigenvalues --    3.05298   3.06834   3.07561   3.08154   3.12214
 Alpha virt. eigenvalues --    3.13112   3.14533   3.20289   3.23916   3.29943
 Alpha virt. eigenvalues --    3.43742  15.22927
          Condensed to atoms (all electrons):
 Mulliken charges:
               1
     1  C    0.307327
     2  C    0.059016
     3  C   -0.168903
     4  C   -0.140720
     5  C   -0.177918
     6  C    0.275147
     7  C    0.057702
     8  C   -0.171735
     9  C   -0.143319
    10  C   -0.181310
    11  H    0.220125
    12  H    0.182103
    13  H    0.169448
    14  H    0.202852
    15  H    0.182229
    16  H    0.170798
    17  N   -0.497722
    18  N   -0.465302
    19  Ir  -0.322167
    20  O   -0.510162
    21  O   -0.527963
    22  O   -0.527822
    23  B    0.526752
    24  B    0.508614
    25  B    0.552927
    26  O   -0.492785
    27  O   -0.542256
    28  C    0.304816
    29  C    0.288603
    30  C    0.295478
    31  C    0.292417
    32  C    0.294812
    33  C    0.292968
    34  O   -0.521038
    35  C   -0.497764
    36  H    0.139552
    37  H    0.169003
    38  H    0.174266
    39  C   -0.523244
    40  H    0.201282
    41  H    0.164729
    42  H    0.140356
    43  C   -0.508601
    44  H    0.165595
    45  H    0.158781
    46  H    0.154039
    47  C   -0.517739
    48  H    0.145721
    49  H    0.188188
    50  H    0.155938
    51  C   -0.504809
    52  H    0.149373
    53  H    0.168469
    54  H    0.165753
    55  C   -0.509870
    56  H    0.185767
    57  H    0.150361
    58  H    0.158887
    59  C   -0.511079
    60  H    0.146344
    61  H    0.153138
    62  H    0.187753
    63  C   -0.511606
    64  H    0.171485
    65  H    0.165440
    66  H    0.148916
    67  C   -0.507930
    68  H    0.168329
    69  H    0.146447
    70  H    0.170702
    71  C   -0.496417
    72  H    0.141368
    73  H    0.174297
    74  H    0.165088
    75  C   -0.506414
    76  H    0.150820
    77  H    0.163651
    78  H    0.172859
    79  C   -0.509506
    80  H    0.171453
    81  H    0.156472
    82  H    0.157892
    83  H    0.167960
    84  C    0.576536
    85  O   -0.520014
    86  C   -0.393644
    87  H    0.175318
    88  H    0.165999
    89  C   -0.301436
    90  H    0.182659
    91  H    0.173865
    92  N   -0.343674
    93  C   -0.384642
    94  H    0.213178
    95  H    0.210172
    96  H    0.154314
    97  C   -0.294992
    98  H    0.157317
    99  H    0.164994
   100  C   -0.259454
   101  H    0.140020
   102  H    0.121776
   103  C   -0.285827
   104  H    0.148737
   105  H    0.153980
   106  C   -0.489503
   107  H    0.156805
   108  H    0.141627
   109  H    0.166301
   110  H    0.181964
   111  H    0.183120
 Sum of Mulliken charges =  -0.00000
 Mulliken charges with hydrogens summed into heavy atoms:
               1
     1  C    0.307327
     2  C    0.279141
     3  C    0.014217
     4  C    0.041382
     5  C   -0.008470
     6  C    0.275147
     7  C    0.260554
     8  C    0.010228
     9  C    0.038910
    10  C   -0.010512
    17  N   -0.497722
    18  N   -0.465302
    19  Ir  -0.154207
    20  O   -0.510162
    21  O   -0.527963
    22  O   -0.527822
    23  B    0.526752
    24  B    0.508614
    25  B    0.552927
    26  O   -0.492785
    27  O   -0.542256
    28  C    0.304816
    29  C    0.288603
    30  C    0.295478
    31  C    0.292417
    32  C    0.294812
    33  C    0.292968
    34  O   -0.521038
    35  C   -0.014944
    39  C   -0.016878
    43  C   -0.030186
    47  C   -0.027892
    51  C   -0.021214
    55  C   -0.014856
    59  C   -0.023845
    63  C   -0.025765
    67  C   -0.022453
    71  C   -0.015664
    75  C   -0.019083
    79  C   -0.023689
    84  C    0.576536
    85  O   -0.520014
    86  C   -0.052327
    89  C    0.055087
    92  N   -0.343674
    93  C    0.193023
    97  C    0.027319
   100  C    0.002342
   103  C    0.016891
   106  C   -0.024770
 APT charges:
               1
     1  C    0.140037
     2  C    0.032347
     3  C   -0.019436
     4  C    0.061095
     5  C   -0.180221
     6  C    0.170536
     7  C    0.043521
     8  C   -0.022748
     9  C    0.073870
    10  C   -0.167851
    11  H    0.122355
    12  H    0.032958
    13  H    0.041933
    14  H    0.093981
    15  H    0.029868
    16  H    0.041386
    17  N   -0.060095
    18  N   -0.122018
    19  Ir  -1.152772
    20  O   -0.921927
    21  O   -0.968904
    22  O   -0.988641
    23  B    1.265560
    24  B    1.176047
    25  B    1.329636
    26  O   -0.958403
    27  O   -0.968600
    28  C    0.475480
    29  C    0.476656
    30  C    0.495394
    31  C    0.496079
    32  C    0.471544
    33  C    0.466292
    34  O   -0.935845
    35  C   -0.011287
    36  H   -0.033081
    37  H   -0.003872
    38  H    0.007985
    39  C   -0.018915
    40  H    0.037320
    41  H   -0.002339
    42  H   -0.020168
    43  C   -0.001944
    44  H   -0.003305
    45  H   -0.002488
    46  H   -0.018038
    47  C   -0.041134
    48  H   -0.007409
    49  H    0.023131
    50  H   -0.019661
    51  C    0.003799
    52  H   -0.021072
    53  H   -0.002367
    54  H    0.002195
    55  C   -0.028688
    56  H    0.004259
    57  H   -0.026839
    58  H    0.000261
    59  C   -0.036409
    60  H   -0.023770
    61  H   -0.010991
    62  H    0.032800
    63  C   -0.007659
    64  H    0.001072
    65  H   -0.003989
    66  H   -0.017400
    67  C   -0.005621
    68  H   -0.000195
    69  H   -0.019899
    70  H    0.005768
    71  C   -0.034993
    72  H   -0.030881
    73  H    0.025001
    74  H   -0.001150
    75  C   -0.007869
    76  H   -0.018027
    77  H   -0.004829
    78  H    0.004808
    79  C   -0.032361
    80  H   -0.001795
    81  H   -0.006535
    82  H   -0.017149
    83  H    0.280215
    84  C    0.991411
    85  O   -0.859533
    86  C   -0.044945
    87  H   -0.005007
    88  H   -0.000834
    89  C    0.500671
    90  H   -0.062372
    91  H   -0.061018
    92  N   -0.838534
    93  C    0.264006
    94  H    0.002823
    95  H    0.062097
    96  H   -0.040006
    97  C    0.102677
    98  H   -0.014014
    99  H   -0.038483
   100  C    0.091496
   101  H   -0.035051
   102  H   -0.058099
   103  C    0.116385
   104  H   -0.040228
   105  H   -0.049010
   106  C    0.057649
   107  H   -0.010132
   108  H   -0.031295
   109  H   -0.035602
   110  H    0.036328
   111  H    0.045023
 Sum of APT charges =   0.00000
 APT charges with hydrogens summed into heavy atoms:
               1
     1  C    0.140037
     2  C    0.154702
     3  C    0.025587
     4  C    0.094053
     5  C   -0.138288
     6  C    0.170536
     7  C    0.137502
     8  C    0.013580
     9  C    0.103738
    10  C   -0.126465
    17  N   -0.060095
    18  N   -0.122018
    19  Ir  -0.872557
    20  O   -0.921927
    21  O   -0.968904
    22  O   -0.988641
    23  B    1.265560
    24  B    1.176047
    25  B    1.329636
    26  O   -0.958403
    27  O   -0.968600
    28  C    0.475480
    29  C    0.476656
    30  C    0.495394
    31  C    0.496079
    32  C    0.471544
    33  C    0.466292
    34  O   -0.935845
    35  C   -0.040256
    39  C   -0.004102
    43  C   -0.025775
    47  C   -0.045074
    51  C   -0.017446
    55  C   -0.051007
    59  C   -0.038370
    63  C   -0.027977
    67  C   -0.019947
    71  C   -0.042023
    75  C   -0.025917
    79  C   -0.057839
    84  C    0.991411
    85  O   -0.859533
    86  C   -0.050786
    89  C    0.377281
    92  N   -0.838534
    93  C    0.288920
    97  C    0.050180
   100  C   -0.001654
   103  C    0.027147
   106  C   -0.019380
 Electronic spatial extent (au):  <R**2>=          26758.6641
 Charge=             -0.0000 electrons
 Dipole moment (field-independent basis, Debye):
    X=              2.7980    Y=             -7.0955    Z=              2.2021  Tot=              7.9387
 Quadrupole moment (field-independent basis, Debye-Ang):
   XX=           -293.4551   YY=           -312.2047   ZZ=           -302.9573
   XY=            -19.0245   XZ=             12.4613   YZ=             19.8129
 Traceless Quadrupole moment (field-independent basis, Debye-Ang):
   XX=              9.4172   YY=             -9.3323   ZZ=             -0.0850
   XY=            -19.0245   XZ=             12.4613   YZ=             19.8129
 Octapole moment (field-independent basis, Debye-Ang**2):
  XXX=             14.9000  YYY=           -163.4914  ZZZ=            -19.2633  XYY=              8.2789
  XXY=            -75.7407  XXZ=             21.4834  XZZ=            -13.2108  YZZ=            -56.2786
  YYZ=             -6.7060  XYZ=             22.2870
 Hexadecapole moment (field-independent basis, Debye-Ang**3):
 XXXX=         -16504.3605 YYYY=         -10146.3324 ZZZZ=          -8673.8334 XXXY=            -70.8504
 XXXZ=            213.2581 YYYX=           -481.0499 YYYZ=            448.8165 ZZZX=            118.4180
 ZZZY=             42.8360 XXYY=          -4414.3503 XXZZ=          -4091.4445 YYZZ=          -3184.6792
 XXYZ=             17.6832 YYXZ=             48.7251 ZZXY=            -24.4216
 N-N= 8.266717370541D+03 E-N=-2.181093167557D+04  KE= 2.191884369683D+03
  Exact polarizability:     518.615     -31.874     508.020      35.694      22.870     473.622
 Approx polarizability:     698.508     -45.287     761.855      69.471      45.164     727.603
   1 Symmetry operations used in ECPInt.
 ECPInt:  NShTT=   53301 NPrTT=  320676 LenC2=   41692 LenP2D=  128294.
 LDataN:  DoStor=T MaxTD1= 8 Len=  415
 Calling FoFJK, ICntrl=    100127 FMM=F ISym2X=0 I1Cent= 0 IOpClX= 0 NMat=1 NMatS=1 NMatT=0.
 Defaulting to unpruned grid for atomic number  77.
 Defaulting to unpruned grid for atomic number  77.
 Defaulting to unpruned grid for atomic number  77.
 Defaulting to unpruned grid for atomic number  77.
 Defaulting to unpruned grid for atomic number  77.
 Defaulting to unpruned grid for atomic number  77.
 Defaulting to unpruned grid for atomic number  77.
 Defaulting to unpruned grid for atomic number  77.
 Defaulting to unpruned grid for atomic number  77.
 Defaulting to unpruned grid for atomic number  77.
 Defaulting to unpruned grid for atomic number  77.
 Defaulting to unpruned grid for atomic number  77.
 Defaulting to unpruned grid for atomic number  77.
 Defaulting to unpruned grid for atomic number  77.
 Defaulting to unpruned grid for atomic number  77.
 Defaulting to unpruned grid for atomic number  77.
 Full mass-weighted force constant matrix:
 Low frequencies --- -777.9651  -10.2829   -4.2363   -0.0006   -0.0006   -0.0002
 Low frequencies ---    4.8031   15.2134   22.7141
 ******    1 imaginary frequencies (negative Signs) ****** 
 Diagonal vibrational polarizability:
      104.7587340      80.1455605      83.5022541
 Harmonic frequencies (cm**-1), IR intensities (KM/Mole), Raman scattering
 activities (A**4/AMU), depolarization ratios for plane and unpolarized
 incident light, reduced masses (AMU), force constants (mDyne/A),
 and normal coordinates:
                      1                      2                      3
                      A                      A                      A
 Frequencies --   -777.9649                14.9400                22.4735
 Red. masses --      1.1270                 4.1624                 4.8192
 Frc consts  --      0.4019                 0.0005                 0.0014
 IR Inten    --    328.9612                 0.0338                 0.3668
  Atom AN      X      Y      Z        X      Y      Z        X      Y      Z
     1   6     0.01   0.00   0.00     0.01  -0.02  -0.04    -0.01   0.03   0.05
     2   6     0.00  -0.00   0.00     0.02  -0.02  -0.03     0.01   0.07  -0.02
     3   6     0.00  -0.00   0.00     0.05  -0.01  -0.06     0.01   0.10  -0.01
     4   6     0.00   0.00   0.00     0.07   0.00  -0.08     0.00   0.09   0.02
     5   6     0.00  -0.00   0.00     0.05  -0.00  -0.07    -0.01   0.05   0.06
     6   6     0.00  -0.00  -0.00    -0.03  -0.04  -0.01    -0.03  -0.01   0.09
     7   6    -0.00  -0.00   0.00    -0.07  -0.04   0.02    -0.01  -0.03   0.08
     8   6     0.00  -0.00  -0.00    -0.10  -0.07   0.04    -0.05  -0.09   0.16
     9   6    -0.00   0.00  -0.00    -0.11  -0.09   0.04    -0.08  -0.11   0.20
    10   6     0.00   0.00   0.00    -0.07  -0.07   0.01    -0.07  -0.07   0.17
    11   1     0.00   0.00  -0.01     0.01  -0.03  -0.01     0.01   0.07  -0.04
    12   1     0.00   0.00  -0.00     0.10   0.02  -0.12     0.01   0.11   0.03
    13   1     0.00  -0.00   0.01     0.06   0.01  -0.09    -0.01   0.05   0.09
    14   1    -0.00  -0.00   0.01    -0.07  -0.02   0.03     0.01  -0.02   0.04
    15   1    -0.00  -0.00  -0.00    -0.14  -0.11   0.05    -0.11  -0.15   0.27
    16   1    -0.00  -0.00   0.00    -0.07  -0.09   0.00    -0.09  -0.09   0.20
    17   7     0.02   0.00  -0.00     0.00  -0.03  -0.02     0.00   0.04   0.01
    18   7     0.00  -0.00   0.00    -0.03  -0.02  -0.00     0.00   0.00   0.05
    19  77    -0.01  -0.00   0.01    -0.01  -0.01  -0.01     0.01   0.01  -0.00
    20   8     0.00   0.00  -0.00     0.01  -0.01  -0.00    -0.01   0.01   0.01
    21   8     0.00  -0.00  -0.00    -0.00   0.00   0.00     0.01  -0.01   0.01
    22   8    -0.00   0.00  -0.00    -0.03   0.01  -0.00     0.01   0.02  -0.03
    23   5     0.01   0.01  -0.01    -0.01  -0.01  -0.01     0.00  -0.03  -0.02
    24   5    -0.01  -0.01  -0.00     0.01  -0.01  -0.00    -0.01   0.01   0.00
    25   5     0.02   0.01  -0.01    -0.01   0.01  -0.00     0.01   0.02  -0.01
    26   8     0.00   0.00  -0.00    -0.00   0.01  -0.00     0.01   0.02  -0.01
    27   8    -0.00   0.00  -0.00     0.01  -0.01  -0.00    -0.02   0.00   0.01
    28   6    -0.00  -0.00  -0.00     0.02  -0.01   0.00    -0.01   0.00   0.01
    29   6     0.00   0.00  -0.00     0.02  -0.01   0.00    -0.01   0.01   0.01
    30   6     0.00   0.00   0.00    -0.02   0.02  -0.00     0.02   0.03  -0.04
    31   6     0.00   0.00  -0.00    -0.01   0.03   0.00     0.02   0.02  -0.03
    32   6     0.00   0.00  -0.00    -0.00   0.00   0.00     0.01  -0.04  -0.01
    33   6     0.00  -0.00  -0.00    -0.00  -0.01  -0.01     0.02  -0.11  -0.03
    34   8     0.00  -0.00  -0.00    -0.01  -0.02  -0.01    -0.00  -0.10  -0.05
    35   6     0.00   0.00  -0.00     0.02   0.00   0.00    -0.01   0.00   0.01
    36   1    -0.00   0.00   0.00     0.02   0.00   0.00    -0.01   0.00   0.01
    37   1     0.00  -0.00   0.00     0.01   0.01   0.00    -0.01   0.00   0.01
    38   1     0.00  -0.00  -0.00     0.01   0.00   0.00    -0.01   0.00   0.01
    39   6    -0.00   0.00   0.00     0.02  -0.00   0.00    -0.01   0.01   0.02
    40   1    -0.00   0.00   0.00     0.02  -0.01   0.00    -0.01   0.02   0.02
    41   1    -0.00   0.00  -0.00     0.02  -0.00   0.00    -0.01   0.02   0.02
    42   1    -0.00   0.00  -0.00     0.03  -0.01   0.01    -0.01   0.01   0.02
    43   6    -0.00   0.00  -0.00     0.02  -0.01   0.00    -0.01   0.01   0.01
    44   1     0.00   0.00  -0.00     0.02  -0.01   0.00    -0.02   0.01   0.01
    45   1    -0.00  -0.00   0.00     0.02  -0.02   0.00    -0.02   0.00   0.01
    46   1    -0.00   0.00   0.00     0.02  -0.01   0.01    -0.01   0.01   0.01
    47   6    -0.00   0.00   0.00     0.02  -0.01   0.00    -0.01   0.00   0.01
    48   1    -0.00  -0.00   0.00     0.02  -0.02  -0.00    -0.01   0.00   0.02
    49   1    -0.00  -0.00   0.00     0.01  -0.01  -0.00    -0.01  -0.00   0.01
    50   1     0.00   0.00   0.00     0.02  -0.01   0.01    -0.01   0.00   0.01
    51   6     0.00  -0.00  -0.00     0.01   0.01   0.01     0.05  -0.03   0.04
    52   1     0.00  -0.00  -0.00     0.01   0.01   0.01     0.06  -0.05   0.04
    53   1     0.00   0.00  -0.00     0.02   0.01   0.01     0.08  -0.04   0.05
    54   1     0.00  -0.00  -0.00     0.01   0.02   0.01     0.04   0.01   0.06
    55   6     0.00   0.00  -0.00    -0.02   0.01  -0.00    -0.03  -0.01  -0.04
    56   1    -0.00  -0.00  -0.00    -0.03   0.01  -0.01    -0.06  -0.01  -0.07
    57   1     0.00   0.00   0.00    -0.02   0.01  -0.00    -0.03  -0.03  -0.05
    58   1     0.00   0.00  -0.00    -0.02   0.02   0.00    -0.04   0.04  -0.02
    59   6     0.00  -0.00  -0.00     0.02  -0.02  -0.00     0.06  -0.15   0.01
    60   1    -0.00  -0.00  -0.00     0.03  -0.02   0.00     0.08  -0.16   0.02
    61   1     0.00  -0.00   0.00     0.02  -0.03  -0.01     0.06  -0.19  -0.01
    62   1     0.00  -0.00  -0.00     0.02  -0.02  -0.00     0.08  -0.12   0.04
    63   6     0.00   0.00  -0.00    -0.01  -0.02  -0.01    -0.01  -0.14  -0.07
    64   1    -0.00  -0.00   0.00    -0.02  -0.01  -0.01    -0.04  -0.12  -0.10
    65   1     0.00   0.00   0.00    -0.01  -0.03  -0.01    -0.00  -0.19  -0.09
    66   1    -0.00   0.00  -0.00    -0.01  -0.01  -0.01     0.00  -0.15  -0.06
    67   6    -0.00  -0.00  -0.00    -0.00   0.03   0.00     0.02   0.04  -0.02
    68   1    -0.00  -0.00  -0.00    -0.00   0.03   0.00     0.03   0.05  -0.01
    69   1    -0.00   0.00  -0.00    -0.01   0.04   0.00     0.03   0.04  -0.03
    70   1     0.00   0.00  -0.00     0.01   0.04   0.00     0.02   0.03  -0.01
    71   6     0.00   0.00  -0.00    -0.01   0.03   0.00     0.01   0.01  -0.03
    72   1    -0.00   0.00   0.00    -0.01   0.04   0.00     0.01   0.01  -0.04
    73   1     0.00  -0.00  -0.00    -0.01   0.03   0.00     0.01   0.00  -0.03
    74   1     0.00   0.00   0.00     0.00   0.04   0.00     0.00   0.01  -0.02
    75   6    -0.00   0.00  -0.00    -0.04   0.03  -0.00     0.02   0.02  -0.06
    76   1    -0.00  -0.00  -0.00    -0.03   0.04  -0.00     0.03   0.03  -0.07
    77   1    -0.00  -0.00   0.00    -0.05   0.03  -0.00     0.02   0.03  -0.07
    78   1    -0.00   0.00  -0.00    -0.03   0.03  -0.00     0.01   0.01  -0.07
    79   6    -0.00  -0.00  -0.00    -0.03   0.02  -0.00     0.04   0.05  -0.03
    80   1    -0.00   0.00   0.00    -0.02   0.01  -0.00     0.04   0.05  -0.02
    81   1     0.00  -0.00   0.00    -0.04   0.02  -0.00     0.05   0.05  -0.04
    82   1    -0.00  -0.00  -0.00    -0.03   0.03  -0.00     0.05   0.05  -0.04
    83   1     0.92   0.06  -0.23     0.01  -0.01  -0.01     0.00   0.01  -0.00
    84   6     0.00   0.00   0.00     0.00  -0.01  -0.01    -0.01   0.02  -0.01
    85   8     0.00  -0.00   0.00     0.00  -0.02  -0.03    -0.03   0.02  -0.00
    86   6     0.00  -0.00   0.00    -0.01   0.00   0.00     0.01   0.03  -0.03
    87   1    -0.00  -0.00   0.00    -0.03   0.01   0.00     0.02   0.03  -0.03
    88   1     0.00   0.00   0.01     0.00  -0.01  -0.00     0.02   0.03  -0.02
    89   6    -0.05   0.01  -0.07     0.01  -0.02   0.00     0.00   0.02  -0.00
    90   1     0.18   0.01  -0.10     0.02  -0.02   0.01     0.00   0.02  -0.00
    91   1    -0.17  -0.00   0.15     0.00  -0.01   0.02     0.01   0.02  -0.01
    92   7     0.01   0.01  -0.01     0.01  -0.02  -0.01    -0.01   0.02  -0.00
    93   6    -0.00   0.01  -0.01     0.01  -0.03  -0.01    -0.02   0.01   0.00
    94   1     0.00   0.01   0.00     0.01  -0.02  -0.01    -0.01   0.01   0.01
    95   1    -0.00   0.01  -0.01     0.02  -0.03  -0.03    -0.03   0.01   0.00
    96   1    -0.00   0.01  -0.01     0.01  -0.04  -0.00    -0.03   0.01   0.00
    97   6    -0.00  -0.00  -0.00     0.01   0.03   0.02    -0.00   0.02  -0.05
    98   1    -0.00  -0.00  -0.00     0.03  -0.02   0.05    -0.02   0.03  -0.05
    99   1    -0.00  -0.00  -0.01    -0.02   0.04  -0.02     0.00   0.02  -0.05
   100   6     0.00  -0.00   0.00     0.04   0.11   0.06     0.01   0.00  -0.07
   101   1    -0.00   0.00  -0.00     0.00   0.15   0.04     0.04  -0.01  -0.07
   102   1     0.00  -0.00   0.00     0.09   0.09   0.08    -0.00   0.01  -0.06
   103   6     0.00  -0.00  -0.00     0.08   0.17   0.10    -0.01  -0.02  -0.10
   104   1     0.00  -0.00  -0.00     0.12   0.11   0.13    -0.05  -0.01  -0.11
   105   1    -0.00   0.00  -0.00     0.03   0.19   0.05    -0.00  -0.04  -0.11
   106   6    -0.00   0.00  -0.00     0.12   0.27   0.15    -0.01  -0.05  -0.13
   107   1     0.00   0.00  -0.00     0.09   0.34   0.12     0.02  -0.06  -0.12
   108   1     0.00   0.00   0.00     0.17   0.25   0.21    -0.02  -0.04  -0.12
   109   1    -0.00   0.00  -0.00     0.14   0.30   0.17    -0.02  -0.07  -0.15
   110   1     0.00  -0.00  -0.00    -0.13  -0.08   0.06    -0.06  -0.11   0.18
   111   1     0.00  -0.00   0.01     0.07  -0.00  -0.07     0.02   0.12  -0.04
                      4                      5                      6
                      A                      A                      A
 Frequencies --     26.7663                29.6457                34.9994
 Red. masses --      4.2558                 3.9134                 4.2721
 Frc consts  --      0.0018                 0.0020                 0.0031
 IR Inten    --      0.7431                 0.3570                 0.4017
  Atom AN      X      Y      Z        X      Y      Z        X      Y      Z
     1   6    -0.03  -0.01   0.01    -0.02  -0.03   0.02    -0.01  -0.02  -0.01
     2   6    -0.01   0.01  -0.02     0.01  -0.01  -0.01     0.02  -0.01  -0.02
     3   6    -0.05  -0.03   0.03    -0.02  -0.03   0.02     0.02  -0.01  -0.02
     4   6    -0.09  -0.05   0.06    -0.06  -0.06   0.06     0.01  -0.02  -0.02
     5   6    -0.08  -0.05   0.05    -0.06  -0.06   0.05    -0.01  -0.02  -0.01
     6   6    -0.02  -0.00  -0.00    -0.02  -0.03   0.02    -0.03  -0.03   0.01
     7   6     0.01   0.03  -0.04    -0.00  -0.00  -0.01    -0.03  -0.01   0.00
     8   6    -0.00   0.01  -0.02    -0.02  -0.02   0.01    -0.08  -0.06   0.05
     9   6    -0.02  -0.01   0.01    -0.04  -0.05   0.04    -0.11  -0.10   0.08
    10   6    -0.03  -0.02   0.02    -0.04  -0.05   0.04    -0.08  -0.09   0.06
    11   1     0.02   0.03  -0.04     0.04   0.01  -0.03     0.02  -0.00  -0.02
    12   1    -0.13  -0.08   0.10    -0.10  -0.09   0.08     0.01  -0.02  -0.02
    13   1    -0.11  -0.07   0.08    -0.09  -0.08   0.08    -0.01  -0.02  -0.01
    14   1     0.02   0.04  -0.06     0.01   0.01  -0.03    -0.01   0.02  -0.02
    15   1    -0.03  -0.02   0.02    -0.05  -0.06   0.06    -0.15  -0.15   0.13
    16   1    -0.05  -0.03   0.04    -0.05  -0.06   0.06    -0.10  -0.12   0.08
    17   7     0.00   0.01  -0.02     0.01  -0.01  -0.01     0.01  -0.01  -0.02
    18   7    -0.00   0.02  -0.03    -0.00  -0.01  -0.01    -0.01   0.00  -0.02
    19  77     0.01   0.02  -0.03     0.01   0.00  -0.01     0.01   0.01  -0.03
    20   8    -0.01   0.02  -0.03    -0.01  -0.00  -0.00    -0.01   0.02   0.01
    21   8     0.04   0.01   0.02     0.02  -0.03   0.01    -0.00  -0.02  -0.05
[...]
 00055526,-0.00005682,-0.00003463,-0.00009439,0.00008939,-0.00006291,0.
 00002257,-0.00000827,0.00012077,0.00005031,-0.00008027,-0.00009746,-0.
 00012664,0.00039973,0.00036759,0.00026281,-0.00453526,-0.00182637,-0.0
 0416637,-0.08328194,-0.12812381,-0.20143531,-0.00217667,-0.00783174,-0
 .00567536,-0.00409697,-0.00118886,0.00344397,-0.00000353,0.00000160,0.
 00000107,-0.00000030,0.00000110,-0.00001043,-0.00002283,-0.00003071,0.
 00005239,0.00104043,0.00134636,-0.00129288,0.00142683,0.00171300,-0.00
 128478,-0.00004697,-0.00046754,-0.00020547,0.00004626,0.00000714,0.000
 11122,-0.00130002,-0.00421713,0.00408857,-0.00007386,0.00021313,-0.000
 24616,0.00004936,-0.00013138,-0.00001717,0.00008091,0.00002587,-0.0000
 6304,0.00017912,0.00008271,0.00007909,-0.00008502,-0.00008797,0.000100
 88,0.00001040,0.00008606,0.00011780,-0.00021036,-0.00006727,-0.0000852
 3,0.00010065,0.00003135,0.00004411,0.00001895,-0.00008248,-0.00004833,
 -0.00000340,0.00002811,0.00000171,-0.00002746,0.00002515,0.00002537,-0
 .00004977,-0.00004108,-0.00005170,-0.00002436,-0.00003614,-0.00000328,
 -0.00002280,-0.00002734,0.00003163,-0.00002217,-0.00000207,0.00002709,
 0.00003522,0.00002968,-0.00005541,0.00000340,-0.00000503,-0.00000458,0
 .00000512,-0.00000283,-0.00000210,-0.00000005,-0.00000001,0.00000325,-
 0.00000357,0.00000074,-0.00000044,0.00000468,-0.00000518,-0.00000573,-
 0.00000018,0.00000259,-0.00000009,0.00000045,0.00000041,0.00000268,0.0
 0000053,-0.00000574,-0.00000025,-0.00000246,-0.00000491,0.00000040,0.0
 0000169,0.00000166,0.00000032,-0.00000109,0.00000074,-0.00000171,0.000
 00197,-0.00000344,-0.00000173,0.00000212,-0.00000646,-0.00000101,-0.00
 000023,0.00000229,0.00000103,0.00000080,0.00000126,-0.00000086,-0.0000
 0069,-0.00000502,-0.00000008,0.00000450,0.00000595,-0.00000255,0.00000
 184,-0.00000063,-0.00000388,-0.00000114,0.00000443,0.00000285,0.000001
 64,-0.00000235,0.00000148,0.00001307,0.00000408,-0.00000631,-0.0000092
 1,-0.00000430,-0.00000140,0.00000288,0.00000397,-0.00000355,0.00000276
 ,-0.00000319,0.00000183,0.00000301,0.00000091,-0.00000453,0.00000254,-
 0.00000093,-0.00000359,0.00000072,-0.00000084,0.00000544,-0.00000339,0
 .00000338,0.00000363,-0.00000080,-0.00000478,-0.00000718,0.00000022,0.
 00000336,0.00000195,-0.00000036,0.00000023,0.00000190,0.00000210,0.000
 00147,-0.00000332,0.00000446,0.00000309,0.00000093,-0.00000076,-0.0000
 0217,-0.00000131,0.00000584,-0.00000063,0.00000365,-0.00000271,0.00000
 187,0.00000096,0.00000430,0.00000700,0.00000221,0.00000900,-0.00000046
 ,0.00000058,-0.00000515,-0.00000383,-0.00000279,-0.00000243,0.00000444
 ,0.00000036,0.00001583,-0.00003474,-0.00000939,-0.00000054,0.00001468,
 -0.00000016,0.00000522,0.00001934,0.00001507,0.00000142,-0.00000128,-0
 .00000300,0.00002453,-0.00002422,-0.00001254,0.00000190,0.00001533,-0.
 00000276,-0.00000163,-0.00000955,0.00002108,-0.00000524,0.00000802,0.0
 0000722,0.00002225,-0.00000751,-0.00004033,0.00000861,0.00002802,-0.00
 000895,0.00000011,-0.00002545,0.00000808,0.00000226,0.00000412,-0.0000
 0167,-0.00000114,-0.00000185,0.00000011,-0.00000055,0.00000104,0.00000
 530,-0.00003106,0.00009956,-0.00001693,-0.00002514,-0.00000704,0.00001
 570,0.00001001,0.00000320,0.00001022,0.00003496,-0.00000601,-0.0000070
 6,-0.00000325,-0.00000475,-0.00000345,-0.00000278,-0.00000202,-0.00000
 201,0.00000061,-0.00000160,0.00000024,-0.00000248,0.00000288,0.0000013
 0,-0.00000115,0.00000039,0.00000107,0.00000136,0.00000066,-0.00000230,
 -0.00000253,-0.00000269,0.00000128,0.00000545,0.00000664,-0.00000133,-
 0.00000050,-0.00000126,-0.00000085,-0.00000244,-0.00000269,0.00000142,
 0.00000140,0.00000081,0.00000124,0.00000126,0.00000108,-0.00000249,-0.
 00000248,-0.00000356,0.00000072,0.00000453,0.00000665,-0.00000149,0.00
 000062,-0.00000185,-0.00000133,-0.00000012,-0.00000410,0.00000270,-0.0
 0000363,-0.00000013,0.00000188,0.09203297,0.13961715,0.20699088,-0.001
 43264,0.00131620,-0.00006389,0.00072581,-0.01716214,-0.01427870,-0.057
 55369,-0.02560000,-0.04660172,0.00693157,0.01053073,0.01379356,0.00141
 428,0.00504304,-0.00235132,-0.00045366,-0.00053039,0.00055257,0.000015
 70,0.00007270,0.00007149,0.00007273,-0.00005470,0.00001789,-0.00005444
 ,-0.00006775,-0.00006518,-0.00000518,0.00009591,0.00006597,-0.00098026
 ,-0.00111929,0.00172664,-0.00108992,-0.00183165,0.00138610,0.00037548,
 0.00065082,0.00061977,-0.00000413,0.00000140,0.00000229,-0.00000264,-0
 .00000272,0.00000125,0.00004677,0.00001359,-0.00004157,0.00013416,0.00
 281461,-0.00714175,-0.00007580,0.00000661,-0.00010366,0.00046087,-0.00
 029816,0.00032960,-0.00001022,0.00007305,0.00008083,-0.00005300,-0.000
 00796,0.00016030,-0.00008748,-0.00003872,-0.00002633,0.00005237,0.0000
 6523,-0.00027627,0.00009602,-0.00024438,-0.00018627,0.00008004,0.00007
 579,-0.00005800,-0.00013778,-0.00000207,-0.00003164,0.00001339,0.00017
 281,0.00020993,-0.00002291,-0.00001372,-0.00002147,0.00000441,-0.00001
 788,-0.00004942,0.00001456,-0.00000466,0.00001534,0.00003259,0.0000166
 3,-0.00000363,-0.00002202,0.00007806,-0.00006275,0.00010576,-0.0001881
 3,-0.00018751,-0.00010579,-0.00002465,0.00027306,0.00000105,0.00000512
 ,0.00001089,-0.00000514,0.00000495,-0.00000024,0.00000658,-0.00000271,
 0.00000783,-0.00000299,-0.00000563,-0.00000606,0.00000327,0.00000616,0
 .00000984,0.00000066,-0.00000286,-0.00000645,0.00000541,-0.00000225,0.
 00000513,-0.00000304,0.00000566,-0.00000098,-0.00002070,0.00000036,-0.
 00003677,-0.00000689,0.00000088,-0.00000127,0.00001034,0.00002099,0.00
 002637,0.00000591,-0.00000730,0.00001814,-0.00005437,0.00001215,-0.000
 04854,0.00003480,0.00001783,0.00001318,0.00001072,-0.00000404,0.000009
 41,0.00001534,-0.00000647,0.00001208,-0.00000190,-0.00001123,0.0000150
 9,-0.00001109,-0.00000107,0.00000469,-0.00000725,0.00001711,-0.0000086
 0,0.00001246,0.00000686,0.00000658,0.00002027,-0.00001558,0.00002922,-
 0.00000421,0.00000622,-0.00000263,-0.00000580,-0.00000307,0.00000133,0
 .00001488,0.00000848,0.00000534,-0.00021735,0.00015776,-0.00010573,0.0
 0006731,0.00001063,0.00002610,0.00020493,-0.00009561,0.00008836,-0.000
 00980,0.00000486,-0.00002976,-0.00002146,0.00003233,0.00002294,0.00001
 044,0.00002425,-0.00000003,0.00001202,-0.00002534,0.00000928,0.0000011
 9,-0.00000858,0.00000767,-0.00000809,-0.00000607,0.00000190,0.00000064
 ,-0.00000066,0.00000318,-0.00000309,0.00000154,-0.00000362,-0.00000116
 ,0.00000268,-0.00000109,-0.00001041,-0.00000198,-0.00000503,-0.0000043
 5,-0.00000011,0.00000440,0.00000114,-0.00000442,-0.00000252,-0.0000012
 9,0.00000353,-0.00000101,-0.00000241,0.00000201,-0.00000754,-0.0000033
 7,-0.00000274,0.00000015,-0.00000007,-0.00000107,0.00000005,-0.0000016
 2,-0.00000038,0.00000205,-0.00000445,0.00000413,-0.00000231,-0.0000006
 0,-0.00000136,0.00000317,0.00000034,-0.00000023,0.00000037,-0.00000114
 ,-0.00000126,-0.00000292,-0.00015073,-0.00000921,0.00003972,0.00000579
 ,-0.00009410,-0.00001242,-0.00002175,0.00006744,0.00000570,-0.00000539
 ,0.00004155,-0.00001557,0.00001389,0.00000033,0.00000323,-0.00002506,-
 0.00005635,0.00000184,0.00016925,-0.00005636,0.00013123,-0.00002701,0.
 00000034,-0.00000234,-0.00001017,0.00003008,-0.00007347,-0.00000837,0.
 00004425,-0.00000337,-0.00000532,0.00000670,0.00001189,-0.00000011,-0.
 00000080,-0.00001070,0.00000129,0.00000219,-0.00000397,-0.00000041,0.0
 0000059,-0.00000087,0.00000776,-0.00005078,-0.00000813,-0.00001235,0.0
 0001129,-0.00001322,-0.00000548,0.00000513,0.00000442,0.00003443,0.000
 08901,0.00009759,-0.00002469,-0.00007403,-0.00002929,-0.00001467,0.000
 01665,-0.00000530,-0.00001910,-0.00001979,-0.00002217,0.00000735,-0.00
 000521,-0.00002006,0.00000094,0.00000162,0.00000621,0.00002294,0.00004
 769,0.00003566,-0.00002424,-0.00001612,-0.00001266,-0.00000616,-0.0000
 1311,-0.00000145,0.00000109,-0.00001064,-0.00001325,0.00001685,0.00000
 972,-0.00001606,0.05156886,0.00066505,-0.00035865,0.00076854,0.0012996
 7,0.00701664,0.00646444,-0.02624551,-0.17271105,-0.14306810,-0.0070274
 8,-0.01131866,-0.01948179,0.00521868,-0.00167616,-0.00119641,-0.000499
 06,-0.00023962,0.00039054,-0.00002395,0.00006155,0.00004938,0.00004726
 ,-0.00005538,0.00001056,-0.00009617,0.00001561,-0.00003999,0.00009404,
 0.00003761,0.00003469,-0.00125461,-0.00068515,0.00076416,-0.00147974,0
 .00010506,0.00136411,-0.00033366,-0.00054698,-0.00096179,0.00000145,-0
 .00000560,-0.00000332,-0.00000072,-0.00000405,0.00000054,-0.00003915,0
 .00006233,0.00000396,0.00396877,0.00268302,-0.00038749,-0.00000055,-0.
 00006703,-0.00011066,-0.00027862,0.00004914,0.00002567,-0.00001988,0.0
 0001103,-0.00000425,-0.00004572,-0.00002992,0.00012616,-0.00004971,-0.
 00001633,-0.00001290,0.00002146,0.00004016,-0.00022742,0.00002321,0.00
 000411,0.00000807,0.00009994,0.00001512,-0.00000115,-0.00005448,-0.000
 00159,-0.00001118,-0.00004861,0.00000868,-0.00000828,0.00001998,0.0000
 1666,-0.00003616,0.00000974,-0.00000611,0.00000958,0.00001704,-0.00000
 055,0.00000938,0.00002499,0.00000819,0.00000074,-0.00001515,0.00005063
 ,-0.00004988,0.00005655,-0.00007009,-0.00010910,-0.00003416,-0.0000386
 8,0.00021169,-0.00000365,0.00000223,-0.00001057,-0.00000168,0.00000234
 ,0.00000195,-0.00000385,-0.00000171,-0.00000142,0.00000129,-0.00000102
 ,0.00000060,-0.00000376,-0.00000096,-0.00000405,-0.00000100,-0.0000028
 8,0.00000433,-0.00000278,-0.00000026,-0.00000363,0.00000129,0.00000096
 ,0.00000195,0.00000518,-0.00000361,0.00000765,-0.00001640,-0.00000142,
 -0.00000350,0.00000999,0.00000531,-0.00000729,-0.00000283,-0.00000019,
 0.00000164,0.00002259,-0.00001839,0.00005736,-0.00001437,0.00000279,-0
 .00003457,-0.00000848,0.00000181,0.00000003,-0.00000970,0.00000479,-0.
 00000911,0.00000289,-0.00000084,0.00001169,-0.00000869,-0.00000194,0.0
 0000528,-0.00000402,0.00000687,-0.00000680,0.00000806,0.00000302,0.000
 00299,0.00001346,-0.00001180,0.00001614,-0.00000154,0.00000367,-0.0000
 0416,-0.00000707,-0.00000370,0.00000366,0.00000931,0.00000411,0.000003
 63,-0.00018628,0.00005180,-0.00007343,0.00003456,0.00000403,0.00001817
 ,0.00002236,-0.00003437,0.00003490,0.00003538,-0.00000331,0.00000431,-
 0.00003743,0.00000853,-0.00001019,0.00001198,0.00000856,0.00000438,0.0
 0001375,-0.00002071,0.00001111,0.00000298,-0.00000374,0.00000690,-0.00
 000414,0.00000066,0.00000056,0.00000044,-0.00000028,0.00000257,-0.0000
 0205,-0.00000113,-0.00000157,0.00000131,0.00000115,-0.00000006,-0.0000
 0580,0.00000270,-0.00000089,-0.00000298,-0.00000142,0.00000075,0.00000
 105,-0.00000169,-0.00000128,0.00000121,0.00000093,-0.00000030,-0.00000
 077,-0.00000091,-0.00000342,-0.00000227,-0.00000066,-0.00000039,0.0000
 0089,-0.00000046,0.00000017,-0.00000097,0.00000018,0.00000157,-0.00000
 212,-0.00000015,-0.00000210,-0.00000155,-0.00000216,0.00000140,0.00000
 149,0.00000170,0.00000114,-0.00000239,0.00000032,-0.00000171,0.0000215
 8,-0.00000839,0.00007060,-0.00004211,-0.00006952,-0.00004929,0.0000099
 0,0.00004152,-0.00000298,0.00001336,0.00002850,0.00000349,-0.00000554,
 -0.00001248,0.00000888,-0.00001464,-0.00000004,0.00000759,0.00001805,-
 0.00010632,0.00012277,0.00001238,-0.00000326,-0.00000716,0.00000659,0.
 00001200,-0.00005728,0.00003347,0.00011057,-0.00001203,0.00001117,-0.0
 0000181,0.00002459,-0.00000298,0.00000228,-0.00000463,-0.00000042,0.00
 000293,0.00000040,-0.00000027,-0.00000336,-0.00000503,-0.00000197,-0.0
 0000424,0.00000032,-0.00000048,-0.00000320,0.00000183,-0.00000304,0.00
 000579,0.00000083,-0.00001019,-0.00001056,0.00001250,-0.00000614,-0.00
 000506,-0.00001924,0.00000997,0.00000442,0.00000293,-0.00000591,0.0000
 0923,-0.00000093,0.00000286,-0.00000415,0.00000634,0.00000322,0.000002
 00,-0.00000207,-0.00001590,-0.00003496,-0.00001309,0.00000781,0.000017
 70,0.00000878,-0.00000477,0.00000666,-0.00000090,0.00000714,0.00000457
 ,0.00000468,0.00000382,0.00001143,-0.00001802,0.02606921,0.17765511,-0
 .00032020,0.00105876,0.00011167,0.00024565,-0.01438647,-0.01084801,-0.
 04646922,-0.14278482,-0.20549469,-0.00105801,0.00083978,0.00208601,-0.
 00204461,-0.00149414,0.00353730,0.00056086,0.00034596,-0.00046105,0.00
 002688,-0.00005493,-0.00003671,-0.00006284,0.00004438,-0.00002896,0.00
 009100,0.00002359,0.00004992,-0.00007131,-0.00010639,-0.00010009,0.001
 48241,0.00115229,-0.00071968,0.00170050,0.00096413,-0.00091484,-0.0001
 7501,0.00010617,0.00006559,0.00000104,-0.00000173,-0.00000064,0.000003
 60,-0.00000420,-0.00000773,-0.00001895,-0.00002295,0.00004017,-0.00630
 761,-0.00088501,0.00078894,-0.00004508,0.00002260,0.00002945,0.0005028
 8,-0.00013634,0.00004825,-0.00001405,0.00013496,0.00004067,-0.00004095
 ,0.00001578,0.00003597,-0.00008237,-0.00002485,-0.00003162,0.00020324,
 -0.00001036,-0.00011892,0.00006862,-0.00030292,-0.00012127,0.00010540,
 0.00005228,0.00000280,-0.00012660,0.00001808,-0.00004367,-0.00000002,0
 .00020529,0.00014030,-0.00006930,-0.00011234,0.00002299,0.00001348,-0.
 00002771,-0.00005624,0.00002342,-0.00000352,0.00002764,0.00002669,0.00
 001263,0.00000497,0.00000613,0.00000482,-0.00001541,0.00000018,-0.0000
 3105,-0.00002923,-0.00002374,0.00003956,0.00010803,0.00000234,0.000005
 26,0.00002160,-0.00000458,0.00000379,0.00000068,0.00000926,-0.00000223
 ,0.00000523,0.00000095,-0.00000109,-0.00000718,0.00000035,0.00000706,0
 .00000996,0.00000209,-0.00000017,-0.00001057,0.00000674,-0.00000034,0.
 00000409,-0.00000495,0.00000743,-0.00000102,-0.00000123,0.00001831,-0.
 00001655,0.00001494,0.00000110,-0.00000323,-0.00000501,0.00000102,0.00
 002075,-0.00000012,0.00000249,0.00000782,-0.00003070,0.00002584,-0.000
 09053,-0.00000183,0.00001598,0.00005553,0.00000198,-0.00000215,-0.0000
 1469,0.00002502,-0.00000462,0.00001775,-0.00000393,-0.00000603,0.00000
 059,-0.00000069,0.00000123,0.00000173,0.00000038,0.00000372,0.00000110
 ,-0.00000038,0.00000082,-0.00000068,0.00000008,-0.00000208,0.00000453,
 -0.00000005,0.00000313,0.00000085,-0.00000041,-0.00000125,0.00000135,0
 .00000097,0.00000107,-0.00000121,-0.00000110,-0.00001697,0.00001378,0.
 00001310,0.00000637,0.00000041,-0.00010979,-0.00004038,0.00004217,-0.0
 0002851,0.00000400,-0.00001305,0.00000322,0.00000742,0.00001390,0.0000
 0142,0.00000580,-0.00000281,-0.00000194,-0.00000191,-0.00000068,-0.000
 00145,-0.00000123,0.00000306,-0.00000569,-0.00000412,0.00000060,0.0000
 0122,-0.00000149,0.,-0.00000293,0.00000099,-0.00000318,-0.00000218,0.0
 0000327,0.00000023,-0.00000620,-0.00000535,-0.00000376,-0.00000481,-0.
 00000038,0.00000237,0.00000208,-0.00000030,-0.00000141,-0.00000089,0.0
 0000303,0.00000055,-0.00000392,0.00000086,-0.00000543,-0.00000446,-0.0
 0000134,-0.00000149,0.00000102,-0.00000014,0.00000100,0.00000089,-0.00
 000002,0.00000071,-0.00000280,0.00000022,-0.00000534,-0.00000052,-0.00
 000181,0.00000388,0.00000112,0.00000151,0.00000175,-0.00000363,-0.0000
 0055,-0.00000360,-0.00016417,-0.00001432,-0.00002411,-0.00011130,-0.00
 009025,-0.00010425,0.00002408,0.00008107,0.00004117,-0.00000182,-0.000
 08753,0.00001450,0.00002234,0.00007487,-0.00002702,-0.00000849,-0.0000
 4644,-0.00002972,0.00001104,-0.00007456,0.00002842,0.00000506,0.000013
 92,-0.00000786,0.00001389,-0.00001384,0.00004207,0.00007539,0.00007533
 ,0.00006792,-0.00000922,0.00002707,-0.00000725,0.00001338,-0.00000597,
 0.00000223,-0.00000186,-0.00000115,-0.00000728,0.00000318,-0.00000176,
 0.00000562,0.00000355,0.00006695,0.00002404,-0.00000037,-0.00000212,0.
 00004318,0.00000847,-0.00000140,-0.00000554,-0.00006770,-0.00017072,-0
 .00016137,0.00008168,0.00010653,0.00002805,0.00000203,-0.00000416,-0.0
 0000255,0.00004803,0.00003256,0.00004419,-0.00002542,0.00001547,0.0000
 2608,0.00000077,0.00000014,-0.00001039,-0.00002718,-0.00004457,-0.0000
 2957,0.00002683,0.00000264,0.00001547,0.00000870,0.00001983,0.00000503
 ,-0.00000457,0.00001510,0.00001194,-0.00001254,-0.00001721,0.00001266,
 0.05209965,0.15535740,0.21184082\\0.00000424,-0.00000274,0.00000430,0.
 00000357,0.00000305,0.00000605,0.00000079,-0.00000866,-0.00000470,-0.0
 0000828,0.00000618,-0.00000414,-0.00000544,0.00000269,-0.00000498,-0.0
 0000219,-0.00000015,-0.00000599,-0.00000101,-0.00000218,-0.00000304,0.
 00000322,0.00000166,0.00000002,-0.00000201,-0.00000325,-0.00000919,0.0
 0000215,0.00000525,0.00000491,0.00000075,-0.00000166,0.00000056,0.0000
 0454,-0.00000396,0.00000277,0.00000197,-0.00000367,-0.00000171,-0.0000
 0058,0.00000222,-0.00000213,-0.00000262,0.00000381,-0.00000211,-0.0000
 0035,-0.00000087,-0.00000344,-0.00000223,-0.00000581,-0.00000740,0.000
 00194,0.00000313,0.00000137,-0.00000017,-0.00000048,0.00000316,0.00000
 070,0.00000282,0.00000314,0.00000196,-0.00000300,-0.00000012,0.0000015
 7,0.00000216,0.00000013,0.00000035,0.00000163,-0.00000311,-0.00000203,
 -0.00000006,-0.00000247,-0.00000131,0.00000193,-0.00000286,0.00000294,
 -0.00000276,0.00000229,0.00000071,0.00000335,0.00000224,-0.00000026,-0
 .00000435,0.00000233,0.00000113,-0.00000583,0.00000468,-0.00000063,-0.
 00000155,-0.00000517,-0.00000406,0.00000845,-0.00000301,-0.00000053,0.
 00000208,-0.00000374,-0.00000137,-0.00000332,0.00000283,-0.00000030,-0
 .00000122,-0.00000169,-0.00000111,0.00000324,-0.00000095,0.00000060,-0
 .00000138,0.00000233,0.00000080,0.00000083,0.00000352,0.00000088,-0.00
 000121,0.00000163,-0.00000470,0.00000049,-0.00000322,0.00000184,0.0000
 0096,0.00000231,0.00000356,0.00000154,0.00000727,0.00000009,0.00000073
 ,0.00000368,-0.00000106,-0.00000026,0.00000161,0.00000217,-0.00000089,
 0.00000165,-0.00000040,-0.00000147,0.00000176,0.00000108,-0.00000235,0
 .00000373,-0.00000022,-0.00000247,-0.00000156,0.00000062,-0.00000123,0
 .00000190,-0.00000214,-0.00000025,0.00000579,0.00000085,0.00000099,0.0
 0000355,-0.00000321,-0.00000823,0.00000549,0.00000101,0.00000030,-0.00
 000423,0.00000176,0.00000096,0.00000123,0.00000148,-0.00000192,0.00000
 047,-0.00000144,-0.00000046,-0.00000259,0.00000058,-0.00000130,-0.0000
 0202,0.00000005,-0.00000286,0.00000040,0.00000032,-0.00000029,-0.00000
 129,0.00000478,0.00000154,-0.00000303,-0.00000107,-0.00000263,0.000001
 93,-0.00000184,-0.00000281,-0.00000049,-0.00000046,-0.00000493,0.00000
 222,0.00000081,-0.00000582,-0.00000453,0.00000064,0.00000007,-0.000001
 21,0.00000078,-0.00000284,-0.00000051,-0.00000110,-0.00000216,0.000000
 71,0.00000300,-0.00000257,-0.00000077,-0.00000331,0.00000195,0.0000036
 2,0.00000142,0.00000381,0.00000071,-0.00000056,0.00000240,0.00000145,-
 0.00000056,0.00000007,-0.00000517,0.00000047,0.00000097,0.00000049,0.0
 0000008,-0.00000029,0.00000318,0.00000042,0.00000056,0.00000151,0.0000
 0409,-0.00000027,0.00000589,-0.00000430,0.00000218,-0.00000393,-0.0000
 0086,0.00000261,-0.00000236,0.00000052,0.00000110,-0.00000532,0.000001
 92,0.00000511,0.00000397,-0.00000165,0.00000151,-0.00000105,-0.0000008
 0,0.00000184,-0.00000169,-0.00000105,0.00000273,-0.00000204,-0.0000005
 7,0.00000150,-0.00000116,-0.00000168,0.00000543,-0.00000162,0.00000059
 ,-0.00000258,0.00000210,-0.00000062,0.00000182,0.00000623,0.00000004,-
 0.00000266,0.00000029,0.00000152,0.00000118,-0.00000017,0.00000356,-0.
 00000709,0.00000017,-0.00000073,0.00000377,0.00000247,-0.00000427,0.00
 000204,-0.00000205,-0.00000120,0.00000681,-0.00000156,0.00000136,0.000
 00192,0.00000423,-0.00000059,0.00000129,0.00000093,0.00000056,0.000002
 72,0.00000130,-0.00000021,0.00000222,-0.00000024,0.00000259,-0.0000012
 5,0.00000200,-0.00000027,0.00000097,-0.00000100,0.00000019,0.00000242,
 -0.00000052,-0.00000510,0.00000062,0.00000358,0.00000075,-0.00000133,-
 0.00000101,-0.00000016,-0.00000051,-0.00000032,0.00000541,0.00000274,-
 0.00000461,-0.00000043,0.00000108,0.00000119,-0.00000121,-0.00000170,0
 .00000091,-0.00000158,-0.00000133,0.00000340,-0.00000031,-0.00000223,-
 0.00000347,0.00000139,0.00000093,-0.00000171,0.,-0.00000026,-0.0000016
 1,-0.00000129,0.00000049,-0.00000459,0.00000032,-0.00000154,0.00000102
 \\\@
 The archive entry for this job was punched.


 BOOKS ARE LIGHTHOUSES ERECTED IN THE GREAT SEA OF TIME.
     -- E.P.WHIPPLE
 Job cpu time:       2 days  0 hours 30 minutes 25.0 seconds.
 Elapsed time:       0 days  3 hours  5 minutes  8.4 seconds.
 File lengths (MBytes):  RWF=   8594 Int=      0 D2E=      0 Chk=     49 Scr=      1
 Normal termination of Gaussian 16 at Sun Dec  8 00:46:01 2024.
