/mnt/lustre/scratch/nvme/SLURM/9663641/usccqdma.kQJna8YjYY
OMP_STACKSIZE=0m
GAUSS_PDEF=16
GAUSS_MDEF=65536MB
GAUSS_RDEF=SCF=Direct
 Entering Gaussian System, Link 0=g16.exe
 Initial command:
 /opt/cesga/2020/software/Core/g16/c1/l1.exe "/mnt/lustre/scratch/nvme/SLURM/9663641/usccqdma.kQJna8YjYY/Gau-1065347.inp" -scrdir="/mnt/lustre/scratch/nvme/SLURM/9663641/usccqdma.kQJna8YjYY/"
 Default is to use a total of  16 processors:
                               16 via shared-memory
                                1 via Linda
 Entering Link 1 = /opt/cesga/2020/software/Core/g16/c1/l1.exe PID=   1065373.
  
 Copyright (c) 1988-2019, Gaussian, Inc.  All Rights Reserved.
  
 This is part of the Gaussian(R) 16 program.  It is based on
 the Gaussian(R) 09 system (copyright 2009, Gaussian, Inc.),
 the Gaussian(R) 03 system (copyright 2003, Gaussian, Inc.),
 the Gaussian(R) 98 system (copyright 1998, Gaussian, Inc.),
 the Gaussian(R) 94 system (copyright 1995, Gaussian, Inc.),
 the Gaussian 92(TM) system (copyright 1992, Gaussian, Inc.),
 the Gaussian 90(TM) system (copyright 1990, Gaussian, Inc.),
 the Gaussian 88(TM) system (copyright 1988, Gaussian, Inc.),
 the Gaussian 86(TM) system (copyright 1986, Carnegie Mellon
 University), and the Gaussian 82(TM) system (copyright 1983,
 Carnegie Mellon University). Gaussian is a federally registered
 trademark of Gaussian, Inc.
  
 This software contains proprietary and confidential information,
 including trade secrets, belonging to Gaussian, Inc.
  
 This software is provided under written license and may be
 used, copied, transmitted, or stored only in accord with that
 written license.
  
 The following legend is applicable only to US Government
 contracts under FAR:
  
                    RESTRICTED RIGHTS LEGEND
  
 Use, reproduction and disclosure by the US Government is
 subject to restrictions as set forth in subparagraphs (a)
 and (c) of the Commercial Computer Software - Restricted
 Rights clause in FAR 52.227-19.
  
 Gaussian, Inc.
 340 Quinnipiac St., Bldg. 40, Wallingford CT 06492
  
  
 ---------------------------------------------------------------
 Warning -- This program may not be used in any manner that
 competes with the business of Gaussian, Inc. or will provide
 assistance to any competitor of Gaussian, Inc.  The licensee
 of this program is prohibited from giving any competitor of
 Gaussian, Inc. access to this program.  By using this program,
 the user acknowledges that Gaussian, Inc. is engaged in the
 business of creating and licensing software in the field of
 computational chemistry and represents and warrants to the
 licensee that it is not a competitor of Gaussian, Inc. and that
 it will not use this program in any manner prohibited above.
 ---------------------------------------------------------------
  

 Cite this work as:
 Gaussian 16, Revision C.01,
 M. J. Frisch, G. W. Trucks, H. B. Schlegel, G. E. Scuseria, 
 M. A. Robb, J. R. Cheeseman, G. Scalmani, V. Barone, 
 G. A. Petersson, H. Nakatsuji, X. Li, M. Caricato, A. V. Marenich, 
 J. Bloino, B. G. Janesko, R. Gomperts, B. Mennucci, H. P. Hratchian, 
 J. V. Ortiz, A. F. Izmaylov, J. L. Sonnenberg, D. Williams-Young, 
 F. Ding, F. Lipparini, F. Egidi, J. Goings, B. Peng, A. Petrone, 
 T. Henderson, D. Ranasinghe, V. G. Zakrzewski, J. Gao, N. Rega, 
 G. Zheng, W. Liang, M. Hada, M. Ehara, K. Toyota, R. Fukuda, 
 J. Hasegawa, M. Ishida, T. Nakajima, Y. Honda, O. Kitao, H. Nakai, 
 T. Vreven, K. Throssell, J. A. Montgomery, Jr., J. E. Peralta, 
 F. Ogliaro, M. J. Bearpark, J. J. Heyd, E. N. Brothers, K. N. Kudin, 
 V. N. Staroverov, T. A. Keith, R. Kobayashi, J. Normand, 
 K. Raghavachari, A. P. Rendell, J. C. Burant, S. S. Iyengar, 
 J. Tomasi, M. Cossi, J. M. Millam, M. Klene, C. Adamo, R. Cammi, 
 J. W. Ochterski, R. L. Martin, K. Morokuma, O. Farkas, 
 J. B. Foresman, and D. J. Fox, Gaussian, Inc., Wallingford CT, 2019.
 
 ******************************************
 Gaussian 16:  ES64L-G16RevC.01  3-Jul-2019
                 7-Dec-2024 
 ******************************************
 Default route: SCF=Direct
 ----------------------------------------------------
 # m06/genecp scf=tight int=ultrafine 5d freq=noraman
 ----------------------------------------------------
 1/10=4,30=1,38=1/1,3;
 2/12=2,17=6,18=5,40=1/2;
 3/5=7,8=1,11=2,16=1,17=8,25=1,30=1,71=2,74=-54,75=-5,140=1/1,2,3;
 4//1;
 5/5=2,32=2,38=5,98=1/2;
 8/6=4,10=90,11=11/1;
 11/6=1,8=1,9=11,15=111,16=1/1,2,10;
 10/6=1/2;
 6/7=2,8=2,9=2,10=2,28=1/1;
 7/8=1,10=1,25=1/1,2,3,16;
 1/10=4,30=1/3;
 99//99;
 ------
 OPT-TS
 ------
 Symbolic Z-matrix:
 Charge =  0 Multiplicity = 1
 C                     2.22597  -1.6158    1.06798 
 C                     2.8001    0.46992   0.2492 
 C                     4.11299   0.32573   0.6812 
 C                     4.47535  -0.83796   1.34819 
 C                     3.51823  -1.81624   1.55157 
 C                     1.15174  -2.61525   1.20963 
 C                    -1.07214  -3.16467   0.77388 
 C                    -0.9539   -4.36838   1.45206 
 C                     0.2698   -4.70097   2.02063 
 C                     1.32756  -3.81426   1.89973 
 H                     2.45123   1.37619  -0.24704 
 H                     5.49774  -0.98003   1.69062 
 H                     3.79317  -2.73839   2.05483 
 H                    -2.00566  -2.84259   0.31291 
 H                     0.4009   -5.63941   2.55536 
 H                     2.28923  -4.05573   2.34296 
 N                     1.88863  -0.48074   0.43309 
 N                    -0.04357  -2.31015   0.65042 
 Ir                   -0.20534  -0.46435  -0.46486 
 O                    -2.34161  -0.30891   1.7774 
 O                    -3.03808  -1.5059   -0.94327 
 O                     0.44166   2.47449  -0.00686 
 B                    -2.03151  -0.61658  -1.31524 
 B                    -1.07531   0.10415   1.42005 
 B                    -0.6002    1.55417  -0.12748 
 O                    -1.82561   2.20866  -0.1439 
 O                    -0.3703    0.55842   2.52379 
 C                    -1.12137   0.19636   3.69754 
 C                    -2.56985   0.07777   3.14079 
 C                    -0.13773   3.77066   0.21215 
 C                    -1.55675   3.59591  -0.40178 
 C                    -4.26189  -1.00289  -1.50328 
 C                    -3.75238  -0.29157  -2.78727 
 O                    -2.45325   0.15929  -2.3872 
 C                    -3.42648  -0.9785    3.81038 
 H                    -2.99843  -1.98081   3.69099 
 H                    -3.5438   -0.76989   4.88364 
 H                    -4.42562  -0.98509   3.35572 
 C                    -3.3138    1.40517   3.10458 
 H                    -2.7127    2.18074   2.61264 
 H                    -4.22855   1.27737   2.51178 
 H                    -3.59271   1.74995   4.10945 
 C                    -0.55672  -1.13348   4.18175 
 H                    -1.00854  -1.45207   5.13072 
 H                    -0.7134   -1.92721   3.43819 
 H                     0.52512  -1.02093   4.33309 
 C                    -0.92613   1.25466   4.76356 
 H                     0.12539   1.27537   5.07713 
 H                    -1.18767   2.25449   4.40034 
 H                    -1.54057   1.0338    5.64839 
 C                    -5.21533  -2.15446  -1.74424 
 H                    -6.12282  -1.80716  -2.25898 
 H                    -4.75368  -2.94486  -2.34657 
 H                    -5.51976  -2.59221  -0.78461 
 C                    -4.8504   -0.03584  -0.48083 
 H                    -4.17907   0.81765  -0.30731 
 H                    -5.83744   0.33461  -0.79068 
 H                    -4.95673  -0.56651   0.4745 
 C                    -3.55769  -1.24325  -3.96018 
 H                    -2.98238  -2.12828  -3.65753 
 H                    -4.51324  -1.57351  -4.3901 
 H                    -2.98872  -0.72392  -4.74218 
 C                    -4.57588   0.90661  -3.21538 
 H                    -4.59226   1.67484  -2.43338 
 H                    -4.13926   1.35231  -4.11892 
 H                    -5.61075   0.61437  -3.44598 
 C                    -2.64587   4.43442   0.23368 
 H                    -2.74742   4.23015   1.30547 
 H                    -2.44382   5.50679   0.09967 
 H                    -3.60781   4.20694  -0.24483 
 C                    -1.57773   3.77558  -1.9149 
 H                    -2.5398    3.41357  -2.298 
 H                    -1.45775   4.82797  -2.20544 
 H                    -0.78961   3.18337  -2.39974 
 C                     0.72354   4.81534  -0.46898 
 H                     0.89517   4.57311  -1.52362 
 H                     0.25447   5.80793  -0.40843 
 H                     1.70072   4.87324   0.02762 
 C                    -0.15779   4.01336   1.71425 
 H                    -0.52484   5.0184    1.96244 
 H                    -0.77718   3.26567   2.22492 
 H                     0.86372   3.9104    2.10124 
 H                    -0.15436   0.73191  -1.56279 
 C                     3.01002  -1.38872  -2.38274 
 O                     3.20388  -2.3064   -1.58529 
 C                     4.18115  -0.63294  -2.99751 
 H                     4.16567  -0.76885  -4.09072 
 H                     4.04612   0.44824  -2.83687 
 C                     0.58507  -1.60877  -2.14766 
 H                    -0.16512  -1.72251  -2.94397 
 H                     0.88023  -2.60882  -1.81146 
 N                     1.76208  -0.99742  -2.76288 
 C                     1.52689   0.17896  -3.57055 
 H                     0.50686   0.12954  -3.97061 
 H                     1.60451   1.11375  -2.98627 
 H                     2.22185   0.2361   -4.41566 
 C                     5.51397  -1.08405  -2.43284 
 H                     5.57841  -0.87244  -1.35784 
 H                     5.6454   -2.16429  -2.55435 
 C                     5.08654   1.44049   0.46247 
 F                     6.35074   1.01502   0.55861 
 F                     4.9341    1.99464  -0.74582 
 F                     4.92339   2.41627   1.36276 
 H                    -1.81318  -5.03002   1.52364 
 H                     6.34269  -0.56665  -2.93079 
 

 GradGradGradGradGradGradGradGradGradGradGradGradGradGradGradGradGradGrad
 Berny optimization.
 Initialization pass.
 Trust Radius=3.00D-01 FncErr=1.00D-07 GrdErr=1.00D-07 EigMax=2.50D+02 EigMin=1.00D-04
 Number of steps in this run=      2 maximum allowed number of steps=      2.
 GradGradGradGradGradGradGradGradGradGradGradGradGradGradGradGradGradGrad

 Stoichiometry    C34H54B3F3IrN3O7
 Framework group  C1[X(C34H54B3F3IrN3O7)]
 Deg. of freedom   309
 Full point group                 C1      NOp   1
 Largest Abelian subgroup         C1      NOp   1
 Largest concise Abelian subgroup C1      NOp   1
                         Standard orientation:                         
 ---------------------------------------------------------------------
 Center     Atomic      Atomic             Coordinates (Angstroms)
 Number     Number       Type             X           Y           Z
 ---------------------------------------------------------------------
      1          6           0        2.225970   -1.615801    1.067980
      2          6           0        2.800101    0.469919    0.249200
      3          6           0        4.112991    0.325729    0.681200
      4          6           0        4.475350   -0.837961    1.348190
      5          6           0        3.518230   -1.816241    1.551570
      6          6           0        1.151740   -2.615251    1.209630
      7          6           0       -1.072140   -3.164671    0.773880
      8          6           0       -0.953900   -4.368381    1.452060
      9          6           0        0.269800   -4.700971    2.020630
     10          6           0        1.327560   -3.814261    1.899730
     11          1           0        2.451231    1.376189   -0.247040
     12          1           0        5.497740   -0.980032    1.690620
     13          1           0        3.793170   -2.738391    2.054830
     14          1           0       -2.005660   -2.842591    0.312910
     15          1           0        0.400900   -5.639411    2.555360
     16          1           0        2.289230   -4.055731    2.342960
     17          7           0        1.888630   -0.480741    0.433090
     18          7           0       -0.043570   -2.310151    0.650420
     19         77           0       -0.205340   -0.464351   -0.464860
     20          8           0       -2.341610   -0.308911    1.777400
     21          8           0       -3.038080   -1.505900   -0.943270
     22          8           0        0.441661    2.474489   -0.006860
     23          5           0       -2.031510   -0.616581   -1.315240
     24          5           0       -1.075310    0.104149    1.420050
     25          5           0       -0.600199    1.554169   -0.127480
     26          8           0       -1.825609    2.208659   -0.143900
     27          8           0       -0.370299    0.558419    2.523790
     28          6           0       -1.121369    0.196359    3.697540
     29          6           0       -2.569850    0.077769    3.140790
     30          6           0       -0.137729    3.770659    0.212150
     31          6           0       -1.556749    3.595909   -0.401780
     32          6           0       -4.261890   -1.002890   -1.503280
     33          6           0       -3.752380   -0.291570   -2.787270
     34          8           0       -2.453249    0.159289   -2.387200
     35          6           0       -3.426480   -0.978500    3.810380
     36          1           0       -2.998430   -1.980810    3.690990
     37          1           0       -3.543800   -0.769890    4.883640
     38          1           0       -4.425620   -0.985090    3.355720
     39          6           0       -3.313799    1.405170    3.104580
     40          1           0       -2.712699    2.180739    2.612640
     41          1           0       -4.228549    1.277370    2.511780
     42          1           0       -3.592709    1.749950    4.109450
     43          6           0       -0.556720   -1.133481    4.181750
     44          1           0       -1.008540   -1.452071    5.130720
     45          1           0       -0.713400   -1.927211    3.438190
     46          1           0        0.525120   -1.020931    4.333090
     47          6           0       -0.926129    1.254659    4.763560
     48          1           0        0.125391    1.275369    5.077130
     49          1           0       -1.187669    2.254489    4.400340
     50          1           0       -1.540569    1.033799    5.648390
     51          6           0       -5.215330   -2.154460   -1.744240
     52          1           0       -6.122820   -1.807160   -2.258980
     53          1           0       -4.753680   -2.944860   -2.346570
     54          1           0       -5.519760   -2.592210   -0.784610
     55          6           0       -4.850400   -0.035840   -0.480830
     56          1           0       -4.179069    0.817650   -0.307310
     57          1           0       -5.837439    0.334610   -0.790680
     58          1           0       -4.956730   -0.566510    0.474500
     59          6           0       -3.557690   -1.243250   -3.960180
     60          1           0       -2.982380   -2.128280   -3.657530
     61          1           0       -4.513240   -1.573510   -4.390100
     62          1           0       -2.988720   -0.723920   -4.742180
     63          6           0       -4.575879    0.906610   -3.215380
     64          1           0       -4.592259    1.674840   -2.433380
     65          1           0       -4.139259    1.352310   -4.118920
     66          1           0       -5.610749    0.614370   -3.445980
     67          6           0       -2.645869    4.434419    0.233680
     68          1           0       -2.747419    4.230149    1.305470
     69          1           0       -2.443819    5.506789    0.099670
     70          1           0       -3.607809    4.206940   -0.244830
     71          6           0       -1.577729    3.775579   -1.914900
     72          1           0       -2.539799    3.413569   -2.298000
     73          1           0       -1.457749    4.827969   -2.205440
     74          1           0       -0.789609    3.183369   -2.399740
     75          6           0        0.723541    4.815339   -0.468980
     76          1           0        0.895171    4.573109   -1.523620
     77          1           0        0.254471    5.807929   -0.408430
     78          1           0        1.700721    4.873239    0.027620
     79          6           0       -0.157789    4.013359    1.714250
     80          1           0       -0.524839    5.018399    1.962440
     81          1           0       -0.777179    3.265669    2.224920
     82          1           0        0.863721    3.910399    2.101240
     83          1           0       -0.154359    0.731909   -1.562790
     84          6           0        3.010020   -1.388721   -2.382740
     85          8           0        3.203880   -2.306401   -1.585290
     86          6           0        4.181150   -0.632941   -2.997510
     87          1           0        4.165670   -0.768851   -4.090720
     88          1           0        4.046121    0.448239   -2.836870
     89          6           0        0.585070   -1.608771   -2.147660
     90          1           0       -0.165120   -1.722511   -2.943970
     91          1           0        0.880230   -2.608821   -1.811460
     92          7           0        1.762080   -0.997421   -2.762880
     93          6           0        1.526891    0.178959   -3.570550
     94          1           0        0.506861    0.129539   -3.970610
     95          1           0        1.604511    1.113749   -2.986270
     96          1           0        2.221851    0.236099   -4.415660
     97          6           0        5.513970   -1.084052   -2.432840
     98          1           0        5.578410   -0.872442   -1.357840
     99          1           0        5.645400   -2.164292   -2.554350
    100          6           0        5.086541    1.440489    0.462470
    101          9           0        6.350741    1.015018    0.558610
    102          9           0        4.934101    1.994639   -0.745820
    103          9           0        4.923391    2.416269    1.362760
    104          1           0       -1.813180   -5.030021    1.523640
    105          1           0        6.342690   -0.566652   -2.930790
 ---------------------------------------------------------------------
 Rotational constants (GHZ):           0.0741508           0.0501023           0.0490788
 General basis read from cards:  (5D, 7F)
 ======================================================================================================
                                       Pseudopotential Parameters
 ======================================================================================================
  Center     Atomic      Valence      Angular      Power
  Number     Number     Electrons     Momentum     of R      Exponent        Coefficient   SO-Coeffient
 ======================================================================================================
    1          6
                                   No pseudopotential on this center.
    2          6
                                   No pseudopotential on this center.
    3          6
                                   No pseudopotential on this center.
    4          6
                                   No pseudopotential on this center.
    5          6
                                   No pseudopotential on this center.
    6          6
                                   No pseudopotential on this center.
    7          6
                                   No pseudopotential on this center.
    8          6
                                   No pseudopotential on this center.
    9          6
                                   No pseudopotential on this center.
   10          6
                                   No pseudopotential on this center.
   11          1
                                   No pseudopotential on this center.
   12          1
                                   No pseudopotential on this center.
   13          1
                                   No pseudopotential on this center.
   14          1
                                   No pseudopotential on this center.
   15          1
                                   No pseudopotential on this center.
   16          1
                                   No pseudopotential on this center.
   17          7
                                   No pseudopotential on this center.
   18          7
                                   No pseudopotential on this center.
   19         77           17
                                      G and up 
                                                     1      823.5880147       -0.15780140    0.00000000
                                                     2      364.6613336    -1517.52704460    0.00000000
                                                     2       55.7082801     -316.53065290    0.00000000
                                                     2       12.0464544      -91.88809410    0.00000000
                                                     2        3.5120610       -9.22417730    0.00000000
                                      S - G
                                                     0      188.0490770        3.15780140    0.00000000
                                                     1      340.4194712       26.83225770    0.00000000
                                                     2      128.2373673      800.42500070    0.00000000
                                                     2       33.8644961      369.40506830    0.00000000
                                                     2        4.7560005      242.41718990    0.00000000
                                                     2        3.9649974     -118.21732820    0.00000000
                                      P - G
                                                     0      289.7291139        2.15780140    0.00000000
                                                     1       87.4633789       61.96786100    0.00000000
                                                     2       30.4363766      269.05819860    0.00000000
                                                     2        4.0553412      231.16547930    0.00000000
                                                     2        3.5525341     -133.69526670    0.00000000
                                      D - G
                                                     0      136.4017106        3.15780140    0.00000000
                                                     1       95.0776925       45.93498030    0.00000000
                                                     2       49.2258410      359.03446680    0.00000000
                                                     2       15.0874145      176.47401190    0.00000000
                                                     2        4.0405764       54.51552860    0.00000000
                                      F - G
                                                     0      127.3507908        3.95461970    0.00000000
                                                     1       66.2364374       52.97736550    0.00000000
                                                     2       34.4299229      274.86433830    0.00000000
                                                     2       10.1995721      137.20473380    0.00000000
                                                     2        2.5409702       14.86333050    0.00000000
   20          8
                                   No pseudopotential on this center.
   21          8
                                   No pseudopotential on this center.
   22          8
                                   No pseudopotential on this center.
   23          5
                                   No pseudopotential on this center.
   24          5
                                   No pseudopotential on this center.
   25          5
                                   No pseudopotential on this center.
   26          8
                                   No pseudopotential on this center.
   27          8
                                   No pseudopotential on this center.
   28          6
                                   No pseudopotential on this center.
   29          6
                                   No pseudopotential on this center.
   30          6
                                   No pseudopotential on this center.
   31          6
                                   No pseudopotential on this center.
   32          6
                                   No pseudopotential on this center.
   33          6
                                   No pseudopotential on this center.
   34          8
                                   No pseudopotential on this center.
   35          6
                                   No pseudopotential on this center.
   36          1
                                   No pseudopotential on this center.
   37          1
                                   No pseudopotential on this center.
   38          1
                                   No pseudopotential on this center.
   39          6
                                   No pseudopotential on this center.
   40          1
                                   No pseudopotential on this center.
   41          1
                                   No pseudopotential on this center.
   42          1
                                   No pseudopotential on this center.
   43          6
                                   No pseudopotential on this center.
   44          1
                                   No pseudopotential on this center.
   45          1
                                   No pseudopotential on this center.
   46          1
                                   No pseudopotential on this center.
   47          6
                                   No pseudopotential on this center.
   48          1
                                   No pseudopotential on this center.
   49          1
                                   No pseudopotential on this center.
   50          1
                                   No pseudopotential on this center.
   51          6
                                   No pseudopotential on this center.
   52          1
                                   No pseudopotential on this center.
   53          1
                                   No pseudopotential on this center.
   54          1
                                   No pseudopotential on this center.
   55          6
                                   No pseudopotential on this center.
   56          1
                                   No pseudopotential on this center.
   57          1
                                   No pseudopotential on this center.
   58          1
                                   No pseudopotential on this center.
   59          6
                                   No pseudopotential on this center.
   60          1
                                   No pseudopotential on this center.
   61          1
                                   No pseudopotential on this center.
   62          1
                                   No pseudopotential on this center.
   63          6
                                   No pseudopotential on this center.
   64          1
                                   No pseudopotential on this center.
   65          1
                                   No pseudopotential on this center.
   66          1
                                   No pseudopotential on this center.
   67          6
                                   No pseudopotential on this center.
   68          1
                                   No pseudopotential on this center.
   69          1
                                   No pseudopotential on this center.
   70          1
                                   No pseudopotential on this center.
   71          6
                                   No pseudopotential on this center.
   72          1
                                   No pseudopotential on this center.
   73          1
                                   No pseudopotential on this center.
   74          1
                                   No pseudopotential on this center.
   75          6
                                   No pseudopotential on this center.
   76          1
                                   No pseudopotential on this center.
   77          1
                                   No pseudopotential on this center.
   78          1
                                   No pseudopotential on this center.
   79          6
                                   No pseudopotential on this center.
   80          1
                                   No pseudopotential on this center.
   81          1
                                   No pseudopotential on this center.
   82          1
                                   No pseudopotential on this center.
   83          1
                                   No pseudopotential on this center.
   84          6
                                   No pseudopotential on this center.
   85          8
                                   No pseudopotential on this center.
   86          6
                                   No pseudopotential on this center.
   87          1
                                   No pseudopotential on this center.
   88          1
                                   No pseudopotential on this center.
   89          6
                                   No pseudopotential on this center.
   90          1
                                   No pseudopotential on this center.
   91          1
                                   No pseudopotential on this center.
   92          7
                                   No pseudopotential on this center.
   93          6
                                   No pseudopotential on this center.
   94          1
                                   No pseudopotential on this center.
   95          1
                                   No pseudopotential on this center.
   96          1
                                   No pseudopotential on this center.
   97          6
                                   No pseudopotential on this center.
   98          1
                                   No pseudopotential on this center.
   99          1
                                   No pseudopotential on this center.
  100          6
                                   No pseudopotential on this center.
  101          9
                                   No pseudopotential on this center.
  102          9
                                   No pseudopotential on this center.
  103          9
                                   No pseudopotential on this center.
  104          1
                                   No pseudopotential on this center.
  105          1
                                   No pseudopotential on this center.
 ======================================================================================================
 There are   882 symmetry adapted cartesian basis functions of A   symmetry.
 There are   830 symmetry adapted basis functions of A   symmetry.
   830 basis functions,  1659 primitive gaussians,   882 cartesian basis functions
   197 alpha electrons      197 beta electrons
       nuclear repulsion energy      8622.1410867019 Hartrees.
 NAtoms=  105 NActive=  105 NUniq=  105 SFac= 1.00D+00 NAtFMM=   60 NAOKFM=T Big=T
 Integral buffers will be    131072 words long.
 Raffenetti 2 integral format.
 Two-electron integral symmetry is turned on.
 One-electron integrals computed using PRISM.
   1 Symmetry operations used in ECPInt.
 ECPInt:  NShTT=   50086 NPrTT=  307226 LenC2=   38920 LenP2D=  121240.
 LDataN:  DoStor=T MaxTD1= 6 Len=  172
 NBasis=   830 RedAO= T EigKep=  4.60D-04  NBF=   830
 NBsUse=   830 1.00D-06 EigRej= -1.00D+00 NBFU=   830
 Defaulting to unpruned grid for atomic number  77.
 ExpMin= 2.90D-02 ExpMax= 7.00D+03 ExpMxC= 1.05D+03 IAcc=3 IRadAn=         5 AccDes= 0.00D+00
 Harris functional with IExCor= 1009 and IRadAn=       5 diagonalized for initial guess.
 HarFok:  IExCor= 1009 AccDes= 0.00D+00 IRadAn=         5 IDoV= 1 UseB2=F ITyADJ=14
 ICtDFT=  3500011 ScaDFX=  1.000000  1.000000  1.000000  1.000000
 Defaulting to unpruned grid for atomic number  77.
 FoFCou: FMM=F IPFlag=           0 FMFlag=      100000 FMFlg1=        2001
         NFxFlg=           0 DoJE=T BraDBF=F KetDBF=T FulRan=T
         wScrn=  0.000000 ICntrl=       500 IOpCl=  0 I1Cent=   200000004 NGrid=           0
         NMat0=    1 NMatS0=      1 NMatT0=    0 NMatD0=    1 NMtDS0=    0 NMtDT0=    0
 Petite list used in FoFCou.
 Requested convergence on RMS density matrix=1.00D-08 within 128 cycles.
 Requested convergence on MAX density matrix=1.00D-06.
 Requested convergence on             energy=1.00D-06.
 No special actions if energy rises.
 Defaulting to unpruned grid for atomic number  77.
 Defaulting to unpruned grid for atomic number  77.
 Defaulting to unpruned grid for atomic number  77.
 Defaulting to unpruned grid for atomic number  77.
 Defaulting to unpruned grid for atomic number  77.
 Defaulting to unpruned grid for atomic number  77.
 Defaulting to unpruned grid for atomic number  77.
 Defaulting to unpruned grid for atomic number  77.
 Defaulting to unpruned grid for atomic number  77.
 Defaulting to unpruned grid for atomic number  77.
 Defaulting to unpruned grid for atomic number  77.
 Defaulting to unpruned grid for atomic number  77.
 Defaulting to unpruned grid for atomic number  77.
 Defaulting to unpruned grid for atomic number  77.
 Defaulting to unpruned grid for atomic number  77.
 Defaulting to unpruned grid for atomic number  77.
 SCF Done:  E(RM06) =  -2496.62476775     A.U. after   14 cycles
            NFock= 14  Conv=0.82D-08     -V/T= 2.0359
 DoSCS=F DFT=T ScalE2(SS,OS)=  1.000000  1.000000
 Range of M.O.s used for correlation:     1   830
 NBasis=   830 NAE=   197 NBE=   197 NFC=     0 NFV=     0
 NROrb=    830 NOA=   197 NOB=   197 NVA=   633 NVB=   633

 **** Warning!!: The largest alpha MO coefficient is  0.12410305D+02

   1 Symmetry operations used in ECPInt.
 ECPInt:  NShTT=   50086 NPrTT=  307226 LenC2=   38920 LenP2D=  121240.
 LDataN:  DoStor=T MaxTD1= 7 Len=  274
 Number of processors reduced to   8 by ecpmxn.
 Symmetrizing basis deriv contribution to polar:
 IMax=3 JMax=2 DiffMx= 0.00D+00
 G2DrvN: will do   106 centers at a time, making    1 passes.
 Calling FoFCou, ICntrl=  3107 FMM=T I1Cent=   0 AccDes= 0.00D+00.
 Defaulting to unpruned grid for atomic number  77.
 Defaulting to unpruned grid for atomic number  77.
 Defaulting to unpruned grid for atomic number  77.
 Defaulting to unpruned grid for atomic number  77.
 Defaulting to unpruned grid for atomic number  77.
 Defaulting to unpruned grid for atomic number  77.
 Defaulting to unpruned grid for atomic number  77.
 Defaulting to unpruned grid for atomic number  77.
 Defaulting to unpruned grid for atomic number  77.
 Defaulting to unpruned grid for atomic number  77.
 Defaulting to unpruned grid for atomic number  77.
 Defaulting to unpruned grid for atomic number  77.
 Defaulting to unpruned grid for atomic number  77.
 Defaulting to unpruned grid for atomic number  77.
 Defaulting to unpruned grid for atomic number  77.
 Defaulting to unpruned grid for atomic number  77.
 End of G2Drv F.D. properties file   721 does not exist.
 End of G2Drv F.D. properties file   722 does not exist.
 End of G2Drv F.D. properties file   788 does not exist.
          IDoAtm=11111111111111111111111111111111111111111111111111
          IDoAtm=11111111111111111111111111111111111111111111111111
          IDoAtm=11111
          Differentiating once with respect to electric field.
                with respect to dipole field.
          Differentiating once with respect to nuclear coordinates.
 Defaulting to unpruned grid for atomic number  77.
 CalDSu exits because no D1Ps are significant.
 Defaulting to unpruned grid for atomic number  77.
 Defaulting to unpruned grid for atomic number  77.
 Defaulting to unpruned grid for atomic number  77.
 Defaulting to unpruned grid for atomic number  77.
 Defaulting to unpruned grid for atomic number  77.
 Defaulting to unpruned grid for atomic number  77.
 Defaulting to unpruned grid for atomic number  77.
 Defaulting to unpruned grid for atomic number  77.
 Defaulting to unpruned grid for atomic number  77.
 Defaulting to unpruned grid for atomic number  77.
 Defaulting to unpruned grid for atomic number  77.
 Defaulting to unpruned grid for atomic number  77.
 Defaulting to unpruned grid for atomic number  77.
 Defaulting to unpruned grid for atomic number  77.
 Defaulting to unpruned grid for atomic number  77.
 Defaulting to unpruned grid for atomic number  77.
          There are   318 degrees of freedom in the 1st order CPHF.  IDoFFX=6 NUNeed=     3.
    315 vectors produced by pass  0 Test12= 1.25D-13 1.00D-09 XBig12= 4.69D+02 7.34D+00.
 AX will form    72 AO Fock derivatives at one time.
    315 vectors produced by pass  1 Test12= 1.25D-13 1.00D-09 XBig12= 7.34D+01 9.70D-01.
    315 vectors produced by pass  2 Test12= 1.25D-13 1.00D-09 XBig12= 8.73D-01 6.58D-02.
    315 vectors produced by pass  3 Test12= 1.25D-13 1.00D-09 XBig12= 5.36D-03 4.88D-03.
    315 vectors produced by pass  4 Test12= 1.25D-13 1.00D-09 XBig12= 2.01D-05 2.55D-04.
    278 vectors produced by pass  5 Test12= 1.25D-13 1.00D-09 XBig12= 4.05D-08 1.06D-05.
     75 vectors produced by pass  6 Test12= 1.25D-13 1.00D-09 XBig12= 6.44D-11 5.56D-07.
      3 vectors produced by pass  7 Test12= 1.25D-13 1.00D-09 XBig12= 8.78D-14 1.85D-08.
 InvSVY:  IOpt=1 It=  1 EMax= 1.42D-14
 Solved reduced A of dimension  1931 with   318 vectors.
 Isotropic polarizability for W=    0.000000      472.51 Bohr**3.
 End of Minotr F.D. properties file   721 does not exist.
 End of Minotr F.D. properties file   722 does not exist.
 End of Minotr F.D. properties file   788 does not exist.
 Hyperfine terms turned off by default for NAtoms > 100.

 **********************************************************************

            Population analysis using the SCF Density.

 **********************************************************************

 Orbital symmetries:
       Occupied  (A) (A) (A) (A) (A) (A) (A) (A) (A) (A) (A) (A)
                 (A) (A) (A) (A) (A) (A) (A) (A) (A) (A) (A) (A)
                 (A) (A) (A) (A) (A) (A) (A) (A) (A) (A) (A) (A)
                 (A) (A) (A) (A) (A) (A) (A) (A) (A) (A) (A) (A)
                 (A) (A) (A) (A) (A) (A) (A) (A) (A) (A) (A) (A)
                 (A) (A) (A) (A) (A) (A) (A) (A) (A) (A) (A) (A)
                 (A) (A) (A) (A) (A) (A) (A) (A) (A) (A) (A) (A)
                 (A) (A) (A) (A) (A) (A) (A) (A) (A) (A) (A) (A)
                 (A) (A) (A) (A) (A) (A) (A) (A) (A) (A) (A) (A)
                 (A) (A) (A) (A) (A) (A) (A) (A) (A) (A) (A) (A)
                 (A) (A) (A) (A) (A) (A) (A) (A) (A) (A) (A) (A)
                 (A) (A) (A) (A) (A) (A) (A) (A) (A) (A) (A) (A)
                 (A) (A) (A) (A) (A) (A) (A) (A) (A) (A) (A) (A)
                 (A) (A) (A) (A) (A) (A) (A) (A) (A) (A) (A) (A)
                 (A) (A) (A) (A) (A) (A) (A) (A) (A) (A) (A) (A)
                 (A) (A) (A) (A) (A) (A) (A) (A) (A) (A) (A) (A)
                 (A) (A) (A) (A) (A)
       Virtual   (A) (A) (A) (A) (A) (A) (A) (A) (A) (A) (A) (A)
                 (A) (A) (A) (A) (A) (A) (A) (A) (A) (A) (A) (A)
                 (A) (A) (A) (A) (A) (A) (A) (A) (A) (A) (A) (A)
                 (A) (A) (A) (A) (A) (A) (A) (A) (A) (A) (A) (A)
                 (A) (A) (A) (A) (A) (A) (A) (A) (A) (A) (A) (A)
                 (A) (A) (A) (A) (A) (A) (A) (A) (A) (A) (A) (A)
                 (A) (A) (A) (A) (A) (A) (A) (A) (A) (A) (A) (A)
                 (A) (A) (A) (A) (A) (A) (A) (A) (A) (A) (A) (A)
                 (A) (A) (A) (A) (A) (A) (A) (A) (A) (A) (A) (A)
                 (A) (A) (A) (A) (A) (A) (A) (A) (A) (A) (A) (A)
                 (A) (A) (A) (A) (A) (A) (A) (A) (A) (A) (A) (A)
                 (A) (A) (A) (A) (A) (A) (A) (A) (A) (A) (A) (A)
                 (A) (A) (A) (A) (A) (A) (A) (A) (A) (A) (A) (A)
                 (A) (A) (A) (A) (A) (A) (A) (A) (A) (A) (A) (A)
                 (A) (A) (A) (A) (A) (A) (A) (A) (A) (A) (A) (A)
                 (A) (A) (A) (A) (A) (A) (A) (A) (A) (A) (A) (A)
                 (A) (A) (A) (A) (A) (A) (A) (A) (A) (A) (A) (A)
                 (A) (A) (A) (A) (A) (A) (A) (A) (A) (A) (A) (A)
                 (A) (A) (A) (A) (A) (A) (A) (A) (A) (A) (A) (A)
                 (A) (A) (A) (A) (A) (A) (A) (A) (A) (A) (A) (A)
                 (A) (A) (A) (A) (A) (A) (A) (A) (A) (A) (A) (A)
                 (A) (A) (A) (A) (A) (A) (A) (A) (A) (A) (A) (A)
                 (A) (A) (A) (A) (A) (A) (A) (A) (A) (A) (A) (A)
                 (A) (A) (A) (A) (A) (A) (A) (A) (A) (A) (A) (A)
                 (A) (A) (A) (A) (A) (A) (A) (A) (A) (A) (A) (A)
                 (A) (A) (A) (A) (A) (A) (A) (A) (A) (A) (A) (A)
                 (A) (A) (A) (A) (A) (A) (A) (A) (A) (A) (A) (A)
                 (A) (A) (A) (A) (A) (A) (A) (A) (A) (A) (A) (A)
                 (A) (A) (A) (A) (A) (A) (A) (A) (A) (A) (A) (A)
                 (A) (A) (A) (A) (A) (A) (A) (A) (A) (A) (A) (A)
                 (A) (A) (A) (A) (A) (A) (A) (A) (A) (A) (A) (A)
                 (A) (A) (A) (A) (A) (A) (A) (A) (A) (A) (A) (A)
                 (A) (A) (A) (A) (A) (A) (A) (A) (A) (A) (A) (A)
                 (A) (A) (A) (A) (A) (A) (A) (A) (A) (A) (A) (A)
                 (A) (A) (A) (A) (A) (A) (A) (A) (A) (A) (A) (A)
                 (A) (A) (A) (A) (A) (A) (A) (A) (A) (A) (A) (A)
                 (A) (A) (A) (A) (A) (A) (A) (A) (A) (A) (A) (A)
                 (A) (A) (A) (A) (A) (A) (A) (A) (A) (A) (A) (A)
                 (A) (A) (A) (A) (A) (A) (A) (A) (A) (A) (A) (A)
                 (A) (A) (A) (A) (A) (A) (A) (A) (A) (A) (A) (A)
                 (A) (A) (A) (A) (A) (A) (A) (A) (A) (A) (A) (A)
                 (A) (A) (A) (A) (A) (A) (A) (A) (A) (A) (A) (A)
                 (A) (A) (A) (A) (A) (A) (A) (A) (A) (A) (A) (A)
                 (A) (A) (A) (A) (A) (A) (A) (A) (A) (A) (A) (A)
                 (A) (A) (A) (A) (A) (A) (A) (A) (A) (A) (A) (A)
                 (A) (A) (A) (A) (A) (A) (A) (A) (A) (A) (A) (A)
                 (A) (A) (A) (A) (A) (A) (A) (A) (A) (A) (A) (A)
                 (A) (A) (A) (A) (A) (A) (A) (A) (A) (A) (A) (A)
                 (A) (A) (A) (A) (A) (A) (A) (A) (A) (A) (A) (A)
                 (A) (A) (A) (A) (A) (A) (A) (A) (A) (A) (A) (A)
                 (A) (A) (A) (A) (A) (A) (A) (A) (A) (A) (A) (A)
                 (A) (A) (A) (A) (A) (A) (A) (A) (A) (A) (A) (A)
                 (A) (A) (A) (A) (A) (A) (A) (A) (A)
 The electronic state is 1-A.
 Alpha  occ. eigenvalues --  -24.82831 -24.82561 -24.82154 -19.21368 -19.20887
 Alpha  occ. eigenvalues --  -19.20701 -19.20626 -19.19859 -19.19453 -19.16280
 Alpha  occ. eigenvalues --  -14.46281 -14.44319 -14.40104 -10.51013 -10.32484
 Alpha  occ. eigenvalues --  -10.32228 -10.31825 -10.30667 -10.30317 -10.30186
 Alpha  occ. eigenvalues --  -10.29971 -10.29644 -10.29591 -10.29220 -10.29165
 Alpha  occ. eigenvalues --  -10.28941 -10.28858 -10.28733 -10.28542 -10.28268
 Alpha  occ. eigenvalues --  -10.27988 -10.25748 -10.23572 -10.23489 -10.23473
 Alpha  occ. eigenvalues --  -10.23456 -10.23046 -10.22957 -10.22765 -10.22624
 Alpha  occ. eigenvalues --  -10.22390 -10.22351 -10.22323 -10.22303 -10.22050
 Alpha  occ. eigenvalues --  -10.21938 -10.21427  -6.82096  -6.81121  -6.78912
 Alpha  occ. eigenvalues --   -3.64383  -2.07393  -2.06113  -2.05128  -1.35390
 Alpha  occ. eigenvalues --   -1.26864  -1.26398  -1.07112  -1.06627  -1.05706
 Alpha  occ. eigenvalues --   -1.02020  -1.00375  -1.00139  -0.99724  -0.98726
 Alpha  occ. eigenvalues --   -0.97897  -0.91586  -0.85719  -0.84344  -0.83257
 Alpha  occ. eigenvalues --   -0.81203  -0.80637  -0.79918  -0.79009  -0.76873
 Alpha  occ. eigenvalues --   -0.75631  -0.75109  -0.74381  -0.73526  -0.71158
 Alpha  occ. eigenvalues --   -0.70495  -0.69929  -0.69472  -0.68629  -0.68507
 Alpha  occ. eigenvalues --   -0.68357  -0.67805  -0.67203  -0.67180  -0.65350
 Alpha  occ. eigenvalues --   -0.64392  -0.62562  -0.61767  -0.61407  -0.61252
 Alpha  occ. eigenvalues --   -0.61092  -0.60588  -0.59973  -0.57372  -0.55503
 Alpha  occ. eigenvalues --   -0.55199  -0.54715  -0.54141  -0.53750  -0.53616
 Alpha  occ. eigenvalues --   -0.52841  -0.52414  -0.51140  -0.50363  -0.48942
 Alpha  occ. eigenvalues --   -0.48849  -0.48753  -0.48617  -0.48422  -0.47733
 Alpha  occ. eigenvalues --   -0.47566  -0.47402  -0.47110  -0.46708  -0.46478
 Alpha  occ. eigenvalues --   -0.46322  -0.45876  -0.45799  -0.45384  -0.45139
 Alpha  occ. eigenvalues --   -0.44994  -0.44822  -0.44348  -0.44322  -0.44179
 Alpha  occ. eigenvalues --   -0.44137  -0.43939  -0.43594  -0.43158  -0.42901
 Alpha  occ. eigenvalues --   -0.42672  -0.42578  -0.41916  -0.40720  -0.40626
 Alpha  occ. eigenvalues --   -0.40344  -0.40234  -0.40081  -0.40037  -0.39934
 Alpha  occ. eigenvalues --   -0.39775  -0.39619  -0.39440  -0.39342  -0.39254
 Alpha  occ. eigenvalues --   -0.38882  -0.38742  -0.38438  -0.38264  -0.38154
 Alpha  occ. eigenvalues --   -0.37740  -0.37324  -0.37207  -0.37068  -0.36818
 Alpha  occ. eigenvalues --   -0.36682  -0.36637  -0.36214  -0.36098  -0.35653
 Alpha  occ. eigenvalues --   -0.35492  -0.35458  -0.35384  -0.35197  -0.34854
 Alpha  occ. eigenvalues --   -0.34531  -0.34436  -0.33878  -0.33684  -0.33117
 Alpha  occ. eigenvalues --   -0.32891  -0.32677  -0.32357  -0.32171  -0.31824
 Alpha  occ. eigenvalues --   -0.31498  -0.31286  -0.30860  -0.30466  -0.29840
 Alpha  occ. eigenvalues --   -0.29346  -0.28165  -0.27345  -0.26960  -0.26537
 Alpha  occ. eigenvalues --   -0.26010  -0.25295  -0.24939  -0.23577  -0.23501
 Alpha  occ. eigenvalues --   -0.22411  -0.18337
 Alpha virt. eigenvalues --   -0.07522  -0.04050  -0.03164   0.00821   0.02817
 Alpha virt. eigenvalues --    0.03741   0.05375   0.05893   0.06807   0.06882
 Alpha virt. eigenvalues --    0.07148   0.08325   0.09381   0.09781   0.10225
 Alpha virt. eigenvalues --    0.10251   0.10895   0.10987   0.11501   0.11906
 Alpha virt. eigenvalues --    0.12055   0.12769   0.12834   0.13219   0.13700
 Alpha virt. eigenvalues --    0.13987   0.14173   0.14241   0.14314   0.14681
 Alpha virt. eigenvalues --    0.14859   0.15137   0.15412   0.15633   0.15710
 Alpha virt. eigenvalues --    0.15891   0.16170   0.16329   0.16439   0.16705
 Alpha virt. eigenvalues --    0.17023   0.17309   0.17502   0.17593   0.17938
 Alpha virt. eigenvalues --    0.18038   0.18246   0.18352   0.18659   0.18933
 Alpha virt. eigenvalues --    0.19094   0.19263   0.19326   0.19652   0.19906
 Alpha virt. eigenvalues --    0.19913   0.20101   0.20342   0.20426   0.20807
 Alpha virt. eigenvalues --    0.21203   0.21299   0.21465   0.21748   0.22138
 Alpha virt. eigenvalues --    0.22194   0.22445   0.22638   0.22860   0.23115
 Alpha virt. eigenvalues --    0.23375   0.23531   0.23847   0.24141   0.24224
 Alpha virt. eigenvalues --    0.24433   0.24568   0.24702   0.25136   0.25219
 Alpha virt. eigenvalues --    0.25397   0.25472   0.25893   0.26003   0.26585
 Alpha virt. eigenvalues --    0.27037   0.27116   0.27527   0.27724   0.27967
 Alpha virt. eigenvalues --    0.28148   0.28329   0.28900   0.29138   0.29528
 Alpha virt. eigenvalues --    0.30343   0.30485   0.30820   0.31066   0.31519
 Alpha virt. eigenvalues --    0.32011   0.32880   0.33454   0.33700   0.34387
 Alpha virt. eigenvalues --    0.35885   0.36148   0.36799   0.36818   0.37299
 Alpha virt. eigenvalues --    0.38473   0.38929   0.39728   0.40277   0.41417
 Alpha virt. eigenvalues --    0.41600   0.42538   0.43870   0.45115   0.46494
 Alpha virt. eigenvalues --    0.47088   0.48036   0.48209   0.48551   0.49252
 Alpha virt. eigenvalues --    0.49498   0.49894   0.50012   0.50313   0.51448
 Alpha virt. eigenvalues --    0.51805   0.51949   0.52421   0.52639   0.52994
 Alpha virt. eigenvalues --    0.53753   0.54101   0.54357   0.54634   0.54903
 Alpha virt. eigenvalues --    0.55436   0.55720   0.56067   0.56568   0.56868
 Alpha virt. eigenvalues --    0.56893   0.57134   0.57678   0.57797   0.57951
 Alpha virt. eigenvalues --    0.58116   0.58226   0.58422   0.58640   0.59105
 Alpha virt. eigenvalues --    0.59507   0.59754   0.59907   0.60137   0.60564
 Alpha virt. eigenvalues --    0.60659   0.61121   0.61246   0.61851   0.62335
 Alpha virt. eigenvalues --    0.62663   0.63367   0.63612   0.63902   0.64292
 Alpha virt. eigenvalues --    0.64642   0.64846   0.65205   0.66218   0.66259
 Alpha virt. eigenvalues --    0.66483   0.66873   0.67071   0.67608   0.67802
 Alpha virt. eigenvalues --    0.68032   0.68628   0.68946   0.69432   0.69793
 Alpha virt. eigenvalues --    0.69970   0.70147   0.70861   0.71146   0.71491
 Alpha virt. eigenvalues --    0.72104   0.72176   0.72277   0.72602   0.72871
 Alpha virt. eigenvalues --    0.73225   0.73501   0.74014   0.74221   0.74391
 Alpha virt. eigenvalues --    0.75107   0.75561   0.75769   0.76371   0.76752
 Alpha virt. eigenvalues --    0.77023   0.77881   0.78020   0.78514   0.78747
 Alpha virt. eigenvalues --    0.78889   0.79399   0.79810   0.80504   0.80655
 Alpha virt. eigenvalues --    0.81647   0.82092   0.82357   0.82450   0.82725
 Alpha virt. eigenvalues --    0.83185   0.83468   0.83783   0.83958   0.83999
 Alpha virt. eigenvalues --    0.84473   0.84698   0.85156   0.85302   0.85433
 Alpha virt. eigenvalues --    0.85782   0.85909   0.86253   0.86594   0.86873
 Alpha virt. eigenvalues --    0.87156   0.87330   0.87823   0.88380   0.88579
 Alpha virt. eigenvalues --    0.88630   0.88898   0.89136   0.89515   0.89708
 Alpha virt. eigenvalues --    0.89912   0.89970   0.90233   0.90340   0.90588
 Alpha virt. eigenvalues --    0.90858   0.91289   0.91331   0.91497   0.91728
 Alpha virt. eigenvalues --    0.92221   0.92360   0.92846   0.93146   0.93489
 Alpha virt. eigenvalues --    0.93825   0.94325   0.94426   0.94545   0.95246
 Alpha virt. eigenvalues --    0.95314   0.95555   0.95867   0.96487   0.96970
 Alpha virt. eigenvalues --    0.97098   0.97551   0.97934   0.98138   0.98309
 Alpha virt. eigenvalues --    0.98895   0.99075   0.99414   1.00000   1.00425
 Alpha virt. eigenvalues --    1.00782   1.01183   1.01470   1.02533   1.02925
 Alpha virt. eigenvalues --    1.03289   1.03755   1.04661   1.04910   1.05701
 Alpha virt. eigenvalues --    1.05978   1.06919   1.07199   1.07854   1.08037
 Alpha virt. eigenvalues --    1.08394   1.09202   1.09642   1.10140   1.11006
 Alpha virt. eigenvalues --    1.11733   1.12507   1.12840   1.13301   1.13842
 Alpha virt. eigenvalues --    1.14608   1.15283   1.16391   1.17055   1.17721
 Alpha virt. eigenvalues --    1.17994   1.18245   1.18445   1.18772   1.19728
 Alpha virt. eigenvalues --    1.20476   1.20681   1.20913   1.21762   1.22245
 Alpha virt. eigenvalues --    1.22810   1.23345   1.23838   1.24093   1.24459
 Alpha virt. eigenvalues --    1.25811   1.26083   1.26179   1.27409   1.27690
 Alpha virt. eigenvalues --    1.28302   1.29227   1.29579   1.30286   1.30843
 Alpha virt. eigenvalues --    1.32165   1.32452   1.33141   1.33359   1.34014
 Alpha virt. eigenvalues --    1.35260   1.35705   1.36636   1.36784   1.37320
 Alpha virt. eigenvalues --    1.37622   1.38495   1.38958   1.39021   1.39657
 Alpha virt. eigenvalues --    1.40121   1.40280   1.40513   1.41610   1.41937
 Alpha virt. eigenvalues --    1.42539   1.43174   1.43401   1.43879   1.44481
 Alpha virt. eigenvalues --    1.44529   1.44891   1.45320   1.46082   1.46203
 Alpha virt. eigenvalues --    1.47373   1.47581   1.47945   1.48441   1.48614
 Alpha virt. eigenvalues --    1.49596   1.49918   1.51287   1.51750   1.52061
 Alpha virt. eigenvalues --    1.52960   1.54278   1.54769   1.55503   1.55793
 Alpha virt. eigenvalues --    1.57228   1.59441   1.59822   1.60986   1.61278
 Alpha virt. eigenvalues --    1.62281   1.63204   1.63784   1.64627   1.64762
 Alpha virt. eigenvalues --    1.65229   1.66001   1.66428   1.67338   1.67696
 Alpha virt. eigenvalues --    1.68365   1.69108   1.69695   1.69891   1.71390
 Alpha virt. eigenvalues --    1.71487   1.72232   1.73103   1.73411   1.73746
 Alpha virt. eigenvalues --    1.75629   1.75828   1.76477   1.76872   1.77212
 Alpha virt. eigenvalues --    1.77432   1.77609   1.78601   1.79568   1.79912
 Alpha virt. eigenvalues --    1.80008   1.80397   1.81269   1.81913   1.82599
 Alpha virt. eigenvalues --    1.82839   1.83163   1.83838   1.84229   1.84438
 Alpha virt. eigenvalues --    1.84467   1.85233   1.86018   1.86673   1.86808
 Alpha virt. eigenvalues --    1.87083   1.87473   1.88108   1.88608   1.88990
 Alpha virt. eigenvalues --    1.89049   1.89741   1.90428   1.90592   1.90805
 Alpha virt. eigenvalues --    1.91237   1.91537   1.91744   1.91953   1.92225
 Alpha virt. eigenvalues --    1.92460   1.92783   1.92852   1.93324   1.93553
 Alpha virt. eigenvalues --    1.93732   1.94558   1.95433   1.95920   1.96283
 Alpha virt. eigenvalues --    1.96943   1.97171   1.97636   1.98406   1.98635
 Alpha virt. eigenvalues --    1.99306   2.00316   2.00361   2.01368   2.01665
 Alpha virt. eigenvalues --    2.02044   2.02582   2.02628   2.02879   2.03340
 Alpha virt. eigenvalues --    2.03775   2.03989   2.04800   2.05078   2.05383
 Alpha virt. eigenvalues --    2.05846   2.06041   2.06803   2.07006   2.07139
 Alpha virt. eigenvalues --    2.07502   2.08192   2.08872   2.09727   2.10080
 Alpha virt. eigenvalues --    2.10214   2.10280   2.10622   2.10902   2.11363
 Alpha virt. eigenvalues --    2.11660   2.12544   2.12841   2.13294   2.13607
 Alpha virt. eigenvalues --    2.14136   2.14199   2.14406   2.14835   2.15495
 Alpha virt. eigenvalues --    2.15899   2.16328   2.16739   2.17349   2.17646
 Alpha virt. eigenvalues --    2.17805   2.18227   2.18654   2.18822   2.19526
 Alpha virt. eigenvalues --    2.19733   2.20295   2.20586   2.21190   2.21802
 Alpha virt. eigenvalues --    2.21861   2.22257   2.22653   2.22972   2.23640
 Alpha virt. eigenvalues --    2.23700   2.24371   2.24961   2.25199   2.25444
 Alpha virt. eigenvalues --    2.25934   2.26107   2.26282   2.26464   2.27343
 Alpha virt. eigenvalues --    2.27836   2.28107   2.28531   2.29103   2.29236
 Alpha virt. eigenvalues --    2.30336   2.30515   2.31600   2.32231   2.32430
 Alpha virt. eigenvalues --    2.32964   2.33950   2.34093   2.34963   2.35240
 Alpha virt. eigenvalues --    2.35752   2.36917   2.37596   2.38431   2.38765
 Alpha virt. eigenvalues --    2.39439   2.39820   2.40467   2.42077   2.44146
 Alpha virt. eigenvalues --    2.44940   2.45335   2.46355   2.46851   2.47451
 Alpha virt. eigenvalues --    2.48093   2.48851   2.49200   2.49599   2.49894
 Alpha virt. eigenvalues --    2.50919   2.52798   2.53112   2.53868   2.54882
 Alpha virt. eigenvalues --    2.56260   2.58077   2.59534   2.59804   2.60284
 Alpha virt. eigenvalues --    2.61515   2.61884   2.63147   2.63661   2.64296
 Alpha virt. eigenvalues --    2.65245   2.65454   2.66379   2.68420   2.69093
 Alpha virt. eigenvalues --    2.70205   2.70626   2.71212   2.73112   2.77264
 Alpha virt. eigenvalues --    2.77614   2.78165   2.78284   2.78583   2.78882
 Alpha virt. eigenvalues --    2.79046   2.79977   2.80148   2.80956   2.81239
 Alpha virt. eigenvalues --    2.81317   2.82214   2.83473   2.84918   2.85726
 Alpha virt. eigenvalues --    2.87292   2.89152   2.90958   2.91485   2.92239
 Alpha virt. eigenvalues --    2.93168   2.94797   2.96325   2.96802   2.97077
 Alpha virt. eigenvalues --    2.98436   3.00112   3.04271   3.04318   3.06447
 Alpha virt. eigenvalues --    3.06764   3.08927   3.09089   3.10281   3.11672
 Alpha virt. eigenvalues --    3.13249   3.13269   3.14255   3.22039   3.26909
 Alpha virt. eigenvalues --    3.31546   3.45393  14.43921
          Condensed to atoms (all electrons):
 Mulliken charges:
               1
     1  C    0.346823
     2  C    0.020941
     3  C   -0.070938
     4  C   -0.151219
     5  C   -0.167149
     6  C    0.313077
     7  C    0.042926
     8  C   -0.171999
     9  C   -0.142923
    10  C   -0.171294
    11  H    0.228510
    12  H    0.197393
    13  H    0.176881
    14  H    0.258930
    15  H    0.184956
    16  H    0.174722
    17  N   -0.467720
    18  N   -0.552302
    19  Ir  -0.073036
    20  O   -0.483227
    21  O   -0.532075
    22  O   -0.522545
    23  B    0.467096
    24  B    0.496800
    25  B    0.422733
    26  O   -0.518008
    27  O   -0.508454
    28  C    0.290808
    29  C    0.290230
    30  C    0.298214
    31  C    0.285608
    32  C    0.295727
    33  C    0.301587
    34  O   -0.514294
    35  C   -0.506862
    36  H    0.162608
    37  H    0.151071
    38  H    0.171706
    39  C   -0.497636
    40  H    0.165014
    41  H    0.173760
    42  H    0.149110
    43  C   -0.497934
    44  H    0.154075
    45  H    0.152536
    46  H    0.168939
    47  C   -0.510602
    48  H    0.173102
    49  H    0.171567
    50  H    0.151779
    51  C   -0.516649
    52  H    0.150952
    53  H    0.169199
    54  H    0.165525
    55  C   -0.501083
    56  H    0.190953
    57  H    0.140502
    58  H    0.161346
    59  C   -0.512047
    60  H    0.175010
    61  H    0.148001
    62  H    0.169186
    63  C   -0.503922
    64  H    0.167681
    65  H    0.166163
    66  H    0.147164
    67  C   -0.510079
    68  H    0.167370
    69  H    0.152895
    70  H    0.169058
    71  C   -0.499244
    72  H    0.174649
    73  H    0.148783
    74  H    0.176270
    75  C   -0.514584
    76  H    0.171313
    77  H    0.151814
    78  H    0.171624
    79  C   -0.500381
    80  H    0.147833
    81  H    0.164206
    82  H    0.174885
    83  H    0.153645
    84  C    0.582644
    85  O   -0.536990
    86  C   -0.409303
    87  H    0.174780
    88  H    0.164401
    89  C   -0.348603
    90  H    0.143399
    91  H    0.181250
    92  N   -0.358930
    93  C   -0.355148
    94  H    0.197302
    95  H    0.171873
    96  H    0.167326
    97  C   -0.464813
    98  H    0.136191
    99  H    0.180361
   100  C    0.969913
   101  F   -0.317290
   102  F   -0.310698
   103  F   -0.305767
   104  H    0.186906
   105  H    0.154147
 Sum of Mulliken charges =  -0.00000
 Mulliken charges with hydrogens summed into heavy atoms:
               1
     1  C    0.346823
     2  C    0.249451
     3  C   -0.070938
     4  C    0.046174
     5  C    0.009732
     6  C    0.313077
     7  C    0.301856
     8  C    0.014907
     9  C    0.042034
    10  C    0.003427
    17  N   -0.467720
    18  N   -0.552302
    19  Ir   0.080609
    20  O   -0.483227
    21  O   -0.532075
    22  O   -0.522545
    23  B    0.467096
    24  B    0.496800
    25  B    0.422733
    26  O   -0.518008
    27  O   -0.508454
    28  C    0.290808
    29  C    0.290230
    30  C    0.298214
    31  C    0.285608
    32  C    0.295727
    33  C    0.301587
    34  O   -0.514294
    35  C   -0.021477
    39  C   -0.009753
    43  C   -0.022384
    47  C   -0.014155
    51  C   -0.030973
    55  C   -0.008282
    59  C   -0.019849
    63  C   -0.022914
    67  C   -0.020757
    71  C    0.000458
    75  C   -0.019834
    79  C   -0.013456
    84  C    0.582644
    85  O   -0.536990
    86  C   -0.070121
    89  C   -0.023954
    92  N   -0.358930
    93  C    0.181353
    97  C    0.005886
   100  C    0.969913
   101  F   -0.317290
   102  F   -0.310698
   103  F   -0.305767
 APT charges:
               1
     1  C    0.220970
     2  C    0.077026
     3  C   -0.216598
     4  C    0.109680
     5  C   -0.162677
     6  C    0.192320
     7  C   -0.005733
     8  C   -0.050644
     9  C    0.114957
    10  C   -0.182479
    11  H    0.113056
    12  H    0.065099
    13  H    0.041868
    14  H    0.156526
    15  H    0.032326
    16  H    0.045531
    17  N   -0.242020
    18  N   -0.027706
    19  Ir  -0.812443
    20  O   -0.879600
    21  O   -1.015928
    22  O   -0.979782
    23  B    1.276074
    24  B    1.122403
    25  B    1.334837
    26  O   -1.001631
    27  O   -0.884395
    28  C    0.440395
    29  C    0.459435
    30  C    0.526859
    31  C    0.493792
    32  C    0.512116
    33  C    0.490730
    34  O   -0.971366
    35  C    0.002633
    36  H   -0.006673
    37  H   -0.014344
    38  H    0.005864
    39  C   -0.011095
    40  H    0.006898
    41  H    0.004343
    42  H   -0.026816
    43  C   -0.018306
    44  H   -0.017152
    45  H   -0.014104
    46  H    0.003541
    47  C    0.004641
    48  H    0.000163
    49  H    0.000967
    50  H   -0.016588
    51  C   -0.009982
    52  H   -0.017213
    53  H   -0.000748
    54  H   -0.003060
    55  C   -0.038204
    56  H    0.024641
    57  H   -0.030751
    58  H   -0.007308
    59  C   -0.031816
    60  H    0.006032
    61  H   -0.027327
    62  H    0.003602
    63  C   -0.009250
    64  H    0.004550
    65  H   -0.001766
    66  H   -0.021504
    67  C   -0.001901
    68  H   -0.001054
    69  H   -0.015946
    70  H    0.002049
    71  C   -0.029470
    72  H    0.007148
    73  H   -0.025807
    74  H    0.001526
    75  C   -0.013488
    76  H    0.002733
    77  H   -0.014580
    78  H    0.001309
    79  C   -0.028268
    80  H   -0.022720
    81  H   -0.000054
    82  H    0.003215
    83  H   -0.010167
    84  C    0.868431
    85  O   -0.696450
    86  C    0.007709
    87  H   -0.028041
    88  H   -0.018041
    89  C    0.399556
    90  H   -0.087016
    91  H   -0.037324
    92  N   -0.784498
    93  C    0.281956
    94  H    0.021172
    95  H   -0.042983
    96  H   -0.024557
    97  C    0.070158
    98  H   -0.020652
    99  H    0.011177
   100  C    1.758059
   101  F   -0.574602
   102  F   -0.526931
   103  F   -0.579419
   104  H    0.042511
   105  H   -0.031612
 Sum of APT charges =  -0.00000
 APT charges with hydrogens summed into heavy atoms:
               1
     1  C    0.220970
     2  C    0.190081
     3  C   -0.216598
     4  C    0.174780
     5  C   -0.120809
     6  C    0.192320
     7  C    0.150793
     8  C   -0.008133
     9  C    0.147283
    10  C   -0.136948
    17  N   -0.242020
    18  N   -0.027706
    19  Ir  -0.822609
    20  O   -0.879600
    21  O   -1.015928
    22  O   -0.979782
    23  B    1.276074
    24  B    1.122403
    25  B    1.334837
    26  O   -1.001631
    27  O   -0.884395
    28  C    0.440395
    29  C    0.459435
    30  C    0.526859
    31  C    0.493792
    32  C    0.512116
    33  C    0.490730
    34  O   -0.971366
    35  C   -0.012520
    39  C   -0.026670
    43  C   -0.046021
    47  C   -0.010817
    51  C   -0.031004
    55  C   -0.051622
    59  C   -0.049508
    63  C   -0.027969
    67  C   -0.016851
    71  C   -0.046602
    75  C   -0.024026
    79  C   -0.047826
    84  C    0.868431
    85  O   -0.696450
    86  C   -0.038372
    89  C    0.275216
    92  N   -0.784498
    93  C    0.235589
    97  C    0.029071
   100  C    1.758059
   101  F   -0.574602
   102  F   -0.526931
   103  F   -0.579419
 Electronic spatial extent (au):  <R**2>=          27273.0806
 Charge=             -0.0000 electrons
 Dipole moment (field-independent basis, Debye):
    X=             -1.2351    Y=             -1.8037    Z=              4.1619  Tot=              4.7011
 Quadrupole moment (field-independent basis, Debye-Ang):
   XX=           -313.6146   YY=           -296.0079   ZZ=           -300.6174
   XY=             -2.3697   XZ=              5.0249   YZ=            -18.9509
 Traceless Quadrupole moment (field-independent basis, Debye-Ang):
   XX=            -10.2013   YY=              7.4054   ZZ=              2.7960
   XY=             -2.3697   XZ=              5.0249   YZ=            -18.9509
 Octapole moment (field-independent basis, Debye-Ang**2):
  XXX=              3.8833  YYY=            -62.2298  ZZZ=            -39.1569  XYY=            -15.2257
  XXY=            -38.9274  XXZ=              1.2746  XZZ=             21.2003  YZZ=            -23.2806
  YYZ=             54.2077  XYZ=            -39.3845
 Hexadecapole moment (field-independent basis, Debye-Ang**3):
 XXXX=         -16699.1014 YYYY=          -8765.1615 ZZZZ=          -8986.9245 XXXY=             57.4648
 XXXZ=            260.1287 YYYX=            194.5420 YYYZ=           -295.7359 ZZZX=            -90.3696
 ZZZY=             17.4355 XXYY=          -4425.6129 XXZZ=          -4122.2109 YYZZ=          -3061.5763
 XXYZ=           -103.0298 YYXZ=             98.1843 ZZXY=             28.6224
 N-N= 8.622141086702D+03 E-N=-2.305024804103D+04  KE= 2.410200641776D+03
  Exact polarizability:     525.094       4.973     468.109       9.347     -38.136     424.314
 Approx polarizability:     746.550      22.154     712.513      32.182     -74.165     608.436
   1 Symmetry operations used in ECPInt.
 ECPInt:  NShTT=   50086 NPrTT=  307226 LenC2=   38920 LenP2D=  121240.
 LDataN:  DoStor=T MaxTD1= 8 Len=  415
 Calling FoFJK, ICntrl=    100127 FMM=F ISym2X=0 I1Cent= 0 IOpClX= 0 NMat=1 NMatS=1 NMatT=0.
 Defaulting to unpruned grid for atomic number  77.
 Defaulting to unpruned grid for atomic number  77.
 Defaulting to unpruned grid for atomic number  77.
 Defaulting to unpruned grid for atomic number  77.
 Defaulting to unpruned grid for atomic number  77.
 Defaulting to unpruned grid for atomic number  77.
 Defaulting to unpruned grid for atomic number  77.
 Defaulting to unpruned grid for atomic number  77.
 Defaulting to unpruned grid for atomic number  77.
 Defaulting to unpruned grid for atomic number  77.
 Defaulting to unpruned grid for atomic number  77.
 Defaulting to unpruned grid for atomic number  77.
 Defaulting to unpruned grid for atomic number  77.
 Defaulting to unpruned grid for atomic number  77.
 Defaulting to unpruned grid for atomic number  77.
 Defaulting to unpruned grid for atomic number  77.
 Full mass-weighted force constant matrix:
 Low frequencies ---   -7.9467   -5.2612   -0.0005    0.0005    0.0008    3.0228
 Low frequencies ---    6.1075   19.9079   23.7372
 Diagonal vibrational polarizability:
      142.5646910      67.8205244     129.3263649
 Harmonic frequencies (cm**-1), IR intensities (KM/Mole), Raman scattering
 activities (A**4/AMU), depolarization ratios for plane and unpolarized
 incident light, reduced masses (AMU), force constants (mDyne/A),
 and normal coordinates:
                      1                      2                      3
                      A                      A                      A
 Frequencies --      2.7454                19.3747                23.6679
 Red. masses --     13.0490                 5.5187                 5.1316
 Frc consts  --      0.0001                 0.0012                 0.0017
 IR Inten    --      0.0319                 0.0425                 0.2990
  Atom AN      X      Y      Z        X      Y      Z        X      Y      Z
     1   6    -0.00  -0.01   0.01    -0.03  -0.00   0.01    -0.00  -0.05  -0.02
     2   6     0.01  -0.02   0.01    -0.02  -0.00   0.03    -0.00  -0.03   0.02
     3   6     0.01  -0.03   0.01    -0.04   0.02   0.08     0.00  -0.04   0.02
     4   6     0.00  -0.03   0.01    -0.05   0.03   0.10     0.00  -0.07  -0.02
     5   6    -0.01  -0.02   0.01    -0.05   0.02   0.07     0.00  -0.07  -0.04
     6   6    -0.01  -0.01   0.01    -0.02  -0.02  -0.03    -0.01  -0.04  -0.01
     7   6    -0.01  -0.00   0.01    -0.01  -0.02  -0.06    -0.02  -0.01   0.02
     8   6    -0.02   0.00   0.01    -0.01  -0.03  -0.08    -0.03  -0.00   0.03
     9   6    -0.02  -0.00   0.01    -0.02  -0.04  -0.08    -0.03  -0.02   0.02
    10   6    -0.02  -0.01   0.02    -0.02  -0.03  -0.05    -0.02  -0.04  -0.00
    11   1     0.02  -0.01   0.01    -0.01  -0.01   0.01    -0.00  -0.02   0.04
    12   1    -0.00  -0.03   0.01    -0.06   0.04   0.14     0.01  -0.08  -0.04
    13   1    -0.01  -0.02   0.01    -0.06   0.03   0.09     0.01  -0.09  -0.07
    14   1    -0.01   0.00   0.01    -0.01  -0.02  -0.06    -0.03   0.00   0.03
    15   1    -0.02  -0.00   0.02    -0.02  -0.05  -0.09    -0.04  -0.02   0.02
    16   1    -0.02  -0.01   0.02    -0.02  -0.03  -0.05    -0.02  -0.04  -0.01
    17   7     0.00  -0.01   0.01    -0.02  -0.01  -0.01    -0.00  -0.04   0.01
    18   7    -0.01  -0.00   0.01    -0.01  -0.02  -0.04    -0.01  -0.02   0.00
    19  77     0.00  -0.00   0.01    -0.01  -0.01  -0.03    -0.01  -0.02   0.01
    20   8    -0.01  -0.00  -0.00     0.06  -0.01   0.03    -0.01   0.02   0.01
    21   8     0.00  -0.00  -0.00    -0.02   0.02   0.01    -0.01  -0.02   0.03
    22   8     0.01  -0.01   0.02    -0.01  -0.00  -0.07     0.03  -0.03  -0.02
    23   5     0.00   0.00   0.01    -0.01  -0.00  -0.02    -0.01  -0.02   0.01
    24   5    -0.01  -0.01   0.01     0.04   0.00  -0.02    -0.00  -0.00   0.00
    25   5     0.01  -0.00   0.01    -0.01  -0.01  -0.04     0.01  -0.02  -0.02
    26   8     0.01   0.00   0.01    -0.01  -0.02  -0.03     0.02   0.00  -0.03
    27   8    -0.01  -0.01   0.01     0.07   0.02  -0.05     0.00   0.01  -0.01
    28   6    -0.01  -0.01   0.01     0.12   0.01  -0.02    -0.00   0.04  -0.00
    29   6    -0.01  -0.00  -0.00     0.10  -0.01   0.04    -0.00   0.05   0.00
    30   6     0.02  -0.01   0.02    -0.02  -0.00  -0.07     0.05  -0.02  -0.04
    31   6     0.02   0.00   0.02    -0.03  -0.02  -0.04     0.05  -0.01  -0.05
    32   6     0.00  -0.00  -0.00    -0.03   0.04   0.04    -0.01  -0.02   0.02
    33   6     0.01   0.00  -0.00    -0.04   0.03   0.02    -0.01  -0.04   0.01
    34   8     0.00   0.01   0.01    -0.02  -0.00  -0.01    -0.01  -0.03   0.01
    35   6    -0.02  -0.00  -0.01     0.14  -0.01   0.07    -0.01   0.07   0.02
    36   1    -0.02  -0.00  -0.01     0.14  -0.01   0.06    -0.02   0.06   0.04
    37   1    -0.02  -0.00  -0.01     0.18  -0.01   0.08    -0.01   0.09   0.02
    38   1    -0.02   0.01  -0.01     0.12  -0.02   0.11    -0.01   0.07   0.03
    39   6    -0.01   0.00  -0.00     0.09  -0.01   0.06     0.01   0.05  -0.02
    40   1    -0.00  -0.00   0.00     0.07  -0.01   0.03     0.02   0.04  -0.04
    41   1    -0.00   0.01  -0.01     0.07  -0.03   0.09     0.01   0.05  -0.02
    42   1    -0.01  -0.00  -0.00     0.12  -0.01   0.06     0.02   0.08  -0.03
    43   6    -0.02  -0.01   0.01     0.16   0.02  -0.04    -0.01   0.04   0.02
    44   1    -0.03  -0.01   0.00     0.20   0.02  -0.02    -0.02   0.06   0.03
    45   1    -0.02  -0.01   0.00     0.14   0.02  -0.03    -0.02   0.03   0.03
    46   1    -0.02  -0.02   0.01     0.16   0.03  -0.09    -0.01   0.04   0.02
    47   6    -0.01  -0.01   0.01     0.15   0.02  -0.03     0.01   0.06  -0.02
    48   1    -0.02  -0.02   0.01     0.16   0.03  -0.07     0.01   0.06  -0.02
    49   1    -0.01  -0.01   0.01     0.13   0.01  -0.02     0.02   0.06  -0.04
    50   1    -0.02  -0.01   0.01     0.19   0.01  -0.00     0.01   0.08  -0.02
    51   6     0.00  -0.00  -0.01    -0.05   0.05   0.05    -0.02  -0.02   0.04
    52   1     0.01  -0.00  -0.01    -0.06   0.07   0.08    -0.02  -0.02   0.04
    53   1     0.01  -0.00  -0.01    -0.08   0.05   0.04    -0.02  -0.03   0.05
    54   1     0.00  -0.00  -0.01    -0.03   0.05   0.06    -0.01  -0.00   0.05
    55   6    -0.00  -0.00  -0.00     0.01   0.04   0.05    -0.00   0.00   0.01
    56   1    -0.00  -0.00  -0.00     0.03   0.03   0.05     0.00   0.00  -0.01
    57   1    -0.00  -0.01  -0.01     0.01   0.07   0.07    -0.00  -0.00   0.01
    58   1    -0.00  -0.01  -0.01     0.01   0.04   0.05     0.00   0.02   0.02
    59   6     0.02   0.01  -0.00    -0.10   0.03   0.01    -0.01  -0.06   0.03
    60   1     0.02   0.01   0.00    -0.10   0.02  -0.01    -0.01  -0.06   0.04
    61   1     0.02   0.01  -0.01    -0.12   0.05   0.04    -0.01  -0.07   0.03
    62   1     0.02   0.01   0.00    -0.12   0.02  -0.00    -0.01  -0.08   0.02
    63   6     0.01   0.00  -0.00    -0.03   0.05   0.05    -0.01  -0.05  -0.01
    64   1    -0.00  -0.00  -0.00     0.02   0.05   0.06    -0.01  -0.03  -0.02
    65   1     0.01   0.00   0.00    -0.04   0.05   0.04    -0.01  -0.06  -0.02
    66   1     0.01  -0.00  -0.01    -0.04   0.08   0.08    -0.01  -0.05  -0.01
    67   6     0.03   0.01   0.02    -0.02  -0.02  -0.02     0.06   0.02  -0.06
    68   1     0.02   0.01   0.02    -0.00  -0.02  -0.02     0.05   0.04  -0.06
    69   1     0.03   0.01   0.02    -0.04  -0.02  -0.03     0.08   0.01  -0.07
    70   1     0.03   0.02   0.02    -0.03  -0.04  -0.01     0.06   0.03  -0.06
    71   6     0.02   0.01   0.02    -0.06  -0.02  -0.04     0.05  -0.03  -0.05
    72   1     0.02   0.02   0.02    -0.06  -0.03  -0.02     0.05  -0.01  -0.05
    73   1     0.03   0.01   0.02    -0.07  -0.02  -0.05     0.08  -0.03  -0.06
    74   1     0.02   0.00   0.02    -0.06  -0.02  -0.05     0.04  -0.05  -0.04
    75   6     0.03  -0.01   0.03    -0.04  -0.00  -0.09     0.06  -0.04  -0.06
    76   1     0.03  -0.01   0.03    -0.05  -0.01  -0.09     0.07  -0.06  -0.05
    77   1     0.04  -0.01   0.03    -0.04  -0.01  -0.09     0.08  -0.03  -0.07
    78   1     0.03  -0.02   0.03    -0.03   0.01  -0.11     0.06  -0.05  -0.05
    79   6     0.02  -0.01   0.02     0.01   0.01  -0.07     0.05   0.00  -0.05
    80   1     0.03  -0.01   0.03     0.01   0.01  -0.07     0.06   0.01  -0.06
    81   1     0.01  -0.01   0.02     0.03   0.01  -0.05     0.03   0.02  -0.04
    82   1     0.02  -0.03   0.02     0.02   0.02  -0.09     0.04  -0.01  -0.04
    83   1     0.00  -0.00   0.01    -0.00  -0.02  -0.04    -0.02  -0.02   0.01
    84   6    -0.00   0.06  -0.03     0.01  -0.01   0.04     0.01   0.12  -0.05
    85   8     0.04   0.07  -0.03    -0.01  -0.01   0.04     0.07   0.11  -0.08
    86   6    -0.04   0.10  -0.05     0.02  -0.01   0.07    -0.04   0.21  -0.05
    87   1    -0.02   0.05  -0.04     0.06  -0.01   0.07    -0.07   0.26  -0.06
    88   1    -0.11   0.10  -0.10     0.01  -0.01   0.06    -0.09   0.19   0.01
    89   6     0.01  -0.01   0.01    -0.00  -0.01  -0.03     0.02   0.01  -0.00
    90   1    -0.00  -0.05   0.03     0.01   0.01  -0.04     0.02  -0.04   0.01
    91   1     0.04   0.00   0.03    -0.02  -0.02  -0.03     0.09   0.02  -0.00
    92   7    -0.02   0.01  -0.01     0.02  -0.01  -0.00    -0.02   0.07  -0.02
    93   6    -0.07  -0.00  -0.02     0.04  -0.01  -0.01    -0.09   0.08   0.01
    94   1    -0.08  -0.03   0.01     0.05  -0.00  -0.02    -0.09   0.04   0.03
    95   1    -0.07   0.00  -0.04     0.04  -0.01  -0.00    -0.11   0.07   0.03
    96   1    -0.09  -0.00  -0.04     0.05  -0.02   0.01    -0.11   0.12  -0.00
    97   6    -0.02   0.21  -0.02     0.01   0.00   0.11    -0.01   0.24  -0.11
    98   1    -0.08   0.15  -0.00    -0.03   0.00   0.11    -0.00   0.15  -0.10
    99   1     0.10   0.23  -0.07     0.02   0.00   0.12     0.06   0.26  -0.21
   100   6     0.01  -0.04  -0.04    -0.04   0.02   0.10    -0.00  -0.03   0.07
   101   9     0.01   0.04   0.37    -0.04   0.03   0.15    -0.00  -0.03   0.03
   102   9     0.28  -0.35  -0.22     0.00   0.00   0.08    -0.02   0.04   0.10
   103   9    -0.26   0.19  -0.33    -0.08   0.04   0.08     0.00  -0.08   0.13
   104   1    -0.02   0.00   0.01    -0.01  -0.04  -0.10    -0.04   0.01   0.05
   105   1    -0.05   0.32   0.04     0.02   0.00   0.13    -0.05   0.33  -0.08
                      4                      5                      6
                      A                      A                      A
 Frequencies --     33.1423                39.9779                41.7056
 Red. masses --      4.9439                 4.8285                 3.5316
 Frc consts  --      0.0032                 0.0045                 0.0036
 IR Inten    --      0.1926                 1.3512                 0.0875
  Atom AN      X      Y      Z        X      Y      Z        X      Y      Z
     1   6    -0.00   0.03   0.00    -0.03   0.03   0.05    -0.01  -0.01  -0.01
     2   6    -0.03   0.02  -0.03    -0.01  -0.01  -0.03    -0.00   0.00   0.01
     3   6    -0.03   0.06   0.01    -0.02   0.01  -0.00    -0.00  -0.01  -0.01
     4   6    -0.03   0.09   0.05    -0.03   0.04   0.05    -0.00  -0.02  -0.02
     5   6    -0.01   0.07   0.05    -0.04   0.05   0.07    -0.01  -0.02  -0.03
     6   6     0.01   0.01  -0.01    -0.04   0.05   0.09    -0.01  -0.01  -0.02
     7   6     0.02  -0.02  -0.02    -0.02   0.01   0.03    -0.01   0.00  -0.02
     8   6     0.04  -0.03  -0.04    -0.05   0.07   0.14    -0.01  -0.01  -0.03
     9   6     0.05  -0.02  -0.05    -0.09   0.12   0.24    -0.01  -0.02  -0.04
    10   6     0.04   0.00  -0.03    -0.08   0.11   0.21    -0.01  -0.01  -0.03
    11   1    -0.03   0.00  -0.06     0.00  -0.03  -0.08    -0.00   0.01   0.03
    12   1    -0.04   0.12   0.09    -0.04   0.05   0.07     0.00  -0.03  -0.04
    13   1    -0.01   0.09   0.08    -0.04   0.06   0.11    -0.01  -0.03  -0.04
    14   1     0.02  -0.03  -0.01     0.00  -0.02  -0.04    -0.01   0.01  -0.01
    15   1     0.07  -0.03  -0.07    -0.12   0.17   0.33    -0.00  -0.02  -0.06
    16   1     0.04   0.01  -0.04    -0.10   0.15   0.29    -0.01  -0.02  -0.04
    17   7    -0.01   0.01  -0.03    -0.01   0.00  -0.01    -0.01   0.00   0.01
    18   7     0.01  -0.00  -0.01    -0.02   0.00   0.01    -0.01   0.00  -0.01
    19  77    -0.02  -0.01  -0.01    -0.00  -0.02  -0.02    -0.01   0.01   0.00
    20   8    -0.02   0.02  -0.02     0.03  -0.05   0.00     0.02  -0.06   0.03
    21   8    -0.02  -0.01   0.02     0.00  -0.02  -0.07     0.01  -0.02  -0.01
    22   8     0.07  -0.05   0.02     0.01  -0.03   0.00    -0.01  -0.00   0.07
    23   5    -0.03  -0.01   0.01     0.00  -0.00  -0.04    -0.01   0.00  -0.00
    24   5    -0.01  -0.01  -0.01     0.01  -0.02  -0.02    -0.01   0.02   0.01
    25   5     0.03  -0.00   0.00     0.00  -0.02  -0.01    -0.01   0.01   0.01
    26   8     0.06   0.05  -0.01     0.01  -0.00   0.00    -0.00   0.03  -0.05
    27   8    -0.00  -0.04  -0.01     0.02  -0.01  -0.03    -0.03   0.10  -0.02
    28   6    -0.01  -0.03  -0.01     0.05  -0.03  -0.01     0.02   0.07   0.00
    29   6    -0.02   0.01  -0.02     0.04  -0.06   0.01     0.02  -0.05   0.03
    30   6     0.12  -0.03   0.04     0.03  -0.03   0.03     0.00   0.00   0.05
    31   6     0.12   0.04   0.01     0.02  -0.00   0.03     0.04   0.02  -0.04
    32   6    -0.03  -0.02   0.03     0.00  -0.00  -0.05    -0.00  -0.03  -0.01
    33   6    -0.03  -0.05   0.01     0.00   0.04  -0.03    -0.01  -0.02  -0.01
    34   8    -0.04  -0.02   0.01     0.00   0.03  -0.01    -0.02  -0.00  -0.00
    35   6    -0.04   0.02  -0.03     0.07  -0.08   0.02     0.11  -0.09   0.07
    36   1    -0.07   0.01  -0.05     0.10  -0.07   0.03     0.18  -0.07   0.09
    37   1    -0.04   0.01  -0.03     0.08  -0.07   0.02     0.10  -0.07   0.06
    38   1    -0.04   0.06  -0.03     0.07  -0.10   0.03     0.10  -0.18   0.08
    39   6     0.02   0.03  -0.01     0.01  -0.08   0.02    -0.08  -0.10   0.01
    40   1     0.04   0.02   0.00    -0.01  -0.07   0.00    -0.16  -0.08  -0.05
    41   1     0.02   0.06  -0.01     0.00  -0.10   0.04    -0.10  -0.19   0.05
    42   1     0.03   0.03  -0.00     0.03  -0.08   0.02    -0.07  -0.08   0.00
    43   6    -0.05  -0.05  -0.02     0.09  -0.01  -0.02     0.13   0.12   0.02
    44   1    -0.06  -0.05  -0.03     0.11  -0.02  -0.01     0.17   0.11   0.04
    45   1    -0.07  -0.04  -0.03     0.09  -0.02  -0.01     0.18   0.10   0.04
    46   1    -0.05  -0.08  -0.02     0.09   0.01  -0.05     0.12   0.21   0.00
    47   6     0.01  -0.05  -0.00     0.04  -0.02  -0.02    -0.04   0.11  -0.02
[...]
 000375,0.00000047,0.00000271,-0.00000227,-0.00000032,-0.00000507,0.000
 00081,-0.00000090,0.00000111,0.00000074,0.00000101,-0.00001452,0.00000
 040,0.00000118,-0.00000422,-0.00000561,0.00000059,0.00000262,0.0000003
 4,0.00000007,0.00000168,0.00000099,0.00007068,-0.00018534,0.00012638,0
 .00004315,-0.00000801,0.00000730,-0.00001979,0.00000785,-0.00000910,-0
 .00000230,-0.00000128,0.00000084,-0.00000139,-0.00000061,0.00000158,-0
 .00000035,-0.00000015,0.00000059,0.00000640,0.00010999,-0.00007623,0.0
 0000140,-0.00000831,0.00002137,-0.00000292,-0.00001599,0.00003329,-0.0
 0001686,-0.00001675,0.00000938,-0.00001431,-0.00001610,-0.00000620,0.0
 0000080,-0.00000071,-0.00000585,0.00000322,0.00000674,0.00000917,-0.00
 000568,0.00000442,0.00000575,0.00000050,-0.00000070,0.00000125,0.00000
 048,0.00000069,-0.00000039,0.00000076,0.00000069,-0.00000083,0.0000111
 5,0.00003582,0.00002580,-0.00001382,-0.00000677,-0.00000273,-0.0000062
 7,-0.00001008,0.00000040,0.00000074,-0.00000705,-0.00000675,0.15145190
 ,0.16306079,0.00036941,-0.00055186,-0.00090728,0.00001711,-0.00000960,
 0.00000528,-0.00001289,-0.00000389,-0.00002179,0.00003625,-0.00005029,
 -0.00000844,-0.00001349,0.00007101,0.00001128,-0.00065069,0.00038372,-
 0.00089350,0.01368103,0.00731197,0.00134111,0.00964774,0.02008196,-0.0
 4303765,-0.00993768,-0.00903712,0.00417542,-0.00384537,0.00328894,0.00
 424904,-0.00000434,0.00000005,-0.00000290,0.00000356,-0.00000354,-0.00
 000948,0.00000776,0.00001244,0.00007577,0.00068918,-0.00164634,-0.0022
 4186,0.00139513,-0.00157313,-0.00239585,-0.00052051,-0.00040114,0.0001
 8448,-0.00006887,0.00003857,0.00002261,-0.00194691,0.00643142,0.004486
 86,0.00021798,-0.00041263,0.00021489,0.00001953,-0.00004997,-0.0000945
 3,-0.00013529,-0.00012445,-0.00001666,0.00001356,0.00003471,0.00001583
 ,0.00018259,0.00007495,0.00004798,0.00007366,-0.00013410,0.00005158,0.
 00003758,-0.00005035,-0.00012960,-0.00003156,0.00002679,0.00000701,0.0
 0000425,0.00004969,-0.00004659,-0.00001199,-0.00002257,-0.00000144,-0.
 00006543,-0.00001257,0.00010906,0.00000738,-0.00001237,0.00001110,-0.0
 0000141,-0.00001593,0.00000956,0.00000661,0.00005826,0.00002790,0.0000
 3488,0.00002316,0.00000798,-0.00008086,-0.00004481,-0.00002559,0.00007
 401,-0.00007797,-0.00001003,-0.00003631,0.00002976,0.00001570,-0.00000
 389,0.00001428,-0.00000374,-0.00000793,0.00001108,0.00000619,0.0000273
 4,0.00001335,-0.00002414,-0.00000112,0.00001478,-0.00000168,-0.0000049
 3,-0.00000166,0.00000411,0.00000115,-0.00000748,-0.00000262,0.00000879
 ,0.00004141,0.00001921,0.00000150,-0.00002254,-0.00003572,-0.00004785,
 -0.00002221,0.00002943,0.00001030,0.00001345,0.00000432,-0.00000399,0.
 00000073,-0.00000089,0.00000214,-0.00000122,0.00000112,-0.00000110,0.0
 0000444,-0.00000061,0.00000161,-0.00000203,-0.00000401,0.00000354,0.00
 000869,0.00001615,0.00000483,-0.00002064,0.00000539,0.00000041,-0.0000
 0177,-0.00004135,-0.00002504,0.00001275,0.00001865,-0.00001287,-0.0000
 1430,-0.00000306,0.00000102,-0.00000821,-0.00000116,0.00000104,0.00000
 044,0.00000059,0.00000267,0.00000864,0.00000069,-0.00001251,0.00000856
 ,-0.00000870,0.00001102,-0.00000006,-0.00000288,-0.00000388,-0.0000008
 7,-0.00000584,0.00000106,-0.00000644,0.00000420,-0.00000736,-0.0000052
 8,-0.00000158,0.00000308,-0.00000541,-0.00000298,0.00000063,-0.0000011
 6,0.00000294,-0.00000363,0.00000253,-0.00000152,0.00000209,0.00000186,
 0.00000269,0.00000023,-0.00000144,-0.00000198,-0.00000035,0.00000143,-
 0.00000062,-0.00000147,0.00000026,-0.00000012,0.00000525,0.00000113,-0
 .00000298,-0.00000246,0.00000154,0.00000054,-0.00000117,0.00000170,-0.
 00000088,0.00000027,-0.00000210,0.00000265,-0.00000089,-0.00000002,-0.
 00000150,0.00000020,0.00000006,-0.00000177,0.00000019,0.00000121,0.000
 00024,-0.00000003,0.00000023,0.00000089,-0.00000630,0.00000289,-0.0000
 0042,-0.00000034,0.00000174,0.00000157,0.00000269,0.00000007,-0.000000
 35,-0.00000050,0.00000008,-0.00000015,-0.00001547,0.00015482,-0.000083
 50,0.00000373,0.00001450,-0.00000325,0.00000917,-0.00001321,-0.0000076
 4,-0.00000123,0.00000054,0.00000176,0.00000036,0.00000122,-0.00000134,
 -0.00000033,-0.00000176,0.00000021,0.00003475,0.00006907,-0.00005997,-
 0.00000684,0.00000898,-0.00001928,0.00000895,0.00001095,0.00005630,-0.
 00001249,-0.00002975,-0.00001674,0.00000377,0.00000970,-0.00000359,-0.
 00000127,0.00000442,0.00000459,-0.00000705,-0.00001081,0.00000108,0.00
 000275,-0.00000452,-0.00000176,-0.00000050,0.00000218,0.00000039,-0.00
 000054,0.00000066,-0.00000004,0.00000111,-0.00000101,-0.00000011,-0.00
 000451,0.00003697,0.00004514,-0.00000195,-0.00000567,-0.00000552,-0.00
 000319,-0.00001555,0.00000182,0.00000602,-0.00000035,-0.00000488,-0.00
 911387,-0.02395800,0.03490013,-0.00000733,-0.00001278,-0.00006367,-0.0
 0001678,-0.00003326,-0.00003111,-0.00000613,0.00002367,-0.00003136,-0.
 00000854,-0.00001100,-0.00000243,0.00002668,0.00001961,0.00000103,0.00
 002572,0.00000400,-0.00001133,0.00000115,-0.00002287,0.00000812,-0.000
 01079,0.00002332,-0.00001113,0.00002761,-0.00000413,0.00001199,-0.0000
 1678,-0.00000889,0.00000839,-0.00001047,-0.00002271,-0.00001325,0.0000
 0282,-0.00001256,0.00001499,-0.00000081,-0.00000136,-0.00000022,0.0000
 0713,-0.00000103,-0.00000359,0.00000080,-0.00000371,0.00000079,0.00000
 349,-0.00000096,0.00000004,-0.00000330,0.00002261,-0.00000576,0.000017
 72,0.00004839,-0.00005600,-0.00010022,-0.00001174,0.00013356,-0.000057
 57,0.00000239,0.00008697,-0.00010465,-0.00001182,-0.00001431,0.0000307
 3,0.00016663,0.00002596,0.00018263,-0.00002232,0.00000622,0.00005036,0
 .00002544,-0.00013210,0.00003060,-0.00021817,-0.00000173,-0.00005066,0
 .00013897,-0.00000523,-0.00001626,0.00001205,0.00011714,0.00001957,0.0
 0000329,-0.00002869,0.00001163,-0.00001552,-0.00003737,0.00001898,-0.0
 0007794,-0.00001581,-0.00001475,-0.00005342,-0.00000036,0.00004679,-0.
 00001605,0.00001383,0.00005206,0.00001169,0.00001737,-0.00009998,0.000
 02147,-0.00003828,-0.00000119,0.00000070,0.00000414,0.00000090,0.00000
 146,-0.00000238,-0.00000146,-0.00000004,0.00000586,-0.00000130,-0.0000
 0065,-0.00000256,-0.00000155,0.00000243,0.00000536,0.00000081,-0.00000
 276,-0.00000263,0.00000063,-0.00000082,-0.00000249,-0.00000259,0.00000
 329,0.00000578,-0.00000719,-0.00000368,0.00000270,-0.00000223,-0.00000
 261,0.00000630,0.00000336,0.00000434,-0.00000002,0.00000129,-0.0000004
 2,-0.00000364,-0.00000269,-0.00000178,0.00000308,0.00000336,-0.0000004
 5,-0.00000016,-0.00000087,0.00000208,-0.00000178,-0.00000216,0.0000009
 6,0.00000517,-0.00000464,0.00000018,0.00000023,-0.00000526,0.00000078,
 -0.00000277,0.00000296,0.00000141,0.00000073,0.00000048,-0.00000203,0.
 00000294,-0.00000554,0.00000264,-0.00000088,0.00000320,-0.00000292,-0.
 00000084,-0.00000731,0.00000338,-0.00000077,0.00000217,-0.00000092,0.0
 0000190,-0.00000282,-0.00001170,-0.00000138,0.00000644,0.00001291,-0.0
 0000017,-0.00001112,-0.00000034,-0.00000259,0.00000706,-0.00000155,0.0
 0000589,-0.00000477,-0.00000047,-0.00000042,0.00000118,0.00000112,0.00
 000206,0.00000346,0.00000064,-0.00000137,-0.00000672,0.00000013,-0.000
 00167,0.00000015,0.00000322,-0.00000057,-0.00000058,-0.00000197,0.0000
 0123,-0.00000088,0.00000725,0.00000025,-0.00000095,-0.00000223,0.00000
 010,0.00000914,0.00000480,-0.00000500,0.00000132,-0.00000320,0.0000014
 8,-0.00000191,0.00001125,-0.00000268,-0.00000440,-0.00000752,0.0000042
 6,-0.00000298,0.00000937,-0.00000240,-0.00000509,-0.00000685,-0.000002
 41,0.00000015,0.00000721,-0.00000048,0.00000494,-0.00000071,0.00000756
 ,-0.00000452,0.00001041,0.00000098,-0.00000325,0.00000710,0.00000493,0
 .00000392,-0.00000214,-0.00000483,0.00000217,-0.00000387,0.00000109,0.
 00001982,0.00000570,-0.00005703,-0.00243895,0.00337171,-0.00343724,0.0
 0023366,0.00023215,-0.00002806,-0.02066530,-0.01458290,0.01380889,0.00
 109766,-0.00047694,-0.00014881,0.00085189,0.00021356,0.00049235,-0.000
 00072,0.00036516,-0.00048974,-0.00021242,-0.00004721,0.00007948,0.0000
 2807,0.00001427,0.00002538,-0.00215731,-0.00108155,0.00095661,0.000078
 37,-0.00045567,0.00035895,-0.00004148,0.00004304,-0.00005167,-0.000012
 04,0.00010769,0.00001136,0.00006405,-0.00000877,-0.00003955,-0.1975276
 1,-0.09540420,0.09246483,0.00168774,0.00188634,-0.00145409,0.00355925,
 0.00237791,-0.00309711,-0.00036068,-0.00031656,0.00052723,0.00012687,0
 .00004775,-0.00007512,0.00012274,0.00012690,-0.00032710,0.00007331,0.0
 0003330,-0.00010915,-0.00000257,-0.00000255,-0.00000041,0.21548110,0.0
 0003723,-0.00002903,-0.00002024,-0.00004846,-0.00000963,-0.00001681,0.
 00005327,-0.00002249,0.00001857,-0.00000943,-0.00000437,-0.00003211,-0
 .00001941,-0.00000361,0.00000423,0.00001394,0.00000863,-0.00001063,0.0
 0000164,-0.00001126,0.00000326,-0.00000750,0.00000859,-0.00000500,0.00
 001054,0.00000937,0.00000038,-0.00000857,-0.00000682,0.00000909,0.0000
 1191,-0.00000332,-0.00000326,-0.00000710,-0.00000448,-0.00000232,-0.00
 000008,0.00000049,-0.00001539,0.00000399,-0.00000257,0.00000180,0.0000
 0101,-0.00000177,-0.00000048,0.00000101,0.00000144,-0.00000876,0.00001
 160,0.00003290,-0.00000358,0.00000545,0.00000094,-0.00000671,-0.000011
 28,0.00000313,0.00001933,-0.00002415,0.00000156,0.00002821,-0.00004264
 ,-0.00000238,-0.00001102,-0.00001404,0.00003206,0.00001017,0.00005465,
 -0.00000017,0.00002051,0.00002769,0.00000010,-0.00003859,0.00002735,-0
 .00004070,-0.00000437,-0.00002505,0.00003226,-0.00000118,-0.00001178,0
 .00000273,0.00003382,0.00000904,0.00000104,-0.00001279,0.00000580,-0.0
 0000496,-0.00001406,0.00001022,-0.00001927,-0.00000779,0.00000121,-0.0
 0001370,0.00000139,0.00001873,-0.00000613,0.00000606,0.00001797,0.0000
 0585,0.00000797,-0.00003590,0.00000289,-0.00002032,-0.00000027,-0.0000
 0102,0.00000102,0.00000055,0.00000087,-0.00000093,-0.00000026,0.000000
 39,0.00000232,-0.00000109,-0.00000012,-0.00000119,-0.00000024,0.000001
 37,0.00000111,0.00000033,-0.00000116,-0.00000068,-0.00000031,-0.000000
 36,-0.00000117,-0.00000081,0.00000116,0.00000246,-0.00000166,-0.000001
 93,-0.00000012,-0.00000164,-0.00000050,0.00000288,0.00000222,0.0000017
 4,0.00000016,-0.00000037,-0.00000031,-0.00000247,-0.00000060,0.0000008
 3,0.00000094,0.00000085,-0.00000005,-0.00000110,0.00000039,0.00000075,
 -0.00000083,-0.00000146,-0.00000042,0.00000215,-0.00000193,-0.00000012
 ,-0.00000014,-0.00000231,0.00000061,-0.00000125,0.00000119,-0.00000001
 ,0.00000048,0.00000069,-0.00000077,0.00000095,-0.00000159,0.00000098,-
 0.00000023,0.00000140,-0.00000099,0.00000001,-0.00000293,0.00000137,-0
 .00000063,0.00000150,-0.00000026,0.00000045,-0.00000103,-0.00000224,-0
 .00000143,0.00000096,0.00000236,0.00000038,-0.00000365,-0.00000101,-0.
 00000104,0.00000224,0.00000028,0.00000163,-0.00000147,0.00000022,-0.00
 000074,0.00000121,0.00000005,0.00000022,0.00000151,0.00000078,-0.00000
 009,-0.00000285,-0.00000051,-0.00000048,-0.00000114,0.00000012,-0.0000
 0016,0.00000019,-0.00000052,0.00000096,0.00000066,0.00000182,-0.000000
 01,-0.00000164,-0.00000085,-0.00000052,0.00000258,-0.00000023,-0.00000
 206,-0.00000154,-0.00000142,0.00000046,0.00000062,0.00000245,-0.000000
 40,-0.00000069,-0.00000011,0.00000197,0.00000095,0.00000212,-0.0000008
 0,0.00000276,-0.00000213,0.00000303,-0.00000305,0.00000314,0.00000105,
 0.00000009,-0.00000289,-0.00000320,-0.00000047,0.00000081,0.00000204,-
 0.00000134,0.00000307,0.00000094,0.00000002,-0.00000128,-0.00000002,0.
 00000003,-0.00000142,-0.00000164,0.00000587,0.00000504,-0.00000944,0.0
 0229766,-0.00226292,0.00266550,-0.00195969,0.00095088,-0.00039225,0.01
 006227,0.00493724,-0.00563270,-0.00072027,0.00016001,-0.00015617,-0.00
 056338,0.00032078,-0.00050815,0.00013265,-0.00005663,0.00005960,0.0000
 2875,0.00002894,-0.00002096,0.00000567,0.00002543,0.00000223,0.0003074
 1,0.00069771,-0.00054345,-0.00008798,0.00003215,-0.00005146,-0.0000177
 9,-0.00000555,0.00000096,0.00000881,0.00001394,-0.00001737,-0.00002238
 ,0.00002340,0.00002357,-0.09565057,-0.10897159,0.05765412,0.00655494,0
 .00278883,-0.00345054,-0.02385164,-0.01146625,0.01542747,-0.00003280,0
 .00011480,-0.00036768,0.00003419,-0.00001791,0.00011188,-0.00012630,0.
 00007447,0.00038355,-0.00000142,0.00003311,0.00009437,-0.00000163,-0.0
 0000099,-0.00000067,0.10355213,0.11261315,-0.00005819,-0.00006054,0.00
 005255,-0.00016600,0.00000366,-0.00006350,0.00013352,0.00000238,-0.000
 14324,0.00010290,-0.00007150,-0.00002137,-0.00003524,-0.00009078,0.000
 00955,-0.00002927,-0.00004907,0.00001624,-0.00000432,0.00001216,-0.000
 00432,0.00001790,-0.00000118,0.00000501,-0.00000874,-0.00001842,0.0000
 0613,0.00002064,0.00002415,-0.00000989,0.00000960,0.00001958,-0.000001
 56,0.00003852,0.00003915,0.00005785,-0.00000386,-0.00000051,0.00001372
 ,-0.00000391,0.00000455,-0.00000369,0.00000042,0.00000393,-0.00000119,
 -0.00000179,-0.00000921,0.00000938,0.00001406,0.00003340,-0.00001639,0
 .00001266,0.00002954,-0.00000949,0.00001474,-0.00001184,0.00002128,0.0
 0002893,-0.00000554,-0.00003148,0.00005183,-0.00000043,0.00001776,0.00
 000669,-0.00007665,-0.00000792,-0.00005598,0.00000504,-0.00004181,-0.0
 0005384,0.00001135,0.00004234,-0.00002634,0.00009306,0.00000196,0.0000
 2156,-0.00005666,0.00000195,0.00002079,-0.00001149,-0.00004006,-0.0000
 1230,0.00000118,0.00001869,-0.00000721,0.00000804,0.00001617,-0.000007
 51,0.00004663,0.00000486,0.00000727,0.00002337,-0.00000298,-0.00002132
 ,0.00000899,-0.00000662,-0.00001551,-0.00000429,-0.00000696,0.00003873
 ,-0.00000816,0.00002964,0.00000066,0.00000112,-0.00000114,-0.00000053,
 -0.00000199,0.00000116,0.00000039,-0.00000042,-0.00000268,0.00000127,0
 .00000031,0.00000120,0.00000163,-0.00000073,-0.00000141,-0.00000072,0.
 00000094,0.00000090,0.00000037,0.00000016,0.00000118,0.00000112,-0.000
 00154,-0.00000278,0.00000116,0.00000188,-0.00000059,0.00000295,0.00000
 030,-0.00000343,-0.00000398,-0.00000299,-0.00000042,0.00000064,0.00000
 150,0.00000533,0.00000117,-0.00000049,-0.00000135,-0.00000144,0.000001
 20,0.00000110,0.00000089,-0.00000215,0.00000077,0.00000143,-0.00000019
 ,-0.00000243,0.00000275,-0.00000083,0.00000050,0.00000265,-0.00000024,
 0.00000146,-0.00000097,-0.00000014,-0.00000071,-0.00000102,0.00000075,
 -0.00000074,0.00000222,-0.00000111,0.00000012,-0.00000147,0.00000132,0
 .,0.00000332,-0.00000146,0.00000060,-0.00000176,0.00000018,-0.00000023
 ,0.00000219,0.00000014,0.00000109,-0.00000003,-0.00000143,-0.00000058,
 0.00000232,0.00000147,0.00000140,-0.00000144,0.00000008,-0.00000048,0.
 00000128,0.00000029,0.00000154,-0.00000056,0.00000002,-0.00000108,-0.0
 0000106,-0.00000060,0.00000101,0.00000248,-0.00000005,0.00000057,0.000
 00084,-0.00000121,0.00000054,0.00000012,0.00000119,-0.00000019,0.00000
 033,-0.00000342,0.00000020,0.00000053,0.00000078,-0.00000026,-0.000002
 74,-0.00000194,0.00000142,-0.00000096,0.00000125,-0.00000034,0.0000008
 3,-0.00000462,0.00000168,0.00000183,0.00000226,-0.00000173,0.00000240,
 -0.00000412,0.00000270,0.00000252,0.00000231,0.00000189,-0.00000013,-0
 .00000349,0.00000070,-0.00000231,0.00000107,-0.00000504,0.00000207,-0.
 00000580,-0.00000074,0.00000253,-0.00000409,-0.00000207,-0.00000331,0.
 00000091,0.00000248,-0.00000048,0.00000394,-0.00000024,-0.00000354,-0.
 00001173,0.00000374,-0.00274520,0.00267151,-0.00200917,0.00137603,-0.0
 0024328,0.00092638,-0.01173651,-0.00749141,0.00575831,0.00057887,-0.00
 051217,0.00055474,0.00073759,-0.00000982,0.00016445,-0.00010474,0.0000
 8324,-0.00016454,-0.00005285,-0.00003479,0.00003342,-0.00000901,-0.000
 01982,0.00000724,-0.00055085,-0.00064006,0.00072898,0.00005550,-0.0000
 7764,0.00008741,0.00000661,0.00000083,-0.00001783,0.00000737,-0.000008
 06,-0.00000569,0.00001061,0.00000761,-0.00002957,0.09317270,0.05806245
 ,-0.10466390,0.02327711,0.01570303,-0.01195241,-0.00468479,-0.00253741
 ,0.00133592,0.00077387,0.00051623,-0.00050441,-0.00037014,-0.00003526,
 0.00018930,-0.00027091,-0.00005167,0.00040650,-0.00014178,-0.00004101,
 0.00012292,0.00000248,0.00000103,0.00000061,-0.09937985,-0.06520604,0.
 10911406\\0.00003505,0.00006971,0.00000416,-0.00016393,-0.00003470,0.0
 0006090,0.00003914,-0.00007282,0.00002567,0.00001349,0.00005444,-0.000
 13073,-0.00008242,0.00001463,0.00004634,0.00004175,-0.00003540,-0.0000
 4385,-0.00000792,-0.00001086,0.00000172,-0.00000087,-0.00001573,0.0000
 0215,-0.00000335,-0.00000058,0.00000067,0.00001641,0.00003481,-0.00003
 127,0.00003884,-0.00003195,0.00000447,-0.00000457,0.00000653,0.0000122
 5,0.00000153,0.00001358,0.00004630,-0.00000334,-0.00000159,0.00000831,
 0.00000114,-0.00000627,-0.00000182,0.00000540,-0.00000703,-0.00000691,
 0.00001159,-0.00009307,-0.00002514,-0.00002681,0.00001290,0.00007599,-
 0.00004753,-0.00016173,0.00008298,-0.00005607,-0.00004209,-0.00006266,
 -0.00000960,0.00000620,-0.00005258,-0.00005368,0.00001401,-0.00004882,
 0.00000600,0.00010643,0.00006700,0.00010211,0.00009826,0.00001710,0.00
 010325,0.00006616,-0.00005210,-0.00003540,0.00005128,0.00008853,0.0000
 1434,0.00012002,0.00001119,-0.00002393,0.00002971,0.00004387,-0.000001
 77,-0.00002237,0.00001590,0.00002849,0.00000567,0.00003069,-0.00000485
 ,-0.00000892,-0.00000745,-0.00002434,-0.00002506,0.00003218,0.00000884
 ,0.00002271,0.00001933,-0.00001869,-0.00005714,-0.00006111,0.00000649,
 0.00000241,0.00001614,-0.00001027,0.00000357,-0.00000451,-0.00000713,-
 0.00000666,0.00000003,-0.00000705,0.00000109,0.00002389,0.00004875,-0.
 00000181,-0.00001134,0.00001214,-0.00000374,-0.00001643,-0.00000293,-0
 .00000785,0.00000711,-0.00002420,-0.00001156,-0.00001052,-0.00002153,-
 0.00003396,0.00000426,0.00000260,0.00000047,-0.00000051,0.00003606,-0.
 00001538,-0.00000158,0.00002568,-0.00001516,-0.00000080,0.00001076,-0.
 00000221,-0.00002443,-0.00000387,-0.00000466,-0.00000497,0.00001503,0.
 00000068,-0.00002390,0.00000432,-0.00000586,0.00000011,0.00000917,-0.0
 0000297,-0.00001805,-0.00000207,0.00000281,0.00000212,-0.00001371,-0.0
 0000146,0.00001240,0.00000116,0.00000262,0.00000054,-0.00001922,0.0000
 3379,-0.00004075,0.00000016,0.00000080,-0.00002993,-0.00002303,0.00000
 803,-0.00000416,-0.00000453,0.00001182,-0.00005712,0.00000918,0.000015
 31,-0.00001470,0.00000487,-0.00000135,-0.00000125,0.00000828,0.0000038
 3,-0.00000680,0.00000100,0.00000248,-0.00000685,0.00002426,-0.00002587
 ,-0.00000597,0.00000110,0.00001286,0.00005893,0.00000109,0.00000362,-0
 .00000904,-0.00000364,0.00000333,0.00000500,-0.00000260,-0.00000285,-0
 .00000513,-0.00000414,-0.00002257,0.00001454,-0.00000487,0.00000527,0.
 00000043,-0.00000430,-0.00001130,-0.00000876,-0.00002477,0.00000079,-0
 .00001322,0.00000098,-0.00003243,-0.00001254,0.00001557,-0.00000666,0.
 00001812,-0.00000291,0.00000875,-0.00001718,0.00000314,0.00000671,0.00
 000241,0.00000838,0.00000458,0.00001223,0.00000214,0.00000421,0.000001
 54,0.00000224,-0.00000144,0.00000167,0.00000358,-0.00000430,-0.0000198
 1,0.00000535,-0.00000006,0.00000676,-0.00001590,-0.00007182,0.00011166
 ,0.00000517,0.00000270,-0.00000544,-0.00001236,-0.00003058,-0.00002567
 ,-0.00001675,-0.00005579,-0.00001505,0.00006924,0.00002755,-0.00005350
 ,-0.00002128,-0.00009864,-0.00009182,0.00002406,0.00006934,-0.00000275
 ,-0.00003564,-0.00002387,0.00004632,-0.00006108,0.00000643,0.00003592,
 0.00006869,0.00000559,-0.00002924,-0.00002410,-0.00002243,0.00001353,-
 0.00000452,0.00013491,-0.00011009,0.00003017,-0.00001247,-0.00001679,-
 0.00001710,0.00000027,-0.00000293,-0.00000553,-0.00001028,0.00002740,0
 .00000195,0.00001145,0.00003477,0.00022728,-0.00014395,0.00014489,0.00
 000053,0.00003971,-0.00014222,-0.00007694,0.00012406,0.00000227,-0.000
 09954,-0.00005814,0.00008983,0.00000699,-0.00001112,-0.00002244,-0.000
 00156,0.00015406,0.00001467,0.00009490,0.00000320,-0.00003156,0.000001
 32,0.00000110,-0.00000361,-0.00011297,-0.00005874,0.00004065\\\@
 The archive entry for this job was punched.


 HE WHO LAUGHS LAST PROBABLY DIDN'T GET THE JOKE.
 Job cpu time:       1 days 14 hours 25 minutes 49.4 seconds.
 Elapsed time:       0 days  2 hours 26 minutes 54.8 seconds.
 File lengths (MBytes):  RWF=   8253 Int=      0 D2E=      0 Chk=     49 Scr=      1
 Normal termination of Gaussian 16 at Sat Dec  7 22:45:18 2024.
