/mnt/lustre/scratch/nvme/SLURM/9663743/usccqdma.AJBwYHmC2I
OMP_STACKSIZE=0m
GAUSS_PDEF=16
GAUSS_MDEF=65536MB
GAUSS_RDEF=SCF=Direct
 Entering Gaussian System, Link 0=g16.exe
 Initial command:
 /opt/cesga/2020/software/Core/g16/c1/l1.exe "/mnt/lustre/scratch/nvme/SLURM/9663743/usccqdma.AJBwYHmC2I/Gau-92229.inp" -scrdir="/mnt/lustre/scratch/nvme/SLURM/9663743/usccqdma.AJBwYHmC2I/"
 Default is to use a total of  16 processors:
                               16 via shared-memory
                                1 via Linda
 Entering Link 1 = /opt/cesga/2020/software/Core/g16/c1/l1.exe PID=     92255.
  
 Copyright (c) 1988-2019, Gaussian, Inc.  All Rights Reserved.
  
 This is part of the Gaussian(R) 16 program.  It is based on
 the Gaussian(R) 09 system (copyright 2009, Gaussian, Inc.),
 the Gaussian(R) 03 system (copyright 2003, Gaussian, Inc.),
 the Gaussian(R) 98 system (copyright 1998, Gaussian, Inc.),
 the Gaussian(R) 94 system (copyright 1995, Gaussian, Inc.),
 the Gaussian 92(TM) system (copyright 1992, Gaussian, Inc.),
 the Gaussian 90(TM) system (copyright 1990, Gaussian, Inc.),
 the Gaussian 88(TM) system (copyright 1988, Gaussian, Inc.),
 the Gaussian 86(TM) system (copyright 1986, Carnegie Mellon
 University), and the Gaussian 82(TM) system (copyright 1983,
 Carnegie Mellon University). Gaussian is a federally registered
 trademark of Gaussian, Inc.
  
 This software contains proprietary and confidential information,
 including trade secrets, belonging to Gaussian, Inc.
  
 This software is provided under written license and may be
 used, copied, transmitted, or stored only in accord with that
 written license.
  
 The following legend is applicable only to US Government
 contracts under FAR:
  
                    RESTRICTED RIGHTS LEGEND
  
 Use, reproduction and disclosure by the US Government is
 subject to restrictions as set forth in subparagraphs (a)
 and (c) of the Commercial Computer Software - Restricted
 Rights clause in FAR 52.227-19.
  
 Gaussian, Inc.
 340 Quinnipiac St., Bldg. 40, Wallingford CT 06492
  
  
 ---------------------------------------------------------------
 Warning -- This program may not be used in any manner that
 competes with the business of Gaussian, Inc. or will provide
 assistance to any competitor of Gaussian, Inc.  The licensee
 of this program is prohibited from giving any competitor of
 Gaussian, Inc. access to this program.  By using this program,
 the user acknowledges that Gaussian, Inc. is engaged in the
 business of creating and licensing software in the field of
 computational chemistry and represents and warrants to the
 licensee that it is not a competitor of Gaussian, Inc. and that
 it will not use this program in any manner prohibited above.
 ---------------------------------------------------------------
  

 Cite this work as:
 Gaussian 16, Revision C.01,
 M. J. Frisch, G. W. Trucks, H. B. Schlegel, G. E. Scuseria, 
 M. A. Robb, J. R. Cheeseman, G. Scalmani, V. Barone, 
 G. A. Petersson, H. Nakatsuji, X. Li, M. Caricato, A. V. Marenich, 
 J. Bloino, B. G. Janesko, R. Gomperts, B. Mennucci, H. P. Hratchian, 
 J. V. Ortiz, A. F. Izmaylov, J. L. Sonnenberg, D. Williams-Young, 
 F. Ding, F. Lipparini, F. Egidi, J. Goings, B. Peng, A. Petrone, 
 T. Henderson, D. Ranasinghe, V. G. Zakrzewski, J. Gao, N. Rega, 
 G. Zheng, W. Liang, M. Hada, M. Ehara, K. Toyota, R. Fukuda, 
 J. Hasegawa, M. Ishida, T. Nakajima, Y. Honda, O. Kitao, H. Nakai, 
 T. Vreven, K. Throssell, J. A. Montgomery, Jr., J. E. Peralta, 
 F. Ogliaro, M. J. Bearpark, J. J. Heyd, E. N. Brothers, K. N. Kudin, 
 V. N. Staroverov, T. A. Keith, R. Kobayashi, J. Normand, 
 K. Raghavachari, A. P. Rendell, J. C. Burant, S. S. Iyengar, 
 J. Tomasi, M. Cossi, J. M. Millam, M. Klene, C. Adamo, R. Cammi, 
 J. W. Ochterski, R. L. Martin, K. Morokuma, O. Farkas, 
 J. B. Foresman, and D. J. Fox, Gaussian, Inc., Wallingford CT, 2019.
 
 ******************************************
 Gaussian 16:  ES64L-G16RevC.01  3-Jul-2019
                 7-Dec-2024 
 ******************************************
 Default route: SCF=Direct
 ----------------------------------------------------
 # m06/genecp scf=tight int=ultrafine 5d freq=noraman
 ----------------------------------------------------
 1/10=4,30=1,38=1/1,3;
 2/12=2,17=6,18=5,40=1/2;
 3/5=7,8=1,11=2,16=1,17=8,25=1,30=1,71=2,74=-54,75=-5,140=1/1,2,3;
 4//1;
 5/5=2,32=2,38=5,98=1/2;
 8/6=4,10=90,11=11/1;
 11/6=1,8=1,9=11,15=111,16=1/1,2,10;
 10/6=1/2;
 6/7=2,8=2,9=2,10=2,28=1/1;
 7/8=1,10=1,25=1/1,2,3,16;
 1/10=4,30=1/3;
 99//99;
 ------
 OPT-TS
 ------
 Symbolic Z-matrix:
 Charge =  0 Multiplicity = 1
 C                     3.19431  -0.588    -0.40105 
 C                     2.50923  -0.12125  -2.56613 
 C                     3.80608  -0.20345  -3.05213 
 C                     4.82799  -0.48869  -2.15561 
 C                     4.52153  -0.68063  -0.81702 
 C                     2.7739   -0.77709   1.00296 
 C                     1.02864  -0.80825   2.52296 
 C                     1.8789   -1.13955   3.5706 
 C                     3.23397  -1.28666   3.3073 
 C                     3.68486  -1.09945   2.00967 
 H                     1.66562   0.11512  -3.21143 
 H                     5.85941  -0.56253  -2.49452 
 H                     5.31389  -0.90776  -0.1096 
 H                    -0.03573  -0.64378   2.67607 
 H                     3.93486  -1.54327   4.09937 
 H                     4.74067  -1.21726   1.78248 
 N                     2.21581  -0.31079  -1.27784 
 N                     1.45929  -0.63161   1.26862 
 Ir                    0.09989  -0.11439  -0.49644 
 O                     0.97248   2.57941  -1.61513 
 O                    -2.34162   1.68683   0.13939 
 O                    -2.72081  -1.4728   -0.00459 
 B                    -1.33874   0.83527   0.5898 
 B                     0.67082   1.88756  -0.453 
 B                    -1.69662  -1.12722  -0.90993 
 O                    -2.20794  -1.1882   -2.21525 
 O                     1.05062   2.62391   0.66331 
 C                     1.91301   3.67893   0.20646 
 C                     1.43985   3.88795  -1.26054 
 C                    -3.83952  -1.97284  -0.75407 
 C                    -3.62632  -1.31706  -2.14924 
 C                    -2.91952   2.35749   1.26762 
 C                    -2.54326   1.42707   2.4619 
 O                    -1.36051   0.77694   1.98208 
 C                     0.25752   4.83687  -1.38366 
 H                     0.54205   5.87916  -1.18488 
 H                    -0.13843   4.77395  -2.4047 
 H                    -0.54775   4.54894  -0.69647 
 C                     2.53281   4.29602  -2.22961 
 H                     2.10537   4.43132  -3.23135 
 H                     2.99367   5.24755  -1.927 
 H                     3.31579   3.53192  -2.30032 
 C                     1.75769   4.88329   1.11181 
 H                     2.0976    4.63163   2.12477 
 H                     2.36449   5.72568   0.74914 
 H                     0.71392   5.21076   1.17723 
 C                     3.33694   3.14036   0.2958 
 H                     4.0865    3.90478   0.0503 
 H                     3.51762   2.79196   1.3212 
 H                     3.47749   2.2849   -0.38145 
 C                    -2.26139   3.72809   1.35521 
 H                    -2.67298   4.33354   2.174 
 H                    -1.17589   3.62723   1.49137 
 H                    -2.44237   4.26148   0.41259 
 C                    -4.40822   2.52169   1.03309 
 H                    -4.57372   3.15997   0.15538 
 H                    -4.89903   1.55936   0.8459 
 H                    -4.89278   2.99743   1.89817 
 C                    -2.21127   2.15449   3.75133 
 H                    -1.95347   1.42421   4.52975 
 H                    -1.35808   2.83016   3.62754 
 H                    -3.07494   2.73413   4.10845 
 C                    -3.57025   0.33851   2.73737 
 H                    -3.15574  -0.35375   3.48263 
 H                    -4.50994   0.7462    3.13438 
 H                    -3.77291  -0.23905   1.82925 
 C                    -4.10168  -2.157    -3.31993 
 H                    -3.90575  -1.62112  -4.25724 
 H                    -3.5798   -3.11938  -3.37002 
 H                    -5.18354  -2.34476  -3.25716 
 C                    -4.21632   0.08527  -2.24757 
 H                    -3.86555   0.54067  -3.18237 
 H                    -5.31529   0.07302  -2.26215 
 H                    -3.86687   0.71916  -1.42175 
 C                    -5.13101  -1.57565  -0.06569 
 H                    -5.20274  -2.06462   0.9153 
 H                    -5.19394  -0.49226   0.08614 
 H                    -5.9983   -1.88976  -0.66422 
 C                    -3.74608  -3.49486  -0.77577 
 H                    -4.62114  -3.94691  -1.26166 
 H                    -2.84853  -3.8498   -1.29838 
 H                    -3.7025   -3.86151   0.25861 
 H                    -0.54709   0.43876  -1.83426 
 C                     1.60879  -3.62269   0.26576 
 O                     2.40905  -3.3634   -0.6325 
 C                     2.04224  -4.4484    1.46862 
 H                     1.93365  -3.83714   2.38023 
 H                     1.35563  -5.29845   1.60412 
 C                    -0.15591  -2.40445  -0.88888 
 H                     0.6356   -2.41529  -1.6447 
 H                    -0.96636  -2.98082  -1.35653 
 N                     0.32246  -3.17565   0.25718 
 C                    -0.63178  -3.49685   1.29877 
 H                    -1.44493  -2.76318   1.26616 
 H                    -1.06843  -4.50107   1.16562 
 H                    -0.17249  -3.45274   2.2941 
 C                     3.47403  -4.92782   1.33226 
 H                     3.59807  -5.54917   0.43835 
 H                     4.15854  -4.07748   1.2225 
 H                     1.47596  -1.2701    4.57193 
 H                     4.00287  -0.04617  -4.10929 
 H                     3.77708  -5.51171   2.21003 
 

 GradGradGradGradGradGradGradGradGradGradGradGradGradGradGradGradGradGrad
 Berny optimization.
 Initialization pass.
 Trust Radius=3.00D-01 FncErr=1.00D-07 GrdErr=1.00D-07 EigMax=2.50D+02 EigMin=1.00D-04
 Number of steps in this run=      2 maximum allowed number of steps=      2.
 GradGradGradGradGradGradGradGradGradGradGradGradGradGradGradGradGradGrad

 Stoichiometry    C33H55B3IrN3O7
 Framework group  C1[X(C33H55B3IrN3O7)]
 Deg. of freedom   300
 Full point group                 C1      NOp   1
 Largest Abelian subgroup         C1      NOp   1
 Largest concise Abelian subgroup C1      NOp   1
                         Standard orientation:                         
 ---------------------------------------------------------------------
 Center     Atomic      Atomic             Coordinates (Angstroms)
 Number     Number       Type             X           Y           Z
 ---------------------------------------------------------------------
      1          6           0        3.194312   -0.587992   -0.401050
      2          6           0        2.509231   -0.121244   -2.566130
      3          6           0        3.806081   -0.203441   -3.052130
      4          6           0        4.827991   -0.488679   -2.155610
      5          6           0        4.521532   -0.680620   -0.817020
      6          6           0        2.773902   -0.777083    1.002960
      7          6           0        1.028642   -0.808247    2.522960
      8          6           0        1.878903   -1.139545    3.570600
      9          6           0        3.233973   -1.286652    3.307300
     10          6           0        3.684863   -1.099441    2.009670
     11          1           0        1.665620    0.115124   -3.211430
     12          1           0        5.859412   -0.562517   -2.494520
     13          1           0        5.313892   -0.907748   -0.109600
     14          1           0       -0.035728   -0.643779    2.676070
     15          1           0        3.934864   -1.543261    4.099370
     16          1           0        4.740673   -1.217249    1.782480
     17          7           0        2.215811   -0.310785   -1.277840
     18          7           0        1.459292   -0.631606    1.268620
     19         77           0        0.099891   -0.114389   -0.496440
     20          8           0        0.972475    2.579413   -1.615130
     21          8           0       -2.341623    1.686826    0.139390
     22          8           0       -2.720806   -1.472805   -0.004590
     23          5           0       -1.338741    0.835268    0.589800
     24          5           0        0.670816    1.887562   -0.453000
     25          5           0       -1.696617   -1.127223   -0.909930
     26          8           0       -2.207937   -1.188204   -2.215250
     27          8           0        1.050615    2.623913    0.663310
     28          6           0        1.913003    3.678935    0.206460
     29          6           0        1.439842    3.887954   -1.260540
     30          6           0       -3.839515   -1.972847   -0.754070
     31          6           0       -3.626317   -1.317067   -2.149240
     32          6           0       -2.919525    2.357485    1.267620
     33          6           0       -2.543263    1.427065    2.461900
     34          8           0       -1.360511    0.776938    1.982080
     35          6           0        0.257510    4.836871   -1.383660
     36          1           0        0.542038    5.879162   -1.184880
     37          1           0       -0.138440    4.773950   -2.404700
     38          1           0       -0.547759    4.548940   -0.696470
     39          6           0        2.532801    4.296026   -2.229610
     40          1           0        2.105361    4.431325   -3.231350
     41          1           0        2.993659    5.247557   -1.927000
     42          1           0        3.315783    3.531928   -2.300320
     43          6           0        1.757680    4.883294    1.111810
     44          1           0        2.097591    4.631635    2.124770
     45          1           0        2.364478    5.725686    0.749140
     46          1           0        0.713909    5.210762    1.177230
     47          6           0        3.336934    3.140368    0.295800
     48          1           0        4.086492    3.904789    0.050300
     49          1           0        3.517615    2.791968    1.321200
     50          1           0        3.477486    2.284908   -0.381450
     51          6           0       -2.261397    3.728086    1.355210
     52          1           0       -2.672989    4.333535    2.174000
     53          1           0       -1.175897    3.627228    1.491370
     54          1           0       -2.442379    4.261476    0.412590
     55          6           0       -4.408225    2.521681    1.033090
     56          1           0       -4.573726    3.159961    0.155380
     57          1           0       -4.899033    1.559350    0.845900
     58          1           0       -4.892786    2.997420    1.898170
     59          6           0       -2.211274    2.154486    3.751330
     60          1           0       -1.953473    1.424207    4.529750
     61          1           0       -1.358086    2.830158    3.627540
     62          1           0       -3.074945    2.734124    4.108450
     63          6           0       -3.570250    0.338503    2.737370
     64          1           0       -3.155739   -0.353756    3.482630
     65          1           0       -4.509941    0.746191    3.134380
     66          1           0       -3.772909   -0.239057    1.829250
     67          6           0       -4.101675   -2.157008   -3.319930
     68          1           0       -3.905746   -1.621128   -4.257240
     69          1           0       -3.579793   -3.119387   -3.370020
     70          1           0       -5.183535   -2.344770   -3.257160
     71          6           0       -4.216320    0.085262   -2.247570
     72          1           0       -3.865551    0.540663   -3.182370
     73          1           0       -5.315290    0.073010   -2.262150
     74          1           0       -3.866871    0.719153   -1.421750
     75          6           0       -5.131006   -1.575660   -0.065690
     76          1           0       -5.202735   -2.064630    0.915300
     77          1           0       -5.193939   -0.492270    0.086140
     78          1           0       -5.998296   -1.889772   -0.664220
     79          6           0       -3.746072   -3.494867   -0.775770
     80          1           0       -4.621131   -3.946919   -1.261660
     81          1           0       -2.848521   -3.849805   -1.298380
     82          1           0       -3.702491   -3.861517    0.258610
     83          1           0       -0.547090    0.438760   -1.834260
     84          6           0        1.608798   -3.622686    0.265760
     85          8           0        2.409058   -3.363394   -0.632500
     86          6           0        2.042250   -4.448395    1.468620
     87          1           0        1.933659   -3.837135    2.380230
     88          1           0        1.355642   -5.298446    1.604120
     89          6           0       -0.155904   -2.404450   -0.888880
     90          1           0        0.635606   -2.415288   -1.644700
     91          1           0       -0.966353   -2.980821   -1.356530
     92          7           0        0.322467   -3.175649    0.257180
     93          6           0       -0.631772   -3.496851    1.298770
     94          1           0       -1.444924   -2.763182    1.266160
     95          1           0       -1.068420   -4.501072    1.165620
     96          1           0       -0.172482   -3.452740    2.294100
     97          6           0        3.474041   -4.927812    1.332260
     98          1           0        3.598082   -5.549162    0.438350
     99          1           0        4.158549   -4.077470    1.222500
    100          1           0        1.475963   -1.270096    4.571930
    101          1           0        4.002871   -0.046161   -4.109290
    102          1           0        3.777092   -5.511701    2.210030
 ---------------------------------------------------------------------
 Rotational constants (GHZ):           0.0794029           0.0704679           0.0544287
 General basis read from cards:  (5D, 7F)
 ======================================================================================================
                                       Pseudopotential Parameters
 ======================================================================================================
  Center     Atomic      Valence      Angular      Power
  Number     Number     Electrons     Momentum     of R      Exponent        Coefficient   SO-Coeffient
 ======================================================================================================
    1          6
                                   No pseudopotential on this center.
    2          6
                                   No pseudopotential on this center.
    3          6
                                   No pseudopotential on this center.
    4          6
                                   No pseudopotential on this center.
    5          6
                                   No pseudopotential on this center.
    6          6
                                   No pseudopotential on this center.
    7          6
                                   No pseudopotential on this center.
    8          6
                                   No pseudopotential on this center.
    9          6
                                   No pseudopotential on this center.
   10          6
                                   No pseudopotential on this center.
   11          1
                                   No pseudopotential on this center.
   12          1
                                   No pseudopotential on this center.
   13          1
                                   No pseudopotential on this center.
   14          1
                                   No pseudopotential on this center.
   15          1
                                   No pseudopotential on this center.
   16          1
                                   No pseudopotential on this center.
   17          7
                                   No pseudopotential on this center.
   18          7
                                   No pseudopotential on this center.
   19         77           17
                                      G and up 
                                                     1      823.5880147       -0.15780140    0.00000000
                                                     2      364.6613336    -1517.52704460    0.00000000
                                                     2       55.7082801     -316.53065290    0.00000000
                                                     2       12.0464544      -91.88809410    0.00000000
                                                     2        3.5120610       -9.22417730    0.00000000
                                      S - G
                                                     0      188.0490770        3.15780140    0.00000000
                                                     1      340.4194712       26.83225770    0.00000000
                                                     2      128.2373673      800.42500070    0.00000000
                                                     2       33.8644961      369.40506830    0.00000000
                                                     2        4.7560005      242.41718990    0.00000000
                                                     2        3.9649974     -118.21732820    0.00000000
                                      P - G
                                                     0      289.7291139        2.15780140    0.00000000
                                                     1       87.4633789       61.96786100    0.00000000
                                                     2       30.4363766      269.05819860    0.00000000
                                                     2        4.0553412      231.16547930    0.00000000
                                                     2        3.5525341     -133.69526670    0.00000000
                                      D - G
                                                     0      136.4017106        3.15780140    0.00000000
                                                     1       95.0776925       45.93498030    0.00000000
                                                     2       49.2258410      359.03446680    0.00000000
                                                     2       15.0874145      176.47401190    0.00000000
                                                     2        4.0405764       54.51552860    0.00000000
                                      F - G
                                                     0      127.3507908        3.95461970    0.00000000
                                                     1       66.2364374       52.97736550    0.00000000
                                                     2       34.4299229      274.86433830    0.00000000
                                                     2       10.1995721      137.20473380    0.00000000
                                                     2        2.5409702       14.86333050    0.00000000
   20          8
                                   No pseudopotential on this center.
   21          8
                                   No pseudopotential on this center.
   22          8
                                   No pseudopotential on this center.
   23          5
                                   No pseudopotential on this center.
   24          5
                                   No pseudopotential on this center.
   25          5
                                   No pseudopotential on this center.
   26          8
                                   No pseudopotential on this center.
   27          8
                                   No pseudopotential on this center.
   28          6
                                   No pseudopotential on this center.
   29          6
                                   No pseudopotential on this center.
   30          6
                                   No pseudopotential on this center.
   31          6
                                   No pseudopotential on this center.
   32          6
                                   No pseudopotential on this center.
   33          6
                                   No pseudopotential on this center.
   34          8
                                   No pseudopotential on this center.
   35          6
                                   No pseudopotential on this center.
   36          1
                                   No pseudopotential on this center.
   37          1
                                   No pseudopotential on this center.
   38          1
                                   No pseudopotential on this center.
   39          6
                                   No pseudopotential on this center.
   40          1
                                   No pseudopotential on this center.
   41          1
                                   No pseudopotential on this center.
   42          1
                                   No pseudopotential on this center.
   43          6
                                   No pseudopotential on this center.
   44          1
                                   No pseudopotential on this center.
   45          1
                                   No pseudopotential on this center.
   46          1
                                   No pseudopotential on this center.
   47          6
                                   No pseudopotential on this center.
   48          1
                                   No pseudopotential on this center.
   49          1
                                   No pseudopotential on this center.
   50          1
                                   No pseudopotential on this center.
   51          6
                                   No pseudopotential on this center.
   52          1
                                   No pseudopotential on this center.
   53          1
                                   No pseudopotential on this center.
   54          1
                                   No pseudopotential on this center.
   55          6
                                   No pseudopotential on this center.
   56          1
                                   No pseudopotential on this center.
   57          1
                                   No pseudopotential on this center.
   58          1
                                   No pseudopotential on this center.
   59          6
                                   No pseudopotential on this center.
   60          1
                                   No pseudopotential on this center.
   61          1
                                   No pseudopotential on this center.
   62          1
                                   No pseudopotential on this center.
   63          6
                                   No pseudopotential on this center.
   64          1
                                   No pseudopotential on this center.
   65          1
                                   No pseudopotential on this center.
   66          1
                                   No pseudopotential on this center.
   67          6
                                   No pseudopotential on this center.
   68          1
                                   No pseudopotential on this center.
   69          1
                                   No pseudopotential on this center.
   70          1
                                   No pseudopotential on this center.
   71          6
                                   No pseudopotential on this center.
   72          1
                                   No pseudopotential on this center.
   73          1
                                   No pseudopotential on this center.
   74          1
                                   No pseudopotential on this center.
   75          6
                                   No pseudopotential on this center.
   76          1
                                   No pseudopotential on this center.
   77          1
                                   No pseudopotential on this center.
   78          1
                                   No pseudopotential on this center.
   79          6
                                   No pseudopotential on this center.
   80          1
                                   No pseudopotential on this center.
   81          1
                                   No pseudopotential on this center.
   82          1
                                   No pseudopotential on this center.
   83          1
                                   No pseudopotential on this center.
   84          6
                                   No pseudopotential on this center.
   85          8
                                   No pseudopotential on this center.
   86          6
                                   No pseudopotential on this center.
   87          1
                                   No pseudopotential on this center.
   88          1
                                   No pseudopotential on this center.
   89          6
                                   No pseudopotential on this center.
   90          1
                                   No pseudopotential on this center.
   91          1
                                   No pseudopotential on this center.
   92          7
                                   No pseudopotential on this center.
   93          6
                                   No pseudopotential on this center.
   94          1
                                   No pseudopotential on this center.
   95          1
                                   No pseudopotential on this center.
   96          1
                                   No pseudopotential on this center.
   97          6
                                   No pseudopotential on this center.
   98          1
                                   No pseudopotential on this center.
   99          1
                                   No pseudopotential on this center.
  100          1
                                   No pseudopotential on this center.
  101          1
                                   No pseudopotential on this center.
  102          1
                                   No pseudopotential on this center.
 ======================================================================================================
 There are   824 symmetry adapted cartesian basis functions of A   symmetry.
 There are   776 symmetry adapted basis functions of A   symmetry.
   776 basis functions,  1551 primitive gaussians,   824 cartesian basis functions
   181 alpha electrons      181 beta electrons
       nuclear repulsion energy      7503.8167983040 Hartrees.
 NAtoms=  102 NActive=  102 NUniq=  102 SFac= 1.00D+00 NAtFMM=   60 NAOKFM=T Big=T
 Integral buffers will be    131072 words long.
 Raffenetti 2 integral format.
 Two-electron integral symmetry is turned on.
 One-electron integrals computed using PRISM.
   1 Symmetry operations used in ECPInt.
 ECPInt:  NShTT=   45753 NPrTT=  276657 LenC2=   36502 LenP2D=  114235.
 LDataN:  DoStor=T MaxTD1= 6 Len=  172
 NBasis=   776 RedAO= T EigKep=  5.56D-04  NBF=   776
 NBsUse=   776 1.00D-06 EigRej= -1.00D+00 NBFU=   776
 Defaulting to unpruned grid for atomic number  77.
 ExpMin= 2.90D-02 ExpMax= 5.48D+03 ExpMxC= 8.25D+02 IAcc=3 IRadAn=         5 AccDes= 0.00D+00
 Harris functional with IExCor= 1009 and IRadAn=       5 diagonalized for initial guess.
 HarFok:  IExCor= 1009 AccDes= 0.00D+00 IRadAn=         5 IDoV= 1 UseB2=F ITyADJ=14
 ICtDFT=  3500011 ScaDFX=  1.000000  1.000000  1.000000  1.000000
 Defaulting to unpruned grid for atomic number  77.
 FoFCou: FMM=F IPFlag=           0 FMFlag=      100000 FMFlg1=        2001
         NFxFlg=           0 DoJE=T BraDBF=F KetDBF=T FulRan=T
         wScrn=  0.000000 ICntrl=       500 IOpCl=  0 I1Cent=   200000004 NGrid=           0
         NMat0=    1 NMatS0=      1 NMatT0=    0 NMatD0=    1 NMtDS0=    0 NMtDT0=    0
 Petite list used in FoFCou.
 Requested convergence on RMS density matrix=1.00D-08 within 128 cycles.
 Requested convergence on MAX density matrix=1.00D-06.
 Requested convergence on             energy=1.00D-06.
 No special actions if energy rises.
 Defaulting to unpruned grid for atomic number  77.
 Defaulting to unpruned grid for atomic number  77.
 Defaulting to unpruned grid for atomic number  77.
 Defaulting to unpruned grid for atomic number  77.
 Defaulting to unpruned grid for atomic number  77.
 Defaulting to unpruned grid for atomic number  77.
 Defaulting to unpruned grid for atomic number  77.
 Defaulting to unpruned grid for atomic number  77.
 Defaulting to unpruned grid for atomic number  77.
 Defaulting to unpruned grid for atomic number  77.
 Defaulting to unpruned grid for atomic number  77.
 Defaulting to unpruned grid for atomic number  77.
 Defaulting to unpruned grid for atomic number  77.
 Defaulting to unpruned grid for atomic number  77.
 Defaulting to unpruned grid for atomic number  77.
 Defaulting to unpruned grid for atomic number  77.
 SCF Done:  E(RM06) =  -2159.66654762     A.U. after   15 cycles
            NFock= 15  Conv=0.72D-08     -V/T= 2.0409
 DoSCS=F DFT=T ScalE2(SS,OS)=  1.000000  1.000000
 Range of M.O.s used for correlation:     1   776
 NBasis=   776 NAE=   181 NBE=   181 NFC=     0 NFV=     0
 NROrb=    776 NOA=   181 NOB=   181 NVA=   595 NVB=   595
   1 Symmetry operations used in ECPInt.
 ECPInt:  NShTT=   45753 NPrTT=  276657 LenC2=   36502 LenP2D=  114235.
 LDataN:  DoStor=T MaxTD1= 7 Len=  274
 Number of processors reduced to   8 by ecpmxn.
 Symmetrizing basis deriv contribution to polar:
 IMax=3 JMax=2 DiffMx= 0.00D+00
 G2DrvN: will do   103 centers at a time, making    1 passes.
 Calling FoFCou, ICntrl=  3107 FMM=T I1Cent=   0 AccDes= 0.00D+00.
 Defaulting to unpruned grid for atomic number  77.
 Defaulting to unpruned grid for atomic number  77.
 Defaulting to unpruned grid for atomic number  77.
 Defaulting to unpruned grid for atomic number  77.
 Defaulting to unpruned grid for atomic number  77.
 Defaulting to unpruned grid for atomic number  77.
 Defaulting to unpruned grid for atomic number  77.
 Defaulting to unpruned grid for atomic number  77.
 Defaulting to unpruned grid for atomic number  77.
 Defaulting to unpruned grid for atomic number  77.
 Defaulting to unpruned grid for atomic number  77.
 Defaulting to unpruned grid for atomic number  77.
 Defaulting to unpruned grid for atomic number  77.
 Defaulting to unpruned grid for atomic number  77.
 Defaulting to unpruned grid for atomic number  77.
 Defaulting to unpruned grid for atomic number  77.
 End of G2Drv F.D. properties file   721 does not exist.
 End of G2Drv F.D. properties file   722 does not exist.
 End of G2Drv F.D. properties file   788 does not exist.
          IDoAtm=11111111111111111111111111111111111111111111111111
          IDoAtm=11111111111111111111111111111111111111111111111111
          IDoAtm=11
          Differentiating once with respect to electric field.
                with respect to dipole field.
          Differentiating once with respect to nuclear coordinates.
 Defaulting to unpruned grid for atomic number  77.
 CalDSu exits because no D1Ps are significant.
 Defaulting to unpruned grid for atomic number  77.
 Defaulting to unpruned grid for atomic number  77.
 Defaulting to unpruned grid for atomic number  77.
 Defaulting to unpruned grid for atomic number  77.
 Defaulting to unpruned grid for atomic number  77.
 Defaulting to unpruned grid for atomic number  77.
 Defaulting to unpruned grid for atomic number  77.
 Defaulting to unpruned grid for atomic number  77.
 Defaulting to unpruned grid for atomic number  77.
 Defaulting to unpruned grid for atomic number  77.
 Defaulting to unpruned grid for atomic number  77.
 Defaulting to unpruned grid for atomic number  77.
 Defaulting to unpruned grid for atomic number  77.
 Defaulting to unpruned grid for atomic number  77.
 Defaulting to unpruned grid for atomic number  77.
 Defaulting to unpruned grid for atomic number  77.
          There are   309 degrees of freedom in the 1st order CPHF.  IDoFFX=6 NUNeed=     3.
    306 vectors produced by pass  0 Test12= 1.08D-13 1.00D-09 XBig12= 4.40D+02 9.75D+00.
 AX will form    72 AO Fock derivatives at one time.
    306 vectors produced by pass  1 Test12= 1.08D-13 1.00D-09 XBig12= 7.93D+01 1.38D+00.
    306 vectors produced by pass  2 Test12= 1.08D-13 1.00D-09 XBig12= 8.11D-01 6.86D-02.
    306 vectors produced by pass  3 Test12= 1.08D-13 1.00D-09 XBig12= 4.41D-03 5.28D-03.
    306 vectors produced by pass  4 Test12= 1.08D-13 1.00D-09 XBig12= 1.31D-05 3.04D-04.
    273 vectors produced by pass  5 Test12= 1.08D-13 1.00D-09 XBig12= 2.48D-08 1.00D-05.
     76 vectors produced by pass  6 Test12= 1.08D-13 1.00D-09 XBig12= 3.78D-11 4.20D-07.
      3 vectors produced by pass  7 Test12= 1.08D-13 1.00D-09 XBig12= 5.55D-14 1.89D-08.
 InvSVY:  IOpt=1 It=  1 EMax= 3.91D-14
 Solved reduced A of dimension  1882 with   309 vectors.
 Isotropic polarizability for W=    0.000000      455.99 Bohr**3.
 End of Minotr F.D. properties file   721 does not exist.
 End of Minotr F.D. properties file   722 does not exist.
 End of Minotr F.D. properties file   788 does not exist.
 Hyperfine terms turned off by default for NAtoms > 100.

 **********************************************************************

            Population analysis using the SCF Density.

 **********************************************************************

 Orbital symmetries:
       Occupied  (A) (A) (A) (A) (A) (A) (A) (A) (A) (A) (A) (A)
                 (A) (A) (A) (A) (A) (A) (A) (A) (A) (A) (A) (A)
                 (A) (A) (A) (A) (A) (A) (A) (A) (A) (A) (A) (A)
                 (A) (A) (A) (A) (A) (A) (A) (A) (A) (A) (A) (A)
                 (A) (A) (A) (A) (A) (A) (A) (A) (A) (A) (A) (A)
                 (A) (A) (A) (A) (A) (A) (A) (A) (A) (A) (A) (A)
                 (A) (A) (A) (A) (A) (A) (A) (A) (A) (A) (A) (A)
                 (A) (A) (A) (A) (A) (A) (A) (A) (A) (A) (A) (A)
                 (A) (A) (A) (A) (A) (A) (A) (A) (A) (A) (A) (A)
                 (A) (A) (A) (A) (A) (A) (A) (A) (A) (A) (A) (A)
                 (A) (A) (A) (A) (A) (A) (A) (A) (A) (A) (A) (A)
                 (A) (A) (A) (A) (A) (A) (A) (A) (A) (A) (A) (A)
                 (A) (A) (A) (A) (A) (A) (A) (A) (A) (A) (A) (A)
                 (A) (A) (A) (A) (A) (A) (A) (A) (A) (A) (A) (A)
                 (A) (A) (A) (A) (A) (A) (A) (A) (A) (A) (A) (A)
                 (A)
       Virtual   (A) (A) (A) (A) (A) (A) (A) (A) (A) (A) (A) (A)
                 (A) (A) (A) (A) (A) (A) (A) (A) (A) (A) (A) (A)
                 (A) (A) (A) (A) (A) (A) (A) (A) (A) (A) (A) (A)
                 (A) (A) (A) (A) (A) (A) (A) (A) (A) (A) (A) (A)
                 (A) (A) (A) (A) (A) (A) (A) (A) (A) (A) (A) (A)
                 (A) (A) (A) (A) (A) (A) (A) (A) (A) (A) (A) (A)
                 (A) (A) (A) (A) (A) (A) (A) (A) (A) (A) (A) (A)
                 (A) (A) (A) (A) (A) (A) (A) (A) (A) (A) (A) (A)
                 (A) (A) (A) (A) (A) (A) (A) (A) (A) (A) (A) (A)
                 (A) (A) (A) (A) (A) (A) (A) (A) (A) (A) (A) (A)
                 (A) (A) (A) (A) (A) (A) (A) (A) (A) (A) (A) (A)
                 (A) (A) (A) (A) (A) (A) (A) (A) (A) (A) (A) (A)
                 (A) (A) (A) (A) (A) (A) (A) (A) (A) (A) (A) (A)
                 (A) (A) (A) (A) (A) (A) (A) (A) (A) (A) (A) (A)
                 (A) (A) (A) (A) (A) (A) (A) (A) (A) (A) (A) (A)
                 (A) (A) (A) (A) (A) (A) (A) (A) (A) (A) (A) (A)
                 (A) (A) (A) (A) (A) (A) (A) (A) (A) (A) (A) (A)
                 (A) (A) (A) (A) (A) (A) (A) (A) (A) (A) (A) (A)
                 (A) (A) (A) (A) (A) (A) (A) (A) (A) (A) (A) (A)
                 (A) (A) (A) (A) (A) (A) (A) (A) (A) (A) (A) (A)
                 (A) (A) (A) (A) (A) (A) (A) (A) (A) (A) (A) (A)
                 (A) (A) (A) (A) (A) (A) (A) (A) (A) (A) (A) (A)
                 (A) (A) (A) (A) (A) (A) (A) (A) (A) (A) (A) (A)
                 (A) (A) (A) (A) (A) (A) (A) (A) (A) (A) (A) (A)
                 (A) (A) (A) (A) (A) (A) (A) (A) (A) (A) (A) (A)
                 (A) (A) (A) (A) (A) (A) (A) (A) (A) (A) (A) (A)
                 (A) (A) (A) (A) (A) (A) (A) (A) (A) (A) (A) (A)
                 (A) (A) (A) (A) (A) (A) (A) (A) (A) (A) (A) (A)
                 (A) (A) (A) (A) (A) (A) (A) (A) (A) (A) (A) (A)
                 (A) (A) (A) (A) (A) (A) (A) (A) (A) (A) (A) (A)
                 (A) (A) (A) (A) (A) (A) (A) (A) (A) (A) (A) (A)
                 (A) (A) (A) (A) (A) (A) (A) (A) (A) (A) (A) (A)
                 (A) (A) (A) (A) (A) (A) (A) (A) (A) (A) (A) (A)
                 (A) (A) (A) (A) (A) (A) (A) (A) (A) (A) (A) (A)
                 (A) (A) (A) (A) (A) (A) (A) (A) (A) (A) (A) (A)
                 (A) (A) (A) (A) (A) (A) (A) (A) (A) (A) (A) (A)
                 (A) (A) (A) (A) (A) (A) (A) (A) (A) (A) (A) (A)
                 (A) (A) (A) (A) (A) (A) (A) (A) (A) (A) (A) (A)
                 (A) (A) (A) (A) (A) (A) (A) (A) (A) (A) (A) (A)
                 (A) (A) (A) (A) (A) (A) (A) (A) (A) (A) (A) (A)
                 (A) (A) (A) (A) (A) (A) (A) (A) (A) (A) (A) (A)
                 (A) (A) (A) (A) (A) (A) (A) (A) (A) (A) (A) (A)
                 (A) (A) (A) (A) (A) (A) (A) (A) (A) (A) (A) (A)
                 (A) (A) (A) (A) (A) (A) (A) (A) (A) (A) (A) (A)
                 (A) (A) (A) (A) (A) (A) (A) (A) (A) (A) (A) (A)
                 (A) (A) (A) (A) (A) (A) (A) (A) (A) (A) (A) (A)
                 (A) (A) (A) (A) (A) (A) (A) (A) (A) (A) (A) (A)
                 (A) (A) (A) (A) (A) (A) (A) (A) (A) (A) (A) (A)
                 (A) (A) (A) (A) (A) (A) (A) (A) (A) (A) (A) (A)
                 (A) (A) (A) (A) (A) (A) (A)
 The electronic state is 1-A.
 Alpha  occ. eigenvalues --  -19.20490 -19.20172 -19.19785 -19.19672 -19.19615
 Alpha  occ. eigenvalues --  -19.18345 -19.16914 -14.44387 -14.44340 -14.40808
 Alpha  occ. eigenvalues --  -10.32542 -10.31781 -10.31691 -10.30155 -10.29569
 Alpha  occ. eigenvalues --  -10.29530 -10.29272 -10.28920 -10.28897 -10.28879
 Alpha  occ. eigenvalues --  -10.28726 -10.28543 -10.28194 -10.27937 -10.27750
 Alpha  occ. eigenvalues --  -10.27395 -10.27347 -10.25696 -10.24365 -10.24254
 Alpha  occ. eigenvalues --  -10.23017 -10.22981 -10.22904 -10.22609 -10.22468
 Alpha  occ. eigenvalues --  -10.22418 -10.22384 -10.22364 -10.22080 -10.21815
 Alpha  occ. eigenvalues --  -10.21758 -10.21507 -10.20461  -6.81920  -6.79906
 Alpha  occ. eigenvalues --   -6.79741  -3.63170  -2.05781  -2.05070  -2.04255
 Alpha  occ. eigenvalues --   -1.06280  -1.05687  -1.05169  -1.02775  -0.99611
 Alpha  occ. eigenvalues --   -0.99323  -0.98824  -0.98242  -0.97136  -0.92269
 Alpha  occ. eigenvalues --   -0.84022  -0.83188  -0.82396  -0.80554  -0.80009
 Alpha  occ. eigenvalues --   -0.79731  -0.77599  -0.77020  -0.75011  -0.74381
 Alpha  occ. eigenvalues --   -0.74064  -0.70632  -0.70390  -0.70053  -0.69663
 Alpha  occ. eigenvalues --   -0.68567  -0.68229  -0.67810  -0.67563  -0.67099
 Alpha  occ. eigenvalues --   -0.66677  -0.64186  -0.63189  -0.62288  -0.61717
 Alpha  occ. eigenvalues --   -0.61107  -0.60431  -0.57283  -0.54728  -0.54272
 Alpha  occ. eigenvalues --   -0.54118  -0.53764  -0.53266  -0.53017  -0.52945
 Alpha  occ. eigenvalues --   -0.52777  -0.51858  -0.50553  -0.49560  -0.49401
 Alpha  occ. eigenvalues --   -0.48259  -0.47673  -0.47167  -0.46764  -0.46504
 Alpha  occ. eigenvalues --   -0.46235  -0.46184  -0.45821  -0.45757  -0.45571
 Alpha  occ. eigenvalues --   -0.45361  -0.44915  -0.44515  -0.43886  -0.43856
 Alpha  occ. eigenvalues --   -0.43605  -0.43452  -0.43334  -0.42755  -0.42674
 Alpha  occ. eigenvalues --   -0.42010  -0.41276  -0.40781  -0.40211  -0.40122
 Alpha  occ. eigenvalues --   -0.39924  -0.39751  -0.39712  -0.39643  -0.39425
 Alpha  occ. eigenvalues --   -0.39387  -0.39199  -0.39073  -0.38856  -0.38780
 Alpha  occ. eigenvalues --   -0.38556  -0.38159  -0.37707  -0.37606  -0.37400
 Alpha  occ. eigenvalues --   -0.37280  -0.36985  -0.36753  -0.36732  -0.36545
 Alpha  occ. eigenvalues --   -0.36011  -0.35937  -0.35733  -0.35651  -0.35441
 Alpha  occ. eigenvalues --   -0.35358  -0.35152  -0.34863  -0.34714  -0.34300
 Alpha  occ. eigenvalues --   -0.34080  -0.33779  -0.33386  -0.32276  -0.31864
 Alpha  occ. eigenvalues --   -0.31823  -0.31674  -0.31416  -0.31030  -0.30805
 Alpha  occ. eigenvalues --   -0.30300  -0.30193  -0.29739  -0.29179  -0.28278
 Alpha  occ. eigenvalues --   -0.27958  -0.26611  -0.26312  -0.25900  -0.25706
 Alpha  occ. eigenvalues --   -0.25351  -0.24328  -0.24294  -0.22323  -0.21050
 Alpha  occ. eigenvalues --   -0.19243
 Alpha virt. eigenvalues --   -0.06587  -0.03512  -0.02554   0.01975   0.02840
 Alpha virt. eigenvalues --    0.04643   0.05577   0.06302   0.06811   0.07298
 Alpha virt. eigenvalues --    0.07931   0.08522   0.08754   0.10230   0.10701
 Alpha virt. eigenvalues --    0.11279   0.11708   0.11859   0.12101   0.12424
 Alpha virt. eigenvalues --    0.12728   0.12932   0.13465   0.13807   0.14017
 Alpha virt. eigenvalues --    0.14124   0.14445   0.14656   0.14764   0.15043
 Alpha virt. eigenvalues --    0.15473   0.15615   0.15756   0.16055   0.16344
 Alpha virt. eigenvalues --    0.16459   0.16568   0.16731   0.16872   0.17036
 Alpha virt. eigenvalues --    0.17293   0.17454   0.17521   0.17815   0.17935
 Alpha virt. eigenvalues --    0.18169   0.18431   0.18614   0.18662   0.18874
 Alpha virt. eigenvalues --    0.18972   0.19276   0.19468   0.19705   0.19846
 Alpha virt. eigenvalues --    0.20056   0.20332   0.20413   0.20764   0.21046
 Alpha virt. eigenvalues --    0.21226   0.21319   0.21601   0.21773   0.22135
 Alpha virt. eigenvalues --    0.22368   0.22805   0.23299   0.23521   0.23637
 Alpha virt. eigenvalues --    0.23862   0.24132   0.24244   0.24471   0.24646
 Alpha virt. eigenvalues --    0.25050   0.25432   0.25789   0.26078   0.26424
 Alpha virt. eigenvalues --    0.26582   0.26931   0.27042   0.27262   0.27526
 Alpha virt. eigenvalues --    0.27891   0.28109   0.28189   0.28446   0.28856
 Alpha virt. eigenvalues --    0.29356   0.29605   0.29897   0.30211   0.30874
 Alpha virt. eigenvalues --    0.31118   0.31337   0.31792   0.33017   0.33108
 Alpha virt. eigenvalues --    0.33238   0.35190   0.35621   0.35746   0.36339
 Alpha virt. eigenvalues --    0.36650   0.37307   0.38227   0.38923   0.39883
 Alpha virt. eigenvalues --    0.40282   0.40712   0.42634   0.43225   0.43456
 Alpha virt. eigenvalues --    0.44709   0.46306   0.47061   0.48007   0.48783
 Alpha virt. eigenvalues --    0.49334   0.49513   0.50227   0.50685   0.50839
 Alpha virt. eigenvalues --    0.51463   0.51856   0.52343   0.52465   0.53360
 Alpha virt. eigenvalues --    0.53458   0.53637   0.54387   0.55179   0.55387
 Alpha virt. eigenvalues --    0.55413   0.55902   0.56306   0.56997   0.57084
 Alpha virt. eigenvalues --    0.57190   0.57688   0.57719   0.58346   0.58586
 Alpha virt. eigenvalues --    0.58791   0.59004   0.59340   0.59470   0.59724
 Alpha virt. eigenvalues --    0.59922   0.60197   0.60323   0.60790   0.61086
 Alpha virt. eigenvalues --    0.61458   0.61797   0.61886   0.62391   0.62750
 Alpha virt. eigenvalues --    0.62903   0.63446   0.63783   0.64351   0.64812
 Alpha virt. eigenvalues --    0.64929   0.65130   0.65596   0.66068   0.66292
 Alpha virt. eigenvalues --    0.66529   0.67086   0.67188   0.67707   0.67874
 Alpha virt. eigenvalues --    0.68456   0.68631   0.69253   0.69665   0.69932
 Alpha virt. eigenvalues --    0.70369   0.70687   0.71091   0.71216   0.71430
 Alpha virt. eigenvalues --    0.71759   0.72345   0.72859   0.73089   0.73442
 Alpha virt. eigenvalues --    0.73737   0.74315   0.74716   0.75267   0.75571
 Alpha virt. eigenvalues --    0.75885   0.76193   0.76747   0.77222   0.77484
 Alpha virt. eigenvalues --    0.77764   0.78082   0.78538   0.78784   0.79060
 Alpha virt. eigenvalues --    0.80222   0.80663   0.80803   0.81235   0.81573
 Alpha virt. eigenvalues --    0.82029   0.82284   0.82633   0.82952   0.83297
 Alpha virt. eigenvalues --    0.83774   0.84091   0.84312   0.84563   0.84729
 Alpha virt. eigenvalues --    0.84878   0.85380   0.85781   0.85885   0.86092
 Alpha virt. eigenvalues --    0.86490   0.86608   0.86820   0.87170   0.87236
 Alpha virt. eigenvalues --    0.87805   0.88194   0.88357   0.88630   0.89006
 Alpha virt. eigenvalues --    0.89293   0.89484   0.89534   0.89920   0.89995
 Alpha virt. eigenvalues --    0.90119   0.90374   0.90580   0.90992   0.91076
 Alpha virt. eigenvalues --    0.91218   0.91466   0.91924   0.91953   0.92211
 Alpha virt. eigenvalues --    0.92804   0.92958   0.93201   0.93784   0.93919
 Alpha virt. eigenvalues --    0.94185   0.94551   0.95146   0.95516   0.95765
 Alpha virt. eigenvalues --    0.96037   0.96246   0.96502   0.97074   0.97450
 Alpha virt. eigenvalues --    0.97475   0.97967   0.98262   0.98486   0.99272
 Alpha virt. eigenvalues --    0.99511   0.99747   1.00358   1.00448   1.00659
 Alpha virt. eigenvalues --    1.01513   1.02270   1.02528   1.02948   1.03731
 Alpha virt. eigenvalues --    1.03946   1.04723   1.04915   1.05571   1.07334
 Alpha virt. eigenvalues --    1.07676   1.07933   1.08876   1.09639   1.10664
 Alpha virt. eigenvalues --    1.11320   1.11532   1.12135   1.12426   1.12967
 Alpha virt. eigenvalues --    1.13342   1.14087   1.14511   1.15454   1.16600
 Alpha virt. eigenvalues --    1.17164   1.17362   1.18161   1.18421   1.19450
 Alpha virt. eigenvalues --    1.19780   1.20548   1.21166   1.21563   1.22299
 Alpha virt. eigenvalues --    1.22981   1.23657   1.24176   1.25190   1.25723
 Alpha virt. eigenvalues --    1.25821   1.26239   1.26483   1.28322   1.28634
 Alpha virt. eigenvalues --    1.28951   1.29392   1.30220   1.30808   1.31162
 Alpha virt. eigenvalues --    1.32189   1.32868   1.33123   1.35033   1.35594
 Alpha virt. eigenvalues --    1.36980   1.37367   1.37698   1.37978   1.38902
 Alpha virt. eigenvalues --    1.39039   1.40188   1.40881   1.41238   1.42407
 Alpha virt. eigenvalues --    1.42722   1.43597   1.43727   1.44365   1.44934
 Alpha virt. eigenvalues --    1.45282   1.45550   1.45746   1.46923   1.47337
 Alpha virt. eigenvalues --    1.47453   1.47640   1.48666   1.49103   1.50176
 Alpha virt. eigenvalues --    1.50719   1.51355   1.52019   1.52683   1.52868
 Alpha virt. eigenvalues --    1.53709   1.55078   1.56442   1.58306   1.59508
 Alpha virt. eigenvalues --    1.60530   1.61357   1.61625   1.62814   1.63280
 Alpha virt. eigenvalues --    1.64282   1.64748   1.65724   1.66213   1.66530
 Alpha virt. eigenvalues --    1.66708   1.67536   1.68042   1.68753   1.69680
 Alpha virt. eigenvalues --    1.70208   1.70866   1.71410   1.72156   1.72879
 Alpha virt. eigenvalues --    1.73267   1.75024   1.75602   1.76241   1.76893
 Alpha virt. eigenvalues --    1.77452   1.77686   1.78446   1.78993   1.79305
 Alpha virt. eigenvalues --    1.80413   1.80433   1.81278   1.81613   1.82007
 Alpha virt. eigenvalues --    1.82656   1.83345   1.83540   1.83787   1.84590
 Alpha virt. eigenvalues --    1.85131   1.85394   1.85794   1.86138   1.86806
 Alpha virt. eigenvalues --    1.87003   1.87735   1.87756   1.88854   1.88929
 Alpha virt. eigenvalues --    1.89891   1.90629   1.91016   1.91603   1.92091
 Alpha virt. eigenvalues --    1.92177   1.92213   1.92587   1.92778   1.93445
 Alpha virt. eigenvalues --    1.93540   1.93990   1.94256   1.94338   1.94584
 Alpha virt. eigenvalues --    1.94995   1.95321   1.95676   1.95872   1.96597
 Alpha virt. eigenvalues --    1.97462   1.97780   1.98363   1.99206   1.99770
 Alpha virt. eigenvalues --    2.00454   2.01715   2.02083   2.03000   2.03411
 Alpha virt. eigenvalues --    2.03931   2.04075   2.04797   2.05947   2.06343
 Alpha virt. eigenvalues --    2.06696   2.07228   2.07678   2.08071   2.08577
 Alpha virt. eigenvalues --    2.08952   2.09279   2.09982   2.10271   2.10653
 Alpha virt. eigenvalues --    2.11319   2.11937   2.12681   2.13171   2.13361
 Alpha virt. eigenvalues --    2.13808   2.14525   2.14876   2.15080   2.15519
 Alpha virt. eigenvalues --    2.16263   2.16383   2.16840   2.17628   2.17823
 Alpha virt. eigenvalues --    2.18018   2.18467   2.18828   2.18867   2.19336
 Alpha virt. eigenvalues --    2.19765   2.19866   2.21013   2.21192   2.21669
 Alpha virt. eigenvalues --    2.21816   2.22288   2.22552   2.23230   2.23303
 Alpha virt. eigenvalues --    2.23801   2.24393   2.24581   2.25345   2.25831
 Alpha virt. eigenvalues --    2.26180   2.26380   2.26761   2.27013   2.27532
 Alpha virt. eigenvalues --    2.27972   2.28755   2.29259   2.29549   2.29907
 Alpha virt. eigenvalues --    2.31100   2.31758   2.31961   2.32462   2.33153
 Alpha virt. eigenvalues --    2.33453   2.33982   2.34363   2.34714   2.36455
 Alpha virt. eigenvalues --    2.36848   2.37200   2.38564   2.38933   2.39423
 Alpha virt. eigenvalues --    2.39760   2.40619   2.41986   2.42927   2.45548
 Alpha virt. eigenvalues --    2.46221   2.46938   2.48063   2.48366   2.48993
 Alpha virt. eigenvalues --    2.49521   2.50321   2.50754   2.51196   2.51741
 Alpha virt. eigenvalues --    2.53037   2.53122   2.53751   2.56732   2.57175
 Alpha virt. eigenvalues --    2.60597   2.61077   2.61150   2.61578   2.62496
 Alpha virt. eigenvalues --    2.62856   2.64097   2.64839   2.65465   2.65683
 Alpha virt. eigenvalues --    2.66802   2.67984   2.69065   2.69288   2.70114
 Alpha virt. eigenvalues --    2.73081   2.74129   2.77096   2.77563   2.77926
 Alpha virt. eigenvalues --    2.78379   2.78544   2.79461   2.80005   2.80180
 Alpha virt. eigenvalues --    2.80986   2.81412   2.82054   2.82894   2.83310
 Alpha virt. eigenvalues --    2.84296   2.85770   2.87195   2.88911   2.90843
 Alpha virt. eigenvalues --    2.91622   2.94707   2.95105   2.95528   2.96913
 Alpha virt. eigenvalues --    2.99609   3.00806   3.01489   3.03811   3.04972
 Alpha virt. eigenvalues --    3.08022   3.08592   3.12159   3.13164   3.14701
 Alpha virt. eigenvalues --    3.21737   3.25588   3.31010   3.45057  12.57418
          Condensed to atoms (all electrons):
 Mulliken charges:
               1
     1  C    0.349482
     2  C    0.054326
     3  C   -0.163304
     4  C   -0.140340
     5  C   -0.172305
     6  C    0.294327
     7  C    0.058011
     8  C   -0.182006
     9  C   -0.137530
    10  C   -0.182204
    11  H    0.224696
    12  H    0.181360
    13  H    0.169025
    14  H    0.225898
    15  H    0.181559
    16  H    0.169001
    17  N   -0.501539
    18  N   -0.480636
    19  Ir  -0.188062
    20  O   -0.495637
    21  O   -0.521138
    22  O   -0.551792
    23  B    0.461341
    24  B    0.420291
    25  B    0.559104
    26  O   -0.516432
    27  O   -0.503137
    28  C    0.293749
    29  C    0.297451
    30  C    0.298646
    31  C    0.301886
    32  C    0.285316
    33  C    0.301181
    34  O   -0.524262
    35  C   -0.501752
    36  H    0.146149
    37  H    0.177674
    38  H    0.165756
    39  C   -0.508752
    40  H    0.172679
    41  H    0.148856
    42  H    0.163413
    43  C   -0.512507
    44  H    0.169897
    45  H    0.150572
    46  H    0.172068
    47  C   -0.499602
    48  H    0.151840
    49  H    0.171597
    50  H    0.152331
    51  C   -0.513314
    52  H    0.146319
    53  H    0.179365
    54  H    0.168173
    55  C   -0.508374
    56  H    0.172082
    57  H    0.164144
    58  H    0.148807
    59  C   -0.506956
    60  H    0.157045
    61  H    0.176150
    62  H    0.147840
    63  C   -0.508124
    64  H    0.153809
    65  H    0.143316
    66  H    0.189900
    67  C   -0.508489
    68  H    0.171603
    69  H    0.162915
    70  H    0.144443
    71  C   -0.517204
    72  H    0.171782
    73  H    0.135048
    74  H    0.198024
    75  C   -0.511554
    76  H    0.162550
    77  H    0.166335
    78  H    0.153551
    79  C   -0.510014
    80  H    0.155208
    81  H    0.165900
    82  H    0.160103
    83  H    0.214335
    84  C    0.584440
    85  O   -0.534176
    86  C   -0.397815
    87  H    0.154930
    88  H    0.172014
    89  C   -0.397310
    90  H    0.239371
    91  H    0.186129
    92  N   -0.356880
    93  C   -0.383553
    94  H    0.230872
    95  H    0.162634
    96  H    0.153248
    97  C   -0.469980
    98  H    0.180215
    99  H    0.151389
   100  H    0.179897
   101  H    0.183818
   102  H    0.149498
 Sum of Mulliken charges =  -0.00000
 Mulliken charges with hydrogens summed into heavy atoms:
               1
     1  C    0.349482
     2  C    0.279021
     3  C    0.020514
     4  C    0.041020
     5  C   -0.003280
     6  C    0.294327
     7  C    0.283909
     8  C   -0.002109
     9  C    0.044029
    10  C   -0.013203
    17  N   -0.501539
    18  N   -0.480636
    19  Ir   0.026273
    20  O   -0.495637
    21  O   -0.521138
    22  O   -0.551792
    23  B    0.461341
    24  B    0.420291
    25  B    0.559104
    26  O   -0.516432
    27  O   -0.503137
    28  C    0.293749
    29  C    0.297451
    30  C    0.298646
    31  C    0.301886
    32  C    0.285316
    33  C    0.301181
    34  O   -0.524262
    35  C   -0.012173
    39  C   -0.023805
    43  C   -0.019970
    47  C   -0.023834
    51  C   -0.019457
    55  C   -0.023341
    59  C   -0.025921
    63  C   -0.021099
    67  C   -0.029528
    71  C   -0.012350
    75  C   -0.029118
    79  C   -0.028804
    84  C    0.584440
    85  O   -0.534176
    86  C   -0.070871
    89  C    0.028191
    92  N   -0.356880
    93  C    0.163199
    97  C    0.011122
 APT charges:
               1
     1  C    0.218984
     2  C    0.090999
     3  C   -0.078332
     4  C    0.141774
     5  C   -0.180910
     6  C    0.225883
     7  C    0.048782
     8  C   -0.090378
     9  C    0.122645
    10  C   -0.180033
    11  H    0.072409
    12  H    0.030483
    13  H    0.040795
    14  H    0.141480
    15  H    0.031182
    16  H    0.045453
    17  N   -0.248121
    18  N   -0.173422
    19  Ir  -0.752739
    20  O   -0.927344
    21  O   -0.975803
    22  O   -1.080380
    23  B    1.272103
    24  B    1.210084
    25  B    1.582964
    26  O   -1.025918
    27  O   -0.940506
    28  C    0.453874
    29  C    0.460749
    30  C    0.520261
    31  C    0.532685
    32  C    0.478653
    33  C    0.512718
    34  O   -0.972303
    35  C   -0.025338
    36  H   -0.026776
    37  H    0.003318
    38  H    0.013677
    39  C    0.001294
    40  H   -0.000258
    41  H   -0.016397
    42  H   -0.013029
    43  C    0.001714
    44  H    0.000253
    45  H   -0.020052
    46  H    0.003489
    47  C   -0.021782
    48  H   -0.023044
    49  H    0.002253
    50  H   -0.007602
    51  C   -0.042270
    52  H   -0.027912
    53  H    0.020455
    54  H    0.002595
    55  C    0.002035
    56  H    0.001303
    57  H   -0.008221
    58  H   -0.021443
    59  C   -0.011072
    60  H   -0.006180
    61  H    0.002239
    62  H   -0.016881
    63  C   -0.043614
    64  H   -0.008351
    65  H   -0.025733
    66  H    0.040954
    67  C   -0.007602
    68  H   -0.001707
    69  H   -0.002750
    70  H   -0.021421
    71  C   -0.046686
    72  H    0.000263
    73  H   -0.031052
    74  H    0.045749
    75  C   -0.009297
    76  H   -0.001380
    77  H    0.000571
    78  H   -0.022406
    79  C   -0.053639
    80  H   -0.024606
    81  H    0.006323
    82  H    0.001615
    83  H    0.031792
    84  C    0.866485
    85  O   -0.721496
    86  C    0.013657
    87  H   -0.023111
    88  H   -0.025037
    89  C    0.064650
    90  H    0.043801
    91  H   -0.057553
    92  N   -0.727953
    93  C    0.235880
    94  H    0.083105
    95  H   -0.052345
    96  H   -0.015083
    97  C    0.074140
    98  H    0.004897
    99  H   -0.006167
   100  H    0.038043
   101  H    0.036340
   102  H   -0.034414
 Sum of APT charges =   0.00000
 APT charges with hydrogens summed into heavy atoms:
               1
     1  C    0.218984
     2  C    0.163408
     3  C   -0.041993
     4  C    0.172257
     5  C   -0.140115
     6  C    0.225883
     7  C    0.190262
     8  C   -0.052335
     9  C    0.153827
    10  C   -0.134580
    17  N   -0.248121
    18  N   -0.173422
    19  Ir  -0.720947
    20  O   -0.927344
    21  O   -0.975803
    22  O   -1.080380
    23  B    1.272103
    24  B    1.210084
    25  B    1.582964
    26  O   -1.025918
    27  O   -0.940506
    28  C    0.453874
    29  C    0.460749
    30  C    0.520261
    31  C    0.532685
    32  C    0.478653
    33  C    0.512718
    34  O   -0.972303
    35  C   -0.035119
    39  C   -0.028391
    43  C   -0.014595
    47  C   -0.050175
    51  C   -0.047131
    55  C   -0.026326
    59  C   -0.031894
    63  C   -0.036743
    67  C   -0.033481
    71  C   -0.031727
    75  C   -0.032512
    79  C   -0.070307
    84  C    0.866485
    85  O   -0.721496
    86  C   -0.034490
    89  C    0.050897
    92  N   -0.727953
    93  C    0.251557
    97  C    0.038456
 Electronic spatial extent (au):  <R**2>=          23617.8222
 Charge=              0.0000 electrons
 Dipole moment (field-independent basis, Debye):
    X=              4.3297    Y=              0.2890    Z=              3.4754  Tot=              5.5595
 Quadrupole moment (field-independent basis, Debye-Ang):
   XX=           -264.2632   YY=           -292.9648   ZZ=           -281.8252
   XY=              6.3921   XZ=             -1.5200   YZ=             -8.9776
 Traceless Quadrupole moment (field-independent basis, Debye-Ang):
   XX=             15.4212   YY=            -13.2804   ZZ=             -2.1408
   XY=              6.3921   XZ=             -1.5200   YZ=             -8.9776
 Octapole moment (field-independent basis, Debye-Ang**2):
  XXX=            110.3810  YYY=             32.0866  ZZZ=            -34.9177  XYY=            -28.9444
  XXY=             -6.2178  XXZ=            -31.0168  XZZ=             60.5165  YZZ=            -21.8663
  YYZ=              8.0598  XYZ=            -37.9633
 Hexadecapole moment (field-independent basis, Debye-Ang**3):
 XXXX=         -13085.7690 YYYY=         -11625.6402 ZZZZ=          -5664.1765 XXXY=            -22.7567
 XXXZ=            -71.3460 YYYX=            186.2432 YYYZ=            -89.6834 ZZZX=            -48.7841
 ZZZY=            -94.1014 XXYY=          -4337.6003 XXZZ=          -3069.0304 YYZZ=          -2984.0650
 XXYZ=              3.6290 YYXZ=             37.0057 ZZXY=            -75.5734
 N-N= 7.503816798304D+03 E-N=-2.001274356650D+04  KE= 2.074849179232D+03
  Exact polarizability:     510.607      -5.284     418.067      -7.435     -19.699     439.281
 Approx polarizability:     725.174      -9.046     554.844     -20.368     -33.746     713.152
   1 Symmetry operations used in ECPInt.
 ECPInt:  NShTT=   45753 NPrTT=  276657 LenC2=   36502 LenP2D=  114235.
 LDataN:  DoStor=T MaxTD1= 8 Len=  415
 Calling FoFJK, ICntrl=    100127 FMM=F ISym2X=0 I1Cent= 0 IOpClX= 0 NMat=1 NMatS=1 NMatT=0.
 Defaulting to unpruned grid for atomic number  77.
 Defaulting to unpruned grid for atomic number  77.
 Defaulting to unpruned grid for atomic number  77.
 Defaulting to unpruned grid for atomic number  77.
 Defaulting to unpruned grid for atomic number  77.
 Defaulting to unpruned grid for atomic number  77.
 Defaulting to unpruned grid for atomic number  77.
 Defaulting to unpruned grid for atomic number  77.
 Defaulting to unpruned grid for atomic number  77.
 Defaulting to unpruned grid for atomic number  77.
 Defaulting to unpruned grid for atomic number  77.
 Defaulting to unpruned grid for atomic number  77.
 Defaulting to unpruned grid for atomic number  77.
 Defaulting to unpruned grid for atomic number  77.
 Defaulting to unpruned grid for atomic number  77.
 Defaulting to unpruned grid for atomic number  77.
 Full mass-weighted force constant matrix:
 Low frequencies ---  -54.9831   -7.3998   -0.0004   -0.0004    0.0004    2.1060
 Low frequencies ---    4.2915   14.5383   27.0132
 ******    1 imaginary frequencies (negative Signs) ****** 
 Diagonal vibrational polarizability:
      282.9881709     205.4361435     121.3863799
 Harmonic frequencies (cm**-1), IR intensities (KM/Mole), Raman scattering
 activities (A**4/AMU), depolarization ratios for plane and unpolarized
 incident light, reduced masses (AMU), force constants (mDyne/A),
 and normal coordinates:
                      1                      2                      3
                      A                      A                      A
 Frequencies --    -54.9796                13.9579                26.9582
 Red. masses --      6.5124                 4.7733                 4.5157
 Frc consts  --      0.0116                 0.0005                 0.0019
 IR Inten    --      7.2588                 2.0076                 0.4565
  Atom AN      X      Y      Z        X      Y      Z        X      Y      Z
     1   6    -0.02   0.01   0.05     0.01   0.05  -0.01    -0.01  -0.01  -0.02
     2   6    -0.01   0.01   0.05    -0.00   0.04  -0.01    -0.04  -0.05  -0.02
     3   6    -0.01  -0.02   0.05     0.00   0.12  -0.01    -0.05  -0.11  -0.05
     4   6    -0.02  -0.02   0.06     0.02   0.17  -0.00    -0.05  -0.13  -0.06
     5   6    -0.02  -0.01   0.06     0.02   0.14  -0.01    -0.02  -0.08  -0.05
     6   6    -0.04   0.00   0.04     0.02   0.01  -0.02     0.01   0.05  -0.01
     7   6    -0.05  -0.03   0.02     0.02  -0.05  -0.02     0.03   0.05   0.01
     8   6    -0.06  -0.03   0.03     0.02  -0.07  -0.03     0.05   0.13   0.02
     9   6    -0.06  -0.00   0.05     0.02  -0.06  -0.04     0.06   0.18   0.01
    10   6    -0.04   0.01   0.05     0.02  -0.02  -0.03     0.04   0.14   0.00
    11   1    -0.00   0.01   0.04    -0.01   0.00  -0.01    -0.05  -0.04  -0.01
    12   1    -0.02  -0.04   0.06     0.02   0.24   0.00    -0.06  -0.18  -0.08
    13   1    -0.03  -0.03   0.06     0.03   0.19  -0.00    -0.02  -0.10  -0.06
    14   1    -0.06  -0.05   0.01     0.02  -0.06  -0.01     0.03   0.01   0.02
    15   1    -0.06   0.00   0.05     0.02  -0.09  -0.05     0.08   0.25   0.02
    16   1    -0.04   0.03   0.06     0.02  -0.03  -0.04     0.04   0.19  -0.00
    17   7    -0.02   0.02   0.05     0.00   0.01  -0.01    -0.02  -0.00  -0.01
    18   7    -0.04  -0.02   0.03     0.02  -0.01  -0.01     0.01   0.01   0.00
    19  77    -0.02  -0.05  -0.01     0.00  -0.02  -0.00    -0.01  -0.02   0.00
    20   8    -0.01  -0.01   0.01    -0.04  -0.01  -0.03    -0.05   0.01   0.02
    21   8     0.01   0.04  -0.02     0.03   0.01   0.03     0.01   0.00   0.03
    22   8    -0.03   0.08   0.01    -0.02   0.04  -0.03    -0.03   0.01  -0.05
    23   5     0.03   0.06  -0.02     0.03   0.00   0.01    -0.00  -0.01   0.02
    24   5    -0.01  -0.00   0.01    -0.01  -0.01  -0.02    -0.01  -0.01   0.02
    25   5    -0.10   0.23   0.01    -0.02   0.06  -0.02    -0.02   0.04  -0.03
    26   8    -0.09   0.19   0.02     0.01   0.03  -0.02     0.00   0.03  -0.03
    27   8     0.01  -0.00   0.00     0.01  -0.00  -0.03     0.05  -0.04   0.02
    28   6     0.01  -0.01  -0.00    -0.01   0.01  -0.05     0.04  -0.04   0.00
    29   6     0.00  -0.01  -0.00    -0.05   0.00  -0.04    -0.01  -0.01   0.02
    30   6    -0.01   0.01   0.02    -0.01   0.04  -0.04    -0.02   0.02  -0.07
    31   6    -0.08   0.04   0.02     0.00   0.04  -0.03     0.00   0.04  -0.05
    32   6     0.01   0.03  -0.02     0.03  -0.01   0.04     0.01  -0.01   0.04
    33   6     0.03   0.05  -0.02     0.04  -0.03   0.03    -0.02  -0.05   0.02
    34   8     0.04   0.07  -0.02     0.04  -0.01   0.01    -0.02  -0.04   0.02
    35   6     0.01  -0.00  -0.00    -0.07  -0.02  -0.02     0.00   0.02   0.09
    36   1     0.02  -0.00  -0.01    -0.09  -0.02  -0.02     0.03   0.01   0.09
    37   1     0.00  -0.00  -0.00    -0.09  -0.03  -0.01    -0.04   0.04   0.10
    38   1     0.01   0.01   0.00    -0.05  -0.04   0.00     0.02   0.03   0.12
    39   6    -0.00  -0.02  -0.01    -0.08   0.02  -0.07    -0.04  -0.02  -0.01
    40   1    -0.01  -0.03  -0.01    -0.11   0.01  -0.06    -0.08   0.01   0.01
    41   1     0.00  -0.02  -0.02    -0.10   0.04  -0.08    -0.01  -0.03  -0.02
    42   1    -0.00  -0.02  -0.01    -0.06   0.05  -0.08    -0.07  -0.04  -0.06
    43   6     0.01  -0.00  -0.01    -0.01   0.01  -0.05     0.09  -0.06   0.03
    44   1     0.02  -0.00  -0.01     0.02   0.02  -0.06     0.14  -0.08   0.01
    45   1     0.02  -0.01  -0.01    -0.03   0.02  -0.07     0.08  -0.06   0.02
    46   1     0.02   0.00  -0.00    -0.02  -0.00  -0.03     0.10  -0.05   0.09
    47   6     0.01  -0.01  -0.01    -0.00   0.03  -0.08     0.04  -0.06  -0.07
    48   1     0.01  -0.01  -0.01    -0.02   0.05  -0.10     0.04  -0.07  -0.09
    49   1     0.01  -0.01  -0.01     0.02   0.04  -0.09     0.08  -0.08  -0.08
    50   1     0.00  -0.01  -0.01    -0.01   0.04  -0.09     0.00  -0.05  -0.08
    51   6    -0.01   0.04  -0.03     0.02  -0.01   0.06     0.03  -0.03   0.08
    52   1    -0.01   0.04  -0.03     0.03  -0.03   0.07     0.03  -0.04   0.09
    53   1    -0.00   0.05  -0.04     0.03  -0.01   0.04     0.03  -0.05   0.08
    54   1    -0.02   0.04  -0.03     0.01   0.01   0.07     0.04   0.00   0.09
    55   6     0.01   0.01  -0.01     0.03  -0.01   0.05     0.01   0.01   0.03
    56   1    -0.01   0.01  -0.02     0.02  -0.00   0.06     0.03   0.04   0.04
    57   1     0.02   0.01  -0.00     0.03  -0.01   0.04     0.00   0.02  -0.00
    58   1     0.01   0.01  -0.01     0.03  -0.03   0.06     0.01  -0.01   0.04
    59   6     0.03   0.06  -0.02     0.04  -0.04   0.03    -0.03  -0.09   0.04
    60   1     0.04   0.06  -0.02     0.05  -0.05   0.02    -0.05  -0.11   0.03
    61   1     0.01   0.07  -0.03     0.04  -0.04   0.04    -0.02  -0.09   0.08
    62   1     0.02   0.05  -0.02     0.04  -0.05   0.05    -0.03  -0.09   0.05
    63   6     0.05   0.03  -0.01     0.05  -0.04   0.01    -0.03  -0.05  -0.03
    64   1     0.06   0.04  -0.00     0.06  -0.05  -0.00    -0.05  -0.08  -0.05
    65   1     0.04   0.02  -0.01     0.05  -0.05   0.03    -0.03  -0.05  -0.02
    66   1     0.05   0.02  -0.00     0.04  -0.02   0.01    -0.03  -0.02  -0.05
    67   6     0.00   0.01   0.02     0.01   0.05  -0.04     0.01   0.06  -0.07
    68   1    -0.04   0.04   0.02     0.02   0.06  -0.04     0.02   0.07  -0.06
    69   1     0.09   0.06   0.01     0.00   0.05  -0.04     0.01   0.06  -0.08
    70   1     0.02  -0.09   0.01     0.01   0.06  -0.05     0.01   0.06  -0.09
    71   6    -0.20  -0.01   0.04     0.02   0.05  -0.03     0.01   0.04  -0.04
    72   1    -0.25   0.03   0.04     0.03   0.05  -0.02     0.03   0.06  -0.03
    73   1    -0.20  -0.10   0.05     0.02   0.06  -0.04     0.01   0.05  -0.05
    74   1    -0.25   0.01   0.04     0.01   0.04  -0.02     0.01   0.03  -0.02
    75   6    -0.02  -0.07   0.05    -0.01   0.04  -0.05    -0.03   0.01  -0.08
    76   1     0.03  -0.08   0.05    -0.02   0.04  -0.05    -0.04  -0.01  -0.09
    77   1    -0.08  -0.07   0.07    -0.01   0.04  -0.04    -0.03   0.01  -0.06
    78   1    -0.02  -0.11   0.07    -0.01   0.05  -0.05    -0.02   0.02  -0.10
    79   6     0.07   0.02   0.00    -0.01   0.04  -0.04    -0.01   0.02  -0.09
    80   1     0.10  -0.02   0.00    -0.01   0.04  -0.05    -0.01   0.02  -0.09
    81   1     0.09   0.08  -0.00    -0.01   0.04  -0.04    -0.01   0.03  -0.09
    82   1     0.10   0.01  -0.00    -0.02   0.03  -0.05    -0.01   0.01  -0.09
    83   1     0.07  -0.05  -0.06     0.02  -0.02  -0.01    -0.00   0.00   0.01
    84   6     0.13  -0.01  -0.03    -0.01  -0.02   0.11     0.03   0.04   0.04
    85   8     0.17   0.02   0.01     0.05  -0.00   0.17     0.04   0.03   0.04
    86   6     0.09  -0.04  -0.03    -0.09  -0.07   0.12     0.03   0.08   0.07
    87   1     0.06  -0.06  -0.03    -0.11  -0.08   0.12     0.01   0.10   0.05
    88   1     0.08  -0.04  -0.07    -0.13  -0.04   0.07     0.05   0.07   0.08
    89   6     0.18   0.05  -0.05     0.05  -0.00   0.03     0.03   0.00  -0.00
    90   1     0.12  -0.06  -0.10     0.07  -0.05   0.04     0.02  -0.03  -0.01
    91   1     0.04   0.18   0.03     0.03   0.03   0.03     0.00   0.02   0.02
    92   7     0.14  -0.02  -0.08    -0.01  -0.02   0.05     0.02   0.01   0.00
    93   6     0.10  -0.03  -0.11    -0.07  -0.02  -0.01     0.01   0.01  -0.01
    94   1     0.11  -0.02  -0.13    -0.04   0.01  -0.03     0.00   0.01  -0.03
    95   1     0.10  -0.02  -0.14    -0.09  -0.00  -0.07     0.01   0.01  -0.01
    96   1     0.07  -0.05  -0.10    -0.12  -0.08   0.01    -0.01   0.02  -0.00
    97   6     0.09  -0.05   0.01    -0.10  -0.11   0.17     0.04   0.11   0.10
    98   1     0.11  -0.03  -0.01    -0.08  -0.08   0.15     0.07   0.07   0.13
    99   1     0.10  -0.05   0.05    -0.06  -0.14   0.26     0.02   0.12   0.07
   100   1    -0.07  -0.04   0.02     0.03  -0.11  -0.03     0.07   0.16   0.03
   101   1    -0.01  -0.03   0.05    -0.00   0.14  -0.00    -0.07  -0.14  -0.05
   102   1     0.05  -0.07   0.00    -0.18  -0.17   0.17     0.05   0.16   0.13
                      4                      5                      6
                      A                      A                      A
 Frequencies --     28.5236                36.9504                40.3391
 Red. masses --      4.6450                 4.6828                 3.8374
 Frc consts  --      0.0022                 0.0038                 0.0037
 IR Inten    --      0.7333                 0.5235                 0.2657
  Atom AN      X      Y      Z        X      Y      Z        X      Y      Z
     1   6    -0.01   0.00  -0.08     0.00   0.08   0.02    -0.01   0.02   0.01
     2   6    -0.05   0.03  -0.06     0.01  -0.02  -0.00     0.01   0.05   0.01
     3   6    -0.06   0.05  -0.08     0.03   0.08   0.03     0.02   0.07   0.02
     4   6    -0.04   0.04  -0.10     0.03   0.19   0.06     0.01   0.07   0.03
     5   6    -0.02   0.02  -0.10     0.02   0.19   0.05     0.00   0.05   0.02
     6   6     0.02   0.00  -0.07    -0.01   0.07   0.02    -0.02   0.00   0.00
     7   6     0.05   0.05  -0.03    -0.04  -0.06  -0.02    -0.03  -0.01  -0.01
     8   6     0.07   0.06  -0.04    -0.04   0.01  -0.00    -0.04  -0.03  -0.01
     9   6     0.06   0.03  -0.07    -0.02   0.11   0.03    -0.04  -0.04  -0.00
    10   6     0.03  -0.00  -0.09    -0.01   0.14   0.04    -0.03  -0.02   0.01
    11   1    -0.06   0.03  -0.04     0.01  -0.10  -0.02     0.02   0.05   0.00
    12   1    -0.04   0.06  -0.12     0.05   0.28   0.08     0.02   0.09   0.04
    13   1    -0.00   0.02  -0.11     0.03   0.28   0.08    -0.00   0.05   0.03
    14   1     0.06   0.07  -0.01    -0.06  -0.13  -0.05    -0.03   0.00  -0.02
    15   1     0.07   0.02  -0.09    -0.02   0.17   0.05    -0.05  -0.05   0.00
    16   1     0.03  -0.03  -0.11     0.01   0.22   0.06    -0.03  -0.03   0.01
    17   7    -0.03   0.01  -0.06    -0.00  -0.02  -0.00     0.00   0.03   0.00
    18   7     0.03   0.02  -0.04    -0.03  -0.02  -0.01    -0.02   0.01  -0.00
    19  77    -0.01  -0.00  -0.02    -0.01  -0.03  -0.02    -0.01   0.02  -0.01
    20   8     0.06   0.02   0.05     0.06  -0.04  -0.01    -0.08   0.06   0.01
    21   8    -0.02  -0.02  -0.03     0.01  -0.00  -0.01    -0.02   0.00  -0.02
    22   8    -0.01   0.01   0.00    -0.02  -0.01   0.02     0.01  -0.02   0.01
    23   5    -0.01   0.00  -0.02    -0.00  -0.03  -0.02    -0.02   0.01  -0.02
    24   5     0.01   0.00   0.02     0.02  -0.04  -0.02    -0.01   0.01  -0.00
    25   5    -0.02   0.04  -0.00    -0.02  -0.05   0.00     0.01  -0.03   0.00
    26   8    -0.02   0.01   0.00    -0.03  -0.04   0.01     0.00  -0.04   0.01
    27   8    -0.03  -0.02   0.05     0.01  -0.06  -0.00     0.09  -0.04   0.00
    28   6     0.00  -0.03   0.10     0.02  -0.05   0.02     0.10  -0.05  -0.02
    29   6     0.07   0.00   0.09     0.06  -0.05   0.01    -0.01   0.03   0.03
    30   6     0.00  -0.02   0.02    -0.04   0.02   0.03     0.01  -0.04   0.02
    31   6    -0.02  -0.04   0.01    -0.04   0.00   0.02     0.00  -0.06   0.01
    32   6    -0.02  -0.00  -0.04     0.03   0.00   0.00    -0.01   0.01  -0.03
    33   6    -0.00   0.02  -0.03     0.03  -0.01  -0.00    -0.02   0.02  -0.02
    34   8    -0.00   0.02  -0.02     0.01  -0.03  -0.02    -0.02   0.02  -0.01
    35   6     0.10   0.03   0.05     0.06  -0.05  -0.01     0.02   0.08   0.16
    36   1     0.11   0.02   0.08     0.06  -0.05   0.00     0.08   0.06   0.17
    37   1     0.14   0.05   0.03     0.09  -0.04  -0.02    -0.06   0.14   0.18
    38   1     0.06   0.04   0.01     0.05  -0.05  -0.03     0.06   0.09   0.21
    39   6     0.12  -0.00   0.14     0.08  -0.04   0.04    -0.07   0.03  -0.04
    40   1     0.17   0.02   0.12     0.10  -0.05   0.03    -0.14   0.08  -0.00
    41   1     0.13  -0.01   0.18     0.07  -0.04   0.05    -0.02   0.01  -0.04
    42   1     0.11  -0.02   0.16     0.09  -0.04   0.06    -0.09   0.02  -0.12
    43   6    -0.02  -0.04   0.12     0.01  -0.06   0.02     0.21  -0.09   0.05
    44   1    -0.08  -0.07   0.13    -0.02  -0.07   0.03     0.29  -0.15   0.01
    45   1     0.01  -0.04   0.17     0.02  -0.06   0.04     0.20  -0.09   0.04
    46   1    -0.02  -0.02   0.07     0.01  -0.05  -0.01     0.22  -0.07   0.16
    47   6    -0.01  -0.04   0.16     0.02  -0.05   0.05     0.09  -0.10  -0.15
    48   1     0.01  -0.05   0.20     0.03  -0.05   0.07     0.09  -0.12  -0.18
    49   1    -0.06  -0.06   0.16    -0.00  -0.06   0.05     0.16  -0.15  -0.18
    50   1     0.01  -0.04   0.15     0.04  -0.05   0.04     0.01  -0.08  -0.20
    51   6    -0.04   0.01  -0.07     0.05  -0.01  -0.00     0.00   0.01  -0.04
    52   1    -0.04   0.02  -0.08     0.07  -0.00   0.00     0.01   0.01  -0.04
    53   1    -0.04   0.02  -0.06     0.05  -0.03  -0.01     0.00  -0.01  -0.04
    54   1    -0.04  -0.02  -0.08     0.05  -0.00   0.00     0.00   0.00  -0.04
    55   6    -0.02  -0.03  -0.04     0.03   0.02   0.01    -0.01   0.02  -0.03
    56   1    -0.04  -0.04  -0.05     0.03   0.03   0.02    -0.01   0.02  -0.03
    57   1    -0.01  -0.03  -0.02     0.02   0.03   0.02    -0.02   0.03  -0.03
    58   1    -0.03  -0.02  -0.04     0.05   0.03   0.02    -0.01   0.03  -0.03
    59   6     0.00   0.05  -0.04     0.07  -0.01  -0.01    -0.03   0.02  -0.02
    60   1     0.01   0.07  -0.03     0.06  -0.02  -0.01    -0.04   0.03  -0.02
    61   1    -0.00   0.05  -0.06     0.08  -0.03  -0.02    -0.03   0.02  -0.02
    62   1     0.00   0.05  -0.05     0.08   0.00   0.00    -0.04   0.02  -0.03
    63   6     0.01   0.02   0.00     0.01   0.02   0.01    -0.02   0.02  -0.03
    64   1     0.02   0.04   0.01     0.00   0.01   0.01    -0.03   0.02  -0.03
    65   1     0.01   0.02   0.00     0.02   0.04   0.02    -0.02   0.02  -0.03
    66   1     0.00  -0.00   0.02    -0.01   0.01   0.02    -0.02   0.02  -0.03
    67   6     0.00  -0.07   0.02    -0.08   0.01   0.03     0.01  -0.08   0.03
    68   1    -0.01  -0.07   0.01    -0.08  -0.00   0.03     0.00  -0.09   0.02
    69   1     0.03  -0.05   0.03    -0.11  -0.01   0.03     0.02  -0.08   0.04
    70   1     0.01  -0.10   0.02    -0.09   0.05   0.05     0.01  -0.10   0.03
    71   6    -0.07  -0.06  -0.01     0.00   0.02   0.02    -0.01  -0.07  -0.00
    72   1    -0.08  -0.06  -0.02     0.01   0.00   0.02    -0.02  -0.08  -0.01
    73   1    -0.07  -0.09  -0.01     0.00   0.05   0.03    -0.01  -0.08  -0.00
    74   1    -0.08  -0.04  -0.02     0.03   0.02   0.01    -0.02  -0.05  -0.01
    75   6    -0.00  -0.04   0.02    -0.02   0.06   0.04     0.01  -0.05   0.02
    76   1     0.02  -0.03   0.03    -0.03   0.06   0.04     0.02  -0.03   0.03
[...]
 0.,0.00000005,0.00000010,0.00000107,0.00000033,0.00000017,0.00000049,-
 0.00000106,0.00000088,-0.00000153,-0.00000103,-0.00000123,-0.00000043,
 0.00000023,-0.00000058,0.00000028,-0.00000170,0.00000096,0.00000021,-0
 .00000061,0.00000148,-0.00000059,0.,-0.00000010,-0.00000097,0.00000112
 ,0.00000005,-0.00000062,0.00000141,-0.00000079,-0.00000185,0.00000323,
 -0.00000052,-0.00000005,-0.00000512,0.00000224,0.00000107,-0.00000074,
 -0.00000135,-0.00000023,-0.00000219,-0.00000227,0.00000059,0.00000161,
 0.00000231,-0.00000012,-0.00000081,0.00000036,0.00000182,0.00000008,-0
 .00000076,-0.00000099,-0.00000025,-0.00000055,0.00000026,0.00000070,-0
 .00000005,0.00000130,-0.00000194,-0.00000011,-0.00000067,-0.00000021,-
 0.00000052,-0.00000114,-0.00000163,0.00000264,-0.00000158,-0.00000011,
 -0.00000013,0.00000247,0.00000002,0.00000006,0.00000026,-0.00000012,-0
 .00000047,0.00000113,-0.00000041,0.00000445,-0.00005666,0.00001189,0.0
 0001711,0.00002968,-0.00003903,-0.00008200,0.00000088,0.00000563,0.000
 00054,0.00000358,-0.00000113,-0.00000562,-0.00000059,-0.00000025,0.000
 00015,-0.00002862,-0.00004168,-0.00002057,-0.00002424,0.00002761,0.000
 04428,-0.00000150,-0.00001634,0.00000559,0.00001080,-0.00004157,0.0000
 2706,0.00000832,0.00000683,0.00001150,0.00000109,0.00000101,0.00000111
 ,-0.00000056,-0.00000173,-0.00000182,-0.00000514,0.00000242,-0.0000016
 4,0.00000287,0.00000597,0.00000370,-0.00000142,-0.00000772,-0.00000090
 ,-0.00000323,0.00000052,0.00000358,0.00000550,0.00004701,0.00001005,0.
 00453016,0.03244497,-0.00026301,-0.00014693,0.00079010,-0.00215176,0.0
 0143944,-0.00599298,0.05174692,0.04380599,-0.32696290,0.00644187,0.001
 86686,-0.01333339,-0.00315780,0.00167057,-0.00006777,-0.00002545,-0.00
 025089,-0.00000049,-0.00000625,-0.00000621,0.00000193,0.00001588,-0.00
 000237,-0.00001605,0.00000688,-0.00001211,0.00002329,-0.00002553,0.000
 03172,-0.00006622,0.00001702,-0.00057154,0.00017297,-0.00001507,-0.000
 75998,0.00066765,0.00041541,0.00008398,-0.00062397,-0.00000584,0.00000
 541,-0.00000490,-0.00000262,0.00000011,-0.00000749,0.00003821,-0.00000
 165,0.00004105,0.00219309,0.00091632,0.00098679,0.00006926,0.00002825,
 -0.00006719,-0.00031921,-0.00005976,0.00006161,-0.00009640,-0.00017417
 ,0.00012801,0.00008653,-0.00009335,-0.00004083,0.00012966,0.00005870,0
 .00001625,-0.00002492,0.00015695,0.00008380,0.00004430,0.00028270,-0.0
 0007721,-0.00015041,-0.00015858,-0.00015737,0.00007621,0.00002613,0.00
 008087,-0.00004778,-0.00011263,0.00003837,0.00001148,0.00003515,-0.000
 04534,0.00007423,0.00009131,-0.00004675,-0.00004400,-0.00000455,-0.000
 03211,-0.00004438,0.00000241,-0.00000640,-0.00001200,0.00002546,0.0000
 2916,-0.00004164,0.00001427,0.00001475,0.00006567,-0.00006000,-0.00007
 010,-0.00002395,-0.00002455,0.00001492,0.00000495,-0.00000795,-0.00000
 198,0.00000845,0.00000002,0.00000236,-0.00001327,0.00000769,0.00000394
 ,0.00002434,-0.00002203,0.00002636,0.00002055,-0.00002440,0.00001442,-
 0.00001568,0.00001428,0.00001644,-0.00001835,-0.00002603,-0.00007067,0
 .00000398,-0.00000527,0.00000567,0.00000174,0.00000209,0.00000528,-0.0
 0000421,-0.00000857,-0.00000241,0.00000026,0.00000047,-0.00000275,0.00
 000129,0.00000394,0.00002359,-0.00000911,-0.00002326,-0.00001200,-0.00
 000188,0.00000502,0.00001824,0.00000252,0.00003064,-0.00002817,0.00000
 196,-0.00000475,-0.00000739,-0.00000093,-0.00000567,-0.00000218,-0.000
 00034,0.00000446,-0.00000232,0.00000376,-0.00000171,0.00000452,0.00000
 038,-0.00000561,-0.00000462,0.00000136,-0.00000117,0.00000322,-0.00000
 216,0.00000061,0.00000011,0.00000409,-0.00000132,-0.00000218,0.0000072
 8,-0.00000146,-0.00000306,-0.00000233,0.00000017,0.00000109,-0.0000019
 4,0.00000124,0.00000011,0.00000322,-0.00000350,-0.00000374,0.00000580,
 -0.00000313,-0.00000169,-0.00000173,-0.00000070,0.00000129,0.00000544,
 -0.00000095,-0.00000254,-0.00000404,-0.00000017,0.00000174,0.00000517,
 -0.00000111,-0.00000055,0.00000032,-0.00000239,0.00000399,-0.00000068,
 0.00000142,-0.00000261,0.00000296,0.00000203,0.00000224,0.00000584,-0.
 00000033,-0.00000240,-0.00000105,-0.00000053,0.00000301,0.00000514,-0.
 00000141,0.00000062,-0.00000451,0.00000278,-0.00000224,0.00000368,0.00
 000269,0.00000356,-0.00000087,-0.00000063,-0.00000113,-0.00000170,-0.0
 0000062,-0.00000121,0.00000516,0.00000082,0.00000093,0.00001105,0.0000
 0498,0.00000872,0.00000536,0.00000560,0.00000157,-0.00000213,-0.000003
 46,-0.00000330,-0.00000217,-0.00000159,-0.00000002,-0.00000952,0.00000
 856,0.00002811,0.00001988,-0.00002572,-0.00000457,-0.00000221,0.000054
 40,0.00002753,-0.00000210,-0.00000533,-0.00000645,-0.00000453,-0.00000
 127,0.00000214,0.00000305,0.00000327,-0.00000005,-0.00002152,-0.000013
 46,0.00004495,-0.00000116,0.00000712,-0.00002103,0.00001065,0.00001831
 ,-0.00000686,-0.00001791,0.00002488,0.00000371,-0.00001291,-0.00000833
 ,0.00000858,-0.00000232,-0.00000173,0.00000294,0.00000295,0.00000776,0
 .00000066,-0.00000122,-0.00000218,-0.00000084,-0.00000505,-0.00000990,
 -0.00000229,0.00000147,0.00000459,0.00000295,0.00000498,-0.00000167,0.
 00000171,0.00000686,0.00000834,-0.00000495,-0.05500069,-0.04810541,0.3
 4440284,-0.00002811,0.00001234,-0.00003692,-0.00000225,-0.00000384,0.0
 0002186,0.00000884,-0.00000083,0.00000094,0.00001267,-0.00000427,-0.00
 001197,-0.00001485,0.00001579,-0.00001050,-0.00007244,-0.00000350,0.00
 000389,0.00001393,0.00000021,-0.00005912,0.00002485,0.00000221,-0.0000
 0809,-0.00002281,-0.00002301,0.00002854,-0.00001514,-0.00003508,-0.000
 01922,-0.00000395,-0.00000489,0.00000355,0.00000465,0.00000434,-0.0000
 0252,0.00001957,0.00003312,0.00000193,-0.00000280,-0.00000409,-0.00000
 805,0.00001709,0.00000555,0.00000016,0.00003904,0.00003019,0.00002252,
 0.00000652,-0.00001258,0.00000977,-0.00000624,0.00000961,0.00000952,-0
 .00006804,0.00012291,-0.00000310,0.00002564,0.00006080,-0.00001865,-0.
 00004181,0.00003551,0.00002504,-0.00009894,0.00001387,0.00000415,0.000
 07028,-0.00004333,-0.00006727,-0.00000057,-0.00008963,0.00001945,0.000
 20191,-0.00024003,-0.00004313,-0.00013616,0.00004661,-0.00006231,0.000
 03394,0.00007460,0.00001696,-0.00002096,-0.00001367,0.00000769,-0.0000
 0627,-0.00001999,-0.00000448,0.00004255,0.00001809,0.00001793,0.000062
 13,0.00001638,0.00000081,0.00000932,-0.00001497,-0.00002116,0.00001870
 ,-0.00001360,-0.00001056,-0.00002591,0.00002009,0.00005287,0.00000171,
 0.00000406,0.00000153,-0.00000023,0.00000400,0.00000031,-0.00000034,-0
 .00000124,-0.00000023,0.00000098,-0.00000172,-0.00000069,-0.00000053,0
 .00000349,0.00000076,-0.00000046,-0.00000049,-0.00000128,0.00000216,0.
 00000242,-0.00000036,0.00000007,-0.00000146,0.00000014,0.00000415,0.00
 000270,-0.00000223,-0.00000003,-0.00000063,0.00000168,0.00000129,0.000
 00367,0.00000057,-0.00000057,-0.00000104,-0.00000041,0.00000265,0.0000
 0282,-0.00000154,0.00000360,0.00000153,-0.00000037,-0.00000066,-0.0000
 0088,0.00000121,-0.00000196,0.00000014,0.00000003,0.00000004,0.0000017
 7,0.00000348,-0.00000128,0.00000308,0.00000231,0.00000055,-0.00000173,
 -0.00000185,0.00000037,-0.00000073,-0.00000076,-0.00000198,0.00000041,
 0.00000236,0.00000037,-0.00000050,-0.00000121,0.00000153,-0.00000020,-
 0.00000120,-0.00000198,0.00000196,0.00000228,-0.00000141,0.00000255,-0
 .00000016,0.00000088,-0.00000224,0.00000153,0.00000079,0.00000041,-0.0
 0000074,-0.00000146,0.00000180,0.00000172,-0.00000548,0.00000210,-0.00
 000093,0.00000261,-0.00000207,-0.00000117,-0.00000366,0.00000209,0.000
 00176,0.00000545,-0.00000216,-0.00000122,-0.00000361,-0.00000008,-0.00
 000097,0.00000125,0.00000140,-0.00000225,0.00000313,0.00000154,0.00000
 271,-0.00000541,-0.00000136,-0.00000122,-0.00001321,-0.00000164,-0.000
 00047,0.00000185,-0.00000001,-0.00000093,-0.00000811,0.00000461,-0.000
 00027,0.00000189,-0.00000236,-0.00000012,-0.00000316,-0.00000098,-0.00
 000272,0.00000107,-0.00000098,0.00000320,-0.00000037,0.00000236,0.0000
 0028,-0.00000499,-0.00000001,-0.00000110,0.00000050,-0.00001143,-0.000
 01033,-0.00001119,0.00000082,-0.00000251,0.00000221,0.00001070,0.00001
 078,0.00000666,0.00000284,0.00000229,-0.00000167,-0.00000758,0.0000062
 9,-0.00629528,0.00047304,0.00398587,0.00151538,-0.00042536,0.00022010,
 -0.00826809,0.01717185,-0.02681300,0.00137439,-0.00022751,0.00034580,0
 .00109744,-0.00085253,-0.00020057,-0.00043831,-0.00008408,0.00032430,0
 .00001246,-0.00000390,0.00000082,-0.00007880,0.00011692,-0.00010831,-0
 .00057614,0.00149585,-0.00209117,0.00034431,0.00006605,-0.00037494,-0.
 00003498,-0.00001546,0.00005134,-0.00005570,-0.00005139,0.00001305,0.0
 0007098,0.00000287,0.00006948,-0.06638006,0.03716624,-0.05752443,-0.00
 029611,-0.00255240,0.00258175,0.00604954,-0.00890607,0.01704223,-0.000
 00165,0.00001011,0.00000788,0.00000276,0.00000068,-0.00000027,0.071939
 49,0.00000635,0.00008934,-0.00002680,-0.00000158,0.00000828,-0.0000088
 3,0.00000825,-0.00000014,-0.00000716,0.00000850,-0.00000091,-0.0000242
 4,-0.00001029,-0.00000028,-0.00000462,0.00004108,0.00004273,0.00005465
 ,0.00000587,0.00001269,0.00000056,0.00005312,0.00002905,-0.00003126,0.
 00002405,-0.00002314,0.00017217,-0.00004170,-0.00001738,-0.00008335,0.
 00000133,0.00000278,-0.00000107,-0.00000199,0.00000314,0.00000151,0.00
 001575,0.00003611,-0.00000222,-0.00000189,0.00000499,-0.00000316,-0.00
 004632,-0.00006396,-0.00007764,0.00002846,0.00001537,0.00005292,0.0000
 1170,-0.00000564,-0.00001321,-0.00008044,0.00000529,-0.00001252,0.0000
 4859,-0.00008945,0.00000714,-0.00001942,-0.00006660,0.00000952,0.00004
 606,-0.00004108,-0.00002785,0.00009072,-0.00001434,0.00000373,-0.00007
 208,0.00005591,0.00006630,0.00000206,0.00009823,0.00000054,-0.00015370
 ,0.00015177,-0.00001088,0.00009178,-0.00002603,0.00004843,-0.00003265,
 -0.00007222,-0.00002194,0.00001797,0.00001737,-0.00000722,0.00000750,0
 .00002779,0.00000684,-0.00003717,-0.00001093,-0.00001656,-0.00004717,-
 0.00000624,-0.00000366,-0.00001024,0.00001637,0.00002276,-0.00002210,0
 .00001688,0.00001444,0.00003354,-0.00002765,-0.00005715,-0.00000111,-0
 .00000430,-0.00000203,0.00000008,-0.00000511,-0.00000035,0.00000007,0.
 00000163,0.00000005,-0.00000052,0.00000173,0.00000063,-0.00000243,-0.0
 0000155,-0.00000068,0.00000036,0.00000127,0.00000092,-0.00000174,-0.00
 000413,-0.00000038,0.00000236,0.00000117,0.00000030,-0.00000133,-0.000
 00267,0.00000227,-0.00000008,0.00000124,-0.00000268,-0.00000142,-0.000
 00374,0.00000021,0.00000108,0.00000034,-0.00000001,-0.00000265,0.00000
 016,0.00000806,-0.00000327,-0.00000397,0.00000085,0.00000188,0.0000018
 4,-0.00000205,0.00000170,0.00000044,-0.00000319,-0.00000007,-0.0000021
 6,-0.00000338,0.00000180,-0.00000351,-0.00000286,-0.00000076,0.0000020
 8,0.00000232,-0.00000068,0.00000078,0.00000084,0.00000202,-0.00000053,
 -0.00000216,-0.00000037,0.00000044,0.00000148,-0.00000169,0.00000010,0
 .00000109,0.00000231,-0.00000201,-0.00000263,0.00000164,-0.00000340,-0
 .00000046,-0.00000071,0.00000321,-0.00000138,-0.00000124,-0.00000075,0
 .00000142,0.00000196,-0.00000212,-0.00000205,0.00000489,-0.00000303,-0
 .00000024,-0.00000224,0.00000251,0.00000202,0.00000430,-0.00000200,-0.
 00000171,-0.00000556,0.00000221,0.00000071,0.00000233,0.00000012,0.000
 00155,-0.00000137,-0.00000142,0.00000229,-0.00000190,-0.00000171,-0.00
 000258,0.00000443,0.00000136,0.00000044,0.00000755,-0.00000014,0.00000
 122,-0.00000182,-0.00000047,0.00000104,0.00000662,-0.00000260,0.000000
 11,-0.00000199,0.00000209,0.,0.00000291,0.00000034,0.00000193,-0.00000
 138,0.00000137,-0.00000199,0.00000037,-0.00000301,-0.00000024,0.000004
 36,0.00000031,0.00000093,0.00000147,0.00000673,0.00000620,0.00000853,-
 0.00000002,0.00000250,-0.00000062,-0.00000695,-0.00000972,-0.00000709,
 -0.00000159,0.00000088,-0.00000206,0.00000536,-0.00000158,0.00093628,0
 .00038151,-0.00038148,0.00102605,0.00020552,0.00012164,0.00112219,-0.0
 0552138,0.00736423,-0.00035091,-0.00017033,0.00005503,-0.00001787,0.00
 040792,-0.00028395,0.00015389,0.00004995,-0.00017464,-0.00001445,0.000
 01201,-0.00002934,0.00005119,-0.00004923,0.00004758,0.00049626,-0.0004
 6076,0.00060729,-0.00010452,-0.00007483,0.00019182,0.00001752,0.000004
 09,-0.00003039,0.00001915,0.00002834,-0.00002815,-0.00000626,0.0000070
 4,-0.00002801,0.03753375,-0.12399918,0.11312259,-0.00593964,0.01135131
 ,-0.01497343,0.00847336,-0.01161326,0.01939146,0.00002205,-0.00001724,
 -0.00001441,0.00000068,-0.00000061,0.00000411,-0.04340156,0.12931507,-
 0.00000900,-0.00005195,-0.00001778,0.00000546,-0.00001316,0.00001695,-
 0.00000157,0.00000185,0.00001108,-0.00001599,0.00000337,0.00001893,-0.
 00000433,0.00002775,-0.00001265,-0.00001126,-0.00003078,-0.00001889,0.
 00001372,-0.00000703,-0.00001768,0.00001114,0.00000867,-0.00000272,-0.
 00003812,0.00005793,-0.00005529,-0.00001166,0.00005042,0.00004533,-0.0
 0000011,-0.00000417,0.00000148,0.00000024,-0.00000530,-0.00000193,-0.0
 0001473,-0.00001404,-0.00000532,0.00001014,-0.00001216,-0.00000077,0.0
 0000031,0.00001456,0.00001302,-0.00001254,-0.00001217,-0.00002320,0.00
 000782,0.00001165,0.00000121,0.00001065,0.00000128,0.00001852,-0.00004
 843,0.00007152,0.00000305,0.00002047,0.00007783,-0.00001445,-0.0000616
 1,0.00005206,0.00002568,-0.00011267,0.00000930,-0.00001128,0.00009067,
 -0.00006985,-0.00005540,-0.00000530,-0.00011172,0.00000708,0.00015797,
 -0.00010112,0.00004123,-0.00009159,0.00001376,-0.00004816,0.00003090,0
 .00007935,0.00001733,-0.00001745,-0.00002342,0.00000828,-0.00000800,-0
 .00003538,-0.00000569,0.00004688,0.00001616,0.00002353,0.00005317,0.00
 000021,0.00000476,0.00001405,-0.00002077,-0.00002487,0.00003456,-0.000
 02062,-0.00001964,-0.00005351,0.00004136,0.00005296,0.00000034,0.00000
 454,0.00000140,0.00000024,0.00000625,0.00000081,-0.00000035,-0.0000019
 2,-0.00000086,0.00000085,-0.00000200,-0.00000039,0.00000325,0.00000127
 ,0.00000010,-0.00000087,-0.00000158,-0.00000190,0.00000212,0.00000495,
 0.00000109,-0.00000347,-0.00000105,0.00000015,0.00000080,0.00000269,-0
 .00000103,-0.00000015,-0.00000195,0.00000208,0.00000216,0.00000445,-0.
 00000084,-0.00000207,0.,0.00000027,0.00000256,-0.00000075,-0.00000623,
 0.00000354,0.00000567,-0.00000150,-0.00000250,-0.00000348,-0.00000070,
 -0.00000198,-0.00000065,0.00000548,-0.00000006,0.00000268,0.00000346,-
 0.00000192,0.00000385,0.00000387,0.00000029,-0.00000300,-0.00000243,0.
 00000086,-0.00000050,-0.00000188,-0.00000222,0.00000157,0.00000131,0.0
 0000012,0.00000015,-0.00000256,0.00000175,-0.00000079,-0.00000095,-0.0
 0000264,0.00000219,0.00000351,-0.00000217,0.00000245,0.00000262,0.0000
 0231,-0.00000240,-0.00000047,0.00000149,-0.00000082,-0.00000123,-0.000
 00386,0.00000346,0.00000212,-0.00000544,0.00000114,0.00000200,0.000003
 28,-0.00000176,-0.00000353,-0.00000619,0.00000318,0.00000220,0.0000063
 5,-0.00000216,-0.00000105,-0.00000242,-0.00000140,-0.00000247,0.000002
 19,0.00000115,-0.00000237,0.00000300,0.00000254,0.00000226,-0.00000631
 ,-0.00000106,0.,-0.00000598,0.00000118,-0.00000084,0.00000255,0.000000
 47,-0.00000086,-0.00000788,0.00000185,-0.00000008,0.00000324,-0.000001
 90,0.00000021,-0.00000400,0.00000009,-0.00000212,0.00000222,-0.0000007
 4,0.00000287,0.00000014,0.00000264,0.00000086,-0.00000555,-0.00000067,
 -0.00000223,-0.00000103,-0.00000977,-0.00000908,-0.00001098,0.00000009
 ,-0.00000419,0.00000060,0.00000729,0.00001087,0.00000887,0.00000323,0.
 00000033,0.00000207,-0.00000282,-0.00000745,0.00307171,-0.00019477,-0.
 00102291,-0.00203820,0.00098500,0.00037280,0.00285089,-0.00398058,0.00
 409017,-0.00057816,0.00014626,0.00042941,-0.00059774,0.00009088,0.0000
 0591,0.00003697,-0.00008968,0.00011094,0.00002318,-0.00001674,0.000035
 86,-0.00001731,0.00001506,-0.00001999,-0.00050276,0.00007597,0.0004475
 5,0.00000579,0.00007224,-0.00009725,-0.00001635,-0.00001470,0.00000857
 ,-0.00003537,-0.00003587,0.00002214,0.00000434,-0.00001273,-0.00000851
 ,-0.05794745,0.11321664,-0.22017190,-0.00664154,0.01535598,-0.01797715
 ,-0.00018038,-0.00066288,-0.00147993,-0.00000593,-0.00000078,0.0000017
 5,-0.00000071,-0.00000253,-0.00000294,0.06260159,-0.12498001,0.2352901
 2\\-0.00000558,0.00000025,0.00000380,0.00000124,-0.00000471,0.00000420
 ,-0.00000134,-0.00000112,-0.00000228,-0.00000977,-0.00000360,0.0000021
 8,0.00000277,-0.00000277,-0.00000152,0.00000429,-0.00000262,-0.0000039
 3,-0.00000741,0.00000363,-0.00000159,0.00000111,-0.00000150,0.00000425
 ,0.00000650,-0.00000059,-0.00000147,0.00000029,-0.00000040,0.00000303,
 -0.00000051,-0.00000058,-0.00000061,0.00000660,-0.00000242,-0.00000258
 ,0.00000165,-0.00000167,0.00000073,0.00000145,-0.00000078,-0.00000049,
 -0.00000221,0.00000070,-0.00000203,-0.00000122,0.00000007,-0.00000050,
 -0.00000064,-0.00000122,-0.00000240,-0.00000029,-0.00000194,0.00000455
 ,-0.00000112,-0.00000547,0.00000019,0.00000164,-0.00000191,0.00000306,
 0.00000122,0.00000148,-0.00000228,-0.00000125,0.00000544,0.00000370,0.
 00000067,0.00000281,0.00000232,-0.00000029,0.00000176,-0.00000610,0.00
 000009,-0.00000037,0.00000188,0.00000151,-0.00000087,0.00000030,0.0000
 0394,0.00000377,-0.00000014,-0.00000105,-0.00000391,0.00000064,-0.0000
 0042,0.00000099,-0.00000474,0.00000251,0.00000281,-0.00000369,-0.00000
 125,-0.00000060,0.00000610,0.00000374,0.00000195,0.00000294,0.00000667
 ,0.00000777,-0.00000655,0.00000317,0.00000253,-0.00000232,-0.00000182,
 0.00000044,-0.00000138,0.00000152,-0.00000253,-0.00000137,0.00000220,-
 0.00000048,0.00000042,0.00000297,-0.00000115,-0.00000215,0.00001022,-0
 .00000944,-0.00000305,-0.00000109,-0.00000053,-0.00000297,0.00000137,-
 0.00000044,-0.00000043,-0.00000479,0.00000417,0.00000048,-0.00000341,0
 .00000577,-0.00000900,0.00000303,-0.00000182,0.00000415,-0.00000022,-0
 .00000264,-0.00000074,0.00000548,-0.00000141,-0.00000187,0.00000697,0.
 00000347,0.00000020,-0.00000204,-0.00000283,-0.00000073,-0.00000100,-0
 .00000008,-0.00000219,-0.00000125,-0.00000287,-0.00000305,-0.00000035,
 -0.00000352,-0.00000263,0.00000035,0.00000252,0.00000046,0.00000159,-0
 .00000037,0.00000056,0.00000057,0.00000177,-0.00000160,-0.00000356,0.0
 0000415,-0.00000300,0.00000081,-0.00000004,0.00000076,0.00000120,0.000
 00065,0.00000093,0.00000048,0.00000188,0.00000029,0.00000142,0.0000016
 3,0.00000013,0.00000108,0.00000049,0.00000100,0.00000112,0.00000121,-0
 .00000125,-0.00000157,0.00000251,0.00000023,-0.00000226,-0.00000244,0.
 00000596,-0.00000047,0.00000274,-0.00000183,0.00000003,0.00000237,-0.0
 0000068,-0.00000284,-0.00000471,-0.00000444,-0.00000521,0.00000664,0.0
 0000248,0.00000050,0.00000044,-0.00000167,0.00000176,-0.00000567,0.000
 00237,-0.00000156,-0.00000122,0.00000074,-0.00000422,-0.00000450,-0.00
 000027,0.00000124,0.00000136,-0.00000271,-0.00000006,0.00000186,-0.000
 00037,0.00000049,0.00000293,0.00000467,-0.00000158,0.00000673,0.000003
 48,-0.00000055,0.00000145,0.00000036,0.00000072,-0.00000292,-0.0000014
 3,-0.00000002,0.00000035,0.00000005,0.00000338,-0.00000594,0.00000372,
 -0.00000132,0.00000105,0.00000086,-0.00000503,0.00000286,0.00000409,-0
 .00000052,0.00000270,-0.00000302,0.00000004,0.00000087,-0.00000038,0.0
 0000173,-0.00000166,-0.00000031,-0.00000617,-0.00000115,0.00000445,0.0
 0000050,-0.00000113,0.00000197,-0.00000347,-0.00000262,0.00000137,-0.0
 0000181,0.00000114,0.00000042,-0.00000714,0.00000027,-0.00000034,0.000
 00072,0.00000012,0.00000006,0.00000159,0.00000076,0.00000004,0.0000015
 4,-0.00000254,0.00000325,-0.00000627,0.00000606,-0.00000397,0.00000093
 ,-0.00000112,0.00000088,-0.00000120,-0.00000125,0.00000127,0.00000169,
 -0.00000048,0.00000474,0.00000018,-0.00000094,-0.00000151,-0.00000158,
 0.00000040,0.00000284,-0.00000020,-0.00000011,0.00000142,-0.00000065,0
 .00000116,-0.00000028,0.00000027,-0.00000202,-0.00000022,-0.00000123,0
 .00000077,0.00000111\\\@
 The archive entry for this job was punched.


 A HARD FALL SHOULD MEAN A HIGH BOUNCE 
 IF ONE IS MADE OF THE RIGHT MATERIAL.

                -- THE CHEMIST ANALYST, MARCH 1950
 Job cpu time:       1 days 15 hours 49 minutes 41.1 seconds.
 Elapsed time:       0 days  2 hours 31 minutes 57.8 seconds.
 File lengths (MBytes):  RWF=   6947 Int=      0 D2E=      0 Chk=     43 Scr=      1
 Normal termination of Gaussian 16 at Sun Dec  8 00:29:11 2024.
