/mnt/lustre/scratch/nvme/SLURM/9663596/usccqdma.JrVOHe9IqN
OMP_STACKSIZE=0m
GAUSS_PDEF=16
GAUSS_MDEF=65536MB
GAUSS_RDEF=SCF=Direct
 Entering Gaussian System, Link 0=g16.exe
 Initial command:
 /opt/cesga/2020/software/Core/g16/c1/l1.exe "/mnt/lustre/scratch/nvme/SLURM/9663596/usccqdma.JrVOHe9IqN/Gau-3301754.inp" -scrdir="/mnt/lustre/scratch/nvme/SLURM/9663596/usccqdma.JrVOHe9IqN/"
 Default is to use a total of  16 processors:
                               16 via shared-memory
                                1 via Linda
 Entering Link 1 = /opt/cesga/2020/software/Core/g16/c1/l1.exe PID=   3301780.
  
 Copyright (c) 1988-2019, Gaussian, Inc.  All Rights Reserved.
  
 This is part of the Gaussian(R) 16 program.  It is based on
 the Gaussian(R) 09 system (copyright 2009, Gaussian, Inc.),
 the Gaussian(R) 03 system (copyright 2003, Gaussian, Inc.),
 the Gaussian(R) 98 system (copyright 1998, Gaussian, Inc.),
 the Gaussian(R) 94 system (copyright 1995, Gaussian, Inc.),
 the Gaussian 92(TM) system (copyright 1992, Gaussian, Inc.),
 the Gaussian 90(TM) system (copyright 1990, Gaussian, Inc.),
 the Gaussian 88(TM) system (copyright 1988, Gaussian, Inc.),
 the Gaussian 86(TM) system (copyright 1986, Carnegie Mellon
 University), and the Gaussian 82(TM) system (copyright 1983,
 Carnegie Mellon University). Gaussian is a federally registered
 trademark of Gaussian, Inc.
  
 This software contains proprietary and confidential information,
 including trade secrets, belonging to Gaussian, Inc.
  
 This software is provided under written license and may be
 used, copied, transmitted, or stored only in accord with that
 written license.
  
 The following legend is applicable only to US Government
 contracts under FAR:
  
                    RESTRICTED RIGHTS LEGEND
  
 Use, reproduction and disclosure by the US Government is
 subject to restrictions as set forth in subparagraphs (a)
 and (c) of the Commercial Computer Software - Restricted
 Rights clause in FAR 52.227-19.
  
 Gaussian, Inc.
 340 Quinnipiac St., Bldg. 40, Wallingford CT 06492
  
  
 ---------------------------------------------------------------
 Warning -- This program may not be used in any manner that
 competes with the business of Gaussian, Inc. or will provide
 assistance to any competitor of Gaussian, Inc.  The licensee
 of this program is prohibited from giving any competitor of
 Gaussian, Inc. access to this program.  By using this program,
 the user acknowledges that Gaussian, Inc. is engaged in the
 business of creating and licensing software in the field of
 computational chemistry and represents and warrants to the
 licensee that it is not a competitor of Gaussian, Inc. and that
 it will not use this program in any manner prohibited above.
 ---------------------------------------------------------------
  

 Cite this work as:
 Gaussian 16, Revision C.01,
 M. J. Frisch, G. W. Trucks, H. B. Schlegel, G. E. Scuseria, 
 M. A. Robb, J. R. Cheeseman, G. Scalmani, V. Barone, 
 G. A. Petersson, H. Nakatsuji, X. Li, M. Caricato, A. V. Marenich, 
 J. Bloino, B. G. Janesko, R. Gomperts, B. Mennucci, H. P. Hratchian, 
 J. V. Ortiz, A. F. Izmaylov, J. L. Sonnenberg, D. Williams-Young, 
 F. Ding, F. Lipparini, F. Egidi, J. Goings, B. Peng, A. Petrone, 
 T. Henderson, D. Ranasinghe, V. G. Zakrzewski, J. Gao, N. Rega, 
 G. Zheng, W. Liang, M. Hada, M. Ehara, K. Toyota, R. Fukuda, 
 J. Hasegawa, M. Ishida, T. Nakajima, Y. Honda, O. Kitao, H. Nakai, 
 T. Vreven, K. Throssell, J. A. Montgomery, Jr., J. E. Peralta, 
 F. Ogliaro, M. J. Bearpark, J. J. Heyd, E. N. Brothers, K. N. Kudin, 
 V. N. Staroverov, T. A. Keith, R. Kobayashi, J. Normand, 
 K. Raghavachari, A. P. Rendell, J. C. Burant, S. S. Iyengar, 
 J. Tomasi, M. Cossi, J. M. Millam, M. Klene, C. Adamo, R. Cammi, 
 J. W. Ochterski, R. L. Martin, K. Morokuma, O. Farkas, 
 J. B. Foresman, and D. J. Fox, Gaussian, Inc., Wallingford CT, 2019.
 
 ******************************************
 Gaussian 16:  ES64L-G16RevC.01  3-Jul-2019
                 7-Dec-2024 
 ******************************************
 Default route: SCF=Direct
 ----------------------------------------------------
 # m06/genecp scf=tight int=ultrafine 5d freq=noraman
 ----------------------------------------------------
 1/10=4,30=1,38=1/1,3;
 2/12=2,17=6,18=5,40=1/2;
 3/5=7,8=1,11=2,16=1,17=8,25=1,30=1,71=2,74=-54,75=-5,140=1/1,2,3;
 4//1;
 5/5=2,32=2,38=5,98=1/2;
 8/6=4,10=90,11=11/1;
 11/6=1,8=1,9=11,15=111,16=1/1,2,10;
 10/6=1/2;
 6/7=2,8=2,9=2,10=2,28=1/1;
 7/8=1,10=1,25=1/1,2,3,16;
 1/10=4,30=1/3;
 99//99;
 ------
 OPT-TS
 ------
 Symbolic Z-matrix:
 Charge =  0 Multiplicity = 1
 N                    -1.38346   1.97601  -0.45181 
 C                    -2.71831   1.98384  -0.42019 
 C                    -3.44569   3.16499  -0.37711 
 C                    -2.766     4.37724  -0.35892 
 C                    -1.3793    4.3675   -0.40501 
 C                    -0.71059   3.14716  -0.46422 
 H                    -0.79554   5.28338  -0.3837 
 N                     1.41746   4.11086   0.05941 
 C                     0.7692    3.07995  -0.50119 
 C                     1.43414   1.98025  -1.05252 
 C                     2.81644   1.89688  -0.93058 
 C                     3.48076   2.94305  -0.31106 
 C                     2.7389    4.03864   0.13827 
 H                     0.90811   1.21801  -1.65225 
 H                     3.33946   1.01455  -1.29273 
 Ir                   -0.23586   0.07414  -0.17021 
 B                     0.38189  -1.5849   -1.10732 
 O                     0.05042  -2.91586  -0.8886 
 O                     1.16849  -1.44724  -2.24807 
 C                     0.38442  -3.63474  -2.08935 
 C                     1.53154  -2.76721  -2.68607 
 C                    -0.86239  -3.64936  -2.96469 
 H                    -1.18056  -2.62909  -3.2188 
 H                    -1.67982  -4.12603  -2.40967 
 H                    -0.70451  -4.21308  -3.89384 
 C                     0.77364  -5.05207  -1.7229 
 H                     1.09405  -5.61183  -2.61339 
 H                    -0.09202  -5.57005  -1.28961 
 H                     1.58279  -5.0764   -0.9848 
 C                     1.61752  -2.77935  -4.19886 
 H                     0.70234  -2.3912   -4.659 
 H                     1.79505  -3.79818  -4.57249 
 H                     2.45411  -2.14921  -4.52712 
 C                     2.89378  -3.08369  -2.08535 
 H                     3.28937  -4.04237  -2.44741 
 H                     2.845    -3.10478  -0.98982 
 H                     3.59609  -2.28739  -2.36471 
 B                    -1.71278  -1.05709   0.54557 
 O                    -1.88993  -1.69142   1.75256 
 O                    -2.86889  -1.14303  -0.24173 
 C                    -3.28964  -1.97854   1.88635 
 C                    -3.75773  -2.07213   0.40712 
 C                    -3.91599  -0.80606   2.63201 
 C                    -3.45577  -3.25181   2.69007 
 H                    -4.51245  -3.55323   2.73355 
 H                    -3.10556  -3.08821   3.71697 
 H                    -2.87076  -4.07319   2.26288 
 C                    -5.18782  -1.63776   0.15527 
 H                    -5.35236  -0.58842   0.43144 
 H                    -5.89301  -2.26116   0.72365 
 H                    -5.42623  -1.74566  -0.91072 
 C                    -3.50087  -3.43883  -0.21144 
 H                    -4.17284  -4.20599   0.19641 
 H                    -2.45808  -3.7496   -0.05488 
 H                    -3.67383  -3.37017  -1.29356 
 B                     1.18986  -0.85772   0.90614 
 O                     1.04919  -1.41368   2.1604 
 O                     2.54058  -0.81765   0.53231 
 C                     2.32091  -1.94552   2.55406 
 C                     3.31102  -1.08942   1.71454 
 C                     2.32263  -3.41892   2.16837 
 H                     2.19144  -3.54385   1.08485 
 H                     1.47021  -3.90669   2.65665 
 H                     3.24435  -3.92796   2.48165 
 C                     2.47181  -1.80426   4.05531 
 H                     3.47215  -2.12509   4.38066 
 H                     1.73051  -2.43575   4.56062 
 H                     2.30948  -0.7713    4.38184 
 C                     4.598    -1.78253   1.31678 
 H                     4.41138  -2.70151   0.75041 
 H                     5.19646  -2.03506   2.2039 
 H                     5.19495  -1.11087   0.68464 
 C                     3.62988   0.25345   2.36081 
 H                     4.2391    0.14089   3.26724 
 H                     2.71031   0.79691   2.62022 
 H                     4.19932   0.86542   1.65008 
 H                    -3.20381   1.00348  -0.41385 
 H                    -3.83206   0.12709   2.05673 
 H                    -3.37815  -0.66495   3.57739 
 H                    -4.97677  -0.97988   2.8574 
 H                     3.24898   4.88804   0.59776 
 H                    -3.31655   5.31392  -0.30859 
 C                     4.96657   2.9546   -0.13217 
 C                    -4.93812   3.05924  -0.30062 
 F                    -5.42612   2.37858  -1.34044 
 F                    -5.52125   4.25873  -0.27953 
 F                    -5.31053   2.40075   0.80456 
 F                     5.53685   3.90533  -0.88066 
 F                     5.29484   3.21234   1.13973 
 F                     5.51861   1.78557  -0.46584 
 

 GradGradGradGradGradGradGradGradGradGradGradGradGradGradGradGradGradGrad
 Berny optimization.
 Initialization pass.
 Trust Radius=3.00D-01 FncErr=1.00D-07 GrdErr=1.00D-07 EigMax=2.50D+02 EigMin=1.00D-04
 Number of steps in this run=      2 maximum allowed number of steps=      2.
 GradGradGradGradGradGradGradGradGradGradGradGradGradGradGradGradGradGrad

 Stoichiometry    C30H42B3F6IrN2O6
 Framework group  C1[X(C30H42B3F6IrN2O6)]
 Deg. of freedom   264
 Full point group                 C1      NOp   1
 Largest Abelian subgroup         C1      NOp   1
 Largest concise Abelian subgroup C1      NOp   1
                         Standard orientation:                         
 ---------------------------------------------------------------------
 Center     Atomic      Atomic             Coordinates (Angstroms)
 Number     Number       Type             X           Y           Z
 ---------------------------------------------------------------------
      1          7           0       -1.383460    1.976010   -0.451811
      2          6           0       -2.718310    1.983839   -0.420191
      3          6           0       -3.445690    3.164989   -0.377111
      4          6           0       -2.766000    4.377239   -0.358921
      5          6           0       -1.379300    4.367500   -0.405011
      6          6           0       -0.710590    3.147160   -0.464221
      7          1           0       -0.795540    5.283380   -0.383701
      8          7           0        1.417460    4.110860    0.059409
      9          6           0        0.769200    3.079950   -0.501191
     10          6           0        1.434140    1.980250   -1.052521
     11          6           0        2.816440    1.896880   -0.930581
     12          6           0        3.480760    2.943050   -0.311061
     13          6           0        2.738900    4.038640    0.138269
     14          1           0        0.908110    1.218010   -1.652251
     15          1           0        3.339460    1.014550   -1.292731
     16         77           0       -0.235860    0.074140   -0.170211
     17          5           0        0.381891   -1.584900   -1.107321
     18          8           0        0.050421   -2.915860   -0.888601
     19          8           0        1.168491   -1.447240   -2.248071
     20          6           0        0.384421   -3.634740   -2.089351
     21          6           0        1.531541   -2.767210   -2.686071
     22          6           0       -0.862389   -3.649360   -2.964691
     23          1           0       -1.180559   -2.629090   -3.218801
     24          1           0       -1.679819   -4.126030   -2.409671
     25          1           0       -0.704509   -4.213080   -3.893841
     26          6           0        0.773641   -5.052070   -1.722901
     27          1           0        1.094051   -5.611830   -2.613391
     28          1           0       -0.092019   -5.570050   -1.289611
     29          1           0        1.582791   -5.076400   -0.984801
     30          6           0        1.617521   -2.779350   -4.198861
     31          1           0        0.702341   -2.391200   -4.659001
     32          1           0        1.795051   -3.798180   -4.572491
     33          1           0        2.454111   -2.149210   -4.527121
     34          6           0        2.893781   -3.083690   -2.085351
     35          1           0        3.289371   -4.042370   -2.447411
     36          1           0        2.845001   -3.104780   -0.989821
     37          1           0        3.596091   -2.287390   -2.364711
     38          5           0       -1.712779   -1.057090    0.545569
     39          8           0       -1.889929   -1.691420    1.752559
     40          8           0       -2.868889   -1.143031   -0.241731
     41          6           0       -3.289639   -1.978541    1.886349
     42          6           0       -3.757729   -2.072131    0.407119
     43          6           0       -3.915990   -0.806061    2.632009
     44          6           0       -3.455769   -3.251811    2.690069
     45          1           0       -4.512449   -3.553231    2.733549
     46          1           0       -3.105559   -3.088211    3.716969
     47          1           0       -2.870759   -4.073191    2.262879
     48          6           0       -5.187819   -1.637761    0.155269
     49          1           0       -5.352360   -0.588421    0.431439
     50          1           0       -5.893009   -2.261161    0.723649
     51          1           0       -5.426229   -1.745661   -0.910721
     52          6           0       -3.500869   -3.438831   -0.211441
     53          1           0       -4.172839   -4.205991    0.196409
     54          1           0       -2.458079   -3.749601   -0.054881
     55          1           0       -3.673829   -3.370171   -1.293561
     56          5           0        1.189860   -0.857720    0.906139
     57          8           0        1.049191   -1.413680    2.160399
     58          8           0        2.540580   -0.817650    0.532309
     59          6           0        2.320911   -1.945520    2.554059
     60          6           0        3.311021   -1.089420    1.714539
     61          6           0        2.322631   -3.418920    2.168369
     62          1           0        2.191441   -3.543850    1.084849
     63          1           0        1.470211   -3.906690    2.656649
     64          1           0        3.244351   -3.927960    2.481649
     65          6           0        2.471811   -1.804260    4.055309
     66          1           0        3.472151   -2.125090    4.380659
     67          1           0        1.730511   -2.435750    4.560619
     68          1           0        2.309480   -0.771300    4.381839
     69          6           0        4.598001   -1.782529    1.316779
     70          1           0        4.411381   -2.701509    0.750409
     71          1           0        5.196461   -2.035059    2.203899
     72          1           0        5.194951   -1.110869    0.684639
     73          6           0        3.629880    0.253450    2.360809
     74          1           0        4.239100    0.140891    3.267239
     75          1           0        2.710310    0.796910    2.620219
     76          1           0        4.199320    0.865420    1.650079
     77          1           0       -3.203810    1.003479   -0.413851
     78          1           0       -3.832060    0.127089    2.056729
     79          1           0       -3.378150   -0.664951    3.577389
     80          1           0       -4.976770   -0.979881    2.857399
     81          1           0        3.248980    4.888040    0.597759
     82          1           0       -3.316550    5.313919   -0.308591
     83          6           0        4.966570    2.954601   -0.132171
     84          6           0       -4.938120    3.059239   -0.300621
     85          9           0       -5.426120    2.378579   -1.340441
     86          9           0       -5.521250    4.258729   -0.279531
     87          9           0       -5.310530    2.400749    0.804559
     88          9           0        5.536850    3.905331   -0.880661
     89          9           0        5.294840    3.212341    1.139729
     90          9           0        5.518610    1.785571   -0.465841
 ---------------------------------------------------------------------
 Rotational constants (GHZ):           0.0711301           0.0532596           0.0393772
 General basis read from cards:  (5D, 7F)
 ======================================================================================================
                                       Pseudopotential Parameters
 ======================================================================================================
  Center     Atomic      Valence      Angular      Power
  Number     Number     Electrons     Momentum     of R      Exponent        Coefficient   SO-Coeffient
 ======================================================================================================
    1          7
                                   No pseudopotential on this center.
    2          6
                                   No pseudopotential on this center.
    3          6
                                   No pseudopotential on this center.
    4          6
                                   No pseudopotential on this center.
    5          6
                                   No pseudopotential on this center.
    6          6
                                   No pseudopotential on this center.
    7          1
                                   No pseudopotential on this center.
    8          7
                                   No pseudopotential on this center.
    9          6
                                   No pseudopotential on this center.
   10          6
                                   No pseudopotential on this center.
   11          6
                                   No pseudopotential on this center.
   12          6
                                   No pseudopotential on this center.
   13          6
                                   No pseudopotential on this center.
   14          1
                                   No pseudopotential on this center.
   15          1
                                   No pseudopotential on this center.
   16         77           17
                                      G and up 
                                                     1      823.5880147       -0.15780140    0.00000000
                                                     2      364.6613336    -1517.52704460    0.00000000
                                                     2       55.7082801     -316.53065290    0.00000000
                                                     2       12.0464544      -91.88809410    0.00000000
                                                     2        3.5120610       -9.22417730    0.00000000
                                      S - G
                                                     0      188.0490770        3.15780140    0.00000000
                                                     1      340.4194712       26.83225770    0.00000000
                                                     2      128.2373673      800.42500070    0.00000000
                                                     2       33.8644961      369.40506830    0.00000000
                                                     2        4.7560005      242.41718990    0.00000000
                                                     2        3.9649974     -118.21732820    0.00000000
                                      P - G
                                                     0      289.7291139        2.15780140    0.00000000
                                                     1       87.4633789       61.96786100    0.00000000
                                                     2       30.4363766      269.05819860    0.00000000
                                                     2        4.0553412      231.16547930    0.00000000
                                                     2        3.5525341     -133.69526670    0.00000000
                                      D - G
                                                     0      136.4017106        3.15780140    0.00000000
                                                     1       95.0776925       45.93498030    0.00000000
                                                     2       49.2258410      359.03446680    0.00000000
                                                     2       15.0874145      176.47401190    0.00000000
                                                     2        4.0405764       54.51552860    0.00000000
                                      F - G
                                                     0      127.3507908        3.95461970    0.00000000
                                                     1       66.2364374       52.97736550    0.00000000
                                                     2       34.4299229      274.86433830    0.00000000
                                                     2       10.1995721      137.20473380    0.00000000
                                                     2        2.5409702       14.86333050    0.00000000
   17          5
                                   No pseudopotential on this center.
   18          8
                                   No pseudopotential on this center.
   19          8
                                   No pseudopotential on this center.
   20          6
                                   No pseudopotential on this center.
   21          6
                                   No pseudopotential on this center.
   22          6
                                   No pseudopotential on this center.
   23          1
                                   No pseudopotential on this center.
   24          1
                                   No pseudopotential on this center.
   25          1
                                   No pseudopotential on this center.
   26          6
                                   No pseudopotential on this center.
   27          1
                                   No pseudopotential on this center.
   28          1
                                   No pseudopotential on this center.
   29          1
                                   No pseudopotential on this center.
   30          6
                                   No pseudopotential on this center.
   31          1
                                   No pseudopotential on this center.
   32          1
                                   No pseudopotential on this center.
   33          1
                                   No pseudopotential on this center.
   34          6
                                   No pseudopotential on this center.
   35          1
                                   No pseudopotential on this center.
   36          1
                                   No pseudopotential on this center.
   37          1
                                   No pseudopotential on this center.
   38          5
                                   No pseudopotential on this center.
   39          8
                                   No pseudopotential on this center.
   40          8
                                   No pseudopotential on this center.
   41          6
                                   No pseudopotential on this center.
   42          6
                                   No pseudopotential on this center.
   43          6
                                   No pseudopotential on this center.
   44          6
                                   No pseudopotential on this center.
   45          1
                                   No pseudopotential on this center.
   46          1
                                   No pseudopotential on this center.
   47          1
                                   No pseudopotential on this center.
   48          6
                                   No pseudopotential on this center.
   49          1
                                   No pseudopotential on this center.
   50          1
                                   No pseudopotential on this center.
   51          1
                                   No pseudopotential on this center.
   52          6
                                   No pseudopotential on this center.
   53          1
                                   No pseudopotential on this center.
   54          1
                                   No pseudopotential on this center.
   55          1
                                   No pseudopotential on this center.
   56          5
                                   No pseudopotential on this center.
   57          8
                                   No pseudopotential on this center.
   58          8
                                   No pseudopotential on this center.
   59          6
                                   No pseudopotential on this center.
   60          6
                                   No pseudopotential on this center.
   61          6
                                   No pseudopotential on this center.
   62          1
                                   No pseudopotential on this center.
   63          1
                                   No pseudopotential on this center.
   64          1
                                   No pseudopotential on this center.
   65          6
                                   No pseudopotential on this center.
   66          1
                                   No pseudopotential on this center.
   67          1
                                   No pseudopotential on this center.
   68          1
                                   No pseudopotential on this center.
   69          6
                                   No pseudopotential on this center.
   70          1
                                   No pseudopotential on this center.
   71          1
                                   No pseudopotential on this center.
   72          1
                                   No pseudopotential on this center.
   73          6
                                   No pseudopotential on this center.
   74          1
                                   No pseudopotential on this center.
   75          1
                                   No pseudopotential on this center.
   76          1
                                   No pseudopotential on this center.
   77          1
                                   No pseudopotential on this center.
   78          1
                                   No pseudopotential on this center.
   79          1
                                   No pseudopotential on this center.
   80          1
                                   No pseudopotential on this center.
   81          1
                                   No pseudopotential on this center.
   82          1
                                   No pseudopotential on this center.
   83          6
                                   No pseudopotential on this center.
   84          6
                                   No pseudopotential on this center.
   85          9
                                   No pseudopotential on this center.
   86          9
                                   No pseudopotential on this center.
   87          9
                                   No pseudopotential on this center.
   88          9
                                   No pseudopotential on this center.
   89          9
                                   No pseudopotential on this center.
   90          9
                                   No pseudopotential on this center.
 ======================================================================================================
 There are   813 symmetry adapted cartesian basis functions of A   symmetry.
 There are   764 symmetry adapted basis functions of A   symmetry.
   764 basis functions,  1527 primitive gaussians,   813 cartesian basis functions
   185 alpha electrons      185 beta electrons
       nuclear repulsion energy      7427.5708953180 Hartrees.
 NAtoms=   90 NActive=   90 NUniq=   90 SFac= 1.00D+00 NAtFMM=   60 NAOKFM=T Big=T
 Integral buffers will be    131072 words long.
 Raffenetti 2 integral format.
 Two-electron integral symmetry is turned on.
 One-electron integrals computed using PRISM.
   1 Symmetry operations used in ECPInt.
 ECPInt:  NShTT=   39340 NPrTT=  247034 LenC2=   29278 LenP2D=   93289.
 LDataN:  DoStor=T MaxTD1= 6 Len=  172
 NBasis=   764 RedAO= T EigKep=  5.52D-04  NBF=   764
 NBsUse=   764 1.00D-06 EigRej= -1.00D+00 NBFU=   764
 Defaulting to unpruned grid for atomic number  77.
 ExpMin= 2.90D-02 ExpMax= 7.00D+03 ExpMxC= 1.05D+03 IAcc=3 IRadAn=         5 AccDes= 0.00D+00
 Harris functional with IExCor= 1009 and IRadAn=       5 diagonalized for initial guess.
 HarFok:  IExCor= 1009 AccDes= 0.00D+00 IRadAn=         5 IDoV= 1 UseB2=F ITyADJ=14
 ICtDFT=  3500011 ScaDFX=  1.000000  1.000000  1.000000  1.000000
 Defaulting to unpruned grid for atomic number  77.
 FoFCou: FMM=F IPFlag=           0 FMFlag=      100000 FMFlg1=        2001
         NFxFlg=           0 DoJE=T BraDBF=F KetDBF=T FulRan=T
         wScrn=  0.000000 ICntrl=       500 IOpCl=  0 I1Cent=   200000004 NGrid=           0
         NMat0=    1 NMatS0=      1 NMatT0=    0 NMatD0=    1 NMtDS0=    0 NMtDT0=    0
 Petite list used in FoFCou.
 Requested convergence on RMS density matrix=1.00D-08 within 128 cycles.
 Requested convergence on MAX density matrix=1.00D-06.
 Requested convergence on             energy=1.00D-06.
 No special actions if energy rises.
 Defaulting to unpruned grid for atomic number  77.
 Defaulting to unpruned grid for atomic number  77.
 Defaulting to unpruned grid for atomic number  77.
 Defaulting to unpruned grid for atomic number  77.
 Defaulting to unpruned grid for atomic number  77.
 Defaulting to unpruned grid for atomic number  77.
 Defaulting to unpruned grid for atomic number  77.
 Defaulting to unpruned grid for atomic number  77.
 Defaulting to unpruned grid for atomic number  77.
 Defaulting to unpruned grid for atomic number  77.
 Defaulting to unpruned grid for atomic number  77.
 Defaulting to unpruned grid for atomic number  77.
 Defaulting to unpruned grid for atomic number  77.
 Defaulting to unpruned grid for atomic number  77.
 Defaulting to unpruned grid for atomic number  77.
 Defaulting to unpruned grid for atomic number  77.
 SCF Done:  E(RM06) =  -2506.62686897     A.U. after   15 cycles
            NFock= 15  Conv=0.55D-08     -V/T= 2.0353
 DoSCS=F DFT=T ScalE2(SS,OS)=  1.000000  1.000000
 Range of M.O.s used for correlation:     1   764
 NBasis=   764 NAE=   185 NBE=   185 NFC=     0 NFV=     0
 NROrb=    764 NOA=   185 NOB=   185 NVA=   579 NVB=   579
   1 Symmetry operations used in ECPInt.
 ECPInt:  NShTT=   39340 NPrTT=  247034 LenC2=   29278 LenP2D=   93289.
 LDataN:  DoStor=T MaxTD1= 7 Len=  274
 Number of processors reduced to   9 by ecpmxn.
 Symmetrizing basis deriv contribution to polar:
 IMax=3 JMax=2 DiffMx= 0.00D+00
 G2DrvN: will do    91 centers at a time, making    1 passes.
 Calling FoFCou, ICntrl=  3107 FMM=T I1Cent=   0 AccDes= 0.00D+00.
 Defaulting to unpruned grid for atomic number  77.
 Defaulting to unpruned grid for atomic number  77.
 Defaulting to unpruned grid for atomic number  77.
 Defaulting to unpruned grid for atomic number  77.
 Defaulting to unpruned grid for atomic number  77.
 Defaulting to unpruned grid for atomic number  77.
 Defaulting to unpruned grid for atomic number  77.
 Defaulting to unpruned grid for atomic number  77.
 Defaulting to unpruned grid for atomic number  77.
 Defaulting to unpruned grid for atomic number  77.
 Defaulting to unpruned grid for atomic number  77.
 Defaulting to unpruned grid for atomic number  77.
 Defaulting to unpruned grid for atomic number  77.
 Defaulting to unpruned grid for atomic number  77.
 Defaulting to unpruned grid for atomic number  77.
 Defaulting to unpruned grid for atomic number  77.
 End of G2Drv F.D. properties file   721 does not exist.
 End of G2Drv F.D. properties file   722 does not exist.
 End of G2Drv F.D. properties file   788 does not exist.
          IDoAtm=11111111111111111111111111111111111111111111111111
          IDoAtm=1111111111111111111111111111111111111111
          Differentiating once with respect to electric field.
                with respect to dipole field.
          Differentiating once with respect to nuclear coordinates.
 Defaulting to unpruned grid for atomic number  77.
 CalDSu exits because no D1Ps are significant.
 Defaulting to unpruned grid for atomic number  77.
 Defaulting to unpruned grid for atomic number  77.
 Defaulting to unpruned grid for atomic number  77.
 Defaulting to unpruned grid for atomic number  77.
 Defaulting to unpruned grid for atomic number  77.
 Defaulting to unpruned grid for atomic number  77.
 Defaulting to unpruned grid for atomic number  77.
 Defaulting to unpruned grid for atomic number  77.
 Defaulting to unpruned grid for atomic number  77.
 Defaulting to unpruned grid for atomic number  77.
 Defaulting to unpruned grid for atomic number  77.
 Defaulting to unpruned grid for atomic number  77.
 Defaulting to unpruned grid for atomic number  77.
 Defaulting to unpruned grid for atomic number  77.
 Defaulting to unpruned grid for atomic number  77.
 Defaulting to unpruned grid for atomic number  77.
          There are   273 degrees of freedom in the 1st order CPHF.  IDoFFX=6 NUNeed=     3.
    270 vectors produced by pass  0 Test12= 1.07D-13 1.00D-09 XBig12= 4.61D+02 7.00D+00.
 AX will form    72 AO Fock derivatives at one time.
    270 vectors produced by pass  1 Test12= 1.07D-13 1.00D-09 XBig12= 7.69D+01 1.28D+00.
    270 vectors produced by pass  2 Test12= 1.07D-13 1.00D-09 XBig12= 1.16D+00 1.57D-01.
    270 vectors produced by pass  3 Test12= 1.07D-13 1.00D-09 XBig12= 8.66D-03 1.08D-02.
    270 vectors produced by pass  4 Test12= 1.07D-13 1.00D-09 XBig12= 3.80D-05 5.40D-04.
    249 vectors produced by pass  5 Test12= 1.07D-13 1.00D-09 XBig12= 9.75D-08 2.59D-05.
     80 vectors produced by pass  6 Test12= 1.07D-13 1.00D-09 XBig12= 1.64D-10 8.80D-07.
      3 vectors produced by pass  7 Test12= 1.07D-13 1.00D-09 XBig12= 2.28D-13 2.38D-08.
      1 vectors produced by pass  8 Test12= 1.07D-13 1.00D-09 XBig12= 3.52D-16 1.31D-09.
 InvSVY:  IOpt=1 It=  1 EMax= 1.42D-14
 Solved reduced A of dimension  1683 with   273 vectors.
 Isotropic polarizability for W=    0.000000      424.68 Bohr**3.
 End of Minotr F.D. properties file   721 does not exist.
 End of Minotr F.D. properties file   722 does not exist.
 End of Minotr F.D. properties file   788 does not exist.

 **********************************************************************

            Population analysis using the SCF Density.

 **********************************************************************

 Orbital symmetries:
       Occupied  (A) (A) (A) (A) (A) (A) (A) (A) (A) (A) (A) (A)
                 (A) (A) (A) (A) (A) (A) (A) (A) (A) (A) (A) (A)
                 (A) (A) (A) (A) (A) (A) (A) (A) (A) (A) (A) (A)
                 (A) (A) (A) (A) (A) (A) (A) (A) (A) (A) (A) (A)
                 (A) (A) (A) (A) (A) (A) (A) (A) (A) (A) (A) (A)
                 (A) (A) (A) (A) (A) (A) (A) (A) (A) (A) (A) (A)
                 (A) (A) (A) (A) (A) (A) (A) (A) (A) (A) (A) (A)
                 (A) (A) (A) (A) (A) (A) (A) (A) (A) (A) (A) (A)
                 (A) (A) (A) (A) (A) (A) (A) (A) (A) (A) (A) (A)
                 (A) (A) (A) (A) (A) (A) (A) (A) (A) (A) (A) (A)
                 (A) (A) (A) (A) (A) (A) (A) (A) (A) (A) (A) (A)
                 (A) (A) (A) (A) (A) (A) (A) (A) (A) (A) (A) (A)
                 (A) (A) (A) (A) (A) (A) (A) (A) (A) (A) (A) (A)
                 (A) (A) (A) (A) (A) (A) (A) (A) (A) (A) (A) (A)
                 (A) (A) (A) (A) (A) (A) (A) (A) (A) (A) (A) (A)
                 (A) (A) (A) (A) (A)
       Virtual   (A) (A) (A) (A) (A) (A) (A) (A) (A) (A) (A) (A)
                 (A) (A) (A) (A) (A) (A) (A) (A) (A) (A) (A) (A)
                 (A) (A) (A) (A) (A) (A) (A) (A) (A) (A) (A) (A)
                 (A) (A) (A) (A) (A) (A) (A) (A) (A) (A) (A) (A)
                 (A) (A) (A) (A) (A) (A) (A) (A) (A) (A) (A) (A)
                 (A) (A) (A) (A) (A) (A) (A) (A) (A) (A) (A) (A)
                 (A) (A) (A) (A) (A) (A) (A) (A) (A) (A) (A) (A)
                 (A) (A) (A) (A) (A) (A) (A) (A) (A) (A) (A) (A)
                 (A) (A) (A) (A) (A) (A) (A) (A) (A) (A) (A) (A)
                 (A) (A) (A) (A) (A) (A) (A) (A) (A) (A) (A) (A)
                 (A) (A) (A) (A) (A) (A) (A) (A) (A) (A) (A) (A)
                 (A) (A) (A) (A) (A) (A) (A) (A) (A) (A) (A) (A)
                 (A) (A) (A) (A) (A) (A) (A) (A) (A) (A) (A) (A)
                 (A) (A) (A) (A) (A) (A) (A) (A) (A) (A) (A) (A)
                 (A) (A) (A) (A) (A) (A) (A) (A) (A) (A) (A) (A)
                 (A) (A) (A) (A) (A) (A) (A) (A) (A) (A) (A) (A)
                 (A) (A) (A) (A) (A) (A) (A) (A) (A) (A) (A) (A)
                 (A) (A) (A) (A) (A) (A) (A) (A) (A) (A) (A) (A)
                 (A) (A) (A) (A) (A) (A) (A) (A) (A) (A) (A) (A)
                 (A) (A) (A) (A) (A) (A) (A) (A) (A) (A) (A) (A)
                 (A) (A) (A) (A) (A) (A) (A) (A) (A) (A) (A) (A)
                 (A) (A) (A) (A) (A) (A) (A) (A) (A) (A) (A) (A)
                 (A) (A) (A) (A) (A) (A) (A) (A) (A) (A) (A) (A)
                 (A) (A) (A) (A) (A) (A) (A) (A) (A) (A) (A) (A)
                 (A) (A) (A) (A) (A) (A) (A) (A) (A) (A) (A) (A)
                 (A) (A) (A) (A) (A) (A) (A) (A) (A) (A) (A) (A)
                 (A) (A) (A) (A) (A) (A) (A) (A) (A) (A) (A) (A)
                 (A) (A) (A) (A) (A) (A) (A) (A) (A) (A) (A) (A)
                 (A) (A) (A) (A) (A) (A) (A) (A) (A) (A) (A) (A)
                 (A) (A) (A) (A) (A) (A) (A) (A) (A) (A) (A) (A)
                 (A) (A) (A) (A) (A) (A) (A) (A) (A) (A) (A) (A)
                 (A) (A) (A) (A) (A) (A) (A) (A) (A) (A) (A) (A)
                 (A) (A) (A) (A) (A) (A) (A) (A) (A) (A) (A) (A)
                 (A) (A) (A) (A) (A) (A) (A) (A) (A) (A) (A) (A)
                 (A) (A) (A) (A) (A) (A) (A) (A) (A) (A) (A) (A)
                 (A) (A) (A) (A) (A) (A) (A) (A) (A) (A) (A) (A)
                 (A) (A) (A) (A) (A) (A) (A) (A) (A) (A) (A) (A)
                 (A) (A) (A) (A) (A) (A) (A) (A) (A) (A) (A) (A)
                 (A) (A) (A) (A) (A) (A) (A) (A) (A) (A) (A) (A)
                 (A) (A) (A) (A) (A) (A) (A) (A) (A) (A) (A) (A)
                 (A) (A) (A) (A) (A) (A) (A) (A) (A) (A) (A) (A)
                 (A) (A) (A) (A) (A) (A) (A) (A) (A) (A) (A) (A)
                 (A) (A) (A) (A) (A) (A) (A) (A) (A) (A) (A) (A)
                 (A) (A) (A) (A) (A) (A) (A) (A) (A) (A) (A) (A)
                 (A) (A) (A) (A) (A) (A) (A) (A) (A) (A) (A) (A)
                 (A) (A) (A) (A) (A) (A) (A) (A) (A) (A) (A) (A)
                 (A) (A) (A) (A) (A) (A) (A) (A) (A) (A) (A) (A)
                 (A) (A) (A) (A) (A) (A) (A) (A) (A) (A) (A) (A)
                 (A) (A) (A)
 The electronic state is 1-A.
 Alpha  occ. eigenvalues --  -24.84349 -24.83673 -24.83639 -24.83606 -24.83069
 Alpha  occ. eigenvalues --  -24.82969 -19.20949 -19.20863 -19.20600 -19.20593
 Alpha  occ. eigenvalues --  -19.20135 -19.19783 -14.47486 -14.43563 -10.52490
 Alpha  occ. eigenvalues --  -10.51687 -10.34252 -10.33167 -10.32991 -10.32089
 Alpha  occ. eigenvalues --  -10.31456 -10.30849 -10.29918 -10.29771 -10.29740
 Alpha  occ. eigenvalues --  -10.29684 -10.29631 -10.29602 -10.29449 -10.29448
 Alpha  occ. eigenvalues --  -10.29137 -10.29128 -10.23157 -10.23012 -10.22997
 Alpha  occ. eigenvalues --  -10.22926 -10.22676 -10.22628 -10.22617 -10.22541
 Alpha  occ. eigenvalues --  -10.22474 -10.22432 -10.22289 -10.22040  -6.80666
 Alpha  occ. eigenvalues --   -6.80211  -6.80166  -3.61184  -2.04413  -2.03447
 Alpha  occ. eigenvalues --   -2.02321  -1.36807  -1.36090  -1.28370  -1.27715
 Alpha  occ. eigenvalues --   -1.27584  -1.27091  -1.06572  -1.06448  -1.06152
 Alpha  occ. eigenvalues --   -1.01795  -0.99692  -0.99591  -0.99227  -0.99076
 Alpha  occ. eigenvalues --   -0.87720  -0.86470  -0.84437  -0.81443  -0.80706
 Alpha  occ. eigenvalues --   -0.80557  -0.80327  -0.76269  -0.75147  -0.75014
 Alpha  occ. eigenvalues --   -0.74859  -0.73207  -0.70638  -0.70513  -0.70311
 Alpha  occ. eigenvalues --   -0.69867  -0.69465  -0.67892  -0.67755  -0.67616
 Alpha  occ. eigenvalues --   -0.67152  -0.65882  -0.62835  -0.62730  -0.62222
 Alpha  occ. eigenvalues --   -0.62084  -0.61946  -0.61728  -0.61493  -0.61376
 Alpha  occ. eigenvalues --   -0.60473  -0.57318  -0.55207  -0.54993  -0.54847
 Alpha  occ. eigenvalues --   -0.54606  -0.54105  -0.53412  -0.53075  -0.52205
 Alpha  occ. eigenvalues --   -0.50447  -0.50186  -0.49847  -0.49465  -0.49385
 Alpha  occ. eigenvalues --   -0.49084  -0.48783  -0.48184  -0.47578  -0.47198
 Alpha  occ. eigenvalues --   -0.47086  -0.46835  -0.46548  -0.46440  -0.46314
 Alpha  occ. eigenvalues --   -0.46262  -0.45837  -0.45599  -0.45469  -0.44820
 Alpha  occ. eigenvalues --   -0.44564  -0.44369  -0.44087  -0.44011  -0.43858
 Alpha  occ. eigenvalues --   -0.43766  -0.43652  -0.43449  -0.43380  -0.43329
 Alpha  occ. eigenvalues --   -0.41407  -0.41062  -0.40424  -0.40271  -0.40189
 Alpha  occ. eigenvalues --   -0.39969  -0.39934  -0.39737  -0.39707  -0.39519
 Alpha  occ. eigenvalues --   -0.39438  -0.39349  -0.39042  -0.38920  -0.37882
 Alpha  occ. eigenvalues --   -0.37750  -0.37591  -0.37381  -0.37024  -0.36541
 Alpha  occ. eigenvalues --   -0.36483  -0.36465  -0.36077  -0.35827  -0.35242
 Alpha  occ. eigenvalues --   -0.35169  -0.35026  -0.34825  -0.33950  -0.33769
 Alpha  occ. eigenvalues --   -0.33063  -0.32865  -0.32455  -0.32382  -0.31754
 Alpha  occ. eigenvalues --   -0.31604  -0.30710  -0.30574  -0.30523  -0.30038
 Alpha  occ. eigenvalues --   -0.29737  -0.29415  -0.28213  -0.27728  -0.26540
 Alpha  occ. eigenvalues --   -0.26433  -0.25989  -0.22922  -0.21375  -0.20865
 Alpha virt. eigenvalues --   -0.08961  -0.06252  -0.04925  -0.02107  -0.00873
 Alpha virt. eigenvalues --    0.02338   0.03292   0.05353   0.05836   0.06918
 Alpha virt. eigenvalues --    0.07366   0.08879   0.09308   0.09553   0.09781
 Alpha virt. eigenvalues --    0.10092   0.11621   0.11652   0.12065   0.12685
 Alpha virt. eigenvalues --    0.12929   0.13274   0.13297   0.13778   0.14287
 Alpha virt. eigenvalues --    0.14559   0.14688   0.14794   0.15150   0.15299
 Alpha virt. eigenvalues --    0.15396   0.15580   0.15775   0.16021   0.16165
 Alpha virt. eigenvalues --    0.16318   0.16762   0.17131   0.17165   0.17543
 Alpha virt. eigenvalues --    0.17659   0.17709   0.18143   0.18272   0.18558
 Alpha virt. eigenvalues --    0.18918   0.19047   0.19348   0.19435   0.19733
 Alpha virt. eigenvalues --    0.20053   0.20187   0.20334   0.20522   0.20668
 Alpha virt. eigenvalues --    0.20998   0.21510   0.21949   0.22158   0.22231
 Alpha virt. eigenvalues --    0.22497   0.22615   0.22864   0.23224   0.23602
 Alpha virt. eigenvalues --    0.23818   0.23993   0.24140   0.24437   0.24595
 Alpha virt. eigenvalues --    0.24859   0.25094   0.25849   0.25940   0.26273
 Alpha virt. eigenvalues --    0.26495   0.26798   0.27023   0.27552   0.27820
 Alpha virt. eigenvalues --    0.28237   0.28957   0.28983   0.30317   0.30375
 Alpha virt. eigenvalues --    0.30824   0.31099   0.31242   0.31508   0.32362
 Alpha virt. eigenvalues --    0.32621   0.33319   0.34107   0.34339   0.35342
 Alpha virt. eigenvalues --    0.36289   0.36501   0.36664   0.37384   0.38619
 Alpha virt. eigenvalues --    0.39131   0.40156   0.41507   0.43485   0.44237
 Alpha virt. eigenvalues --    0.44616   0.45405   0.46558   0.47089   0.47684
 Alpha virt. eigenvalues --    0.48763   0.49122   0.49530   0.49679   0.50058
 Alpha virt. eigenvalues --    0.50499   0.50879   0.50895   0.51367   0.51880
 Alpha virt. eigenvalues --    0.52104   0.53169   0.53422   0.53726   0.54464
 Alpha virt. eigenvalues --    0.55006   0.55183   0.55472   0.55829   0.56505
 Alpha virt. eigenvalues --    0.56672   0.57296   0.57624   0.57734   0.57909
 Alpha virt. eigenvalues --    0.58097   0.58149   0.58558   0.58620   0.58920
 Alpha virt. eigenvalues --    0.59286   0.60057   0.60074   0.60336   0.60814
 Alpha virt. eigenvalues --    0.61067   0.61488   0.61787   0.62290   0.62686
 Alpha virt. eigenvalues --    0.63466   0.63582   0.64278   0.64691   0.65216
 Alpha virt. eigenvalues --    0.65719   0.65933   0.66073   0.66764   0.67058
 Alpha virt. eigenvalues --    0.67197   0.67766   0.68429   0.68538   0.69422
 Alpha virt. eigenvalues --    0.69827   0.70379   0.70473   0.70863   0.71099
 Alpha virt. eigenvalues --    0.71333   0.71457   0.72032   0.72618   0.73069
 Alpha virt. eigenvalues --    0.73298   0.73574   0.73825   0.74036   0.74499
 Alpha virt. eigenvalues --    0.74946   0.75105   0.75567   0.76035   0.76412
 Alpha virt. eigenvalues --    0.76778   0.78168   0.78544   0.79175   0.79414
 Alpha virt. eigenvalues --    0.79776   0.80321   0.81035   0.81787   0.81982
 Alpha virt. eigenvalues --    0.82613   0.82842   0.83400   0.83855   0.84047
 Alpha virt. eigenvalues --    0.84188   0.84425   0.84797   0.84876   0.85570
 Alpha virt. eigenvalues --    0.85851   0.86236   0.86367   0.86866   0.86962
 Alpha virt. eigenvalues --    0.87276   0.87665   0.88094   0.88418   0.88651
 Alpha virt. eigenvalues --    0.88961   0.89154   0.89484   0.89806   0.90119
 Alpha virt. eigenvalues --    0.90232   0.90392   0.90691   0.90974   0.91345
 Alpha virt. eigenvalues --    0.91653   0.92020   0.92243   0.92584   0.93164
 Alpha virt. eigenvalues --    0.93375   0.93680   0.94143   0.94528   0.94876
 Alpha virt. eigenvalues --    0.95312   0.95710   0.95953   0.96237   0.96569
 Alpha virt. eigenvalues --    0.96815   0.97227   0.97955   0.98274   0.98540
 Alpha virt. eigenvalues --    0.99190   0.99494   1.00335   1.00606   1.01380
 Alpha virt. eigenvalues --    1.02073   1.02404   1.03301   1.03461   1.04698
 Alpha virt. eigenvalues --    1.04843   1.05154   1.07010   1.07459   1.07520
 Alpha virt. eigenvalues --    1.08409   1.09248   1.10288   1.10939   1.11175
 Alpha virt. eigenvalues --    1.12575   1.12770   1.13165   1.13452   1.14012
 Alpha virt. eigenvalues --    1.14878   1.15208   1.16210   1.16681   1.16729
 Alpha virt. eigenvalues --    1.17352   1.17719   1.18392   1.18682   1.18937
 Alpha virt. eigenvalues --    1.19241   1.19949   1.20273   1.21385   1.21697
 Alpha virt. eigenvalues --    1.22458   1.22720   1.22843   1.23819   1.24792
 Alpha virt. eigenvalues --    1.24858   1.26182   1.26770   1.27240   1.27648
 Alpha virt. eigenvalues --    1.28497   1.29987   1.30362   1.31401   1.31644
 Alpha virt. eigenvalues --    1.32245   1.33244   1.33331   1.33810   1.34451
 Alpha virt. eigenvalues --    1.34657   1.35133   1.35704   1.36169   1.36651
 Alpha virt. eigenvalues --    1.37259   1.37580   1.38455   1.38562   1.38895
 Alpha virt. eigenvalues --    1.39742   1.40002   1.40446   1.41070   1.41224
 Alpha virt. eigenvalues --    1.41728   1.42498   1.43421   1.43574   1.44147
 Alpha virt. eigenvalues --    1.45077   1.45564   1.46008   1.46677   1.47113
 Alpha virt. eigenvalues --    1.48077   1.48348   1.49243   1.49577   1.50392
 Alpha virt. eigenvalues --    1.50868   1.52387   1.52890   1.53910   1.54304
 Alpha virt. eigenvalues --    1.55292   1.55456   1.57523   1.58442   1.61174
 Alpha virt. eigenvalues --    1.61692   1.62003   1.63040   1.63238   1.63735
 Alpha virt. eigenvalues --    1.64222   1.64542   1.64915   1.65241   1.66525
 Alpha virt. eigenvalues --    1.66921   1.67377   1.67598   1.68073   1.68619
 Alpha virt. eigenvalues --    1.69926   1.69977   1.70257   1.70886   1.71998
 Alpha virt. eigenvalues --    1.72331   1.73201   1.73703   1.74764   1.75128
 Alpha virt. eigenvalues --    1.75853   1.76515   1.76760   1.77511   1.77531
 Alpha virt. eigenvalues --    1.78321   1.79028   1.79529   1.80274   1.80855
 Alpha virt. eigenvalues --    1.81070   1.81869   1.82304   1.83018   1.83101
 Alpha virt. eigenvalues --    1.83911   1.84140   1.84796   1.84904   1.85315
 Alpha virt. eigenvalues --    1.86578   1.86930   1.87029   1.87445   1.87628
 Alpha virt. eigenvalues --    1.88224   1.88591   1.90105   1.90558   1.90684
 Alpha virt. eigenvalues --    1.90873   1.91076   1.91576   1.91939   1.92299
 Alpha virt. eigenvalues --    1.92526   1.92785   1.92934   1.93023   1.93375
 Alpha virt. eigenvalues --    1.93902   1.95191   1.96012   1.96331   1.97038
 Alpha virt. eigenvalues --    1.97508   1.97876   1.98985   1.99598   2.00828
 Alpha virt. eigenvalues --    2.00854   2.01273   2.01916   2.01923   2.01997
 Alpha virt. eigenvalues --    2.02454   2.02716   2.02975   2.03220   2.03858
 Alpha virt. eigenvalues --    2.04272   2.04869   2.05343   2.06126   2.06609
 Alpha virt. eigenvalues --    2.06786   2.07027   2.07343   2.07459   2.08057
 Alpha virt. eigenvalues --    2.08690   2.08824   2.09242   2.09576   2.09859
 Alpha virt. eigenvalues --    2.10111   2.10375   2.10983   2.11308   2.11906
 Alpha virt. eigenvalues --    2.12199   2.13141   2.13528   2.13793   2.14368
 Alpha virt. eigenvalues --    2.14876   2.15394   2.15517   2.15907   2.16497
 Alpha virt. eigenvalues --    2.17694   2.17926   2.18101   2.18421   2.18757
 Alpha virt. eigenvalues --    2.18978   2.19498   2.19789   2.20887   2.20994
 Alpha virt. eigenvalues --    2.21423   2.21998   2.22552   2.22903   2.23188
 Alpha virt. eigenvalues --    2.24158   2.24641   2.24901   2.25175   2.25559
 Alpha virt. eigenvalues --    2.25855   2.26178   2.26856   2.27076   2.28207
 Alpha virt. eigenvalues --    2.29680   2.30449   2.30951   2.31332   2.31648
 Alpha virt. eigenvalues --    2.32146   2.32276   2.32610   2.32783   2.33029
 Alpha virt. eigenvalues --    2.33916   2.34083   2.35424   2.36342   2.38762
 Alpha virt. eigenvalues --    2.38994   2.39679   2.41318   2.42830   2.43514
 Alpha virt. eigenvalues --    2.44476   2.44882   2.45803   2.47444   2.47902
 Alpha virt. eigenvalues --    2.48353   2.48483   2.49060   2.49697   2.50116
 Alpha virt. eigenvalues --    2.51645   2.53122   2.54672   2.56627   2.58688
 Alpha virt. eigenvalues --    2.58992   2.59280   2.59865   2.60570   2.62494
 Alpha virt. eigenvalues --    2.63160   2.64084   2.64317   2.64919   2.65141
 Alpha virt. eigenvalues --    2.66648   2.71125   2.73395   2.75941   2.76300
 Alpha virt. eigenvalues --    2.76710   2.77795   2.77950   2.78065   2.78374
 Alpha virt. eigenvalues --    2.78647   2.79487   2.79886   2.80169   2.80602
 Alpha virt. eigenvalues --    2.81277   2.82061   2.82705   2.83117   2.84237
 Alpha virt. eigenvalues --    2.85764   2.85944   2.87448   2.88472   2.88815
 Alpha virt. eigenvalues --    2.90286   2.91130   2.93306   2.94572   2.95381
 Alpha virt. eigenvalues --    2.96426   3.00948   3.01532   3.04567   3.05177
 Alpha virt. eigenvalues --    3.05416   3.05981   3.06745   3.09548   3.10179
 Alpha virt. eigenvalues --    3.12165   3.12889   3.13565   3.15580   3.16367
 Alpha virt. eigenvalues --    3.22071   3.32970   3.41702   9.60494
          Condensed to atoms (all electrons):
 Mulliken charges:
               1
     1  N   -0.559499
     2  C    0.046012
     3  C   -0.082910
     4  C   -0.138098
     5  C   -0.185460
     6  C    0.312495
     7  H    0.211101
     8  N   -0.425212
     9  C    0.211657
    10  C   -0.212802
    11  C   -0.099341
    12  C   -0.073204
    13  C   -0.004807
    14  H    0.278517
    15  H    0.222527
    16  Ir  -0.037948
    17  B    0.420032
    18  O   -0.520125
    19  O   -0.521211
    20  C    0.287191
    21  C    0.293808
    22  C   -0.505447
    23  H    0.182192
    24  H    0.163793
    25  H    0.151349
    26  C   -0.507628
    27  H    0.151542
    28  H    0.169674
    29  H    0.171039
    30  C   -0.512844
    31  H    0.173048
    32  H    0.150941
    33  H    0.168830
    34  C   -0.491309
    35  H    0.148238
    36  H    0.162854
    37  H    0.165814
    38  B    0.460469
    39  O   -0.478114
    40  O   -0.531143
    41  C    0.296527
    42  C    0.294338
    43  C   -0.501834
    44  C   -0.512673
    45  H    0.147193
    46  H    0.173817
    47  H    0.178197
    48  C   -0.512231
    49  H    0.161109
    50  H    0.155156
    51  H    0.172941
    52  C   -0.509531
    53  H    0.150210
    54  H    0.187186
    55  H    0.165034
    56  B    0.440226
    57  O   -0.481183
    58  O   -0.534783
    59  C    0.294457
    60  C    0.291361
    61  C   -0.504262
    62  H    0.165647
    63  H    0.180798
    64  H    0.145508
    65  C   -0.512981
    66  H    0.147113
    67  H    0.174913
    68  H    0.171880
    69  C   -0.504314
    70  H    0.168240
    71  H    0.153824
    72  H    0.163228
    73  C   -0.499946
    74  H    0.157031
    75  H    0.176495
    76  H    0.138244
    77  H    0.235798
    78  H    0.149823
    79  H    0.181828
    80  H    0.152093
    81  H    0.194261
    82  H    0.208684
    83  C    0.978361
    84  C    0.975784
    85  F   -0.306298
    86  F   -0.314705
    87  F   -0.306886
    88  F   -0.311508
    89  F   -0.314952
    90  F   -0.315237
 Sum of Mulliken charges =  -0.00000
 Mulliken charges with hydrogens summed into heavy atoms:
               1
     1  N   -0.559499
     2  C    0.281810
     3  C   -0.082910
     4  C    0.070586
     5  C    0.025641
     6  C    0.312495
     8  N   -0.425212
     9  C    0.211657
    10  C    0.065714
    11  C    0.123186
    12  C   -0.073204
    13  C    0.189454
    16  Ir  -0.037948
    17  B    0.420032
    18  O   -0.520125
    19  O   -0.521211
    20  C    0.287191
    21  C    0.293808
    22  C   -0.008113
    26  C   -0.015372
    30  C   -0.020025
    34  C   -0.014403
    38  B    0.460469
    39  O   -0.478114
    40  O   -0.531143
    41  C    0.296527
    42  C    0.294338
    43  C   -0.018090
    44  C   -0.013467
    48  C   -0.023025
    52  C   -0.007100
    56  B    0.440226
    57  O   -0.481183
    58  O   -0.534783
    59  C    0.294457
    60  C    0.291361
    61  C   -0.012308
    65  C   -0.019076
    69  C   -0.019023
    73  C   -0.028175
    83  C    0.978361
    84  C    0.975784
    85  F   -0.306298
    86  F   -0.314705
    87  F   -0.306886
    88  F   -0.311508
    89  F   -0.314952
    90  F   -0.315237
 APT charges:
               1
     1  N   -0.313166
     2  C    0.082812
     3  C   -0.257613
     4  C    0.177554
     5  C   -0.246212
     6  C    0.304662
     7  H    0.084060
     8  N   -0.418872
     9  C    0.227790
    10  C   -0.176968
    11  C    0.135211
    12  C   -0.270691
    13  C    0.209409
    14  H    0.117226
    15  H    0.100610
    16  Ir  -0.545106
    17  B    1.236668
    18  O   -0.981120
    19  O   -0.998686
    20  C    0.499542
    21  C    0.518910
    22  C   -0.037773
    23  H    0.009717
    24  H    0.011307
    25  H   -0.021460
    26  C   -0.008132
    27  H   -0.016042
    28  H    0.001073
    29  H    0.003273
    30  C   -0.013324
    31  H    0.003010
    32  H   -0.016169
    33  H   -0.001543
    34  C   -0.036426
    35  H   -0.023887
    36  H    0.006790
    37  H    0.001953
    38  B    1.271806
    39  O   -0.955886
    40  O   -1.057419
    41  C    0.501468
    42  C    0.510778
    43  C   -0.020723
    44  C   -0.007702
    45  H   -0.019005
    46  H    0.000306
    47  H    0.007464
    48  C   -0.005367
    49  H   -0.008609
    50  H   -0.016460
    51  H   -0.000360
    52  C   -0.052374
    53  H   -0.024729
    54  H    0.025562
    55  H    0.001821
    56  B    1.160066
    57  O   -0.927001
    58  O   -0.956623
    59  C    0.496458
    60  C    0.476432
    61  C   -0.024992
    62  H   -0.001391
    63  H    0.005282
    64  H   -0.024002
    65  C   -0.007026
    66  H   -0.015275
    67  H    0.002143
    68  H   -0.000206
    69  C   -0.004511
    70  H   -0.000118
    71  H   -0.016055
    72  H    0.000276
    73  C   -0.036750
    74  H   -0.014212
    75  H    0.000817
    76  H   -0.002411
    77  H    0.158250
    78  H   -0.025795
    79  H    0.004774
    80  H   -0.018891
    81  H    0.026343
    82  H    0.069330
    83  C    1.835006
    84  C    1.813548
    85  F   -0.560684
    86  F   -0.592302
    87  F   -0.564822
    88  F   -0.634404
    89  F   -0.579004
    90  F   -0.541209
 Sum of APT charges =   0.00000
 APT charges with hydrogens summed into heavy atoms:
               1
     1  N   -0.313166
     2  C    0.241062
     3  C   -0.257613
     4  C    0.246884
     5  C   -0.162152
     6  C    0.304662
     8  N   -0.418872
     9  C    0.227790
    10  C   -0.059742
    11  C    0.235822
    12  C   -0.270691
    13  C    0.235752
    16  Ir  -0.545106
    17  B    1.236668
    18  O   -0.981120
    19  O   -0.998686
    20  C    0.499542
    21  C    0.518910
    22  C   -0.038210
    26  C   -0.019828
    30  C   -0.028026
    34  C   -0.051570
    38  B    1.271806
    39  O   -0.955886
    40  O   -1.057419
    41  C    0.501468
    42  C    0.510778
    43  C   -0.060635
    44  C   -0.018937
    48  C   -0.030796
    52  C   -0.049720
    56  B    1.160066
    57  O   -0.927001
    58  O   -0.956623
    59  C    0.496458
    60  C    0.476432
    61  C   -0.045104
    65  C   -0.020364
    69  C   -0.020408
    73  C   -0.052556
    83  C    1.835006
    84  C    1.813548
    85  F   -0.560684
    86  F   -0.592302
    87  F   -0.564822
    88  F   -0.634404
    89  F   -0.579004
    90  F   -0.541209
 Electronic spatial extent (au):  <R**2>=          28531.0432
 Charge=             -0.0000 electrons
 Dipole moment (field-independent basis, Debye):
    X=             -0.6796    Y=              2.1033    Z=             -1.1762  Tot=              2.5038
 Quadrupole moment (field-independent basis, Debye-Ang):
   XX=           -293.7441   YY=           -268.7164   ZZ=           -291.8222
   XY=             -6.4816   XZ=             -0.3743   YZ=              0.0919
 Traceless Quadrupole moment (field-independent basis, Debye-Ang):
   XX=             -8.9832   YY=             16.0445   ZZ=             -7.0613
   XY=             -6.4816   XZ=             -0.3743   YZ=              0.0919
 Octapole moment (field-independent basis, Debye-Ang**2):
  XXX=            -54.4264  YYY=            145.4508  ZZZ=            -20.8085  XYY=            -46.2441
  XXY=            -32.4891  XXZ=             23.7242  XZZ=              6.5350  YZZ=              2.4428
  YYZ=            -31.9039  XYZ=              8.7321
 Hexadecapole moment (field-independent basis, Debye-Ang**3):
 XXXX=         -17551.7466 YYYY=         -12473.9995 ZZZZ=          -5307.4471 XXXY=             33.1465
 XXXZ=             -7.5875 YYYX=           -200.0923 YYYZ=             29.7604 ZZZX=             26.9842
 ZZZY=              7.0337 XXYY=          -4962.4125 XXZZ=          -3675.4459 YYZZ=          -3009.5490
 XXYZ=            -58.2605 YYXZ=             12.5764 ZZXY=            -29.0649
 N-N= 7.427570895318D+03 E-N=-2.069962969879D+04  KE= 2.421074278953D+03
  Exact polarizability:     497.037       3.468     449.464       0.806       9.370     327.540
 Approx polarizability:     696.836       7.200     641.788       0.779      23.434     503.512
   1 Symmetry operations used in ECPInt.
 ECPInt:  NShTT=   39340 NPrTT=  247034 LenC2=   29278 LenP2D=   93289.
 LDataN:  DoStor=T MaxTD1= 8 Len=  415
 Calling FoFJK, ICntrl=    100127 FMM=F ISym2X=0 I1Cent= 0 IOpClX= 0 NMat=1 NMatS=1 NMatT=0.
 Defaulting to unpruned grid for atomic number  77.
 Defaulting to unpruned grid for atomic number  77.
 Defaulting to unpruned grid for atomic number  77.
 Defaulting to unpruned grid for atomic number  77.
 Defaulting to unpruned grid for atomic number  77.
 Defaulting to unpruned grid for atomic number  77.
 Defaulting to unpruned grid for atomic number  77.
 Defaulting to unpruned grid for atomic number  77.
 Defaulting to unpruned grid for atomic number  77.
 Defaulting to unpruned grid for atomic number  77.
 Defaulting to unpruned grid for atomic number  77.
 Defaulting to unpruned grid for atomic number  77.
 Defaulting to unpruned grid for atomic number  77.
 Defaulting to unpruned grid for atomic number  77.
 Defaulting to unpruned grid for atomic number  77.
 Defaulting to unpruned grid for atomic number  77.
 Full mass-weighted force constant matrix:
 Low frequencies ---   -8.4860   -4.0396    0.0004    0.0004    0.0007    2.5634
 Low frequencies ---   10.4373   22.4522   30.5875
 Diagonal vibrational polarizability:
       78.4082201      56.2900662      98.5500635
 Harmonic frequencies (cm**-1), IR intensities (KM/Mole), Raman scattering
 activities (A**4/AMU), depolarization ratios for plane and unpolarized
 incident light, reduced masses (AMU), force constants (mDyne/A),
 and normal coordinates:
                      1                      2                      3
                      A                      A                      A
 Frequencies --      8.4274                22.3790                30.5442
 Red. masses --      5.9192                 7.0380                 7.1320
 Frc consts  --      0.0002                 0.0021                 0.0039
 IR Inten    --      0.0155                 0.4695                 0.3474
  Atom AN      X      Y      Z        X      Y      Z        X      Y      Z
     1   7    -0.01   0.01  -0.01    -0.01  -0.01   0.02     0.00  -0.01   0.09
     2   6    -0.01   0.02   0.02    -0.01  -0.01   0.02    -0.00  -0.00   0.04
     3   6     0.01   0.03   0.06    -0.01  -0.00  -0.04     0.01  -0.00   0.05
     4   6     0.02   0.02   0.07    -0.01  -0.00  -0.09     0.01  -0.01   0.15
     5   6     0.02   0.01   0.04    -0.01  -0.01  -0.09     0.02  -0.01   0.21
     6   6     0.00   0.00   0.01    -0.01  -0.01  -0.03     0.01  -0.01   0.16
     7   1     0.03   0.00   0.05    -0.01  -0.01  -0.13     0.02  -0.02   0.28
     8   7     0.02  -0.02  -0.02     0.01  -0.02  -0.07     0.02  -0.05   0.20
     9   6     0.00  -0.01  -0.02    -0.01  -0.02  -0.05     0.01  -0.02   0.15
    10   6    -0.01  -0.01  -0.03    -0.03  -0.04  -0.03    -0.00   0.01   0.07
    11   6    -0.01  -0.03  -0.05    -0.03  -0.06  -0.04     0.00   0.03   0.00
    12   6     0.01  -0.03  -0.05    -0.01  -0.06  -0.07     0.02   0.00   0.02
    13   6     0.02  -0.03  -0.04     0.01  -0.03  -0.09     0.02  -0.04   0.14
    14   1    -0.03  -0.01  -0.03    -0.05  -0.05  -0.01    -0.02   0.04   0.05
    15   1    -0.02  -0.03  -0.06    -0.05  -0.08  -0.02    -0.00   0.05  -0.08
    16  77    -0.02  -0.00  -0.02    -0.01   0.01   0.08    -0.01  -0.02   0.02
    17   5     0.02  -0.00   0.00     0.01   0.05   0.03    -0.01  -0.02   0.01
    18   8     0.01  -0.00  -0.01     0.04   0.03  -0.03     0.00  -0.02   0.03
    19   8     0.05  -0.00   0.03     0.00   0.12   0.03    -0.03  -0.02   0.00
    20   6     0.06  -0.01   0.01     0.06   0.09  -0.06     0.00  -0.03   0.03
    21   6     0.07  -0.00   0.04     0.04   0.14  -0.02    -0.02  -0.02   0.01
    22   6     0.09  -0.02  -0.03     0.06   0.10  -0.06    -0.00  -0.07   0.04
    23   1     0.09  -0.02  -0.05     0.03   0.10  -0.01    -0.03  -0.07   0.04
    24   1     0.07  -0.02  -0.06     0.07   0.05  -0.08     0.01  -0.08   0.06
    25   1     0.13  -0.02  -0.03     0.07   0.14  -0.08    -0.00  -0.07   0.05
    26   6     0.06  -0.00   0.03     0.10   0.09  -0.11     0.03  -0.02   0.04
    27   1     0.09  -0.00   0.04     0.11   0.13  -0.14     0.03  -0.03   0.05
    28   1     0.04  -0.01  -0.00     0.11   0.05  -0.14     0.05  -0.03   0.06
    29   1     0.03   0.01   0.06     0.10   0.08  -0.12     0.04   0.00   0.04
    30   6     0.13  -0.01   0.05     0.04   0.21  -0.02    -0.04  -0.03   0.01
    31   1     0.14  -0.01   0.01     0.03   0.21  -0.00    -0.05  -0.05   0.02
    32   1     0.15  -0.01   0.06     0.07   0.23  -0.06    -0.03  -0.03   0.01
    33   1     0.13  -0.00   0.07     0.03   0.24   0.01    -0.05  -0.02  -0.01
    34   6     0.06   0.01   0.09     0.04   0.16  -0.03    -0.00   0.01  -0.01
    35   1     0.08   0.01   0.10     0.08   0.19  -0.08     0.00   0.01  -0.00
    36   1     0.01   0.00   0.09     0.04   0.09  -0.03     0.01   0.02  -0.01
    37   1     0.06   0.02   0.12     0.02   0.20   0.02    -0.02   0.01  -0.03
    38   5    -0.01  -0.01  -0.03    -0.01   0.00   0.06    -0.02  -0.02  -0.01
    39   8    -0.01  -0.07  -0.06    -0.04  -0.00   0.06    -0.07   0.01  -0.00
    40   8    -0.02   0.03  -0.03     0.01  -0.01   0.03     0.00  -0.02  -0.05
    41   6    -0.01  -0.07  -0.07    -0.04  -0.01   0.01    -0.08   0.02  -0.04
    42   6    -0.02  -0.00  -0.07     0.00  -0.01   0.00    -0.03  -0.01  -0.06
    43   6    -0.00  -0.11  -0.01    -0.08  -0.02  -0.00    -0.10   0.05  -0.09
    44   6    -0.00  -0.11  -0.12    -0.06  -0.01   0.01    -0.12   0.04  -0.02
    45   1    -0.00  -0.11  -0.13    -0.06  -0.02  -0.02    -0.12   0.05  -0.05
    46   1     0.01  -0.16  -0.12    -0.09  -0.01   0.02    -0.15   0.06  -0.01
    47   1    -0.01  -0.09  -0.17    -0.04  -0.01   0.02    -0.11   0.03   0.02
    48   6    -0.02   0.01  -0.04     0.01  -0.03  -0.04    -0.01  -0.00  -0.12
    49   1    -0.01  -0.00   0.00    -0.01  -0.03  -0.05    -0.02   0.00  -0.15
    50   1    -0.01  -0.01  -0.06    -0.01  -0.03  -0.06    -0.04   0.01  -0.13
    51   1    -0.03   0.05  -0.04     0.04  -0.03  -0.05     0.03  -0.02  -0.13
    52   6    -0.02   0.02  -0.13     0.03  -0.01   0.00    -0.01  -0.02  -0.02
    53   1    -0.02   0.01  -0.17     0.03  -0.02  -0.02    -0.03  -0.01  -0.02
    54   1    -0.02   0.01  -0.14     0.03   0.00   0.03    -0.02  -0.02   0.02
    55   1    -0.01   0.08  -0.13     0.07  -0.01  -0.00     0.03  -0.04  -0.03
    56   5    -0.03   0.03   0.02    -0.00  -0.02   0.06     0.01  -0.01  -0.00
    57   8    -0.05   0.06   0.03     0.02  -0.03   0.06     0.04  -0.01  -0.00
    58   8    -0.02   0.02   0.04    -0.01  -0.03   0.04     0.01   0.02  -0.02
    59   6    -0.05   0.07   0.06     0.02  -0.04   0.03     0.06   0.03  -0.01
    60   6    -0.04   0.05   0.06     0.01  -0.04   0.02     0.03   0.05  -0.03
    61   6    -0.05   0.06   0.11    -0.00  -0.04   0.01     0.10   0.03   0.01
    62   1    -0.03   0.03   0.11    -0.03  -0.02   0.01     0.09   0.01   0.01
    63   1    -0.06   0.08   0.10     0.00  -0.04   0.02     0.12   0.01   0.02
    64   1    -0.06   0.07   0.13    -0.00  -0.05  -0.02     0.12   0.06   0.00
    65   6    -0.07   0.11   0.06     0.05  -0.07   0.03     0.07   0.06  -0.01
    66   1    -0.08   0.12   0.09     0.06  -0.08   0.00     0.09   0.09  -0.02
    67   1    -0.08   0.13   0.07     0.06  -0.06   0.03     0.10   0.04   0.00
    68   1    -0.08   0.12   0.03     0.07  -0.07   0.04     0.04   0.05  -0.02
    69   6    -0.03   0.03   0.09    -0.00  -0.05  -0.01     0.04   0.08  -0.04
    70   1    -0.03   0.02   0.12    -0.02  -0.05  -0.01     0.05   0.07  -0.03
    71   1    -0.05   0.06   0.11     0.02  -0.06  -0.02     0.06   0.10  -0.05
    72   1    -0.03   0.01   0.08    -0.01  -0.06  -0.02     0.02   0.08  -0.06
    73   6    -0.04   0.06   0.02     0.04  -0.05   0.02     0.01   0.06  -0.05
    74   1    -0.06   0.09   0.04     0.06  -0.06   0.01     0.01   0.08  -0.05
    75   1    -0.05   0.08  -0.01     0.05  -0.05   0.05    -0.00   0.05  -0.05
    76   1    -0.03   0.04   0.02     0.02  -0.05   0.01    -0.00   0.07  -0.05
    77   1    -0.02   0.03   0.01    -0.01  -0.01   0.05    -0.00  -0.00  -0.02
    78   1    -0.00  -0.08   0.03    -0.07  -0.02  -0.00    -0.07   0.03  -0.11
    79   1     0.01  -0.15  -0.01    -0.11  -0.01   0.01    -0.13   0.06  -0.08
    80   1     0.00  -0.12  -0.01    -0.08  -0.03  -0.04    -0.11   0.06  -0.13
    81   1     0.03  -0.04  -0.04     0.02  -0.03  -0.11     0.03  -0.07   0.17
    82   1     0.03   0.02   0.11    -0.01  -0.00  -0.13     0.02  -0.01   0.17
    83   6     0.01  -0.05  -0.08    -0.01  -0.07  -0.08     0.03   0.02  -0.08
    84   6     0.01   0.03   0.10    -0.01  -0.00  -0.06    -0.00   0.02  -0.06
    85   9    -0.03   0.07   0.09    -0.00   0.01  -0.07     0.07   0.05  -0.11
    86   9     0.01   0.03   0.17    -0.01   0.00  -0.06     0.01   0.02  -0.08
    87   9     0.04  -0.01   0.09    -0.03  -0.01  -0.07    -0.10  -0.00  -0.10
    88   9     0.01  -0.07  -0.12    -0.00  -0.11  -0.12    -0.04   0.03  -0.12
    89   9     0.04  -0.01  -0.09     0.01  -0.04  -0.09     0.12   0.01  -0.11
    90   9    -0.01  -0.06  -0.06    -0.03  -0.09  -0.06     0.02   0.03  -0.14
                      4                      5                      6
                      A                      A                      A
 Frequencies --     33.7411                39.2678                42.4352
 Red. masses --      5.7875                 3.8476                10.8872
 Frc consts  --      0.0039                 0.0035                 0.0116
 IR Inten    --      0.1749                 0.1923                 0.1465
  Atom AN      X      Y      Z        X      Y      Z        X      Y      Z
     1   7     0.03  -0.00   0.03     0.01   0.00  -0.00     0.01   0.00   0.02
     2   6     0.03   0.00   0.04     0.01   0.02   0.01     0.01  -0.01   0.01
     3   6     0.02   0.00  -0.01     0.01   0.02  -0.01     0.01  -0.01   0.02
     4   6     0.02   0.00  -0.08     0.02   0.02  -0.04    -0.00  -0.01   0.03
     5   6     0.02   0.00  -0.10     0.02   0.01  -0.06    -0.00   0.00   0.04
     6   6     0.02   0.00  -0.04     0.01   0.00  -0.03     0.01   0.01   0.03
     7   1     0.02   0.00  -0.15     0.03   0.00  -0.08    -0.01   0.01   0.05
     8   7     0.01   0.06  -0.11     0.01   0.01  -0.05     0.00   0.03   0.02
     9   6     0.02   0.01  -0.04     0.01  -0.00  -0.03     0.01   0.02   0.03
    10   6     0.04  -0.01   0.03     0.01  -0.01  -0.00     0.01   0.01   0.05
    11   6     0.04   0.02   0.04     0.01  -0.01   0.01     0.01   0.02   0.06
    12   6     0.03   0.07  -0.03     0.01   0.00  -0.01     0.01   0.04   0.04
    13   6     0.01   0.09  -0.11     0.01   0.01  -0.04     0.00   0.04   0.02
    14   1     0.05  -0.06   0.08     0.02  -0.03   0.01     0.02   0.01   0.05
    15   1     0.05   0.00   0.10     0.02  -0.02   0.02     0.02   0.02   0.08
    16  77    -0.00  -0.02   0.05    -0.01  -0.01   0.00     0.01  -0.00  -0.01
    17   5    -0.03  -0.02   0.03    -0.01  -0.02   0.01     0.01  -0.00  -0.02
    18   8    -0.08  -0.01   0.00     0.08  -0.03   0.06     0.04  -0.01   0.01
    19   8    -0.01  -0.03   0.04    -0.09   0.01  -0.04    -0.04   0.00  -0.04
    20   6    -0.07  -0.01   0.00     0.07  -0.04   0.06     0.02  -0.02   0.00
    21   6    -0.04  -0.03   0.04    -0.03   0.02  -0.04    -0.03   0.01  -0.05
    22   6    -0.05   0.03  -0.02     0.01  -0.17   0.13    -0.02  -0.06   0.05
    23   1    -0.02   0.04  -0.02    -0.10  -0.20   0.14    -0.06  -0.07   0.06
    24   1    -0.07   0.04  -0.05     0.09  -0.24   0.19     0.02  -0.08   0.09
    25   1    -0.04   0.04  -0.03     0.01  -0.16   0.13    -0.04  -0.06   0.05
    26   6    -0.11  -0.02   0.00     0.20  -0.00   0.07     0.07  -0.00   0.00
    27   1    -0.11  -0.02   0.01     0.17  -0.01   0.06     0.04  -0.00  -0.01
    28   1    -0.14  -0.00  -0.02     0.26  -0.05   0.15     0.10  -0.02   0.05
    29   1    -0.13  -0.05   0.02     0.25   0.07   0.01     0.11   0.02  -0.04
    30   6    -0.01  -0.02   0.04    -0.14   0.00  -0.05    -0.09  -0.00  -0.05
    31   1     0.01   0.01   0.02    -0.20  -0.07   0.01    -0.12  -0.03  -0.02
    32   1    -0.03  -0.02   0.03    -0.10   0.01  -0.04    -0.09  -0.00  -0.06
    33   1     0.02  -0.04   0.06    -0.21   0.05  -0.12    -0.13   0.01  -0.10
    34   6    -0.06  -0.08   0.06     0.03   0.13  -0.13     0.01   0.05  -0.11
    35   1    -0.08  -0.09   0.05     0.07   0.15  -0.13     0.01   0.04  -0.10
    36   1    -0.08  -0.09   0.06     0.11   0.16  -0.12     0.06   0.08  -0.11
    37   1    -0.03  -0.10   0.08    -0.04   0.17  -0.21    -0.02   0.05  -0.17
    38   5    -0.02  -0.02   0.00    -0.02  -0.00   0.00     0.01   0.00  -0.02
    39   8    -0.06  -0.07  -0.03    -0.02  -0.02  -0.01     0.00   0.01  -0.01
    40   8    -0.01   0.03  -0.02    -0.02   0.02   0.00     0.01   0.01  -0.02
    41   6    -0.06  -0.05  -0.07    -0.02  -0.02  -0.01    -0.00   0.03  -0.01
    42   6    -0.04   0.02  -0.08    -0.02   0.01  -0.02    -0.00   0.02  -0.01
    43   6    -0.06  -0.08  -0.02    -0.02  -0.03   0.00     0.01   0.04  -0.02
    44   6    -0.10  -0.09  -0.13    -0.03  -0.03  -0.04    -0.02   0.03  -0.00
    45   1    -0.10  -0.07  -0.16    -0.03  -0.02  -0.04    -0.02   0.05   0.00
    46   1    -0.11  -0.14  -0.11    -0.03  -0.05  -0.03    -0.01   0.04  -0.00
    47   1    -0.11  -0.08  -0.16    -0.03  -0.02  -0.05    -0.03   0.02   0.01
    48   6    -0.03   0.06  -0.08    -0.02   0.02  -0.01     0.00   0.03  -0.01
    49   1    -0.02   0.05  -0.03    -0.01   0.02   0.00     0.01   0.03  -0.01
    50   1    -0.05   0.05  -0.13    -0.02   0.02  -0.02    -0.00   0.04  -0.02
    51   1    -0.01   0.12  -0.09    -0.02   0.04  -0.01     0.00   0.04  -0.01
    52   6    -0.07   0.04  -0.13    -0.02   0.02  -0.04    -0.02   0.01   0.00
    53   1    -0.09   0.04  -0.18    -0.03   0.02  -0.06    -0.02   0.02   0.01
    54   1    -0.08   0.01  -0.13    -0.02   0.01  -0.04    -0.02   0.01   0.00
    55   1    -0.05   0.09  -0.13    -0.01   0.04  -0.04    -0.02   0.01  -0.00
    56   5     0.01  -0.03   0.03    -0.01  -0.01   0.00    -0.00  -0.02  -0.01
    57   8     0.05  -0.04   0.03    -0.00  -0.02  -0.00    -0.04  -0.05  -0.03
    58   8    -0.00  -0.02  -0.01    -0.01   0.01   0.00     0.01  -0.01   0.03
    59   6     0.07  -0.01  -0.00     0.00  -0.01  -0.01    -0.05  -0.06  -0.01
    60   6     0.03   0.00  -0.03    -0.01   0.02   0.00    -0.03  -0.03   0.05
    61   6     0.09  -0.01   0.01     0.03  -0.00  -0.02    -0.04  -0.05  -0.05
    62   1     0.05  -0.02   0.01     0.05   0.01  -0.03     0.01  -0.01  -0.06
    63   1     0.11  -0.03   0.04     0.03  -0.02  -0.04    -0.06  -0.06  -0.10
    64   1     0.11   0.01  -0.02     0.03   0.01  -0.02    -0.05  -0.06  -0.03
    65   6     0.10  -0.00  -0.01    -0.00  -0.02  -0.01    -0.09  -0.10   0.00
    66   1     0.12   0.02  -0.03     0.00  -0.01  -0.01    -0.10  -0.11   0.02
    67   1     0.13  -0.02   0.02     0.01  -0.04  -0.01    -0.11  -0.12  -0.04
    68   1     0.09  -0.01  -0.01    -0.02  -0.03   0.01    -0.10  -0.11   0.03
    69   6     0.04   0.02  -0.06     0.00   0.04   0.00    -0.01  -0.03   0.08
    70   1     0.04   0.02  -0.06     0.02   0.04  -0.00     0.01  -0.01   0.05
    71   1     0.06   0.03  -0.08     0.00   0.04   0.01    -0.06  -0.06   0.10
    72   1     0.01   0.04  -0.08    -0.00   0.05   0.01     0.02  -0.01   0.13
    73   6     0.03   0.01  -0.04    -0.03   0.02   0.01    -0.06  -0.04   0.08
    74   1     0.05   0.02  -0.06    -0.04   0.02   0.02    -0.08  -0.06   0.10
    75   1     0.02  -0.01  -0.02    -0.04   0.00   0.01    -0.07  -0.06   0.08
    76   1    -0.00   0.02  -0.06    -0.04   0.03   0.02    -0.05  -0.01   0.11
    77   1     0.03   0.00   0.08    -0.00   0.02   0.03     0.02  -0.01   0.00
    78   1    -0.04  -0.05   0.02    -0.02  -0.02   0.02     0.02   0.03  -0.02
    79   1    -0.07  -0.13  -0.01    -0.02  -0.04   0.01     0.01   0.04  -0.02
    80   1    -0.06  -0.08  -0.05    -0.02  -0.03   0.00     0.01   0.05  -0.02
    81   1    -0.00   0.13  -0.17     0.01   0.02  -0.06    -0.01   0.05   0.01
    82   1     0.02   0.01  -0.12     0.03   0.02  -0.06    -0.01  -0.01   0.04
    83   6     0.02   0.10  -0.01     0.01   0.00   0.02     0.01   0.05  -0.00
    84   6     0.03  -0.00   0.02     0.01   0.03   0.02     0.01  -0.02   0.02
    85   9     0.01  -0.05   0.06    -0.01   0.05   0.01     0.02  -0.09   0.06
    86   9     0.02  -0.00  -0.02     0.03   0.04   0.04    -0.01  -0.03  -0.05
    87   9     0.05   0.04   0.05     0.03   0.02   0.01     0.01   0.04   0.06
    88   9     0.02   0.10  -0.01     0.02   0.04   0.07     0.02  -0.19  -0.31
    89   9    -0.01   0.12  -0.00    -0.02  -0.05   0.04     0.06   0.42  -0.09
    90   9     0.05   0.10   0.02     0.02   0.02  -0.02    -0.03  -0.06   0.33
                      7                      8                      9
                      A                      A                      A
 Frequencies --     44.6274                49.5436                55.9266
 Red. masses --     10.0353                 4.9384                 5.0283
 Frc consts  --      0.0118                 0.0071                 0.0093
 IR Inten    --      0.0922                 0.3560                 0.1298
  Atom AN      X      Y      Z        X      Y      Z        X      Y      Z
     1   7     0.00   0.01  -0.01    -0.01   0.02  -0.02    -0.03  -0.01  -0.03
     2   6    -0.00   0.03  -0.01    -0.01   0.00  -0.03    -0.03  -0.01   0.01
     3   6     0.02   0.04  -0.02    -0.03  -0.01  -0.01    -0.03  -0.00   0.05
     4   6     0.03   0.03  -0.03    -0.04   0.00   0.01    -0.02  -0.01   0.05
     5   6     0.03   0.02  -0.03    -0.04   0.02   0.02    -0.02  -0.01   0.00
     6   6     0.02   0.01  -0.02    -0.03   0.03   0.00    -0.03  -0.01  -0.03
     7   1     0.04   0.01  -0.04    -0.05   0.03   0.04    -0.02  -0.01  -0.00
     8   7     0.01   0.03  -0.04    -0.02  -0.00   0.04    -0.04   0.01  -0.07
     9   6     0.01   0.00  -0.01    -0.03   0.03   0.00    -0.03  -0.00  -0.05
    10   6     0.03  -0.01   0.03    -0.04   0.04  -0.03    -0.02  -0.01  -0.03
    11   6     0.03   0.01   0.04    -0.04   0.01  -0.02    -0.02  -0.00  -0.01
    12   6     0.02   0.03   0.01    -0.03  -0.02   0.02    -0.03   0.01  -0.02
    13   6     0.01   0.04  -0.03    -0.02  -0.02   0.05    -0.04   0.02  -0.06
    14   1     0.04  -0.03   0.05    -0.05   0.06  -0.05    -0.02  -0.02  -0.02
    15   1     0.03  -0.00   0.07    -0.05   0.02  -0.05    -0.02  -0.01   0.01
    16  77    -0.02   0.00   0.01     0.02   0.05   0.01     0.01  -0.01  -0.01
    17   5    -0.03  -0.00   0.01     0.01   0.03   0.03     0.04  -0.01   0.01
    18   8    -0.04   0.00   0.02     0.02   0.04   0.08     0.04  -0.01   0.03
    19   8    -0.03  -0.02   0.01    -0.02  -0.00   0.01     0.06  -0.02   0.03
    20   6    -0.06  -0.01   0.02    -0.03   0.00   0.09     0.06  -0.02   0.04
    21   6    -0.05  -0.02   0.01    -0.05  -0.02   0.03     0.07  -0.03   0.05
    22   6    -0.06   0.01   0.02    -0.06  -0.01   0.13     0.07  -0.02   0.02
    23   1    -0.05   0.01   0.02    -0.07  -0.02   0.12     0.08  -0.03   0.00
    24   1    -0.06   0.02   0.02    -0.04  -0.01   0.16     0.06  -0.01   0.02
    25   1    -0.07   0.01   0.02    -0.08  -0.03   0.13     0.08  -0.04   0.03
    26   6    -0.08  -0.01   0.02    -0.03   0.01   0.11     0.05  -0.02   0.05
    27   1    -0.09  -0.02   0.02    -0.08  -0.02   0.11     0.04  -0.03   0.05
    28   1    -0.08   0.00   0.03    -0.02   0.03   0.17     0.04  -0.01   0.05
    29   1    -0.07  -0.02   0.01     0.00   0.02   0.07     0.04  -0.03   0.05
    30   6    -0.06  -0.03   0.01    -0.10  -0.06   0.02     0.09  -0.04   0.05
    31   1    -0.05  -0.01   0.01    -0.12  -0.06   0.05     0.10  -0.05   0.03
    32   1    -0.07  -0.03   0.01    -0.13  -0.07   0.04     0.09  -0.05   0.06
    33   1    -0.05  -0.04   0.00    -0.11  -0.07  -0.02     0.10  -0.05   0.05
[...]
 7493,0.00002888,-0.00006373,-0.00029445,-0.00010015,-0.00009277,-0.000
 25216,0.00013030,0.00001473,-0.00029800,-0.00010904,0.00015101,0.01749
 094,-0.00046189,0.01936568,0.09779291,0.00007226,0.00011075,0.00002417
 ,-0.00005913,0.00007179,0.00000188,-0.00006790,-0.00008616,-0.00000242
 ,0.00011378,0.00004063,0.00001581,-0.00019087,-0.00000288,-0.00000424,
 0.00005069,0.00011707,-0.00015819,-0.00000970,-0.00000524,-0.00000770,
 -0.00076455,0.00007079,0.00103354,0.00004943,0.00055844,0.00017948,0.0
 0033642,0.00014817,0.00088264,0.00038301,-0.00038700,0.00008866,-0.004
 24342,0.00990507,-0.00730646,-0.00009084,-0.00275700,-0.00120584,0.000
 01225,-0.00002375,0.00000083,0.00045753,0.00040851,-0.00016231,-0.0001
 7347,-0.00007282,-0.00007200,0.00009852,0.00005290,0.00001450,-0.00004
 574,-0.00006527,-0.00002604,-0.00007456,-0.00003131,-0.00001640,0.0000
 1158,0.00003687,0.00001976,0.00004376,0.00000632,0.00004017,-0.0000101
 4,-0.00000540,0.00000334,0.00000402,0.00000253,0.00000160,-0.00000685,
 -0.00000355,0.00000206,0.00000165,-0.00000313,-0.00000720,0.00000099,-
 0.00000397,0.00000634,0.00000337,-0.00000003,-0.00000535,-0.00000882,-
 0.00000348,0.00000368,-0.00000291,0.00000880,-0.00000573,-0.00000512,0
 .00001013,-0.00000931,-0.00001053,0.00000201,-0.00000702,0.00000075,-0
 .00000809,-0.00000027,0.00000057,-0.00000083,0.00001263,0.00000469,0.0
 0002665,-0.00001452,-0.00000768,-0.00001588,-0.00000779,0.00001387,0.0
 0001881,-0.00001124,-0.00001231,-0.00000698,0.00003574,0.00015752,0.00
 010240,-0.00003436,-0.00010246,-0.00004398,0.00005365,-0.00011145,-0.0
 0005201,0.00000361,0.00006910,0.00000708,-0.00001675,0.00003627,0.0000
 2808,-0.00002295,-0.00000798,0.00000513,0.00000119,-0.00000450,-0.0000
 0246,0.00000228,-0.00000845,-0.00000279,-0.00000007,0.00000556,-0.0000
 0040,0.00000026,0.00000337,0.00000488,0.00000094,-0.00000366,-0.000000
 95,0.00000105,0.00000158,0.00000347,-0.00000079,-0.00000490,-0.0000039
 7,0.00000303,0.00000075,0.00000086,-0.00000336,-0.00000213,-0.00000481
 ,0.00000626,-0.00000511,-0.00000635,0.00000298,0.00000094,0.00000630,-
 0.00000369,0.00000424,0.00000166,-0.00000081,0.00051528,-0.00008072,0.
 00005897,-0.00022136,-0.00001789,0.00003321,-0.00047163,-0.00005088,-0
 .00005104,0.00014018,0.00000146,-0.00016975,0.00003951,0.00006102,0.00
 034420,-0.00007318,-0.00001995,0.00005452,0.00001720,0.00000986,0.0000
 0217,-0.00001940,-0.00003347,0.00000613,0.00000640,0.00001105,-0.00001
 172,-0.00004030,-0.00002271,0.00000448,0.00000567,0.00000878,-0.000015
 47,-0.00001805,-0.00002676,0.00001575,0.00001784,0.00000165,-0.0000268
 1,0.00009841,0.00010789,-0.00013329,-0.00002325,-0.00005383,0.00001506
 ,-0.00002056,-0.00001558,0.00003795,-0.00009238,0.00005460,0.00006320,
 0.00031171,0.00030152,-0.00068957,-0.00001825,-0.00009576,0.00007962,-
 0.00016906,-0.00008149,0.00009997,-0.00085119,-0.00202395,0.00070331,0
 .00000471,-0.00000364,-0.00000287,0.00000295,-0.00000221,-0.00000215,0
 .00000552,-0.00000236,-0.00000023,-0.00000970,-0.00000070,0.00000208,0
 .00073718,0.00089077,0.00038701,-0.00001045,0.00000215,-0.00000617,-0.
 01290392,-0.08393913,-0.03922267,0.00018354,-0.00003848,-0.00001085,-0
 .00005075,-0.00000673,-0.00001060,-0.00005544,0.00004682,0.00000332,-0
 .00005274,-0.00000796,0.00002074,0.00212691,0.00732336,0.03988182,0.01
 637449,0.09570072,-0.00009324,-0.00004311,0.00014330,-0.00021462,0.000
 18568,-0.00000784,-0.00025031,-0.00029509,-0.00000826,0.00036355,0.000
 09688,0.00004097,-0.00059324,0.00009511,0.00001898,0.00068482,0.000071
 93,-0.00022116,0.00005208,-0.00006109,-0.00004103,-0.00181515,-0.00002
 853,0.00116022,0.00015997,0.00074968,-0.00003627,-0.00025605,-0.001199
 12,0.00047758,-0.00383685,0.00277605,-0.00025345,-0.01526003,-0.008299
 11,-0.02289274,0.00130464,-0.00384728,-0.00142906,-0.00026782,0.000078
 83,0.00004035,0.00062987,0.00060941,-0.00024612,0.00024355,-0.00011923
 ,0.00014169,0.00006020,0.00034217,-0.00013087,-0.00000510,-0.00029187,
 0.00005593,-0.00007912,-0.00026058,0.00007464,0.00001623,0.00005526,0.
 00000619,-0.00007270,0.00013981,0.00003349,-0.00000933,-0.00000706,0.0
 0000475,0.00001486,-0.00000688,0.00000564,-0.00001184,-0.00000499,0.00
 000659,0.00000486,0.00000240,-0.00000683,-0.00003100,-0.00000812,-0.00
 000518,0.00000810,-0.00000092,0.00000144,-0.00001561,-0.00001223,0.000
 00511,0.00001730,0.00000086,-0.00000551,0.00004968,0.00000148,-0.00001
 683,0.00000710,0.00000929,0.00001250,-0.00000255,-0.00002596,-0.000004
 13,-0.00002914,0.00000629,0.00002091,0.00008288,0.00005819,-0.00007095
 ,-0.00000581,-0.00003002,0.00000108,-0.00002289,-0.00001275,0.00001364
 ,-0.00003607,0.00000089,0.00002453,0.00043382,0.00044078,-0.00030629,-
 0.00023718,-0.00023456,0.00029700,-0.00024810,-0.00024059,0.00011974,0
 .00011282,0.00000624,-0.00003830,0.00008611,0.00012108,-0.00008897,-0.
 00002406,0.00001800,-0.00002350,-0.00001861,0.00000023,-0.00000401,-0.
 00000603,-0.00001125,0.00000613,0.00000091,0.00000249,0.00002146,-0.00
 000146,-0.00000321,-0.00001076,-0.00001467,-0.00000391,0.00001898,0.00
 000876,-0.00000071,-0.00001395,-0.00001739,-0.00001308,0.00000587,0.00
 000603,0.00000793,0.00000190,-0.00001277,-0.00001659,0.00001778,-0.000
 01417,-0.00001979,0.00000193,0.00000612,0.00000961,-0.00001171,0.00000
 900,0.00000490,0.00000623,-0.00108744,0.00052758,-0.00095387,0.0005865
 1,-0.00024178,0.00076892,0.00093839,-0.00016725,0.00115144,-0.00052757
 ,0.00022512,0.00009067,-0.00038163,-0.00057252,-0.00163096,0.00019825,
 0.00001692,-0.00006954,-0.00001813,0.00002793,0.00004238,0.00000450,0.
 00007695,-0.00000536,0.00000999,-0.00003231,0.00000227,0.00005392,-0.0
 0005670,0.00000493,0.00003411,-0.00005558,0.00003539,0.00002322,0.0000
 6805,0.00000511,-0.00009239,0.00004317,0.00006414,0.00028082,0.0002802
 5,0.00005237,-0.00004347,0.00014168,0.00006184,0.00000990,-0.00013473,
 0.00010381,-0.00008163,-0.00006292,-0.00015061,0.00005033,0.00093843,0
 .00106852,-0.00004978,-0.00028648,0.00031234,-0.00011308,-0.00010162,0
 .00000972,-0.00003490,-0.00063689,-0.00143686,-0.00000941,0.00006173,-
 0.00001659,0.00000383,-0.00001969,0.00000103,0.00000690,-0.00000601,0.
 00001628,-0.00001381,0.00000186,0.00000654,-0.00029053,0.00167926,-0.0
 0047066,-0.00002234,0.00001187,-0.00002065,-0.07260661,-0.03519704,-0.
 26195570,0.00063923,0.00002685,-0.00013850,-0.00018513,-0.00005709,-0.
 00002841,-0.00016234,0.00008090,0.00002575,-0.00020599,-0.00008740,0.0
 0013913,0.00626201,0.02538153,-0.07441731,0.07982299,0.06191392,0.3975
 5222,-0.00025320,-0.00014854,0.00010091,-0.00027157,0.00019273,0.00002
 215,-0.00033091,-0.00037826,-0.00000599,0.00047359,0.00010093,0.000015
 28,-0.00073289,0.00020245,-0.00000139,0.00096470,-0.00017703,-0.000207
 64,0.00012703,-0.00013737,0.00003589,-0.00362984,0.00228052,0.00146678
 ,0.00064015,0.00092577,0.00038295,-0.00018184,0.00038916,0.00047309,-0
 .00056746,0.00159475,0.00038083,-0.02191921,0.04437898,0.01181129,-0.0
 0608076,-0.00525792,-0.00433941,0.00003619,0.00008283,-0.00006681,-0.0
 0293284,0.00057953,-0.00035427,0.00047338,-0.00025586,0.00023712,-0.00
 045198,0.00091528,0.00047260,0.00015888,-0.00056900,-0.00024166,0.0003
 8458,-0.00054537,-0.00043594,-0.00006209,0.00008853,0.00022510,-0.0002
 5133,0.00040482,0.00009374,0.00002227,0.00000656,-0.00004445,0.0000055
 9,-0.00000891,0.00002836,0.00000721,0.00001548,0.00001050,-0.00000397,
 -0.00001952,-0.00002582,-0.00001147,-0.00001568,-0.00003210,0.00000392
 ,-0.00002717,-0.00001566,0.00000680,0.00000293,0.00000731,0.00000662,-
 0.00000293,0.00002312,0.00002454,-0.00006018,-0.00000071,0.00002036,0.
 00000900,0.00002700,-0.00000036,-0.00002568,-0.00002584,-0.00000026,0.
 00003356,-0.00001729,0.00003209,-0.00011394,0.00002616,0.00003033,-0.0
 0003579,-0.00000236,-0.00004238,0.00000680,0.00001101,-0.00001338,0.00
 005985,-0.00004782,0.00050628,0.00056846,-0.00047949,-0.00027579,-0.00
 028941,0.00028332,-0.00041048,-0.00039546,0.00012263,0.00013595,0.0000
 3532,-0.00002611,0.00013076,0.00021401,-0.00009763,-0.00002405,0.00001
 902,-0.00002801,-0.00001481,-0.00000079,0.00000303,-0.00001392,-0.0000
 1200,0.00000646,0.00000325,0.00000389,0.00001509,0.00000447,-0.0000099
 4,-0.00000987,-0.00002336,-0.00001228,0.00002774,0.00001783,-0.0000092
 6,-0.00001566,-0.00002442,-0.00001489,0.00000971,0.00000399,0.00001014
 ,-0.00000810,-0.00001730,-0.00002953,0.00001493,-0.00001472,-0.0000300
 3,0.00000206,0.00000914,0.00001209,0.00000264,-0.00000051,0.00000982,-
 0.00000727,-0.00104915,0.00063347,-0.00069178,0.00065238,-0.00032885,0
 .00048451,0.00118794,-0.00043705,0.00047417,-0.00034934,0.00003158,0.0
 0000731,-0.00063482,0.00031531,-0.00042563,0.00005469,0.00000101,-0.00
 002965,-0.00004296,0.00000724,-0.00000138,0.00002050,0.00001539,-0.000
 02203,0.00003806,-0.00006576,0.00004033,0.00002072,0.00000766,0.000005
 73,0.00003297,-0.00002405,0.00004413,0.00000598,0.00001633,-0.00000964
 ,-0.00001809,-0.00000833,-0.00000556,-0.00035805,-0.00033354,0.0003824
 0,0.00008567,0.00006505,-0.00008167,0.00007839,0.00001092,-0.00002335,
 0.00007977,-0.00030401,-0.00002803,0.00026693,-0.00003782,0.00010824,-
 0.00002470,-0.00007466,0.00015091,0.00017663,0.00002859,-0.00014951,-0
 .00137510,-0.00066186,0.00135993,-0.00001564,0.00009543,-0.00001410,0.
 00001183,-0.00002679,0.00001381,0.00000936,0.00000135,0.00000241,-0.00
 002148,-0.00000310,0.00000718,0.00022711,0.00015699,0.00015459,-0.0000
 2057,0.00001577,-0.00001003,-0.14461327,0.09269776,0.02324109,0.000910
 21,0.00006377,-0.00004191,-0.00028312,-0.00010809,-0.00010383,-0.00023
 013,0.00009932,0.00001033,-0.00027992,-0.00010762,0.00013907,0.0200567
 5,-0.00925691,-0.00399247,0.01684036,-0.00138915,0.00614093,0.14288729
 ,0.00020230,0.00023042,-0.00010403,0.00021826,-0.00010575,-0.00001128,
 0.00018336,0.00024683,0.00000555,-0.00027551,-0.00002353,-0.00003002,0
 .00034283,-0.00013989,-0.00001117,-0.00069907,0.00026454,0.00020872,-0
 .00008689,0.00007999,-0.00000617,0.00128290,-0.00093719,-0.00024561,-0
 .00047851,-0.00016799,0.00006074,0.00076169,0.00124067,0.00040916,-0.0
 0317800,-0.00390513,-0.00230078,0.01338419,-0.01527108,-0.00710756,0.0
 0325206,0.00218018,0.00107479,0.00011066,-0.00010767,0.00006546,0.0002
 7352,0.00188988,0.00124249,-0.00049854,0.00013216,-0.00021172,0.000532
 13,-0.00057222,-0.00036812,-0.00020586,0.00026184,0.00013235,-0.000473
 62,0.00030328,0.00029717,0.00007219,0.00001176,-0.00012482,0.00026499,
 -0.00026150,0.00003911,-0.00003884,-0.00001778,0.00004222,0.00000512,0
 .00001124,-0.00001658,-0.00002044,-0.00001825,-0.00000410,0.00000651,0
 .00000695,0.00000357,0.00000488,0.00000278,0.00003597,0.00000467,0.000
 01907,0.00000104,-0.00002361,-0.00001071,0.00000224,-0.00000922,0.0000
 2018,-0.00002991,-0.00002933,0.00006227,-0.00001943,-0.00003738,-0.000
 00241,-0.00003431,0.00000104,0.00000018,0.00001688,0.00000190,-0.00002
 442,0.00004205,0.00000648,0.00015127,-0.00006818,-0.00004533,-0.000018
 46,-0.00001542,0.00006030,0.00004116,-0.00003559,-0.00002935,-0.000053
 85,0.00013139,-0.00000406,-0.00016889,0.00020184,-0.00002967,0.0000990
 0,-0.00008211,0.00000856,0.00016122,-0.00007063,0.00004673,-0.00001516
 ,-0.00001750,-0.00002301,-0.00008520,0.00002254,0.00000025,-0.00000813
 ,0.00002562,-0.00000166,-0.00000308,0.00000323,-0.00000672,0.00000180,
 -0.00000359,0.00000797,-0.00000338,-0.00000980,0.00000322,0.00001664,0
 .00000786,0.00000825,-0.00000066,-0.00001602,-0.00001037,0.00001463,0.
 00001206,0.00000530,0.00000483,-0.00000163,-0.00000191,-0.00000643,-0.
 00000207,0.00000625,0.00001129,0.00000246,0.00000012,0.00000811,0.0000
 0434,-0.00000483,0.00000491,-0.00000961,0.00000919,-0.00000418,0.00000
 298,0.00181886,-0.00059436,0.00051129,-0.00087860,0.00017422,-0.000193
 13,-0.00159005,0.00034853,-0.00030624,0.00042291,0.00010199,-0.0002282
 0,0.00072430,-0.00000609,0.00020709,-0.00011826,-0.00002588,0.00008638
 ,0.00006210,0.00001645,0.00000924,-0.00004930,-0.00005096,0.00003187,-
 0.00001627,0.00006597,-0.00004944,-0.00008847,-0.00005057,0.00001116,-
 0.00001133,0.00002808,-0.00005616,-0.00003310,-0.00004899,0.00004212,0
 .00003287,0.00001193,-0.00002933,0.00026510,0.00058743,-0.00029626,-0.
 00008447,-0.00009065,0.00003932,-0.00007416,-0.00003513,0.00010649,-0.
 00063897,-0.00275063,0.00160067,0.00016817,0.00075744,-0.00009350,-0.0
 0007620,-0.00015524,0.00010511,-0.00035658,-0.00016186,0.00030186,0.00
 004356,-0.00268451,0.00004458,0.00002310,-0.00009323,0.00001120,-0.000
 00162,0.00001520,-0.00001411,0.00000335,-0.00000340,-0.00000330,-0.000
 00424,0.00000145,-0.00000015,-0.00033829,0.00052511,0.00030480,0.00000
 013,-0.00000948,0.00000685,0.09913669,-0.23327099,-0.04200651,-0.00045
 085,-0.00012344,0.00003592,0.00015024,0.00008051,0.00006070,0.00009036
 ,-0.00000146,-0.00000576,0.00014905,0.00008404,-0.00008984,0.00577632,
 -0.07960259,0.01389828,0.00674329,-0.02615305,-0.04458185,-0.12565576,
 0.35756806,-0.00001285,-0.00001988,-0.00000622,0.00004843,-0.00003023,
 -0.00001381,0.00002231,0.00005183,0.00000175,-0.00005869,-0.00001069,0
 .00000445,0.00003487,-0.00000931,0.00000686,-0.00001768,0.00005779,0.0
 0015686,-0.00000636,-0.00000057,-0.00002729,0.00016018,0.00043311,-0.0
 0055141,-0.00019203,-0.00001925,0.00001412,0.00014244,0.00071911,0.000
 12709,-0.00117401,-0.00114458,-0.00116750,0.00133803,-0.00340977,0.008
 58016,-0.00018261,-0.00070425,0.00141027,0.00007307,0.00000436,-0.0000
 2086,-0.00029403,0.00115025,0.00023651,0.00006070,0.00007106,0.0000767
 9,0.00017583,-0.00016575,-0.00026386,-0.00005595,0.00005526,0.00011938
 ,-0.00018568,0.00005094,0.00020501,0.00003161,-0.00000503,-0.00007595,
 0.00004442,-0.00006142,-0.00001495,-0.00001254,-0.00000583,0.00001853,
 0.00000574,-0.00000061,-0.00000704,-0.00000825,-0.00000764,-0.00000031
 ,0.00000404,0.00000822,0.00000599,-0.00001300,0.00000132,0.00000845,0.
 00000246,0.00000907,0.00000604,-0.00000935,-0.00000730,0.00000012,0.00
 000630,0.00000103,-0.00001006,0.00002198,0.00002245,-0.00000958,-0.000
 00295,0.00000132,-0.00000181,-0.00000272,-0.00000583,0.00000737,-0.000
 01649,-0.00000651,0.00001844,0.00004207,0.00007327,-0.00004517,-0.0000
 1542,-0.00000554,0.00000222,-0.00000144,-0.00001241,0.00000572,-0.0000
 2045,-0.00001662,0.00002363,0.00000711,0.00000950,-0.00002165,-0.00000
 169,-0.00000727,0.00003393,0.00001554,0.00001970,0.00001796,-0.0000015
 8,-0.00000857,-0.00000836,-0.00000623,-0.00001383,-0.00000597,-0.00000
 140,0.00000027,0.00000003,-0.00000237,0.00000073,-0.00000218,0.0000024
 3,-0.00000077,0.00000053,-0.00000126,0.00000004,0.00000452,-0.00000247
 ,0.00000122,-0.00000196,0.00000067,0.00000053,-0.00000002,-0.00000213,
 0.00000270,-0.00000032,-0.00000008,-0.00000022,-0.00000077,0.00000148,
 -0.00000010,0.00000332,-0.00000029,0.00000277,0.00000217,-0.00000138,0
 .00000130,0.00000025,-0.00000040,0.00000021,-0.00000638,0.00000448,-0.
 00000128,0.00000510,-0.00019560,0.00004659,-0.00021040,0.00009158,0.00
 000106,0.00017468,0.00009766,0.00005683,0.00038925,-0.00014260,0.00007
 480,0.00008048,-0.00000185,-0.00036985,-0.00060952,0.00008237,0.000011
 91,-0.00003436,0.00000365,0.00000882,0.00001845,-0.00000233,0.00003599
 ,0.00000500,-0.00000861,0.00000651,-0.00000974,0.00002594,-0.00001687,
 -0.00000003,0.00000262,-0.00001834,0.00000473,0.00001106,0.00002996,0.
 00000262,-0.00003719,0.00002276,0.00003846,0.00036196,0.00020254,-0.00
 018367,-0.00004467,0.00004437,0.00007028,-0.00003645,-0.00008737,0.000
 07021,0.00001089,0.00097964,-0.00054932,-0.00028960,-0.00020416,0.0005
 7883,0.00004295,0.00001174,0.00000303,0.00003697,0.00008430,-0.0000726
 8,0.00110882,0.00145688,-0.00227537,-0.00000004,-0.00000701,-0.0000006
 0,-0.00000197,0.00000014,-0.00000324,-0.00000062,-0.00000171,0.0000055
 4,0.00000144,0.00000153,0.00000032,-0.00012617,0.00040851,-0.00010265,
 -0.00000224,-0.00000145,0.00000013,0.02577850,-0.04443582,-0.08757013,
 -0.00006443,-0.00000838,-0.00003994,0.00002379,0.00001410,0.00002232,0
 .00001431,-0.00000471,0.00000631,0.00001780,0.00000364,0.00000559,-0.0
 0659985,0.02388555,0.01298729,0.01683751,-0.05670353,-0.03713262,-0.03
 693799,0.07740273,0.10549062\\-0.00000026,0.00000565,0.00000035,0.0000
 0456,0.00000162,-0.00000203,-0.00000420,-0.00000592,-0.00000295,0.0000
 0219,0.00000244,-0.00000227,0.00000459,0.00000053,0.00000047,-0.000003
 81,-0.00000462,-0.00000174,-0.00000142,-0.00000103,-0.00000134,-0.0000
 0399,0.00000193,0.00000124,0.00000125,-0.00000171,-0.00000163,-0.00000
 021,-0.00000287,-0.00000162,0.00000012,-0.00000415,-0.00000006,0.00000
 514,0.00000403,0.00000329,0.00000164,0.00000129,0.00000090,0.00000088,
 0.00000209,0.00000156,0.00000018,0.00000010,0.00000045,-0.00000096,0.0
 0000188,0.,0.00000245,-0.00000496,-0.00000361,0.00000143,0.00000192,0.
 00000039,-0.00000114,0.00000418,0.00000378,-0.00000068,0.00000075,0.00
 000173,-0.00000142,-0.00000454,-0.00000179,0.00000346,-0.00000228,-0.0
 0000060,0.00000082,-0.00000041,-0.00000029,0.00000104,0.00000006,-0.00
 000041,0.00000124,0.00000056,0.00000088,-0.00000395,-0.00000120,0.0000
 0161,0.00000136,-0.00000087,-0.00000008,0.00000413,0.00000144,-0.00000
 082,0.00000129,-0.00000004,0.00000238,0.00000291,0.00000176,0.00000317
 ,0.00000251,-0.00000115,0.00000083,0.00000187,-0.00000129,0.00000018,0
 .00000146,-0.00000090,0.00000056,0.00000485,0.00000233,-0.00000120,0.0
 0000061,0.00000157,0.00000280,0.00000061,-0.00000061,0.00000130,-0.000
 00091,-0.00000329,0.00000264,-0.00000325,-0.00000316,-0.00000013,0.000
 00034,0.00000107,-0.00000177,0.00000287,0.00000240,-0.00000180,-0.0000
 0282,-0.00000147,0.00000115,0.00000051,0.00000300,0.00000349,-0.000006
 13,-0.00000338,-0.00000123,0.00000470,0.00000138,-0.00000907,-0.000005
 38,-0.00000140,-0.00000094,-0.00000024,0.00000124,0.00000358,-0.000002
 36,0.00000145,0.00000018,0.00000351,-0.00000213,-0.00000148,-0.0000004
 6,0.00000070,-0.00000176,-0.00000188,-0.00000080,-0.00000077,-0.000000
 41,0.00000015,-0.00000448,-0.00000218,-0.00000616,-0.00000613,0.000001
 69,0.00000264,-0.00000187,-0.00000061,0.00000086,-0.00000068,0.0000015
 0,-0.00000050,0.00000237,-0.00000028,-0.00000079,0.00000411,-0.0000008
 6,-0.00000111,-0.00000066,0.00000082,-0.00000006,-0.00000150,-0.000003
 65,0.00000657,0.00000072,-0.00000199,0.00000038,0.00000075,-0.00000037
 ,-0.00000199,-0.00000230,-0.00000033,0.00000005,0.00000244,-0.00000157
 ,-0.00000022,0.00000163,-0.00000114,0.00000017,0.00000135,0.00000474,-
 0.00000185,-0.00000085,-0.00000354,0.00000069,0.00000126,-0.00000388,-
 0.00000099,0.00000270,-0.00000273,0.00000367,0.00000161,0.00000404,-0.
 00000417,0.00000660,-0.00000065,0.00000135,0.00000264,-0.00000294,0.00
 000135,-0.00000201,0.00000002,0.00000154,0.00000130,0.00000520,-0.0000
 0380,0.00000567,-0.00000382,0.00000124,-0.00000193,-0.00000464,0.00000
 267,0.00000196,-0.00000002,0.00000137,0.00000023,-0.00000132,-0.000000
 62,-0.00000176,-0.00000073,0.00000240,-0.00000279,-0.00000063,0.000000
 51,-0.00000031,0.00000352,0.00000094,-0.00000286,-0.00000034,-0.000000
 11,0.00000042,-0.00000131,0.00000161,-0.00000185,0.00000062,-0.0000091
 7,0.00000406,0.00000049,0.00000062,0.00000207,0.00000032,0.00000048,-0
 .00000457,0.00000004,-0.00000265,-0.00000336,0.00000010,0.00000176,-0.
 00000297,0.00000174,0.00000398,-0.00000149,-0.00000214,0.00000053,0.00
 000061,-0.00000178,0.00000349,0.00000232\\\@
 The archive entry for this job was punched.


 OUR LITTLE SYSTEMS HAVE THEIR DAY,    
   THEY HAVE THEIR DAY AND CEASE TO BE.
   THEY ARE BUT BROKEN LIGHTS OF THEE, 
 AND THOU, OH LORD, ART MORE THAN THEY.
          -------------------          
 LET KNOWLEDGE GROW FROM MORE TO MORE, 
   BUT MORE OF REVERENCE IN US DWELL.  
   THAT MIND AND SOUL, ACCORDING WELL, 
 MAY MAKE ONE MUSIC AS BEFORE.....     
          -------------------          
                    LORD TENNYSON      
 Job cpu time:       0 days 22 hours 36 minutes 53.1 seconds.
 Elapsed time:       0 days  1 hours 26 minutes 48.2 seconds.
 File lengths (MBytes):  RWF=   6117 Int=      0 D2E=      0 Chk=     41 Scr=      1
 Normal termination of Gaussian 16 at Sat Dec  7 20:18:42 2024.
