/mnt/lustre/scratch/nvme/SLURM/9663736/usccqdma.7iYSI0MzQt
OMP_STACKSIZE=0m
GAUSS_PDEF=16
GAUSS_MDEF=65536MB
GAUSS_RDEF=SCF=Direct
 Entering Gaussian System, Link 0=g16.exe
 Initial command:
 /opt/cesga/2020/software/Core/g16/c1/l1.exe "/mnt/lustre/scratch/nvme/SLURM/9663736/usccqdma.7iYSI0MzQt/Gau-803828.inp" -scrdir="/mnt/lustre/scratch/nvme/SLURM/9663736/usccqdma.7iYSI0MzQt/"
 Default is to use a total of  16 processors:
                               16 via shared-memory
                                1 via Linda
 Entering Link 1 = /opt/cesga/2020/software/Core/g16/c1/l1.exe PID=    803854.
  
 Copyright (c) 1988-2019, Gaussian, Inc.  All Rights Reserved.
  
 This is part of the Gaussian(R) 16 program.  It is based on
 the Gaussian(R) 09 system (copyright 2009, Gaussian, Inc.),
 the Gaussian(R) 03 system (copyright 2003, Gaussian, Inc.),
 the Gaussian(R) 98 system (copyright 1998, Gaussian, Inc.),
 the Gaussian(R) 94 system (copyright 1995, Gaussian, Inc.),
 the Gaussian 92(TM) system (copyright 1992, Gaussian, Inc.),
 the Gaussian 90(TM) system (copyright 1990, Gaussian, Inc.),
 the Gaussian 88(TM) system (copyright 1988, Gaussian, Inc.),
 the Gaussian 86(TM) system (copyright 1986, Carnegie Mellon
 University), and the Gaussian 82(TM) system (copyright 1983,
 Carnegie Mellon University). Gaussian is a federally registered
 trademark of Gaussian, Inc.
  
 This software contains proprietary and confidential information,
 including trade secrets, belonging to Gaussian, Inc.
  
 This software is provided under written license and may be
 used, copied, transmitted, or stored only in accord with that
 written license.
  
 The following legend is applicable only to US Government
 contracts under FAR:
  
                    RESTRICTED RIGHTS LEGEND
  
 Use, reproduction and disclosure by the US Government is
 subject to restrictions as set forth in subparagraphs (a)
 and (c) of the Commercial Computer Software - Restricted
 Rights clause in FAR 52.227-19.
  
 Gaussian, Inc.
 340 Quinnipiac St., Bldg. 40, Wallingford CT 06492
  
  
 ---------------------------------------------------------------
 Warning -- This program may not be used in any manner that
 competes with the business of Gaussian, Inc. or will provide
 assistance to any competitor of Gaussian, Inc.  The licensee
 of this program is prohibited from giving any competitor of
 Gaussian, Inc. access to this program.  By using this program,
 the user acknowledges that Gaussian, Inc. is engaged in the
 business of creating and licensing software in the field of
 computational chemistry and represents and warrants to the
 licensee that it is not a competitor of Gaussian, Inc. and that
 it will not use this program in any manner prohibited above.
 ---------------------------------------------------------------
  

 Cite this work as:
 Gaussian 16, Revision C.01,
 M. J. Frisch, G. W. Trucks, H. B. Schlegel, G. E. Scuseria, 
 M. A. Robb, J. R. Cheeseman, G. Scalmani, V. Barone, 
 G. A. Petersson, H. Nakatsuji, X. Li, M. Caricato, A. V. Marenich, 
 J. Bloino, B. G. Janesko, R. Gomperts, B. Mennucci, H. P. Hratchian, 
 J. V. Ortiz, A. F. Izmaylov, J. L. Sonnenberg, D. Williams-Young, 
 F. Ding, F. Lipparini, F. Egidi, J. Goings, B. Peng, A. Petrone, 
 T. Henderson, D. Ranasinghe, V. G. Zakrzewski, J. Gao, N. Rega, 
 G. Zheng, W. Liang, M. Hada, M. Ehara, K. Toyota, R. Fukuda, 
 J. Hasegawa, M. Ishida, T. Nakajima, Y. Honda, O. Kitao, H. Nakai, 
 T. Vreven, K. Throssell, J. A. Montgomery, Jr., J. E. Peralta, 
 F. Ogliaro, M. J. Bearpark, J. J. Heyd, E. N. Brothers, K. N. Kudin, 
 V. N. Staroverov, T. A. Keith, R. Kobayashi, J. Normand, 
 K. Raghavachari, A. P. Rendell, J. C. Burant, S. S. Iyengar, 
 J. Tomasi, M. Cossi, J. M. Millam, M. Klene, C. Adamo, R. Cammi, 
 J. W. Ochterski, R. L. Martin, K. Morokuma, O. Farkas, 
 J. B. Foresman, and D. J. Fox, Gaussian, Inc., Wallingford CT, 2019.
 
 ******************************************
 Gaussian 16:  ES64L-G16RevC.01  3-Jul-2019
                 7-Dec-2024 
 ******************************************
 Default route: SCF=Direct
 ----------------------------------------------------
 # m06/genecp scf=tight int=ultrafine 5d freq=noraman
 ----------------------------------------------------
 1/10=4,30=1,38=1/1,3;
 2/12=2,17=6,18=5,40=1/2;
 3/5=7,8=1,11=2,16=1,17=8,25=1,30=1,71=2,74=-54,75=-5,140=1/1,2,3;
 4//1;
 5/5=2,32=2,38=5,98=1/2;
 8/6=4,10=90,11=11/1;
 11/6=1,8=1,9=11,15=111,16=1/1,2,10;
 10/6=1/2;
 6/7=2,8=2,9=2,10=2,28=1/1;
 7/8=1,10=1,25=1/1,2,3,16;
 1/10=4,30=1/3;
 99//99;
 ------
 OPT-TS
 ------
 Symbolic Z-matrix:
 Charge =  0 Multiplicity = 1
 C                     1.97286  -1.02433   2.07848 
 C                     2.86214   0.72505   0.85067 
 C                     4.02582   0.72478   1.60067 
 C                     4.16415  -0.19844   2.62732 
 C                     3.12491  -1.08102   2.8595 
 C                     0.85409  -1.95094   2.27477 
 C                    -1.17338  -2.71495   1.48748 
 C                    -1.34012  -3.5639    2.57034 
 C                    -0.35112  -3.59569   3.54643 
 C                     0.75201  -2.77405   3.40004 
 H                     2.71224   1.44277   0.05239 
 H                     5.07031  -0.24087   3.22792 
 H                     3.22298  -1.84332   3.62635 
 H                    -1.9402   -2.61985   0.72155 
 H                    -0.44453  -4.23972   4.41858 
 H                     1.51889  -2.7554    4.16911 
 N                     1.83836  -0.11468   1.08525 
 N                    -0.09706  -1.93739   1.32514 
 Ir                    0.17691  -0.17787  -0.23673 
 O                     0.93872   2.76837  -0.04822 
 O                    -2.32616   1.53281   0.63851 
 O                    -1.23847  -1.62483  -2.69036 
 B                    -1.1958    0.81386   1.01238 
 B                     0.25156   1.78774  -0.76902 
 B                    -1.35892  -1.06219  -1.43838 
 O                    -2.57183  -1.38288  -0.85803 
 O                    -0.33569   2.35276  -1.89612 
 C                    -0.24068   3.77873  -1.78297 
 C                     1.00364   3.94714  -0.86615 
 C                    -2.26016  -2.62713  -2.80451 
 C                    -3.35708  -2.07864  -1.84803 
 C                    -3.19548   1.59849   1.77816 
 C                    -2.1915    1.48957   2.9587 
 O                    -1.15381   0.67342   2.39575 
 C                     2.32058   3.89521  -1.63168 
 H                     2.48256   4.79694  -2.23706 
 H                     3.14664   3.81835  -0.91134 
 H                     2.36126   3.01974  -2.29426 
 C                     0.98014   5.1714    0.02648 
 H                     1.88827   5.20086   0.64235 
 H                     0.94801   6.09103  -0.57545 
 H                     0.11688   5.16563   0.70051 
 C                    -0.09545   4.37413  -3.16908 
 H                    -1.01806   4.20865  -3.73962 
 H                     0.07868   5.45854  -3.11344 
 H                     0.72891   3.91314  -3.72442 
 C                    -1.52646   4.27424  -1.13494 
 H                    -1.56542   5.37132  -1.09038 
 H                    -2.3778    3.91743  -1.72839 
 H                    -1.64269   3.86169  -0.12521 
 C                    -3.993     2.88581   1.72689 
 H                    -4.63659   2.88462   0.83741 
 H                    -4.63665   2.98354   2.61334 
 H                    -3.34531   3.76778   1.66965 
 C                    -4.13619   0.40216   1.68637 
 H                    -4.66307   0.44525   0.72434 
 H                    -3.57483  -0.54183   1.71086 
 H                    -4.88165   0.40044   2.4934 
 C                    -1.55892   2.82465   3.32791 
 H                    -0.71669   2.63924   4.00614 
 H                    -1.16223   3.33011   2.43692 
 H                    -2.26901   3.49445   3.8321 
 C                    -2.73413   0.81066   4.20024 
 H                    -3.04193  -0.22062   3.99285 
 H                    -1.95757   0.78055   4.97554 
 H                    -3.59638   1.36032   4.60527 
 C                    -4.25623  -1.04026  -2.50269 
 H                    -4.9418   -1.49589  -3.22944 
 H                    -4.85346  -0.5484   -1.72503 
 H                    -3.66566  -0.26733  -3.01033 
 C                    -4.19774  -3.13145  -1.15575 
 H                    -4.7881   -3.70078  -1.88759 
 H                    -3.58686  -3.84008  -0.58408 
 H                    -4.89526  -2.6446   -0.46112 
 C                    -1.63895  -3.93476  -2.32972 
 H                    -0.74186  -4.13288  -2.92946 
 H                    -1.31941  -3.87148  -1.27978 
 H                    -2.32715  -4.78337  -2.4406 
 C                    -2.67922  -2.74748  -4.25483 
 H                    -1.84239  -3.13291  -4.85036 
 H                    -3.52133  -3.44643  -4.3595 
 H                    -2.97177  -1.77874  -4.67332 
 H                    -0.79625   0.22099  -1.51029 
 C                     3.90779  -1.52154  -0.93267 
 O                     3.75185  -2.36892  -0.05409 
 C                     5.30479  -1.01069  -1.27373 
 H                     5.49834  -1.15798  -2.34799 
 H                     5.34907   0.07972  -1.11741 
 C                     1.50935  -1.50471  -1.45612 
 H                     1.08886  -1.65808  -2.45763 
 H                     1.58837  -2.48141  -0.96277 
 N                     2.86851  -1.00172  -1.63994 
 C                     3.01308  -0.01767  -2.68532 
 H                     3.8729    0.64204  -2.52066 
 H                     3.11544  -0.4817   -3.68044 
 H                     2.10317   0.60143  -2.69693 
 C                     6.37112  -1.69662  -0.44249 
 H                     6.20126  -1.52537   0.6273 
 H                     6.34748  -2.78125  -0.59465 
 H                    -2.23605  -4.17561   2.6455 
 H                     4.81143   1.43902   1.36517 
 H                     7.37055  -1.32657  -0.7033 
 

 GradGradGradGradGradGradGradGradGradGradGradGradGradGradGradGradGradGrad
 Berny optimization.
 Initialization pass.
 Trust Radius=3.00D-01 FncErr=1.00D-07 GrdErr=1.00D-07 EigMax=2.50D+02 EigMin=1.00D-04
 Number of steps in this run=      2 maximum allowed number of steps=      2.
 GradGradGradGradGradGradGradGradGradGradGradGradGradGradGradGradGradGrad

 Stoichiometry    C33H55B3IrN3O7
 Framework group  C1[X(C33H55B3IrN3O7)]
 Deg. of freedom   300
 Full point group                 C1      NOp   1
 Largest Abelian subgroup         C1      NOp   1
 Largest concise Abelian subgroup C1      NOp   1
                         Standard orientation:                         
 ---------------------------------------------------------------------
 Center     Atomic      Atomic             Coordinates (Angstroms)
 Number     Number       Type             X           Y           Z
 ---------------------------------------------------------------------
      1          6           0        1.972859   -1.024330    2.078479
      2          6           0        2.862139    0.725050    0.850669
      3          6           0        4.025819    0.724780    1.600669
      4          6           0        4.164149   -0.198440    2.627319
      5          6           0        3.124909   -1.081020    2.859499
      6          6           0        0.854089   -1.950940    2.274769
      7          6           0       -1.173381   -2.714950    1.487479
      8          6           0       -1.340121   -3.563900    2.570339
      9          6           0       -0.351121   -3.595690    3.546429
     10          6           0        0.752009   -2.774050    3.400039
     11          1           0        2.712239    1.442770    0.052389
     12          1           0        5.070309   -0.240870    3.227919
     13          1           0        3.222979   -1.843320    3.626349
     14          1           0       -1.940201   -2.619850    0.721549
     15          1           0       -0.444531   -4.239720    4.418579
     16          1           0        1.518889   -2.755400    4.169109
     17          7           0        1.838359   -0.114680    1.085249
     18          7           0       -0.097061   -1.937390    1.325139
     19         77           0        0.176909   -0.177870   -0.236731
     20          8           0        0.938719    2.768370   -0.048221
     21          8           0       -2.326161    1.532810    0.638509
     22          8           0       -1.238471   -1.624830   -2.690361
     23          5           0       -1.195801    0.813860    1.012379
     24          5           0        0.251559    1.787740   -0.769021
     25          5           0       -1.358921   -1.062190   -1.438381
     26          8           0       -2.571831   -1.382880   -0.858031
     27          8           0       -0.335691    2.352760   -1.896121
     28          6           0       -0.240681    3.778730   -1.782971
     29          6           0        1.003639    3.947140   -0.866151
     30          6           0       -2.260161   -2.627130   -2.804511
     31          6           0       -3.357081   -2.078640   -1.848031
     32          6           0       -3.195481    1.598490    1.778159
     33          6           0       -2.191501    1.489570    2.958699
     34          8           0       -1.153811    0.673420    2.395749
     35          6           0        2.320579    3.895210   -1.631681
     36          1           0        2.482559    4.796940   -2.237061
     37          1           0        3.146639    3.818350   -0.911341
     38          1           0        2.361259    3.019740   -2.294261
     39          6           0        0.980139    5.171400    0.026479
     40          1           0        1.888269    5.200860    0.642349
     41          1           0        0.948009    6.091030   -0.575451
     42          1           0        0.116879    5.165630    0.700509
     43          6           0       -0.095451    4.374130   -3.169081
     44          1           0       -1.018061    4.208650   -3.739621
     45          1           0        0.078679    5.458540   -3.113441
     46          1           0        0.728909    3.913140   -3.724421
     47          6           0       -1.526461    4.274240   -1.134941
     48          1           0       -1.565421    5.371320   -1.090381
     49          1           0       -2.377801    3.917430   -1.728391
     50          1           0       -1.642691    3.861690   -0.125211
     51          6           0       -3.993001    2.885810    1.726889
     52          1           0       -4.636591    2.884620    0.837409
     53          1           0       -4.636651    2.983540    2.613339
     54          1           0       -3.345311    3.767780    1.669649
     55          6           0       -4.136191    0.402160    1.686369
     56          1           0       -4.663071    0.445250    0.724339
     57          1           0       -3.574831   -0.541830    1.710859
     58          1           0       -4.881651    0.400440    2.493399
     59          6           0       -1.558921    2.824650    3.327909
     60          1           0       -0.716691    2.639240    4.006139
     61          1           0       -1.162231    3.330110    2.436919
     62          1           0       -2.269011    3.494450    3.832099
     63          6           0       -2.734131    0.810660    4.200239
     64          1           0       -3.041931   -0.220620    3.992849
     65          1           0       -1.957571    0.780550    4.975539
     66          1           0       -3.596381    1.360320    4.605269
     67          6           0       -4.256231   -1.040260   -2.502691
     68          1           0       -4.941801   -1.495890   -3.229441
     69          1           0       -4.853461   -0.548400   -1.725031
     70          1           0       -3.665661   -0.267330   -3.010331
     71          6           0       -4.197741   -3.131450   -1.155751
     72          1           0       -4.788101   -3.700780   -1.887591
     73          1           0       -3.586861   -3.840080   -0.584081
     74          1           0       -4.895261   -2.644600   -0.461121
     75          6           0       -1.638951   -3.934760   -2.329721
     76          1           0       -0.741861   -4.132880   -2.929461
     77          1           0       -1.319411   -3.871480   -1.279781
     78          1           0       -2.327151   -4.783370   -2.440601
     79          6           0       -2.679221   -2.747480   -4.254831
     80          1           0       -1.842391   -3.132910   -4.850361
     81          1           0       -3.521331   -3.446430   -4.359501
     82          1           0       -2.971771   -1.778740   -4.673321
     83          1           0       -0.796251    0.220990   -1.510291
     84          6           0        3.907789   -1.521540   -0.932671
     85          8           0        3.751849   -2.368920   -0.054091
     86          6           0        5.304789   -1.010690   -1.273731
     87          1           0        5.498339   -1.157980   -2.347991
     88          1           0        5.349069    0.079720   -1.117411
     89          6           0        1.509349   -1.504710   -1.456121
     90          1           0        1.088859   -1.658080   -2.457631
     91          1           0        1.588369   -2.481410   -0.962771
     92          7           0        2.868509   -1.001720   -1.639941
     93          6           0        3.013079   -0.017670   -2.685321
     94          1           0        3.872899    0.642040   -2.520661
     95          1           0        3.115439   -0.481700   -3.680441
     96          1           0        2.103169    0.601430   -2.696931
     97          6           0        6.371119   -1.696620   -0.442491
     98          1           0        6.201259   -1.525370    0.627299
     99          1           0        6.347479   -2.781250   -0.594651
    100          1           0       -2.236051   -4.175610    2.645499
    101          1           0        4.811429    1.439020    1.365169
    102          1           0        7.370549   -1.326570   -0.703301
 ---------------------------------------------------------------------
 Rotational constants (GHZ):           0.0740204           0.0654880           0.0586697
 General basis read from cards:  (5D, 7F)
 ======================================================================================================
                                       Pseudopotential Parameters
 ======================================================================================================
  Center     Atomic      Valence      Angular      Power
  Number     Number     Electrons     Momentum     of R      Exponent        Coefficient   SO-Coeffient
 ======================================================================================================
    1          6
                                   No pseudopotential on this center.
    2          6
                                   No pseudopotential on this center.
    3          6
                                   No pseudopotential on this center.
    4          6
                                   No pseudopotential on this center.
    5          6
                                   No pseudopotential on this center.
    6          6
                                   No pseudopotential on this center.
    7          6
                                   No pseudopotential on this center.
    8          6
                                   No pseudopotential on this center.
    9          6
                                   No pseudopotential on this center.
   10          6
                                   No pseudopotential on this center.
   11          1
                                   No pseudopotential on this center.
   12          1
                                   No pseudopotential on this center.
   13          1
                                   No pseudopotential on this center.
   14          1
                                   No pseudopotential on this center.
   15          1
                                   No pseudopotential on this center.
   16          1
                                   No pseudopotential on this center.
   17          7
                                   No pseudopotential on this center.
   18          7
                                   No pseudopotential on this center.
   19         77           17
                                      G and up 
                                                     1      823.5880147       -0.15780140    0.00000000
                                                     2      364.6613336    -1517.52704460    0.00000000
                                                     2       55.7082801     -316.53065290    0.00000000
                                                     2       12.0464544      -91.88809410    0.00000000
                                                     2        3.5120610       -9.22417730    0.00000000
                                      S - G
                                                     0      188.0490770        3.15780140    0.00000000
                                                     1      340.4194712       26.83225770    0.00000000
                                                     2      128.2373673      800.42500070    0.00000000
                                                     2       33.8644961      369.40506830    0.00000000
                                                     2        4.7560005      242.41718990    0.00000000
                                                     2        3.9649974     -118.21732820    0.00000000
                                      P - G
                                                     0      289.7291139        2.15780140    0.00000000
                                                     1       87.4633789       61.96786100    0.00000000
                                                     2       30.4363766      269.05819860    0.00000000
                                                     2        4.0553412      231.16547930    0.00000000
                                                     2        3.5525341     -133.69526670    0.00000000
                                      D - G
                                                     0      136.4017106        3.15780140    0.00000000
                                                     1       95.0776925       45.93498030    0.00000000
                                                     2       49.2258410      359.03446680    0.00000000
                                                     2       15.0874145      176.47401190    0.00000000
                                                     2        4.0405764       54.51552860    0.00000000
                                      F - G
                                                     0      127.3507908        3.95461970    0.00000000
                                                     1       66.2364374       52.97736550    0.00000000
                                                     2       34.4299229      274.86433830    0.00000000
                                                     2       10.1995721      137.20473380    0.00000000
                                                     2        2.5409702       14.86333050    0.00000000
   20          8
                                   No pseudopotential on this center.
   21          8
                                   No pseudopotential on this center.
   22          8
                                   No pseudopotential on this center.
   23          5
                                   No pseudopotential on this center.
   24          5
                                   No pseudopotential on this center.
   25          5
                                   No pseudopotential on this center.
   26          8
                                   No pseudopotential on this center.
   27          8
                                   No pseudopotential on this center.
   28          6
                                   No pseudopotential on this center.
   29          6
                                   No pseudopotential on this center.
   30          6
                                   No pseudopotential on this center.
   31          6
                                   No pseudopotential on this center.
   32          6
                                   No pseudopotential on this center.
   33          6
                                   No pseudopotential on this center.
   34          8
                                   No pseudopotential on this center.
   35          6
                                   No pseudopotential on this center.
   36          1
                                   No pseudopotential on this center.
   37          1
                                   No pseudopotential on this center.
   38          1
                                   No pseudopotential on this center.
   39          6
                                   No pseudopotential on this center.
   40          1
                                   No pseudopotential on this center.
   41          1
                                   No pseudopotential on this center.
   42          1
                                   No pseudopotential on this center.
   43          6
                                   No pseudopotential on this center.
   44          1
                                   No pseudopotential on this center.
   45          1
                                   No pseudopotential on this center.
   46          1
                                   No pseudopotential on this center.
   47          6
                                   No pseudopotential on this center.
   48          1
                                   No pseudopotential on this center.
   49          1
                                   No pseudopotential on this center.
   50          1
                                   No pseudopotential on this center.
   51          6
                                   No pseudopotential on this center.
   52          1
                                   No pseudopotential on this center.
   53          1
                                   No pseudopotential on this center.
   54          1
                                   No pseudopotential on this center.
   55          6
                                   No pseudopotential on this center.
   56          1
                                   No pseudopotential on this center.
   57          1
                                   No pseudopotential on this center.
   58          1
                                   No pseudopotential on this center.
   59          6
                                   No pseudopotential on this center.
   60          1
                                   No pseudopotential on this center.
   61          1
                                   No pseudopotential on this center.
   62          1
                                   No pseudopotential on this center.
   63          6
                                   No pseudopotential on this center.
   64          1
                                   No pseudopotential on this center.
   65          1
                                   No pseudopotential on this center.
   66          1
                                   No pseudopotential on this center.
   67          6
                                   No pseudopotential on this center.
   68          1
                                   No pseudopotential on this center.
   69          1
                                   No pseudopotential on this center.
   70          1
                                   No pseudopotential on this center.
   71          6
                                   No pseudopotential on this center.
   72          1
                                   No pseudopotential on this center.
   73          1
                                   No pseudopotential on this center.
   74          1
                                   No pseudopotential on this center.
   75          6
                                   No pseudopotential on this center.
   76          1
                                   No pseudopotential on this center.
   77          1
                                   No pseudopotential on this center.
   78          1
                                   No pseudopotential on this center.
   79          6
                                   No pseudopotential on this center.
   80          1
                                   No pseudopotential on this center.
   81          1
                                   No pseudopotential on this center.
   82          1
                                   No pseudopotential on this center.
   83          1
                                   No pseudopotential on this center.
   84          6
                                   No pseudopotential on this center.
   85          8
                                   No pseudopotential on this center.
   86          6
                                   No pseudopotential on this center.
   87          1
                                   No pseudopotential on this center.
   88          1
                                   No pseudopotential on this center.
   89          6
                                   No pseudopotential on this center.
   90          1
                                   No pseudopotential on this center.
   91          1
                                   No pseudopotential on this center.
   92          7
                                   No pseudopotential on this center.
   93          6
                                   No pseudopotential on this center.
   94          1
                                   No pseudopotential on this center.
   95          1
                                   No pseudopotential on this center.
   96          1
                                   No pseudopotential on this center.
   97          6
                                   No pseudopotential on this center.
   98          1
                                   No pseudopotential on this center.
   99          1
                                   No pseudopotential on this center.
  100          1
                                   No pseudopotential on this center.
  101          1
                                   No pseudopotential on this center.
  102          1
                                   No pseudopotential on this center.
 ======================================================================================================
 There are   824 symmetry adapted cartesian basis functions of A   symmetry.
 There are   776 symmetry adapted basis functions of A   symmetry.
   776 basis functions,  1551 primitive gaussians,   824 cartesian basis functions
   181 alpha electrons      181 beta electrons
       nuclear repulsion energy      7424.9370442519 Hartrees.
 NAtoms=  102 NActive=  102 NUniq=  102 SFac= 1.00D+00 NAtFMM=   60 NAOKFM=T Big=T
 Integral buffers will be    131072 words long.
 Raffenetti 2 integral format.
 Two-electron integral symmetry is turned on.
 One-electron integrals computed using PRISM.
   1 Symmetry operations used in ECPInt.
 ECPInt:  NShTT=   45753 NPrTT=  276657 LenC2=   36174 LenP2D=  112723.
 LDataN:  DoStor=T MaxTD1= 6 Len=  172
 NBasis=   776 RedAO= T EigKep=  5.66D-04  NBF=   776
 NBsUse=   776 1.00D-06 EigRej= -1.00D+00 NBFU=   776
 Defaulting to unpruned grid for atomic number  77.
 ExpMin= 2.90D-02 ExpMax= 5.48D+03 ExpMxC= 8.25D+02 IAcc=3 IRadAn=         5 AccDes= 0.00D+00
 Harris functional with IExCor= 1009 and IRadAn=       5 diagonalized for initial guess.
 HarFok:  IExCor= 1009 AccDes= 0.00D+00 IRadAn=         5 IDoV= 1 UseB2=F ITyADJ=14
 ICtDFT=  3500011 ScaDFX=  1.000000  1.000000  1.000000  1.000000
 Defaulting to unpruned grid for atomic number  77.
 FoFCou: FMM=F IPFlag=           0 FMFlag=      100000 FMFlg1=        2001
         NFxFlg=           0 DoJE=T BraDBF=F KetDBF=T FulRan=T
         wScrn=  0.000000 ICntrl=       500 IOpCl=  0 I1Cent=   200000004 NGrid=           0
         NMat0=    1 NMatS0=      1 NMatT0=    0 NMatD0=    1 NMtDS0=    0 NMtDT0=    0
 Petite list used in FoFCou.
 Requested convergence on RMS density matrix=1.00D-08 within 128 cycles.
 Requested convergence on MAX density matrix=1.00D-06.
 Requested convergence on             energy=1.00D-06.
 No special actions if energy rises.
 Defaulting to unpruned grid for atomic number  77.
 Defaulting to unpruned grid for atomic number  77.
 Defaulting to unpruned grid for atomic number  77.
 Defaulting to unpruned grid for atomic number  77.
 Defaulting to unpruned grid for atomic number  77.
 Defaulting to unpruned grid for atomic number  77.
 Defaulting to unpruned grid for atomic number  77.
 Defaulting to unpruned grid for atomic number  77.
 Defaulting to unpruned grid for atomic number  77.
 Defaulting to unpruned grid for atomic number  77.
 Defaulting to unpruned grid for atomic number  77.
 Defaulting to unpruned grid for atomic number  77.
 Defaulting to unpruned grid for atomic number  77.
 Defaulting to unpruned grid for atomic number  77.
 Defaulting to unpruned grid for atomic number  77.
 Defaulting to unpruned grid for atomic number  77.
 EnCoef did     4 forward-backward iterations
 EnCoef did     7 forward-backward iterations
 SCF Done:  E(RM06) =  -2159.65206551     A.U. after   18 cycles
            NFock= 18  Conv=0.51D-08     -V/T= 2.0409
 DoSCS=F DFT=T ScalE2(SS,OS)=  1.000000  1.000000
 Range of M.O.s used for correlation:     1   776
 NBasis=   776 NAE=   181 NBE=   181 NFC=     0 NFV=     0
 NROrb=    776 NOA=   181 NOB=   181 NVA=   595 NVB=   595
   1 Symmetry operations used in ECPInt.
 ECPInt:  NShTT=   45753 NPrTT=  276657 LenC2=   36174 LenP2D=  112723.
 LDataN:  DoStor=T MaxTD1= 7 Len=  274
 Number of processors reduced to   8 by ecpmxn.
 Symmetrizing basis deriv contribution to polar:
 IMax=3 JMax=2 DiffMx= 0.00D+00
 G2DrvN: will do   103 centers at a time, making    1 passes.
 Calling FoFCou, ICntrl=  3107 FMM=T I1Cent=   0 AccDes= 0.00D+00.
 Defaulting to unpruned grid for atomic number  77.
 Defaulting to unpruned grid for atomic number  77.
 Defaulting to unpruned grid for atomic number  77.
 Defaulting to unpruned grid for atomic number  77.
 Defaulting to unpruned grid for atomic number  77.
 Defaulting to unpruned grid for atomic number  77.
 Defaulting to unpruned grid for atomic number  77.
 Defaulting to unpruned grid for atomic number  77.
 Defaulting to unpruned grid for atomic number  77.
 Defaulting to unpruned grid for atomic number  77.
 Defaulting to unpruned grid for atomic number  77.
 Defaulting to unpruned grid for atomic number  77.
 Defaulting to unpruned grid for atomic number  77.
 Defaulting to unpruned grid for atomic number  77.
 Defaulting to unpruned grid for atomic number  77.
 Defaulting to unpruned grid for atomic number  77.
 End of G2Drv F.D. properties file   721 does not exist.
 End of G2Drv F.D. properties file   722 does not exist.
 End of G2Drv F.D. properties file   788 does not exist.
          IDoAtm=11111111111111111111111111111111111111111111111111
          IDoAtm=11111111111111111111111111111111111111111111111111
          IDoAtm=11
          Differentiating once with respect to electric field.
                with respect to dipole field.
          Differentiating once with respect to nuclear coordinates.
 Defaulting to unpruned grid for atomic number  77.
 CalDSu exits because no D1Ps are significant.
 Defaulting to unpruned grid for atomic number  77.
 Defaulting to unpruned grid for atomic number  77.
 Defaulting to unpruned grid for atomic number  77.
 Defaulting to unpruned grid for atomic number  77.
 Defaulting to unpruned grid for atomic number  77.
 Defaulting to unpruned grid for atomic number  77.
 Defaulting to unpruned grid for atomic number  77.
 Defaulting to unpruned grid for atomic number  77.
 Defaulting to unpruned grid for atomic number  77.
 Defaulting to unpruned grid for atomic number  77.
 Defaulting to unpruned grid for atomic number  77.
 Defaulting to unpruned grid for atomic number  77.
 Defaulting to unpruned grid for atomic number  77.
 Defaulting to unpruned grid for atomic number  77.
 Defaulting to unpruned grid for atomic number  77.
 Defaulting to unpruned grid for atomic number  77.
          There are   309 degrees of freedom in the 1st order CPHF.  IDoFFX=6 NUNeed=     3.
    306 vectors produced by pass  0 Test12= 1.08D-13 1.00D-09 XBig12= 4.60D+02 7.86D+00.
 AX will form    72 AO Fock derivatives at one time.
    306 vectors produced by pass  1 Test12= 1.08D-13 1.00D-09 XBig12= 6.56D+01 8.33D-01.
    306 vectors produced by pass  2 Test12= 1.08D-13 1.00D-09 XBig12= 7.49D-01 8.05D-02.
    306 vectors produced by pass  3 Test12= 1.08D-13 1.00D-09 XBig12= 4.64D-03 5.03D-03.
    306 vectors produced by pass  4 Test12= 1.08D-13 1.00D-09 XBig12= 1.37D-05 2.42D-04.
    276 vectors produced by pass  5 Test12= 1.08D-13 1.00D-09 XBig12= 2.44D-08 9.48D-06.
     72 vectors produced by pass  6 Test12= 1.08D-13 1.00D-09 XBig12= 3.24D-11 4.15D-07.
      3 vectors produced by pass  7 Test12= 1.08D-13 1.00D-09 XBig12= 4.12D-14 1.44D-08.
 InvSVY:  IOpt=1 It=  1 EMax= 1.78D-14
 Solved reduced A of dimension  1881 with   309 vectors.
 Isotropic polarizability for W=    0.000000      468.39 Bohr**3.
 End of Minotr F.D. properties file   721 does not exist.
 End of Minotr F.D. properties file   722 does not exist.
 End of Minotr F.D. properties file   788 does not exist.
 Hyperfine terms turned off by default for NAtoms > 100.

 **********************************************************************

            Population analysis using the SCF Density.

 **********************************************************************

 Orbital symmetries:
       Occupied  (A) (A) (A) (A) (A) (A) (A) (A) (A) (A) (A) (A)
                 (A) (A) (A) (A) (A) (A) (A) (A) (A) (A) (A) (A)
                 (A) (A) (A) (A) (A) (A) (A) (A) (A) (A) (A) (A)
                 (A) (A) (A) (A) (A) (A) (A) (A) (A) (A) (A) (A)
                 (A) (A) (A) (A) (A) (A) (A) (A) (A) (A) (A) (A)
                 (A) (A) (A) (A) (A) (A) (A) (A) (A) (A) (A) (A)
                 (A) (A) (A) (A) (A) (A) (A) (A) (A) (A) (A) (A)
                 (A) (A) (A) (A) (A) (A) (A) (A) (A) (A) (A) (A)
                 (A) (A) (A) (A) (A) (A) (A) (A) (A) (A) (A) (A)
                 (A) (A) (A) (A) (A) (A) (A) (A) (A) (A) (A) (A)
                 (A) (A) (A) (A) (A) (A) (A) (A) (A) (A) (A) (A)
                 (A) (A) (A) (A) (A) (A) (A) (A) (A) (A) (A) (A)
                 (A) (A) (A) (A) (A) (A) (A) (A) (A) (A) (A) (A)
                 (A) (A) (A) (A) (A) (A) (A) (A) (A) (A) (A) (A)
                 (A) (A) (A) (A) (A) (A) (A) (A) (A) (A) (A) (A)
                 (A)
       Virtual   (A) (A) (A) (A) (A) (A) (A) (A) (A) (A) (A) (A)
                 (A) (A) (A) (A) (A) (A) (A) (A) (A) (A) (A) (A)
                 (A) (A) (A) (A) (A) (A) (A) (A) (A) (A) (A) (A)
                 (A) (A) (A) (A) (A) (A) (A) (A) (A) (A) (A) (A)
                 (A) (A) (A) (A) (A) (A) (A) (A) (A) (A) (A) (A)
                 (A) (A) (A) (A) (A) (A) (A) (A) (A) (A) (A) (A)
                 (A) (A) (A) (A) (A) (A) (A) (A) (A) (A) (A) (A)
                 (A) (A) (A) (A) (A) (A) (A) (A) (A) (A) (A) (A)
                 (A) (A) (A) (A) (A) (A) (A) (A) (A) (A) (A) (A)
                 (A) (A) (A) (A) (A) (A) (A) (A) (A) (A) (A) (A)
                 (A) (A) (A) (A) (A) (A) (A) (A) (A) (A) (A) (A)
                 (A) (A) (A) (A) (A) (A) (A) (A) (A) (A) (A) (A)
                 (A) (A) (A) (A) (A) (A) (A) (A) (A) (A) (A) (A)
                 (A) (A) (A) (A) (A) (A) (A) (A) (A) (A) (A) (A)
                 (A) (A) (A) (A) (A) (A) (A) (A) (A) (A) (A) (A)
                 (A) (A) (A) (A) (A) (A) (A) (A) (A) (A) (A) (A)
                 (A) (A) (A) (A) (A) (A) (A) (A) (A) (A) (A) (A)
                 (A) (A) (A) (A) (A) (A) (A) (A) (A) (A) (A) (A)
                 (A) (A) (A) (A) (A) (A) (A) (A) (A) (A) (A) (A)
                 (A) (A) (A) (A) (A) (A) (A) (A) (A) (A) (A) (A)
                 (A) (A) (A) (A) (A) (A) (A) (A) (A) (A) (A) (A)
                 (A) (A) (A) (A) (A) (A) (A) (A) (A) (A) (A) (A)
                 (A) (A) (A) (A) (A) (A) (A) (A) (A) (A) (A) (A)
                 (A) (A) (A) (A) (A) (A) (A) (A) (A) (A) (A) (A)
                 (A) (A) (A) (A) (A) (A) (A) (A) (A) (A) (A) (A)
                 (A) (A) (A) (A) (A) (A) (A) (A) (A) (A) (A) (A)
                 (A) (A) (A) (A) (A) (A) (A) (A) (A) (A) (A) (A)
                 (A) (A) (A) (A) (A) (A) (A) (A) (A) (A) (A) (A)
                 (A) (A) (A) (A) (A) (A) (A) (A) (A) (A) (A) (A)
                 (A) (A) (A) (A) (A) (A) (A) (A) (A) (A) (A) (A)
                 (A) (A) (A) (A) (A) (A) (A) (A) (A) (A) (A) (A)
                 (A) (A) (A) (A) (A) (A) (A) (A) (A) (A) (A) (A)
                 (A) (A) (A) (A) (A) (A) (A) (A) (A) (A) (A) (A)
                 (A) (A) (A) (A) (A) (A) (A) (A) (A) (A) (A) (A)
                 (A) (A) (A) (A) (A) (A) (A) (A) (A) (A) (A) (A)
                 (A) (A) (A) (A) (A) (A) (A) (A) (A) (A) (A) (A)
                 (A) (A) (A) (A) (A) (A) (A) (A) (A) (A) (A) (A)
                 (A) (A) (A) (A) (A) (A) (A) (A) (A) (A) (A) (A)
                 (A) (A) (A) (A) (A) (A) (A) (A) (A) (A) (A) (A)
                 (A) (A) (A) (A) (A) (A) (A) (A) (A) (A) (A) (A)
                 (A) (A) (A) (A) (A) (A) (A) (A) (A) (A) (A) (A)
                 (A) (A) (A) (A) (A) (A) (A) (A) (A) (A) (A) (A)
                 (A) (A) (A) (A) (A) (A) (A) (A) (A) (A) (A) (A)
                 (A) (A) (A) (A) (A) (A) (A) (A) (A) (A) (A) (A)
                 (A) (A) (A) (A) (A) (A) (A) (A) (A) (A) (A) (A)
                 (A) (A) (A) (A) (A) (A) (A) (A) (A) (A) (A) (A)
                 (A) (A) (A) (A) (A) (A) (A) (A) (A) (A) (A) (A)
                 (A) (A) (A) (A) (A) (A) (A) (A) (A) (A) (A) (A)
                 (A) (A) (A) (A) (A) (A) (A) (A) (A) (A) (A) (A)
                 (A) (A) (A) (A) (A) (A) (A)
 The electronic state is 1-A.
 Alpha  occ. eigenvalues --  -19.22195 -19.21754 -19.20472 -19.19955 -19.19671
 Alpha  occ. eigenvalues --  -19.19640 -19.15252 -14.45158 -14.43585 -14.39256
 Alpha  occ. eigenvalues --  -10.30964 -10.30922 -10.30823 -10.30738 -10.30569
 Alpha  occ. eigenvalues --  -10.29529 -10.29217 -10.29197 -10.29085 -10.28884
 Alpha  occ. eigenvalues --  -10.28858 -10.28010 -10.27511 -10.27261 -10.26893
 Alpha  occ. eigenvalues --  -10.26838 -10.26589 -10.25233 -10.24153 -10.23494
 Alpha  occ. eigenvalues --  -10.23310 -10.23281 -10.23195 -10.22995 -10.22887
 Alpha  occ. eigenvalues --  -10.22632 -10.22561 -10.22543 -10.22056 -10.22049
 Alpha  occ. eigenvalues --  -10.21654 -10.21580 -10.20273  -6.83221  -6.80383
 Alpha  occ. eigenvalues --   -6.78745  -3.64515  -2.07757  -2.06463  -2.04621
 Alpha  occ. eigenvalues --   -1.08101  -1.06210  -1.05586  -1.01136  -1.01062
 Alpha  occ. eigenvalues --   -0.99297  -0.99107  -0.98588  -0.96575  -0.90750
 Alpha  occ. eigenvalues --   -0.83435  -0.82614  -0.81844  -0.81676  -0.80432
 Alpha  occ. eigenvalues --   -0.80007  -0.76501  -0.76277  -0.76059  -0.74848
 Alpha  occ. eigenvalues --   -0.74524  -0.71423  -0.70414  -0.70087  -0.68735
 Alpha  occ. eigenvalues --   -0.68669  -0.68018  -0.67564  -0.67370  -0.67132
 Alpha  occ. eigenvalues --   -0.66277  -0.63684  -0.62989  -0.62624  -0.61670
 Alpha  occ. eigenvalues --   -0.61076  -0.59886  -0.57008  -0.56173  -0.55674
 Alpha  occ. eigenvalues --   -0.54643  -0.54168  -0.53571  -0.52705  -0.52569
 Alpha  occ. eigenvalues --   -0.52357  -0.50409  -0.50160  -0.49528  -0.48883
 Alpha  occ. eigenvalues --   -0.48152  -0.47772  -0.47487  -0.46807  -0.46687
 Alpha  occ. eigenvalues --   -0.46530  -0.46227  -0.46142  -0.45932  -0.45472
 Alpha  occ. eigenvalues --   -0.45301  -0.44742  -0.44565  -0.44505  -0.44042
 Alpha  occ. eigenvalues --   -0.43726  -0.43545  -0.43281  -0.43107  -0.42854
 Alpha  occ. eigenvalues --   -0.42382  -0.41440  -0.41089  -0.40627  -0.40569
 Alpha  occ. eigenvalues --   -0.40303  -0.40002  -0.39837  -0.39773  -0.39641
 Alpha  occ. eigenvalues --   -0.39476  -0.39174  -0.39104  -0.38963  -0.38723
 Alpha  occ. eigenvalues --   -0.38659  -0.38429  -0.38107  -0.37701  -0.37538
 Alpha  occ. eigenvalues --   -0.37345  -0.37176  -0.37111  -0.36489  -0.36302
 Alpha  occ. eigenvalues --   -0.36194  -0.36172  -0.36028  -0.35865  -0.35718
 Alpha  occ. eigenvalues --   -0.35151  -0.34765  -0.34589  -0.34518  -0.34434
 Alpha  occ. eigenvalues --   -0.33579  -0.33430  -0.33235  -0.32823  -0.32360
 Alpha  occ. eigenvalues --   -0.32229  -0.31956  -0.31650  -0.31407  -0.31148
 Alpha  occ. eigenvalues --   -0.30941  -0.30793  -0.30462  -0.30118  -0.29788
 Alpha  occ. eigenvalues --   -0.28188  -0.27672  -0.26602  -0.26178  -0.25758
 Alpha  occ. eigenvalues --   -0.25578  -0.23990  -0.22747  -0.22373  -0.20733
 Alpha  occ. eigenvalues --   -0.16067
 Alpha virt. eigenvalues --   -0.05820  -0.02713  -0.02047   0.01837   0.02470
 Alpha virt. eigenvalues --    0.02799   0.05638   0.06110   0.06630   0.06814
 Alpha virt. eigenvalues --    0.07523   0.08759   0.09214   0.09760   0.10243
 Alpha virt. eigenvalues --    0.11096   0.11163   0.11564   0.11748   0.12189
 Alpha virt. eigenvalues --    0.12446   0.13007   0.13141   0.13644   0.14061
 Alpha virt. eigenvalues --    0.14207   0.14300   0.14374   0.14602   0.14792
 Alpha virt. eigenvalues --    0.15005   0.15492   0.15626   0.15770   0.16018
 Alpha virt. eigenvalues --    0.16122   0.16413   0.16633   0.16745   0.16940
 Alpha virt. eigenvalues --    0.17291   0.17513   0.17596   0.17670   0.17897
 Alpha virt. eigenvalues --    0.18118   0.18217   0.18429   0.18633   0.18682
 Alpha virt. eigenvalues --    0.18995   0.19251   0.19510   0.19541   0.19787
 Alpha virt. eigenvalues --    0.19902   0.20131   0.20509   0.20566   0.20643
 Alpha virt. eigenvalues --    0.20923   0.21296   0.21693   0.22115   0.22294
 Alpha virt. eigenvalues --    0.22623   0.23041   0.23072   0.23341   0.23810
 Alpha virt. eigenvalues --    0.23980   0.24223   0.24365   0.24722   0.24861
 Alpha virt. eigenvalues --    0.25264   0.25379   0.25483   0.25728   0.26026
 Alpha virt. eigenvalues --    0.26365   0.26771   0.26869   0.26931   0.27049
 Alpha virt. eigenvalues --    0.27560   0.28145   0.28371   0.28593   0.28813
 Alpha virt. eigenvalues --    0.29288   0.29571   0.29636   0.29983   0.30610
 Alpha virt. eigenvalues --    0.31088   0.31348   0.31846   0.32457   0.32874
 Alpha virt. eigenvalues --    0.33530   0.34049   0.35147   0.35670   0.36050
 Alpha virt. eigenvalues --    0.36566   0.37434   0.37974   0.38681   0.39357
 Alpha virt. eigenvalues --    0.39451   0.41479   0.42097   0.43994   0.44879
 Alpha virt. eigenvalues --    0.45911   0.47655   0.48053   0.48489   0.49039
 Alpha virt. eigenvalues --    0.49256   0.49640   0.50462   0.50680   0.50799
 Alpha virt. eigenvalues --    0.51283   0.51375   0.51921   0.52681   0.53232
 Alpha virt. eigenvalues --    0.53605   0.53897   0.54284   0.54661   0.55241
 Alpha virt. eigenvalues --    0.55614   0.55864   0.56059   0.56699   0.56990
 Alpha virt. eigenvalues --    0.57369   0.57522   0.57683   0.58229   0.58246
 Alpha virt. eigenvalues --    0.58581   0.58927   0.59246   0.59457   0.59608
 Alpha virt. eigenvalues --    0.59693   0.59857   0.60074   0.60339   0.60729
 Alpha virt. eigenvalues --    0.60903   0.61081   0.61581   0.61900   0.62289
 Alpha virt. eigenvalues --    0.62653   0.62831   0.63208   0.63529   0.64187
 Alpha virt. eigenvalues --    0.64310   0.65062   0.65257   0.65409   0.65530
 Alpha virt. eigenvalues --    0.66144   0.66372   0.66690   0.67122   0.67490
 Alpha virt. eigenvalues --    0.67614   0.68147   0.68587   0.68637   0.69106
 Alpha virt. eigenvalues --    0.69864   0.70004   0.70431   0.71000   0.71193
 Alpha virt. eigenvalues --    0.71311   0.71947   0.72315   0.72522   0.73141
 Alpha virt. eigenvalues --    0.73400   0.73694   0.74140   0.74533   0.75025
 Alpha virt. eigenvalues --    0.75239   0.75849   0.76458   0.76998   0.77100
 Alpha virt. eigenvalues --    0.77740   0.77873   0.78599   0.78897   0.79084
 Alpha virt. eigenvalues --    0.79534   0.80341   0.80661   0.80919   0.81331
 Alpha virt. eigenvalues --    0.82154   0.82230   0.82572   0.82879   0.83339
 Alpha virt. eigenvalues --    0.83373   0.83613   0.84053   0.84157   0.84435
 Alpha virt. eigenvalues --    0.84765   0.84911   0.85078   0.85217   0.85573
 Alpha virt. eigenvalues --    0.85963   0.86304   0.86477   0.86757   0.87070
 Alpha virt. eigenvalues --    0.87399   0.87583   0.87749   0.88056   0.88359
 Alpha virt. eigenvalues --    0.88919   0.89045   0.89346   0.89521   0.89728
 Alpha virt. eigenvalues --    0.89946   0.90142   0.90245   0.90618   0.90855
 Alpha virt. eigenvalues --    0.91145   0.91285   0.91469   0.92016   0.92261
 Alpha virt. eigenvalues --    0.92367   0.92522   0.92753   0.93485   0.93993
 Alpha virt. eigenvalues --    0.94200   0.94323   0.94599   0.95198   0.95539
 Alpha virt. eigenvalues --    0.95644   0.95996   0.96034   0.96521   0.96979
 Alpha virt. eigenvalues --    0.97274   0.97697   0.97963   0.98468   0.98848
 Alpha virt. eigenvalues --    0.99348   0.99830   0.99966   1.00366   1.00810
 Alpha virt. eigenvalues --    1.01014   1.01473   1.01985   1.03001   1.03255
 Alpha virt. eigenvalues --    1.03850   1.04271   1.04684   1.06234   1.06525
 Alpha virt. eigenvalues --    1.06634   1.08022   1.08568   1.09379   1.10005
 Alpha virt. eigenvalues --    1.10223   1.10782   1.11212   1.11660   1.12972
 Alpha virt. eigenvalues --    1.13216   1.13638   1.14304   1.14975   1.15617
 Alpha virt. eigenvalues --    1.16139   1.16628   1.16734   1.17311   1.18057
 Alpha virt. eigenvalues --    1.18391   1.18583   1.19431   1.19742   1.20601
 Alpha virt. eigenvalues --    1.20795   1.21855   1.22931   1.23318   1.23863
 Alpha virt. eigenvalues --    1.24560   1.25854   1.25968   1.26695   1.27750
 Alpha virt. eigenvalues --    1.27882   1.28466   1.29018   1.29702   1.29776
 Alpha virt. eigenvalues --    1.31876   1.32235   1.32472   1.33966   1.35115
 Alpha virt. eigenvalues --    1.35612   1.36063   1.36658   1.37181   1.37797
 Alpha virt. eigenvalues --    1.38403   1.39640   1.40362   1.40910   1.41601
 Alpha virt. eigenvalues --    1.42161   1.42867   1.43054   1.43683   1.43976
 Alpha virt. eigenvalues --    1.44615   1.45307   1.45827   1.46111   1.46583
 Alpha virt. eigenvalues --    1.46727   1.47849   1.47984   1.48464   1.48992
 Alpha virt. eigenvalues --    1.49147   1.49763   1.50767   1.51318   1.52525
 Alpha virt. eigenvalues --    1.53729   1.54817   1.55777   1.56022   1.56825
 Alpha virt. eigenvalues --    1.58068   1.58267   1.59475   1.59646   1.61436
 Alpha virt. eigenvalues --    1.62277   1.62924   1.63395   1.64099   1.65291
 Alpha virt. eigenvalues --    1.66076   1.66555   1.67094   1.67593   1.68001
 Alpha virt. eigenvalues --    1.68368   1.69091   1.69957   1.71069   1.72905
 Alpha virt. eigenvalues --    1.73685   1.74027   1.74171   1.75582   1.76544
 Alpha virt. eigenvalues --    1.77016   1.77828   1.78171   1.78324   1.78839
 Alpha virt. eigenvalues --    1.79229   1.80320   1.80729   1.81292   1.81500
 Alpha virt. eigenvalues --    1.81833   1.82433   1.83297   1.83977   1.84423
 Alpha virt. eigenvalues --    1.84819   1.85050   1.85745   1.86080   1.86864
 Alpha virt. eigenvalues --    1.87424   1.87513   1.88099   1.89747   1.89901
 Alpha virt. eigenvalues --    1.90377   1.90677   1.90904   1.90919   1.91255
 Alpha virt. eigenvalues --    1.91486   1.91837   1.91957   1.92123   1.92357
 Alpha virt. eigenvalues --    1.92631   1.92787   1.93350   1.93889   1.94048
 Alpha virt. eigenvalues --    1.94671   1.95275   1.95814   1.96522   1.96761
 Alpha virt. eigenvalues --    1.97741   1.98343   1.98731   1.98931   1.99865
 Alpha virt. eigenvalues --    2.00351   2.01086   2.01427   2.01685   2.02565
 Alpha virt. eigenvalues --    2.02638   2.03283   2.04846   2.05382   2.05598
 Alpha virt. eigenvalues --    2.05850   2.06192   2.06566   2.07047   2.07121
 Alpha virt. eigenvalues --    2.07843   2.08072   2.08989   2.09341   2.09712
 Alpha virt. eigenvalues --    2.10276   2.11007   2.11288   2.12277   2.12770
 Alpha virt. eigenvalues --    2.13321   2.13549   2.14353   2.14779   2.15041
 Alpha virt. eigenvalues --    2.15312   2.15796   2.16185   2.16701   2.17368
 Alpha virt. eigenvalues --    2.17525   2.17906   2.18045   2.18692   2.18734
 Alpha virt. eigenvalues --    2.19077   2.19384   2.19748   2.20029   2.20642
 Alpha virt. eigenvalues --    2.20751   2.21565   2.22045   2.22204   2.22494
 Alpha virt. eigenvalues --    2.22858   2.23425   2.23943   2.24219   2.24919
 Alpha virt. eigenvalues --    2.25297   2.25746   2.25938   2.26381   2.26674
 Alpha virt. eigenvalues --    2.27224   2.27826   2.28603   2.28744   2.29524
 Alpha virt. eigenvalues --    2.30584   2.31194   2.31613   2.31951   2.32602
 Alpha virt. eigenvalues --    2.32613   2.32895   2.33031   2.33794   2.34129
 Alpha virt. eigenvalues --    2.35067   2.36265   2.36381   2.38129   2.38823
 Alpha virt. eigenvalues --    2.39703   2.39914   2.40664   2.42971   2.43985
 Alpha virt. eigenvalues --    2.44961   2.46997   2.47232   2.47675   2.47931
 Alpha virt. eigenvalues --    2.48422   2.49049   2.49592   2.49695   2.50649
 Alpha virt. eigenvalues --    2.52558   2.53621   2.55038   2.55583   2.57996
 Alpha virt. eigenvalues --    2.59031   2.59445   2.60618   2.61501   2.62265
 Alpha virt. eigenvalues --    2.63154   2.63244   2.64224   2.64841   2.65325
 Alpha virt. eigenvalues --    2.66785   2.68671   2.69804   2.70803   2.71441
 Alpha virt. eigenvalues --    2.72493   2.73431   2.76675   2.77815   2.78252
 Alpha virt. eigenvalues --    2.78549   2.78742   2.79023   2.79820   2.80322
 Alpha virt. eigenvalues --    2.80426   2.80893   2.81525   2.82745   2.83795
 Alpha virt. eigenvalues --    2.84254   2.85801   2.86521   2.88398   2.89829
 Alpha virt. eigenvalues --    2.90356   2.93365   2.94235   2.95690   2.96539
 Alpha virt. eigenvalues --    2.98273   3.00640   3.01366   3.03622   3.03673
 Alpha virt. eigenvalues --    3.06838   3.08533   3.10561   3.12175   3.12762
 Alpha virt. eigenvalues --    3.23733   3.26298   3.31693   3.45493  13.28707
          Condensed to atoms (all electrons):
 Mulliken charges:
               1
     1  C    0.355997
     2  C    0.091889
     3  C   -0.167219
     4  C   -0.134259
     5  C   -0.157464
     6  C    0.298326
     7  C    0.039460
     8  C   -0.170941
     9  C   -0.139968
    10  C   -0.172676
    11  H    0.186027
    12  H    0.178171
    13  H    0.169354
    14  H    0.187568
    15  H    0.178147
    16  H    0.169300
    17  N   -0.561849
    18  N   -0.441891
    19  Ir  -0.141208
    20  O   -0.535404
    21  O   -0.516323
    22  O   -0.483807
    23  B    0.513133
    24  B    0.383274
    25  B    0.527255
    26  O   -0.495169
    27  O   -0.515708
    28  C    0.292484
    29  C    0.298698
    30  C    0.291331
    31  C    0.290618
    32  C    0.287820
    33  C    0.302235
    34  O   -0.512650
    35  C   -0.510226
    36  H    0.157801
    37  H    0.158757
    38  H    0.164463
    39  C   -0.508983
    40  H    0.167402
    41  H    0.151075
    42  H    0.172943
    43  C   -0.512447
    44  H    0.173056
    45  H    0.147588
    46  H    0.169329
    47  C   -0.494137
    48  H    0.141048
    49  H    0.172962
    50  H    0.170453
    51  C   -0.510067
    52  H    0.169849
    53  H    0.148594
    54  H    0.165845
    55  C   -0.490188
    56  H    0.164181
    57  H    0.165603
    58  H    0.143456
    59  C   -0.504360
    60  H    0.172067
    61  H    0.169477
    62  H    0.145938
    63  C   -0.508498
    64  H    0.164536
    65  H    0.166462
    66  H    0.148268
    67  C   -0.510968
    68  H    0.153856
    69  H    0.175360
    70  H    0.189466
    71  C   -0.514706
    72  H    0.160753
    73  H    0.163102
    74  H    0.173932
    75  C   -0.507076
    76  H    0.187889
    77  H    0.166657
    78  H    0.153524
    79  C   -0.516567
    80  H    0.178490
    81  H    0.152105
    82  H    0.178138
    83  H    0.176353
    84  C    0.574570
    85  O   -0.536612
    86  C   -0.398750
    87  H    0.168884
    88  H    0.148056
    89  C   -0.335054
    90  H    0.161669
    91  H    0.181545
    92  N   -0.359851
    93  C   -0.372525
    94  H    0.151073
    95  H    0.172821
    96  H    0.202653
    97  C   -0.472170
    98  H    0.155980
    99  H    0.179218
   100  H    0.173094
   101  H    0.172799
   102  H    0.145493
 Sum of Mulliken charges =  -0.00000
 Mulliken charges with hydrogens summed into heavy atoms:
               1
     1  C    0.355997
     2  C    0.277916
     3  C    0.005580
     4  C    0.043912
     5  C    0.011890
     6  C    0.298326
     7  C    0.227028
     8  C    0.002153
     9  C    0.038179
    10  C   -0.003376
    17  N   -0.561849
    18  N   -0.441891
    19  Ir  -0.141208
    20  O   -0.535404
    21  O   -0.516323
    22  O   -0.483807
    23  B    0.513133
    24  B    0.383274
    25  B    0.703607
    26  O   -0.495169
    27  O   -0.515708
    28  C    0.292484
    29  C    0.298698
    30  C    0.291331
    31  C    0.290618
    32  C    0.287820
    33  C    0.302235
    34  O   -0.512650
    35  C   -0.029206
    39  C   -0.017563
    43  C   -0.022475
    47  C   -0.009674
    51  C   -0.025780
    55  C   -0.016948
    59  C   -0.016877
    63  C   -0.029232
    67  C    0.007714
    71  C   -0.016919
    75  C    0.000994
    79  C   -0.007834
    84  C    0.574570
    85  O   -0.536612
    86  C   -0.081810
    89  C    0.008159
    92  N   -0.359851
    93  C    0.154023
    97  C    0.008522
 APT charges:
               1
     1  C    0.113660
     2  C    0.043326
     3  C   -0.054167
     4  C    0.091674
     5  C   -0.133019
     6  C    0.223929
     7  C    0.038495
     8  C   -0.064690
     9  C    0.126440
    10  C   -0.184862
    11  H    0.096832
    12  H    0.030911
    13  H    0.043578
    14  H    0.101078
    15  H    0.024977
    16  H    0.040788
    17  N    0.022652
    18  N   -0.201990
    19  Ir  -0.876509
    20  O   -1.003496
    21  O   -0.946452
    22  O   -0.992914
    23  B    1.151496
    24  B    1.296316
    25  B    1.407075
    26  O   -0.993087
    27  O   -1.006896
    28  C    0.511897
    29  C    0.529865
    30  C    0.510901
    31  C    0.521885
    32  C    0.446179
    33  C    0.461152
    34  O   -0.893558
    35  C   -0.039428
    36  H   -0.020309
    37  H   -0.002512
    38  H    0.006028
    39  C   -0.009062
    40  H   -0.001007
    41  H   -0.018593
    42  H    0.000168
    43  C   -0.006701
    44  H    0.000333
    45  H   -0.018402
    46  H   -0.000947
    47  C   -0.038877
    48  H   -0.030524
    49  H    0.005508
    50  H    0.017234
    51  C    0.002781
    52  H   -0.000517
    53  H   -0.022074
    54  H    0.000948
    55  C   -0.007405
    56  H   -0.004128
    57  H   -0.004333
    58  H   -0.031014
    59  C   -0.024731
    60  H   -0.000383
    61  H    0.005804
    62  H   -0.025796
    63  C   -0.010935
    64  H   -0.001424
    65  H   -0.003152
    66  H   -0.015160
    67  C   -0.041761
    68  H   -0.021823
    69  H    0.005685
    70  H    0.017961
    71  C   -0.012362
    72  H   -0.011237
    73  H    0.000025
    74  H    0.000169
    75  C   -0.020363
    76  H    0.012993
    77  H   -0.015271
    78  H   -0.016713
    79  C   -0.010885
    80  H    0.005233
    81  H   -0.012742
    82  H    0.007970
    83  H    0.059978
    84  C    0.823889
    85  O   -0.681808
    86  C    0.028884
    87  H   -0.038653
    88  H   -0.032859
    89  C    0.256601
    90  H   -0.048611
    91  H   -0.032558
    92  N   -0.754410
    93  C    0.300559
    94  H   -0.011227
    95  H   -0.063602
    96  H    0.018082
    97  C    0.067627
    98  H    0.002407
    99  H    0.006616
   100  H    0.031034
   101  H    0.038260
   102  H   -0.041945
 Sum of APT charges =   0.00000
 APT charges with hydrogens summed into heavy atoms:
               1
     1  C    0.113660
     2  C    0.140158
     3  C   -0.015907
     4  C    0.122585
     5  C   -0.089441
     6  C    0.223929
     7  C    0.139573
     8  C   -0.033656
     9  C    0.151417
    10  C   -0.144074
    17  N    0.022652
    18  N   -0.201990
    19  Ir  -0.876509
    20  O   -1.003496
    21  O   -0.946452
    22  O   -0.992914
    23  B    1.151496
    24  B    1.296316
    25  B    1.467054
    26  O   -0.993087
    27  O   -1.006896
    28  C    0.511897
    29  C    0.529865
    30  C    0.510901
    31  C    0.521885
    32  C    0.446179
    33  C    0.461152
    34  O   -0.893558
    35  C   -0.056221
    39  C   -0.028494
    43  C   -0.025717
    47  C   -0.046659
    51  C   -0.018862
    55  C   -0.046880
    59  C   -0.045106
    63  C   -0.030671
    67  C   -0.039938
    71  C   -0.023405
    75  C   -0.039353
    79  C   -0.010423
    84  C    0.823889
    85  O   -0.681808
    86  C   -0.042628
    89  C    0.175431
    92  N   -0.754410
    93  C    0.243812
    97  C    0.034705
 Electronic spatial extent (au):  <R**2>=          24005.2678
 Charge=             -0.0000 electrons
 Dipole moment (field-independent basis, Debye):
    X=             -1.3793    Y=             -0.2378    Z=              2.8076  Tot=              3.1372
 Quadrupole moment (field-independent basis, Debye-Ang):
   XX=           -278.3171   YY=           -282.5057   ZZ=           -277.0104
   XY=             22.0970   XZ=              6.5423   YZ=             -9.2316
 Traceless Quadrupole moment (field-independent basis, Debye-Ang):
   XX=              0.9606   YY=             -3.2280   ZZ=              2.2673
   XY=             22.0970   XZ=              6.5423   YZ=             -9.2316
 Octapole moment (field-independent basis, Debye-Ang**2):
  XXX=             15.6189  YYY=             -4.5807  ZZZ=             16.4790  XYY=            -57.2482
  XXY=             22.1617  XXZ=              1.5760  XZZ=             23.0604  YZZ=            -69.8764
  YYZ=              0.6340  XYZ=            -26.8722
 Hexadecapole moment (field-independent basis, Debye-Ang**3):
 XXXX=         -12876.6423 YYYY=         -10509.5825 ZZZZ=          -8070.7257 XXXY=            260.9591
 XXXZ=            154.1362 YYYX=            232.8207 YYYZ=           -169.6290 ZZZX=            122.1718
 ZZZY=           -139.0268 XXYY=          -4014.4556 XXZZ=          -3297.3208 YYZZ=          -2924.5064
 XXYZ=             81.4112 YYXZ=             -7.0804 ZZXY=            -31.0468
 N-N= 7.424937044252D+03 E-N=-1.985470403618D+04  KE= 2.074852107907D+03
  Exact polarizability:     510.600      24.500     448.902      16.491     -37.714     445.683
 Approx polarizability:     718.858      58.330     653.257      41.592     -76.365     674.924
   1 Symmetry operations used in ECPInt.
 ECPInt:  NShTT=   45753 NPrTT=  276657 LenC2=   36174 LenP2D=  112723.
 LDataN:  DoStor=T MaxTD1= 8 Len=  415
 Calling FoFJK, ICntrl=    100127 FMM=F ISym2X=0 I1Cent= 0 IOpClX= 0 NMat=1 NMatS=1 NMatT=0.
 Defaulting to unpruned grid for atomic number  77.
 Defaulting to unpruned grid for atomic number  77.
 Defaulting to unpruned grid for atomic number  77.
 Defaulting to unpruned grid for atomic number  77.
 Defaulting to unpruned grid for atomic number  77.
 Defaulting to unpruned grid for atomic number  77.
 Defaulting to unpruned grid for atomic number  77.
 Defaulting to unpruned grid for atomic number  77.
 Defaulting to unpruned grid for atomic number  77.
 Defaulting to unpruned grid for atomic number  77.
 Defaulting to unpruned grid for atomic number  77.
 Defaulting to unpruned grid for atomic number  77.
 Defaulting to unpruned grid for atomic number  77.
 Defaulting to unpruned grid for atomic number  77.
 Defaulting to unpruned grid for atomic number  77.
 Defaulting to unpruned grid for atomic number  77.
 Full mass-weighted force constant matrix:
 Low frequencies ---  -65.1478   -5.0024   -0.0006   -0.0004    0.0002    2.1947
 Low frequencies ---    5.5010   19.1868   20.5904
 ******    1 imaginary frequencies (negative Signs) ****** 
 Diagonal vibrational polarizability:
      136.4495067     102.5805272      68.8589129
 Harmonic frequencies (cm**-1), IR intensities (KM/Mole), Raman scattering
 activities (A**4/AMU), depolarization ratios for plane and unpolarized
 incident light, reduced masses (AMU), force constants (mDyne/A),
 and normal coordinates:
                      1                      2                      3
                      A                      A                      A
 Frequencies --    -65.0973                18.9032                20.2930
 Red. masses --      4.5879                 4.1464                 3.7185
 Frc consts  --      0.0115                 0.0009                 0.0009
 IR Inten    --      2.5295                 0.2030                 0.2619
  Atom AN      X      Y      Z        X      Y      Z        X      Y      Z
     1   6    -0.04  -0.03  -0.03     0.00  -0.05  -0.01     0.01  -0.02   0.01
     2   6    -0.02  -0.04  -0.04    -0.01  -0.01   0.03     0.01  -0.01   0.03
     3   6    -0.03  -0.04  -0.02    -0.01  -0.03   0.02     0.01  -0.02   0.03
     4   6    -0.04  -0.03  -0.01     0.00  -0.06  -0.00     0.01  -0.04   0.01
     5   6    -0.05  -0.03  -0.02     0.01  -0.07  -0.02     0.01  -0.04  -0.00
     6   6    -0.04  -0.03  -0.02     0.01  -0.06  -0.02     0.01  -0.02   0.00
     7   6    -0.04  -0.04  -0.01    -0.03  -0.00   0.01    -0.01   0.02   0.01
     8   6    -0.04  -0.03  -0.00    -0.01  -0.04  -0.02    -0.01  -0.01  -0.00
     9   6    -0.04  -0.01  -0.00     0.02  -0.09  -0.05     0.01  -0.04  -0.02
    10   6    -0.04  -0.01  -0.01     0.02  -0.10  -0.05     0.01  -0.05  -0.02
    11   1    -0.00  -0.05  -0.04    -0.02   0.01   0.05     0.00   0.01   0.04
    12   1    -0.05  -0.03  -0.00     0.01  -0.07  -0.01     0.02  -0.05   0.00
    13   1    -0.06  -0.02  -0.01     0.02  -0.09  -0.04     0.02  -0.05  -0.01
    14   1    -0.04  -0.06  -0.02    -0.05   0.04   0.03    -0.02   0.04   0.03
    15   1    -0.04  -0.00   0.01     0.03  -0.12  -0.07     0.02  -0.06  -0.04
    16   1    -0.04  -0.00  -0.01     0.05  -0.14  -0.07     0.03  -0.07  -0.03
    17   7    -0.03  -0.04  -0.04    -0.01  -0.03   0.01     0.00  -0.01   0.02
    18   7    -0.04  -0.04  -0.02    -0.02  -0.01   0.00    -0.01   0.01   0.01
    19  77    -0.01   0.04   0.05    -0.01  -0.01   0.02    -0.00   0.00   0.02
    20   8     0.08   0.01  -0.07    -0.03  -0.01   0.04     0.06  -0.00  -0.04
    21   8     0.05  -0.00   0.06     0.01   0.02  -0.02     0.00   0.03  -0.01
    22   8    -0.01   0.03  -0.04    -0.01  -0.03   0.02     0.01  -0.01   0.03
    23   5     0.05   0.01   0.10    -0.01   0.00   0.00    -0.02   0.00   0.00
    24   5     0.10  -0.01  -0.06     0.02  -0.02   0.00     0.00   0.00   0.01
    25   5    -0.03   0.01  -0.05    -0.01  -0.01   0.01     0.00   0.01   0.02
    26   8     0.01  -0.06  -0.02    -0.02   0.01   0.01    -0.01   0.02   0.00
    27   8     0.07  -0.03  -0.06     0.08  -0.03  -0.03    -0.04   0.00   0.03
    28   6     0.03  -0.02  -0.05     0.05  -0.02  -0.03    -0.00   0.00   0.01
    29   6     0.04   0.01  -0.07    -0.01  -0.00   0.05     0.06  -0.02  -0.07
    30   6     0.03  -0.02  -0.03    -0.01  -0.03   0.03     0.01  -0.01   0.03
    31   6     0.02  -0.07  -0.02    -0.01  -0.01   0.02     0.00   0.01   0.00
    32   6     0.02  -0.01   0.04    -0.00   0.06  -0.03    -0.03   0.02  -0.03
    33   6    -0.01   0.02   0.07    -0.01   0.07  -0.02    -0.07  -0.04  -0.00
    34   8     0.02   0.02   0.10    -0.02   0.03   0.00    -0.07  -0.04   0.00
    35   6     0.03   0.05  -0.08     0.04   0.03   0.14     0.01  -0.09  -0.15
    36   1     0.01   0.06  -0.07     0.06   0.04   0.16     0.01  -0.10  -0.17
    37   1     0.04   0.05  -0.09    -0.00   0.05   0.19     0.05  -0.10  -0.20
    38   1     0.05   0.06  -0.09     0.10   0.04   0.14    -0.06  -0.10  -0.13
    39   6     0.02   0.01  -0.06    -0.10  -0.01   0.06     0.16  -0.00  -0.09
    40   1     0.02   0.03  -0.07    -0.14   0.00   0.13     0.20  -0.02  -0.16
    41   1    -0.02   0.01  -0.05    -0.07  -0.01   0.07     0.15  -0.02  -0.11
    42   1     0.03  -0.03  -0.05    -0.15  -0.03   0.00     0.21   0.04  -0.03
    43   6    -0.00  -0.01  -0.05     0.13  -0.02  -0.02    -0.07  -0.02  -0.00
    44   1    -0.00  -0.04  -0.04     0.17  -0.04  -0.08    -0.11   0.00   0.06
    45   1    -0.03  -0.01  -0.04     0.11  -0.02  -0.01    -0.03  -0.02  -0.03
    46   1     0.01   0.02  -0.06     0.17  -0.01   0.04    -0.12  -0.05  -0.05
    47   6     0.03  -0.06  -0.03    -0.00  -0.04  -0.11     0.06   0.05   0.09
    48   1    -0.00  -0.07  -0.03    -0.02  -0.04  -0.12     0.09   0.05   0.07
    49   1     0.03  -0.09  -0.02     0.05  -0.06  -0.17     0.01   0.06   0.15
    50   1     0.06  -0.07  -0.03    -0.06  -0.04  -0.12     0.11   0.07   0.10
    51   6     0.00  -0.02   0.01     0.02   0.07  -0.06     0.01   0.05  -0.02
    52   1     0.02  -0.03  -0.00     0.03   0.06  -0.07     0.03   0.09  -0.04
    53   1    -0.02  -0.02  -0.00     0.01   0.09  -0.07    -0.01   0.04  -0.04
    54   1    -0.01  -0.01   0.02     0.03   0.06  -0.07     0.03   0.03   0.02
    55   6     0.04  -0.02   0.02    -0.02   0.07  -0.02    -0.06   0.05  -0.09
    56   1     0.06  -0.03   0.01    -0.01   0.06  -0.02    -0.03   0.09  -0.11
    57   1     0.05  -0.01   0.03    -0.03   0.06   0.01    -0.09   0.04  -0.10
    58   1     0.02  -0.03   0.00    -0.02   0.09  -0.02    -0.09   0.06  -0.12
    59   6    -0.03   0.03   0.06     0.02   0.06  -0.06    -0.05  -0.06   0.06
    60   1    -0.04   0.05   0.08     0.01   0.06  -0.05    -0.08  -0.10   0.08
    61   1    -0.03   0.02   0.06     0.03   0.03  -0.07    -0.02  -0.04   0.09
    62   1    -0.05   0.02   0.05     0.03   0.09  -0.08    -0.06  -0.07   0.06
    63   6    -0.03   0.02   0.06    -0.03   0.11  -0.01    -0.12  -0.07  -0.04
    64   1    -0.01   0.01   0.06    -0.05   0.11   0.02    -0.14  -0.06  -0.09
    65   1    -0.05   0.04   0.08    -0.04   0.11  -0.00    -0.15  -0.11  -0.02
    66   1    -0.05   0.01   0.03    -0.02   0.14  -0.03    -0.12  -0.06  -0.05
    67   6    -0.01  -0.09   0.00    -0.01  -0.02  -0.00     0.01   0.01  -0.03
    68   1    -0.01  -0.10  -0.00    -0.00  -0.03  -0.00     0.03  -0.00  -0.03
    69   1    -0.02  -0.12   0.01    -0.01  -0.00  -0.02     0.00   0.02  -0.04
    70   1    -0.04  -0.06   0.01    -0.00  -0.03  -0.02     0.03  -0.00  -0.03
    71   6     0.05  -0.10  -0.02    -0.02   0.01   0.03    -0.01   0.03   0.01
    72   1     0.05  -0.09  -0.02    -0.02  -0.00   0.04    -0.00   0.02   0.01
    73   1     0.07  -0.10  -0.05    -0.02   0.01   0.05    -0.03   0.04   0.03
    74   1     0.06  -0.12  -0.00    -0.02   0.02   0.02    -0.03   0.04  -0.01
    75   6     0.09   0.00  -0.04    -0.01  -0.02   0.06    -0.01  -0.00   0.05
    76   1     0.10   0.04  -0.04    -0.01  -0.03   0.07     0.00  -0.02   0.07
    77   1     0.09   0.01  -0.04    -0.02  -0.00   0.06    -0.02   0.01   0.06
    78   1     0.12  -0.02  -0.04    -0.01  -0.02   0.07    -0.01  -0.00   0.06
    79   6     0.02  -0.03  -0.03     0.00  -0.05   0.03     0.03  -0.03   0.02
    80   1     0.03   0.00  -0.04     0.00  -0.06   0.05     0.03  -0.04   0.04
    81   1     0.05  -0.06  -0.02     0.00  -0.05   0.04     0.03  -0.02   0.02
    82   1    -0.02  -0.04  -0.02     0.01  -0.06   0.02     0.04  -0.03   0.00
    83   1    -0.51   0.04   0.35    -0.02  -0.01   0.02     0.03   0.00  -0.00
    84   6    -0.02   0.01  -0.03     0.02   0.06  -0.05     0.02   0.04  -0.02
    85   8    -0.05  -0.00  -0.06     0.07   0.04  -0.06     0.07   0.03  -0.02
    86   6    -0.01  -0.01  -0.01    -0.00   0.11  -0.07     0.00   0.08  -0.05
    87   1     0.00   0.00  -0.01    -0.02   0.13  -0.08    -0.02   0.09  -0.06
    88   1     0.01  -0.01   0.00    -0.03   0.11  -0.06    -0.03   0.08  -0.05
    89   6    -0.02   0.08  -0.07     0.01   0.01   0.01     0.01  -0.01   0.04
    90   1    -0.02   0.16  -0.08    -0.01  -0.02   0.02    -0.00  -0.05   0.05
    91   1    -0.05   0.05  -0.12     0.04   0.01   0.02     0.04   0.01   0.07
    92   7    -0.01   0.05  -0.03    -0.01   0.04  -0.02    -0.01   0.02   0.01
    93   6     0.03   0.07  -0.01    -0.06   0.05  -0.02    -0.05   0.01  -0.00
    94   1     0.03   0.06   0.02    -0.06   0.06  -0.04    -0.08   0.05  -0.01
    95   1     0.05   0.09  -0.02    -0.08   0.06  -0.02    -0.03   0.01   0.00
    96   1     0.04   0.08  -0.03    -0.07   0.04   0.01    -0.07  -0.03  -0.01
    97   6    -0.03  -0.03   0.00     0.04   0.13  -0.10     0.04   0.10  -0.08
    98   1    -0.05  -0.04   0.00     0.05   0.11  -0.10     0.06   0.10  -0.08
    99   1    -0.05  -0.03  -0.01     0.07   0.13  -0.12     0.06   0.10  -0.08
   100   1    -0.04  -0.03   0.00    -0.02  -0.02  -0.02    -0.01   0.00  -0.01
   101   1    -0.03  -0.04  -0.02    -0.02  -0.02   0.04     0.01  -0.02   0.03
   102   1    -0.02  -0.04   0.02     0.02   0.16  -0.12     0.02   0.13  -0.11
                      4                      5                      6
                      A                      A                      A
 Frequencies --     23.1694                27.3583                37.5763
 Red. masses --      4.9163                 4.1494                 4.5907
 Frc consts  --      0.0016                 0.0018                 0.0038
 IR Inten    --      1.0614                 0.3170                 0.5396
  Atom AN      X      Y      Z        X      Y      Z        X      Y      Z
     1   6    -0.03   0.01   0.02    -0.02   0.00   0.04     0.06   0.02   0.00
     2   6     0.02  -0.05  -0.03    -0.01  -0.00   0.04     0.03   0.01  -0.03
     3   6     0.02  -0.06  -0.02    -0.03   0.02   0.07     0.06  -0.00  -0.07
     4   6     0.00  -0.05  -0.01    -0.05   0.03   0.08     0.08  -0.00  -0.07
     5   6    -0.02  -0.01   0.01    -0.04   0.02   0.07     0.08   0.01  -0.03
     6   6    -0.06   0.06   0.06    -0.02  -0.01   0.02     0.06   0.02   0.03
     7   6    -0.05   0.03   0.05     0.01  -0.04  -0.01     0.05   0.01   0.06
     8   6    -0.11   0.14   0.12     0.01  -0.05  -0.02     0.08  -0.00   0.05
     9   6    -0.16   0.21   0.17    -0.01  -0.04  -0.01     0.09   0.00   0.04
    10   6    -0.13   0.17   0.13    -0.02  -0.02   0.02     0.09   0.01   0.03
    11   1     0.04  -0.06  -0.04    -0.00  -0.01   0.03     0.01   0.01  -0.02
    12   1     0.00  -0.06  -0.02    -0.06   0.05   0.10     0.10  -0.01  -0.10
    13   1    -0.04  -0.01   0.02    -0.05   0.04   0.08     0.10   0.01  -0.03
    14   1    -0.01  -0.02   0.00     0.02  -0.05  -0.02     0.04  -0.00   0.06
    15   1    -0.21   0.30   0.23    -0.01  -0.05  -0.01     0.11  -0.00   0.04
    16   1    -0.16   0.23   0.16    -0.03  -0.02   0.02     0.10   0.01   0.01
    17   7    -0.00  -0.02  -0.01    -0.01  -0.01   0.03     0.03   0.02   0.01
    18   7    -0.03  -0.00   0.02    -0.01  -0.02   0.01     0.04   0.02   0.05
    19  77     0.00  -0.01  -0.01     0.00  -0.02   0.01    -0.01  -0.00   0.04
    20   8     0.01  -0.02   0.03     0.01  -0.01  -0.04    -0.00  -0.00   0.02
    21   8    -0.00  -0.02  -0.00    -0.00  -0.03   0.02    -0.04  -0.03  -0.03
    22   8     0.01   0.00  -0.03    -0.01   0.04  -0.02    -0.00   0.07   0.00
    23   5     0.01  -0.02  -0.00     0.02  -0.00   0.01    -0.03   0.01   0.01
    24   5     0.01  -0.01   0.02     0.01  -0.03  -0.02     0.00  -0.00   0.02
    25   5     0.01  -0.01  -0.02     0.00  -0.01   0.00     0.00  -0.00   0.04
    26   8     0.01  -0.03  -0.02     0.00  -0.02  -0.00     0.01  -0.05   0.03
    27   8     0.02   0.01   0.02     0.00  -0.05  -0.02     0.02  -0.01   0.01
    28   6     0.03   0.00   0.04    -0.00  -0.05  -0.05     0.02  -0.01  -0.00
    29   6     0.02  -0.01   0.05     0.01  -0.03  -0.06     0.00  -0.01   0.01
    30   6     0.02  -0.01  -0.03    -0.04   0.07  -0.06     0.00   0.07  -0.05
    31   6     0.02  -0.03  -0.02    -0.02   0.05  -0.03     0.01   0.01  -0.01
    32   6     0.00  -0.03   0.00     0.02  -0.03   0.04    -0.07  -0.02  -0.05
    33   6     0.01  -0.03  -0.00     0.05   0.02   0.02    -0.09   0.03  -0.03
    34   8     0.01  -0.02  -0.00     0.06   0.03   0.01    -0.06   0.04   0.02
    35   6     0.03  -0.01   0.06    -0.00  -0.05  -0.07     0.01  -0.01   0.03
    36   1     0.03  -0.00   0.07    -0.00  -0.06  -0.09     0.02  -0.01   0.02
    37   1     0.02  -0.02   0.06     0.01  -0.04  -0.08     0.01   0.00   0.04
    38   1     0.03   0.00   0.04    -0.01  -0.06  -0.06     0.02  -0.01   0.03
    39   6     0.02  -0.03   0.06     0.02  -0.01  -0.09    -0.01   0.00   0.00
    40   1     0.02  -0.04   0.07     0.02   0.00  -0.10    -0.02   0.01   0.01
    41   1     0.03  -0.02   0.08     0.01  -0.02  -0.11    -0.00  -0.00  -0.00
    42   1     0.01  -0.03   0.06     0.02   0.00  -0.08    -0.02   0.00  -0.01
    43   6     0.04   0.02   0.05    -0.01  -0.07  -0.06     0.03  -0.02  -0.01
    44   1     0.04   0.03   0.04    -0.02  -0.09  -0.05     0.04  -0.03  -0.02
    45   1     0.04   0.02   0.06    -0.02  -0.07  -0.08     0.03  -0.02  -0.01
    46   1     0.04   0.02   0.05    -0.02  -0.08  -0.06     0.04  -0.02   0.01
    47   6     0.02   0.00   0.03     0.00  -0.04  -0.05     0.01  -0.01  -0.02
    48   1     0.03   0.00   0.05     0.00  -0.04  -0.06     0.00  -0.01  -0.03
    49   1     0.03   0.02   0.02    -0.00  -0.05  -0.04     0.01  -0.01  -0.03
    50   1     0.01  -0.01   0.03     0.01  -0.03  -0.04    -0.01  -0.01  -0.02
    51   6    -0.01  -0.04   0.01    -0.01  -0.05   0.03    -0.09  -0.04  -0.11
    52   1    -0.01  -0.04   0.01    -0.03  -0.08   0.05    -0.07  -0.08  -0.12
    53   1    -0.01  -0.04   0.01     0.01  -0.04   0.05    -0.12  -0.03  -0.13
    54   1    -0.01  -0.03   0.00    -0.03  -0.03  -0.00    -0.11  -0.03  -0.11
    55   6     0.01  -0.04   0.00     0.05  -0.05   0.09    -0.04  -0.04  -0.04
    56   1     0.01  -0.05   0.00     0.02  -0.08   0.10    -0.04  -0.07  -0.05
    57   1     0.02  -0.04   0.00     0.08  -0.04   0.08    -0.03  -0.03  -0.02
    58   1     0.01  -0.04   0.00     0.07  -0.06   0.11    -0.05  -0.04  -0.05
    59   6    -0.00  -0.02  -0.00     0.03   0.04  -0.02    -0.14   0.05  -0.04
    60   1    -0.00  -0.02  -0.00     0.05   0.08  -0.04    -0.15   0.09  -0.01
    61   1    -0.01  -0.02  -0.00    -0.00   0.04  -0.04    -0.13   0.04  -0.04
    62   1    -0.01  -0.03   0.00     0.03   0.04  -0.02    -0.17   0.04  -0.07
    63   6     0.01  -0.03   0.00     0.10   0.04   0.05    -0.11   0.04  -0.03
    64   1     0.01  -0.03   0.00     0.12   0.02   0.07    -0.07   0.03  -0.01
    65   1     0.01  -0.02   0.00     0.11   0.07   0.03    -0.13   0.08  -0.01
    66   1     0.01  -0.03   0.00     0.09   0.02   0.05    -0.13   0.03  -0.06
    67   6     0.00  -0.03  -0.01     0.01   0.11   0.02     0.01   0.05   0.06
    68   1     0.00  -0.03  -0.01    -0.01   0.17   0.00     0.01   0.09   0.02
    69   1     0.00  -0.04  -0.00     0.03   0.09   0.05    -0.01  -0.01   0.08
    70   1    -0.01  -0.02  -0.00     0.03   0.12   0.06     0.00   0.09   0.11
    71   6     0.03  -0.04  -0.03    -0.05   0.04  -0.08     0.01  -0.03  -0.07
    72   1     0.03  -0.04  -0.03    -0.06   0.09  -0.11     0.01   0.01  -0.10
    73   1     0.04  -0.04  -0.04    -0.06  -0.00  -0.11     0.02  -0.06  -0.11
    74   1     0.03  -0.05  -0.02    -0.03   0.03  -0.06     0.01  -0.08  -0.04
    75   6     0.03  -0.00  -0.04    -0.06   0.03  -0.12     0.01   0.05  -0.12
[...]
 00262,-0.00000037,0.00000192,-0.00000292,0.00000258,0.00000161,-0.0000
 0377,-0.00000008,0.00000216,0.00000253,0.00000013,0.00000008,0.0000010
 1,-0.00000165,-0.00000271,-0.00000317,0.00000251,0.00000167,-0.0000019
 5,-0.00000198,-0.00000346,-0.00000300,-0.00000063,-0.00000230,0.000002
 27,-0.00000023,0.00000023,0.00000009,0.00000041,0.00000081,-0.00000048
 ,-0.00000475,-0.00000255,-0.00000286,-0.00000132,-0.00000238,-0.000000
 31,0.00000346,0.00000192,0.00000267,-0.00000013,0.00000052,-0.00000071
 ,-0.00000089,0.00000743,0.00000122,-0.00000025,-0.00000381,-0.00000172
 ,0.00000253,0.00000022,-0.00000058,-0.00000171,-0.00000022,-0.00000053
 ,-0.00000011,-0.00000007,0.00000173,-0.00000151,-0.00000209,-0.0000009
 0,-0.00000037,-0.00000070,-0.00000087,0.00000077,0.00000044,-0.0000207
 0,-0.00000158,0.00003760,-0.00078653,-0.00010971,0.00004435,0.00032465
 ,-0.00004189,-0.00019096,-0.00003684,-0.00005261,0.00005971,0.00004042
 ,0.00013137,0.00007189,0.00001321,0.00009293,-0.00031436,-0.00007954,-
 0.00000308,0.00006653,0.00003017,-0.00000671,-0.00001722,0.00000336,0.
 00000200,-0.00000766,0.00032832,-0.00016968,-0.00009324,-0.00002870,-0
 .00004371,0.00001366,-0.00001105,0.00004712,-0.00004142,0.00000484,0.0
 0000276,-0.00000060,0.00002116,0.00000348,0.00002055,0.00012907,0.0000
 6831,-0.00008143,-0.00000505,-0.00021858,0.00015345,-0.00004107,0.0000
 7462,0.00009339,-0.00002316,0.00002353,0.00001370,0.15299040,0.1733819
 8,-0.00074401,0.00043265,-0.00136707,-0.01121023,-0.01288233,0.0067255
 4,0.03775613,0.04987262,-0.06133089,0.01867936,0.01396683,-0.00015657,
 -0.00292533,0.00562123,-0.00044687,0.00037777,-0.00055132,-0.00037014,
 0.00008790,0.00003483,-0.00003049,0.00002572,-0.00003736,0.00005391,-0
 .00004494,-0.00007101,-0.00000424,0.00004471,0.00007306,-0.00005886,0.
 00126885,-0.00132820,-0.00118183,0.00088042,-0.00226454,-0.00079608,0.
 00092233,0.00075794,-0.00001825,-0.00000153,0.00000223,-0.00000551,0.0
 0000287,-0.00000312,-0.00000395,-0.00002900,0.00001810,0.00007381,-0.0
 0605609,0.00247155,0.00172117,-0.00013601,-0.00000674,-0.00000123,0.00
 050426,-0.00007549,0.00051229,0.00011929,-0.00005423,0.00001858,0.0000
 3593,-0.00000709,-0.00003128,0.00000333,-0.00004051,-0.00002615,-0.000
 03908,-0.00002534,0.00006386,0.00003842,-0.00010295,-0.00004586,-0.000
 04332,0.00012453,-0.00003020,-0.00001491,-0.00003069,-0.00000105,0.000
 01802,0.00001451,0.00000069,-0.00000456,-0.00001442,-0.00001126,-0.000
 01625,0.00003892,0.00008258,0.00000319,0.00000039,-0.00000031,0.000002
 28,0.00000209,0.00000745,-0.00000642,0.00000017,0.00001727,-0.00000342
 ,0.00001852,0.00000372,0.00000139,-0.00001435,-0.00004747,-0.00005654,
 -0.00003946,-0.00009624,0.00003059,-0.00000705,0.00001807,0.00010627,0
 .00001538,0.00013944,-0.00001628,-0.00000878,-0.00002196,0.00003720,0.
 00000824,0.00000104,-0.00001488,-0.00000459,0.00000944,-0.00000600,-0.
 00000060,-0.00000515,0.00001139,-0.00000717,-0.00000787,0.00000298,0.0
 0000708,0.00000463,0.00000542,-0.00000079,0.00000152,-0.00000203,-0.00
 000041,-0.00000087,0.00000108,-0.00000307,-0.00000869,0.00000875,0.000
 00916,0.00000693,0.00000034,-0.00000405,0.00000149,0.00000564,-0.00000
 233,-0.00000162,-0.00000070,0.00000173,-0.00000199,0.00000035,-0.00000
 053,-0.00000353,-0.00000211,-0.00000063,-0.00000042,0.00000284,-0.0000
 0017,-0.00000160,-0.00000057,-0.00000106,0.00000341,-0.00000079,0.0000
 0179,-0.00000618,-0.00000149,-0.00000090,-0.00000065,-0.00000025,-0.00
 000036,0.00000094,0.00000259,0.00000091,-0.00000088,0.00000276,-0.0000
 1023,0.00000615,0.00000031,0.00000761,-0.00000918,0.00000373,0.0000005
 6,0.00000602,-0.00000042,-0.00000242,-0.00000169,0.00000160,-0.0000029
 4,-0.00000085,-0.00000316,-0.00000212,0.00000011,-0.00000125,0.0000034
 5,-0.00000172,0.00000230,-0.00000070,-0.00000060,-0.00000010,-0.000001
 14,-0.00000154,-0.00000067,0.00000022,0.,0.00000103,-0.00000035,-0.000
 00044,0.00000095,0.00000063,0.00000138,-0.00000143,0.00000073,-0.00000
 325,-0.00000075,-0.00000092,0.00000105,-0.00000023,-0.00000120,0.00000
 075,0.00000067,-0.00000047,-0.00000053,-0.00000488,-0.00000260,-0.0000
 0155,0.00000031,-0.00000161,-0.00000266,-0.00000019,0.00000111,0.00000
 283,0.00000250,-0.00000145,0.00000140,-0.00000031,-0.00000181,0.000001
 63,0.00000017,-0.00000129,-0.00000168,0.00000052,0.00000065,-0.0000010
 9,-0.00000042,-0.00000029,0.00000094,-0.00013881,-0.00004912,-0.000062
 86,-0.00047933,-0.00002758,0.00008448,0.00016510,-0.00000726,-0.000101
 09,0.00002527,-0.00033047,0.00007405,0.00000919,0.00012690,0.00002368,
 0.00000055,0.00016839,-0.00019800,0.00000204,0.00000490,-0.00002488,0.
 00000143,0.00000099,-0.00000245,-0.00000893,0.00001600,0.00001195,0.00
 020545,-0.00011669,-0.00010366,-0.00007062,-0.00008209,0.00004375,0.00
 003362,0.00004494,-0.00002227,0.00001774,0.00002369,-0.00000045,-0.000
 00174,0.00000598,0.00001286,0.00004947,0.00010911,0.00006590,0.0000144
 9,-0.00000055,0.00003033,-0.00003684,0.00003368,-0.00001357,-0.0000099
 3,0.00002343,0.00002280,-0.03938338,-0.05581855,0.05681232,0.00004608,
 -0.00002544,-0.00001544,0.00004178,-0.00002004,-0.00006321,-0.00009173
 ,-0.00006971,0.00003999,-0.00002073,0.00002104,-0.00004614,-0.00001864
 ,0.00002296,0.00000173,0.00006211,0.00002935,-0.00002431,0.00001006,-0
 .00002036,0.00002289,-0.00001761,0.00000524,-0.00003303,0.00003553,0.0
 0001517,0.00001425,-0.00003387,-0.00003211,0.00001278,0.00001413,-0.00
 003506,-0.00000316,0.00000089,-0.00001920,0.00001471,0.00000239,-0.000
 00600,-0.00000650,0.00000092,0.00000035,-0.00000001,-0.00000093,-0.000
 00393,0.00000507,0.00000587,0.00000149,-0.00000281,-0.00002087,-0.0000
 3739,-0.00005788,-0.00001505,0.00003417,0.00000369,-0.00003567,0.00005
 812,0.00002345,0.00003855,0.00017710,-0.00001836,-0.00011499,0.0000574
 2,0.00005649,-0.00012738,-0.00006381,-0.00006191,0.00011611,-0.0000244
 0,-0.00008851,-0.00001148,-0.00023487,0.00007153,0.00020688,0.00003031
 ,0.00001837,-0.00011082,-0.00004429,-0.00001994,-0.00002968,0.00014883
 ,-0.00006111,-0.00000298,-0.00008267,-0.00000112,-0.00000426,-0.000073
 87,0.00004708,0.00005565,0.00005551,0.00001441,0.00003632,0.00001824,0
 .00003224,0.00002636,-0.00000510,-0.00003229,0.00003117,-0.00003862,-0
 .00002613,-0.00007691,0.00004455,0.00009761,0.00000331,0.00000035,-0.0
 0002887,-0.00000246,0.00001720,-0.00000598,-0.00000219,-0.00000865,0.0
 0001027,-0.00000034,-0.00000985,0.00001386,-0.00000224,0.00000502,-0.0
 0000370,0.00000317,-0.00000304,0.00000564,-0.00000166,0.00000885,-0.00
 000290,0.00000012,-0.00000188,0.00000100,0.00000038,0.00000576,-0.0000
 0273,-0.00000145,-0.00000266,-0.00000154,-0.00000015,0.00000988,-0.000
 00066,-0.00000062,-0.00000651,0.00000213,0.00000169,0.00001117,0.00000
 293,-0.00000349,0.00001126,0.00000141,0.00000107,-0.00000381,0.0000004
 5,0.00000142,-0.00000648,-0.00000305,-0.00000382,-0.00000147,0.0000028
 8,-0.00000054,0.00000007,-0.00000360,-0.00000503,0.00000262,0.00000503
 ,0.00000268,0.00000131,-0.00000099,-0.00000184,-0.00000290,0.00000697,
 0.00000201,-0.00000044,-0.00000258,0.00000127,0.00000493,-0.00000296,-
 0.00000715,-0.00000115,0.00000588,-0.00000349,0.00000729,0.00000195,0.
 00000259,-0.00000355,-0.00000131,0.00000045,-0.00000531,-0.00000101,-0
 .00000537,0.00000708,0.00000494,-0.00000448,0.00000386,0.00000268,0.00
 000369,0.00000046,-0.00000182,0.00000345,-0.00000276,0.00000042,-0.000
 00687,0.00000306,0.00000440,-0.00000554,-0.00000133,-0.00000395,-0.000
 00564,-0.00000209,-0.00000563,0.,0.00000188,0.00000327,0.00000384,-0.0
 0000224,0.00000290,-0.00000501,-0.00000132,0.00000011,-0.00000344,-0.0
 0000360,-0.00000423,0.00000222,0.00000383,-0.00000036,-0.00000115,0.00
 000160,0.00000455,-0.00000239,-0.00000716,0.00000421,0.00000395,0.0000
 0965,0.00000847,0.00000463,0.00000351,-0.00001011,-0.00001003,-0.00000
 709,-0.00000150,-0.00000543,-0.00000469,-0.00000219,0.00000418,0.00000
 192,0.00000202,-0.00000665,-0.00000455,-0.00000277,0.00000057,0.000003
 36,-0.00000017,0.00001369,-0.00002544,-0.00001889,-0.00036045,0.002281
 74,-0.00230026,-0.00038621,0.00054612,-0.00063577,-0.01907125,-0.00863
 071,0.00672537,0.00068854,-0.00037395,-0.00019766,0.00058042,0.0002584
 0,0.00052654,0.00019704,0.00027966,-0.00038966,-0.00017092,-0.00001830
 ,0.00002252,0.00002692,0.00002098,0.00002420,-0.00211033,-0.00035778,0
 .00018805,-0.00009439,-0.00037264,0.00034958,0.00006215,0.00000661,0.0
 0003288,-0.00000207,0.00002320,-0.00011072,-0.00003344,0.00006810,-0.0
 0005371,-0.26576567,-0.08254360,0.05895188,-0.00326050,-0.00100633,0.0
 0000156,0.00062878,0.00075410,-0.00041397,-0.00000591,-0.00000253,0.00
 000055,-0.00001722,0.00002578,-0.00000870,0.28913542,0.00000602,-0.000
 00473,-0.00001500,-0.00004523,0.00000595,0.00001166,0.00004591,0.00001
 574,0.00001333,-0.00003924,0.00001393,0.00000738,0.00000242,0.00000303
 ,0.00000515,0.00000676,0.00000296,-0.00000612,0.00000367,-0.00000089,0
 .00000289,-0.00000155,0.00000182,-0.00000217,0.00000319,0.00000563,-0.
 00000276,-0.00000645,-0.00000027,0.00000251,0.00000695,-0.00000224,0.0
 0000142,-0.00000061,0.00000015,-0.00001248,0.00000127,-0.00000337,-0.0
 0000912,0.00000083,-0.00000158,0.00000174,0.00000073,-0.00000123,0.000
 00006,0.00000182,-0.00000135,-0.00000516,0.00002614,0.00000347,0.00001
 987,-0.00000121,-0.00000369,0.00000175,-0.00000733,-0.00000314,-0.0000
 1286,-0.00001161,0.00000599,-0.00000321,-0.00001809,0.00000830,0.00000
 677,-0.00000095,-0.00000616,-0.00000862,0.00002476,-0.00001403,-0.0000
 0816,0.00001389,-0.00000459,0.00000907,0.00001580,0.00001320,0.0000200
 0,-0.00001740,-0.00000604,-0.00000950,-0.00000908,0.00001127,-0.000008
 20,0.00000344,-0.00000700,0.00000435,0.00000692,-0.00000381,-0.0000041
 1,0.00000621,-0.00000224,0.00000374,0.00000715,0.00000505,0.00000629,0
 .00000636,-0.00000082,-0.00000544,0.00000752,-0.00000609,-0.00000453,-
 0.00001401,0.00000948,0.00001191,-0.00000035,-0.00000031,0.00000568,-0
 .00000072,0.00000185,-0.00000038,-0.00000128,-0.00000327,-0.00000659,0
 .00000330,0.00000049,0.00000352,-0.00000069,-0.00000017,0.00000239,-0.
 00000014,-0.00000117,-0.00000137,0.00000018,0.00000098,-0.00000106,-0.
 00000151,0.00000029,0.00000130,-0.00000040,-0.00000031,-0.00000136,-0.
 00000200,-0.00000040,-0.00000064,0.00000073,0.00000079,0.00000040,0.00
 000039,0.,0.00000187,-0.00000180,-0.00000024,-0.00000120,0.00000011,0.
 00000155,0.00000039,-0.00000136,-0.00000069,-0.00000033,0.00000068,-0.
 00000027,-0.00000024,-0.00000039,0.00000046,0.00000013,-0.00000012,0.,
 -0.00000096,-0.00000079,0.00000016,0.00000118,0.00000049,-0.00000013,-
 0.00000028,0.00000004,-0.00000118,0.00000057,0.00000016,0.00000004,-0.
 00000084,0.00000025,0.00000089,-0.00000025,-0.00000119,-0.00000006,0.0
 0000123,-0.00000024,0.00000090,0.,0.00000039,-0.00000040,-0.00000102,0
 .00000059,-0.00000076,0.00000032,-0.00000136,0.00000123,0.00000092,-0.
 00000082,-0.00000027,0.00000056,0.00000091,-0.00000014,-0.00000019,0.0
 0000061,-0.00000054,-0.00000042,-0.00000140,0.00000100,0.00000064,-0.0
 0000095,0.00000035,-0.00000048,-0.00000108,-0.00000061,-0.00000118,0.0
 0000023,0.00000050,0.00000057,0.00000055,0.00000009,0.00000056,0.00000
 002,-0.00000147,0.00000023,-0.00000064,-0.00000063,-0.00000109,0.00000
 026,0.00000123,-0.00000036,0.00000011,0.00000069,0.00000072,-0.0000002
 9,0.00000149,0.00000050,0.00000080,0.00000007,0.00000305,0.00000162,-0
 .00000062,-0.00000282,-0.00000139,-0.00000076,-0.00000015,-0.00000002,
 0.00000150,-0.00000114,0.00000083,-0.00000014,0.00000063,-0.00000087,-
 0.00000070,0.00000030,-0.00000032,0.00000099,-0.00000048,-0.00000202,0
 .00000096,-0.00000392,0.00153150,-0.00299421,0.00376287,-0.00152161,0.
 00122762,-0.00071255,0.01615231,0.00491499,-0.00445357,-0.00079629,0.0
 0032362,-0.00029404,-0.00049501,0.00051352,-0.00074004,0.00006000,-0.0
 0013835,0.00017676,0.00006957,0.00002072,-0.00001637,0.00000646,0.0000
 1676,-0.00000463,0.00093666,0.00080110,-0.00047759,-0.00001149,0.00013
 217,-0.00011557,-0.00003249,-0.00003059,-0.00000721,-0.00000285,-0.000
 00055,-0.00001199,-0.00001067,-0.00001474,-0.00000306,-0.08282094,-0.0
 7972332,0.02108824,0.00652125,0.00100748,-0.00122349,-0.02875774,-0.00
 763952,0.00886824,-0.00000079,-0.00000118,-0.00000065,0.00000586,-0.00
 002239,-0.00001194,0.08915223,0.08157089,-0.00006621,-0.00002415,0.000
 01424,-0.00004235,-0.00000030,-0.00004318,0.00011757,0.00002557,-0.000
 04147,0.00001673,0.00000717,0.00004055,-0.00000356,-0.00003685,0.00001
 772,-0.00000562,-0.00001513,0.00000983,-0.00000111,-0.00000031,-0.0000
 0290,0.00000456,0.00000170,-0.00000116,0.00000040,-0.00000708,0.000009
 31,0.00000954,0.00000191,-0.00000457,0.00000607,-0.00000103,-0.0000006
 3,0.00001641,0.00003930,0.00002447,-0.00001327,0.00000036,0.00002113,-
 0.00000018,0.00000246,-0.00000229,0.00000004,0.00000186,-0.00000060,-0
 .00000284,-0.00000103,0.00000930,-0.00003037,-0.00001131,-0.00002632,0
 .00000408,0.00002100,-0.00000129,0.00000035,0.00001331,0.00004300,0.00
 000588,-0.00002554,0.00000795,0.00001284,-0.00000933,-0.00000295,-0.00
 001305,0.00000418,0.00000502,-0.00003500,0.00002435,-0.00000010,-0.000
 01076,0.00001757,-0.00001045,0.00000484,-0.00001854,-0.00002608,0.0000
 1014,0.00000356,0.00001035,0.00000220,-0.00001626,0.00000626,-0.000000
 25,0.00000599,0.00000264,0.00000413,0.00001566,-0.00000964,-0.00000003
 ,0.00000582,-0.00000024,-0.00000461,-0.00000361,-0.00000527,-0.0000044
 7,0.00000067,0.00000398,-0.00000838,0.00000971,0.00000579,0.00001561,-
 0.00001370,-0.00000976,0.00000099,-0.00000078,0.00000395,0.00000005,-0
 .00000083,0.00000195,0.00000089,0.00000191,-0.00000227,-0.00000126,-0.
 00000105,-0.00000110,0.00000126,-0.00000168,0.00000135,-0.00000072,0.0
 0000111,-0.00000124,0.00000036,-0.00000149,0.00000065,-0.00000024,0.00
 000047,-0.00000022,-0.00000009,0.00000013,0.00000033,-0.00000016,0.000
 00023,0.00000035,-0.00000003,-0.00000124,0.00000017,0.00000033,0.00000
 023,0.00000021,-0.00000027,-0.00000055,-0.00000094,0.00000033,-0.00000
 153,0.00000020,-0.00000026,0.00000041,-0.00000017,0.00000008,0.0000009
 1,0.00000024,0.00000064,-0.00000005,0.00000028,0.00000020,-0.00000010,
 0.00000054,0.00000057,-0.00000011,-0.00000070,-0.00000047,-0.00000038,
 0.00000011,-0.00000036,0.00000108,-0.00000040,-0.00000012,-0.00000006,
 0.00000049,-0.00000014,-0.00000096,0.00000014,0.00000077,-0.00000007,-
 0.00000075,0.00000016,-0.00000157,-0.00000077,-0.00000049,0.00000120,0
 .00000077,-0.00000026,0.00000071,0.00000026,0.00000140,-0.00000128,-0.
 00000070,0.00000131,-0.00000041,-0.00000076,-0.00000125,-0.00000042,0.
 00000016,-0.00000064,0.00000086,0.00000054,0.00000139,-0.00000081,-0.0
 0000059,0.00000055,0.00000002,0.00000079,0.00000049,0.00000015,0.00000
 072,-0.00000020,-0.00000013,-0.00000053,-0.00000028,-0.00000011,-0.000
 00011,-0.00000035,0.00000178,0.00000053,0.00000047,0.00000031,0.000000
 72,0.,-0.00000110,-0.00000004,-0.00000036,-0.00000048,-0.00000040,0.00
 000003,-0.00000118,-0.00000115,0.00000030,0.00000090,0.00000034,-0.000
 00001,0.00000003,0.00000003,-0.00000028,0.00000018,0.00000012,-0.00000
 115,-0.00000085,0.00000072,0.00000004,-0.00000003,0.00000007,0.0000001
 3,0.00000021,-0.00000047,0.00000006,-0.00000035,0.00000031,0.00000997,
 -0.00000061,0.00000232,-0.00155518,0.00393953,-0.00351234,0.00140667,-
 0.00048669,0.00130089,-0.01885368,-0.00742138,0.00426774,0.00063420,-0
 .00071247,0.00052641,0.00085764,-0.00017088,0.00048057,0.00003185,0.00
 016609,-0.00023982,-0.00008939,-0.00002413,0.00003299,-0.00001269,-0.0
 0001960,0.00001102,-0.00134096,-0.00070637,0.00061334,0.00003957,-0.00
 019161,0.00015086,0.00004478,0.00002222,0.00003456,-0.00001406,-0.0000
 0362,-0.00002222,0.00000554,0.00001685,-0.00001568,0.05931768,0.021163
 15,-0.06431310,0.02789819,0.01195410,-0.00468783,-0.00577703,-0.001692
 97,0.00016056,0.00000098,0.00000137,0.00000108,0.00001521,-0.00000945,
 0.00000703,-0.06261202,-0.02583479,0.06515525\\0.00000429,0.00000189,0
 .00000133,0.00000409,-0.00000232,0.00000602,-0.00000735,0.00000425,-0.
 00000043,0.00000242,-0.00000213,0.00000544,-0.00000303,-0.00000056,0.0
 0000313,-0.00000247,-0.00000021,-0.00000377,-0.00000389,-0.00000230,-0
 .00000590,-0.00000019,-0.00000178,-0.00000343,-0.00000304,-0.00000419,
 0.00000081,0.00000167,-0.00000303,0.00000300,-0.00000080,0.00000052,0.
 00000088,-0.00000458,0.00000079,-0.00000028,-0.00000088,0.00000140,-0.
 00000063,0.00000222,-0.00000044,0.00000057,0.00000004,-0.00000021,-0.0
 0000141,-0.00000253,-0.00000008,-0.00000157,-0.00000289,0.00000297,0.0
 0000235,-0.00000082,0.00000044,-0.00000041,0.00000531,-0.00000180,0.00
 000164,-0.00000054,0.00000424,0.00000038,0.00000084,0.00000013,-0.0000
 0632,0.00000336,-0.00000172,-0.00000393,0.00000040,-0.00000242,-0.0000
 0488,-0.00000241,-0.00000001,0.00000032,-0.00000131,0.00000014,0.00000
 151,0.00000370,0.00000034,-0.00000534,0.00000221,0.00000487,0.00000105
 ,-0.00000249,-0.00000148,0.00000066,-0.00000365,-0.00000342,0.00000411
 ,0.00000008,0.00000816,-0.00000341,0.00000482,-0.00000549,-0.00000168,
 -0.00001033,0.00000401,0.00000142,-0.00000274,-0.00000809,0.00000343,-
 0.00000171,-0.00000038,0.00000375,0.00000094,0.00000377,0.00000067,-0.
 00000016,-0.00000047,0.00000290,0.00000064,0.00000110,0.00000307,0.000
 00002,-0.00000004,0.00000042,-0.00000152,-0.00000059,0.00000428,0.0000
 0070,0.00000083,0.00000277,-0.00000142,0.00000148,0.00000116,-0.000003
 09,0.00000068,0.00000133,0.00000400,-0.00000706,0.00000164,0.00000028,
 0.00000042,-0.00000017,0.00000056,0.00000643,0.00000168,-0.00000278,0.
 00000241,0.00000248,0.00000408,-0.00000177,0.00000257,-0.00000149,0.00
 000169,0.00000055,-0.00000230,-0.00000064,-0.00000179,-0.00000189,-0.0
 0000016,0.00000111,-0.00000093,-0.00001006,-0.00000370,-0.00000165,-0.
 00000024,-0.00000224,-0.00000230,-0.00000172,0.00000123,0.00000105,0.0
 0000204,-0.00000060,0.00000122,-0.00000348,-0.00000039,-0.00000079,-0.
 00000154,-0.00000316,-0.00000293,-0.00000078,-0.00000136,-0.00000061,-
 0.00000136,-0.00000179,-0.00000890,-0.00000007,-0.00000430,0.00000214,
 -0.00000174,0.00000359,-0.00000191,-0.00000085,0.00000110,-0.00000088,
 -0.00000192,-0.00000032,-0.00000410,0.00000060,-0.00000118,-0.00000175
 ,-0.00000174,-0.00000140,-0.00000143,-0.00000162,-0.00000065,-0.000000
 20,-0.00000286,-0.00000237,0.00000332,0.00000003,-0.00000857,0.0000026
 7,0.00000036,-0.00000085,-0.00000024,0.00000049,-0.00000013,-0.0000005
 5,-0.00000112,0.,0.00000031,0.00000010,-0.00000916,0.00000229,0.000000
 64,-0.00000018,0.00000179,-0.00000103,-0.00000083,0.00000034,-0.000001
 59,-0.00000160,0.00000927,-0.00000195,0.00000281,0.00000081,0.00000083
 ,-0.00000104,0.00000053,0.00000096,-0.00000472,-0.00000051,-0.00000148
 ,-0.00000278,-0.00000081,-0.00000306,-0.00000141,0.00000395,0.00000005
 ,-0.00000338,0.00000566,0.00000231,-0.00000120,0.00000249,0.00000200,-
 0.00000151,-0.00000023,0.00000127,-0.00000215,0.00000626,0.00000500,0.
 00000428,0.00000113,-0.00000036,0.00000372,0.00000137,0.00000038,0.000
 00087,0.00000095,0.00000224,0.00000380,0.00000051,0.00000141,0.0000020
 0,0.00000444,0.00000345,0.00000167,0.00000032,0.00000053,-0.00000227,0
 .00000051,-0.00000117,0.00000134,-0.00000433,0.00000474,-0.00000016,-0
 .00000226,-0.00000447,-0.00000354,0.00000601,0.00000436,0.00000238,0.0
 0000176,0.00000380,0.00000498,-0.00000014,0.00000123,0.00000159,-0.000
 00071,-0.00000210,-0.00000070,-0.00000069,0.00000157,0.00000630,0.0000
 0027,0.00000504,0.00000218,0.00000080,-0.00000051,-0.00000106,-0.00000
 026,0.00000049,0.00000226,0.00000260,0.00000272,0.00000153\\\@
 The archive entry for this job was punched.


 THIS CURIOUS WORLD WHICH WE INHABIT IS MORE WONDERFUL THAN IT IS CONVENIENT;
 MORE BEAUTIFUL THAN IT IS USEFUL;
 IT IS MORE TO BE ADMIRED THAN IT IS TO BE USED.

                                                                 -- THOREAU
 Job cpu time:       1 days  8 hours 53 minutes 44.0 seconds.
 Elapsed time:       0 days  2 hours  5 minutes 45.5 seconds.
 File lengths (MBytes):  RWF=   6947 Int=      0 D2E=      0 Chk=     43 Scr=      1
 Normal termination of Gaussian 16 at Sat Dec  7 23:56:40 2024.
