/mnt/lustre/scratch/nvme/SLURM/9663518/usccqdma.wdg9yXz21r
OMP_STACKSIZE=0m
GAUSS_PDEF=16
GAUSS_MDEF=65536MB
GAUSS_RDEF=SCF=Direct
 Entering Gaussian System, Link 0=g16.exe
 Initial command:
 /opt/cesga/2020/software/Core/g16/c1/l1.exe "/mnt/lustre/scratch/nvme/SLURM/9663518/usccqdma.wdg9yXz21r/Gau-3716336.inp" -scrdir="/mnt/lustre/scratch/nvme/SLURM/9663518/usccqdma.wdg9yXz21r/"
 Default is to use a total of  16 processors:
                               16 via shared-memory
                                1 via Linda
 Entering Link 1 = /opt/cesga/2020/software/Core/g16/c1/l1.exe PID=   3716365.
  
 Copyright (c) 1988-2019, Gaussian, Inc.  All Rights Reserved.
  
 This is part of the Gaussian(R) 16 program.  It is based on
 the Gaussian(R) 09 system (copyright 2009, Gaussian, Inc.),
 the Gaussian(R) 03 system (copyright 2003, Gaussian, Inc.),
 the Gaussian(R) 98 system (copyright 1998, Gaussian, Inc.),
 the Gaussian(R) 94 system (copyright 1995, Gaussian, Inc.),
 the Gaussian 92(TM) system (copyright 1992, Gaussian, Inc.),
 the Gaussian 90(TM) system (copyright 1990, Gaussian, Inc.),
 the Gaussian 88(TM) system (copyright 1988, Gaussian, Inc.),
 the Gaussian 86(TM) system (copyright 1986, Carnegie Mellon
 University), and the Gaussian 82(TM) system (copyright 1983,
 Carnegie Mellon University). Gaussian is a federally registered
 trademark of Gaussian, Inc.
  
 This software contains proprietary and confidential information,
 including trade secrets, belonging to Gaussian, Inc.
  
 This software is provided under written license and may be
 used, copied, transmitted, or stored only in accord with that
 written license.
  
 The following legend is applicable only to US Government
 contracts under FAR:
  
                    RESTRICTED RIGHTS LEGEND
  
 Use, reproduction and disclosure by the US Government is
 subject to restrictions as set forth in subparagraphs (a)
 and (c) of the Commercial Computer Software - Restricted
 Rights clause in FAR 52.227-19.
  
 Gaussian, Inc.
 340 Quinnipiac St., Bldg. 40, Wallingford CT 06492
  
  
 ---------------------------------------------------------------
 Warning -- This program may not be used in any manner that
 competes with the business of Gaussian, Inc. or will provide
 assistance to any competitor of Gaussian, Inc.  The licensee
 of this program is prohibited from giving any competitor of
 Gaussian, Inc. access to this program.  By using this program,
 the user acknowledges that Gaussian, Inc. is engaged in the
 business of creating and licensing software in the field of
 computational chemistry and represents and warrants to the
 licensee that it is not a competitor of Gaussian, Inc. and that
 it will not use this program in any manner prohibited above.
 ---------------------------------------------------------------
  

 Cite this work as:
 Gaussian 16, Revision C.01,
 M. J. Frisch, G. W. Trucks, H. B. Schlegel, G. E. Scuseria, 
 M. A. Robb, J. R. Cheeseman, G. Scalmani, V. Barone, 
 G. A. Petersson, H. Nakatsuji, X. Li, M. Caricato, A. V. Marenich, 
 J. Bloino, B. G. Janesko, R. Gomperts, B. Mennucci, H. P. Hratchian, 
 J. V. Ortiz, A. F. Izmaylov, J. L. Sonnenberg, D. Williams-Young, 
 F. Ding, F. Lipparini, F. Egidi, J. Goings, B. Peng, A. Petrone, 
 T. Henderson, D. Ranasinghe, V. G. Zakrzewski, J. Gao, N. Rega, 
 G. Zheng, W. Liang, M. Hada, M. Ehara, K. Toyota, R. Fukuda, 
 J. Hasegawa, M. Ishida, T. Nakajima, Y. Honda, O. Kitao, H. Nakai, 
 T. Vreven, K. Throssell, J. A. Montgomery, Jr., J. E. Peralta, 
 F. Ogliaro, M. J. Bearpark, J. J. Heyd, E. N. Brothers, K. N. Kudin, 
 V. N. Staroverov, T. A. Keith, R. Kobayashi, J. Normand, 
 K. Raghavachari, A. P. Rendell, J. C. Burant, S. S. Iyengar, 
 J. Tomasi, M. Cossi, J. M. Millam, M. Klene, C. Adamo, R. Cammi, 
 J. W. Ochterski, R. L. Martin, K. Morokuma, O. Farkas, 
 J. B. Foresman, and D. J. Fox, Gaussian, Inc., Wallingford CT, 2019.
 
 ******************************************
 Gaussian 16:  ES64L-G16RevC.01  3-Jul-2019
                 7-Dec-2024 
 ******************************************
 Default route: SCF=Direct
 ----------------------------------------------------
 # m06/genecp scf=tight int=ultrafine 5d freq=noraman
 ----------------------------------------------------
 1/10=4,30=1,38=1/1,3;
 2/12=2,17=6,18=5,40=1/2;
 3/5=7,8=1,11=2,16=1,17=8,25=1,30=1,71=2,74=-54,75=-5,140=1/1,2,3;
 4//1;
 5/5=2,32=2,38=5,98=1/2;
 8/6=4,10=90,11=11/1;
 11/6=1,8=1,9=11,15=111,16=1/1,2,10;
 10/6=1/2;
 6/7=2,8=2,9=2,10=2,28=1/1;
 7/8=1,10=1,25=1/1,2,3,16;
 1/10=4,30=1/3;
 99//99;
 ------
 OPT-TS
 ------
 Symbolic Z-matrix:
 Charge =  0 Multiplicity = 1
 C                    -1.40955  -1.9425   -1.14911 
 C                    -2.52102   0.08336  -1.05221 
 C                    -3.67017  -0.47158  -1.59977 
 C                    -3.66925  -1.81752  -1.94663 
 C                    -2.52141  -2.55976  -1.71993 
 C                    -0.15697  -2.65854  -0.85328 
 C                     1.90782  -2.57884   0.20158 
 C                     2.27242  -3.80301  -0.32959 
 C                     1.37564  -4.47881  -1.15368 
 C                     0.14765  -3.90109  -1.41353 
 H                    -2.45061   1.14465  -0.80673 
 H                    -4.55804  -2.27911  -2.37071 
 H                    -2.50967  -3.62221  -1.9466 
 H                     2.59534  -1.99151   0.81092 
 H                     1.64872  -5.43752  -1.59163 
 H                    -0.55771  -4.39446  -2.07665 
 N                    -1.42334  -0.63373  -0.82754 
 N                     0.71944  -2.02038  -0.05341 
 Ir                    0.3332    0.11853   0.38827 
 O                     2.41082   1.55404  -1.51435 
 O                     1.92388   1.1891    2.75481 
 O                     0.76763   3.19281   0.66037 
 B                     1.94476   0.5608    1.51816 
 B                     1.67416   0.42231  -1.19732 
 B                     0.17611   2.13034   0.00424 
 O                    -0.69896   2.59144  -0.98114 
 O                     1.98962  -0.61272  -2.07593 
 C                     3.17265  -0.22975  -2.79629 
 C                     3.07269   1.31977  -2.76766 
 C                     0.43288   4.39964  -0.04016 
 C                    -0.8816    4.0008   -0.77399 
 C                     3.21158   1.01961   3.36057 
 C                     4.12987   0.8243    2.12392 
 O                     3.24758   0.151     1.21114 
 C                     4.40012   2.04917  -2.76858 
 H                     4.95757   1.8466   -3.69468 
 H                     4.22907   3.13198  -2.7048 
 H                     5.02248   1.75665  -1.91598 
 C                     2.17055   1.87429  -3.86412 
 H                     2.61815   1.76263  -4.86093 
 H                     1.19053   1.37897  -3.85645 
 H                     2.00605   2.94539  -3.68748 
 C                     4.3627   -0.76934  -2.01117 
 H                     5.31619  -0.56635  -2.51751 
 H                     4.39035  -0.3432   -0.99824 
 H                     4.2579   -1.85926  -1.91465 
 C                     3.13226  -0.85463  -4.1756 
 H                     3.9856   -0.52087  -4.78356 
 H                     3.18933  -1.94745  -4.0845 
 H                     2.20578  -0.60852  -4.70618 
 C                     3.52764   2.23904   4.20237 
 H                     2.84121   2.28823   5.05739 
 H                     4.55447   2.19197   4.59337 
 H                     3.41003   3.16204   3.62421 
 C                     3.13121  -0.22169   4.24098 
 H                     2.30778  -0.09343   4.9552 
 H                     2.91851  -1.11844   3.64154 
 H                     4.05696  -0.38998   4.80776 
 C                     4.51682   2.14065   1.4621 
 H                     5.2315    2.71351   2.06842 
 H                     4.98372   1.92167   0.49279 
 H                     3.62638   2.75516   1.26845 
 C                     5.35339  -0.03729   2.35489 
 H                     5.08118  -1.05133   2.6705 
 H                     5.93031  -0.1197    1.42401 
 H                     6.00749   0.40515   3.12002 
 C                    -2.12196   4.16093   0.09757 
 H                    -2.38882   5.21497   0.25195 
 H                    -2.97129   3.66424  -0.39431 
 H                    -1.97415   3.69241   1.08098 
 C                    -1.10155   4.67081  -2.11466 
 H                    -1.16037   5.76311  -2.00347 
 H                    -0.29655   4.43184  -2.81858 
 H                    -2.04648   4.32291  -2.55248 
 C                     1.57697   4.7105   -0.9945 
 H                     2.5098    4.76799  -0.41824 
 H                     1.69781   3.90698  -1.72917 
 H                     1.42749   5.6675   -1.51282 
 C                     0.2849    5.52346   0.96669 
 H                    -0.0535    6.44771   0.47612 
 H                    -0.42245   5.26792   1.76316 
 H                     1.25668   5.72466   1.43534 
 H                    -0.4465    0.9418    1.56787 
 C                    -3.1042   -1.35051   1.87083 
 O                    -2.64673  -2.42221   1.4838 
 C                    -4.60246  -1.09427   1.91119 
 H                    -4.90636  -0.93061   2.96027 
 H                    -4.82952  -0.15151   1.39208 
 C                    -0.86594  -0.47941   2.30005 
 H                    -0.44513  -0.08495   3.23271 
 H                    -0.63948  -1.54604   2.23375 
 N                    -2.30499  -0.32867   2.3087 
 C                    -2.8216    0.99339   2.59637 
 H                    -3.04871   1.56141   1.67654 
 H                    -3.72826   0.9527    3.20941 
 H                    -2.06631   1.55239   3.16054 
 C                    -5.41555  -2.23207   1.31749 
 H                    -5.22882  -2.27692   0.23073 
 H                    -5.0439   -3.18332   1.72005 
 C                    -6.9101   -2.09129   1.5731 
 H                    -7.42828  -2.98108   1.17955 
 H                    -7.09904  -2.0933    2.66131 
 C                    -7.54159  -0.84742   0.96057 
 H                    -7.09806   0.05862   1.40352 
 H                    -7.29429  -0.8059   -0.11259 
 C                    -9.04927  -0.81628   1.14816 
 H                    -9.31399  -0.84026   2.21476 
 H                    -9.49956   0.08483   0.71385 
 H                    -9.5238   -1.68768   0.67539 
 C                    -4.85349   0.41884  -1.80581 
 F                    -5.14588   1.10025  -0.68619 
 F                    -4.62244   1.32832  -2.7564 
 F                    -5.94199  -0.27269  -2.15766 
 C                     3.62978  -4.38311  -0.09021 
 F                     4.32095  -4.45372  -1.2376 
 F                     4.34569  -3.66217   0.7711 
 F                     3.54413  -5.63168   0.3835 
 

 GradGradGradGradGradGradGradGradGradGradGradGradGradGradGradGradGradGrad
 Berny optimization.
 Initialization pass.
 Trust Radius=3.00D-01 FncErr=1.00D-07 GrdErr=1.00D-07 EigMax=2.50D+02 EigMin=1.00D-04
 Number of steps in this run=      2 maximum allowed number of steps=      2.
 GradGradGradGradGradGradGradGradGradGradGradGradGradGradGradGradGradGrad

 Stoichiometry    C38H59B3F6IrN3O7
 Framework group  C1[X(C38H59B3F6IrN3O7)]
 Deg. of freedom   345
 Full point group                 C1      NOp   1
 Largest Abelian subgroup         C1      NOp   1
 Largest concise Abelian subgroup C1      NOp   1
                         Standard orientation:                         
 ---------------------------------------------------------------------
 Center     Atomic      Atomic             Coordinates (Angstroms)
 Number     Number       Type             X           Y           Z
 ---------------------------------------------------------------------
      1          6           0       -1.409550   -1.942500   -1.149110
      2          6           0       -2.521020    0.083361   -1.052210
      3          6           0       -3.670170   -0.471579   -1.599770
      4          6           0       -3.669250   -1.817519   -1.946630
      5          6           0       -2.521410   -2.559759   -1.719930
      6          6           0       -0.156970   -2.658540   -0.853280
      7          6           0        1.907820   -2.578840    0.201580
      8          6           0        2.272420   -3.803010   -0.329590
      9          6           0        1.375639   -4.478810   -1.153680
     10          6           0        0.147650   -3.901090   -1.413530
     11          1           0       -2.450610    1.144651   -0.806730
     12          1           0       -4.558040   -2.279109   -2.370710
     13          1           0       -2.509670   -3.622209   -1.946600
     14          1           0        2.595340   -1.991510    0.810920
     15          1           0        1.648719   -5.437520   -1.591630
     16          1           0       -0.557711   -4.394460   -2.076650
     17          7           0       -1.423340   -0.633730   -0.827540
     18          7           0        0.719440   -2.020380   -0.053410
     19         77           0        0.333200    0.118530    0.388270
     20          8           0        2.410820    1.554040   -1.514350
     21          8           0        1.923880    1.189100    2.754810
     22          8           0        0.767630    3.192810    0.660370
     23          5           0        1.944760    0.560800    1.518160
     24          5           0        1.674160    0.422310   -1.197320
     25          5           0        0.176110    2.130340    0.004240
     26          8           0       -0.698960    2.591440   -0.981140
     27          8           0        1.989620   -0.612720   -2.075930
     28          6           0        3.172650   -0.229750   -2.796290
     29          6           0        3.072690    1.319770   -2.767660
     30          6           0        0.432880    4.399640   -0.040160
     31          6           0       -0.881600    4.000800   -0.773990
     32          6           0        3.211580    1.019610    3.360570
     33          6           0        4.129870    0.824300    2.123920
     34          8           0        3.247580    0.151000    1.211140
     35          6           0        4.400120    2.049170   -2.768580
     36          1           0        4.957570    1.846600   -3.694680
     37          1           0        4.229070    3.131980   -2.704800
     38          1           0        5.022480    1.756650   -1.915980
     39          6           0        2.170550    1.874290   -3.864120
     40          1           0        2.618150    1.762630   -4.860930
     41          1           0        1.190530    1.378970   -3.856450
     42          1           0        2.006050    2.945390   -3.687480
     43          6           0        4.362700   -0.769340   -2.011170
     44          1           0        5.316190   -0.566350   -2.517510
     45          1           0        4.390350   -0.343200   -0.998240
     46          1           0        4.257900   -1.859260   -1.914650
     47          6           0        3.132260   -0.854630   -4.175600
     48          1           0        3.985600   -0.520870   -4.783560
     49          1           0        3.189330   -1.947450   -4.084500
     50          1           0        2.205780   -0.608520   -4.706180
     51          6           0        3.527640    2.239040    4.202370
     52          1           0        2.841210    2.288230    5.057390
     53          1           0        4.554470    2.191970    4.593370
     54          1           0        3.410030    3.162040    3.624210
     55          6           0        3.131210   -0.221690    4.240980
     56          1           0        2.307780   -0.093430    4.955200
     57          1           0        2.918510   -1.118440    3.641540
     58          1           0        4.056960   -0.389980    4.807760
     59          6           0        4.516820    2.140650    1.462100
     60          1           0        5.231500    2.713510    2.068420
     61          1           0        4.983720    1.921670    0.492790
     62          1           0        3.626380    2.755160    1.268450
     63          6           0        5.353390   -0.037290    2.354890
     64          1           0        5.081180   -1.051330    2.670500
     65          1           0        5.930310   -0.119700    1.424010
     66          1           0        6.007490    0.405150    3.120020
     67          6           0       -2.121960    4.160930    0.097570
     68          1           0       -2.388820    5.214971    0.251950
     69          1           0       -2.971290    3.664241   -0.394310
     70          1           0       -1.974150    3.692410    1.080980
     71          6           0       -1.101550    4.670810   -2.114660
     72          1           0       -1.160370    5.763110   -2.003470
     73          1           0       -0.296550    4.431840   -2.818580
     74          1           0       -2.046480    4.322910   -2.552480
     75          6           0        1.576970    4.710500   -0.994500
     76          1           0        2.509800    4.767990   -0.418240
     77          1           0        1.697810    3.906980   -1.729170
     78          1           0        1.427490    5.667500   -1.512820
     79          6           0        0.284900    5.523460    0.966690
     80          1           0       -0.053500    6.447710    0.476120
     81          1           0       -0.422450    5.267920    1.763160
     82          1           0        1.256680    5.724660    1.435340
     83          1           0       -0.446500    0.941800    1.567870
     84          6           0       -3.104200   -1.350509    1.870830
     85          8           0       -2.646730   -2.422209    1.483800
     86          6           0       -4.602460   -1.094269    1.911190
     87          1           0       -4.906360   -0.930609    2.960270
     88          1           0       -4.829520   -0.151509    1.392080
     89          6           0       -0.865940   -0.479410    2.300050
     90          1           0       -0.445130   -0.084950    3.232710
     91          1           0       -0.639480   -1.546040    2.233750
     92          7           0       -2.304990   -0.328669    2.308700
     93          6           0       -2.821600    0.993391    2.596370
     94          1           0       -3.048710    1.561411    1.676540
     95          1           0       -3.728260    0.952701    3.209410
     96          1           0       -2.066310    1.552390    3.160540
     97          6           0       -5.415550   -2.232069    1.317490
     98          1           0       -5.228820   -2.276919    0.230730
     99          1           0       -5.043900   -3.183319    1.720050
    100          6           0       -6.910100   -2.091289    1.573100
    101          1           0       -7.428280   -2.981079    1.179550
    102          1           0       -7.099040   -2.093299    2.661310
    103          6           0       -7.541590   -0.847419    0.960570
    104          1           0       -7.098060    0.058621    1.403520
    105          1           0       -7.294290   -0.805899   -0.112590
    106          6           0       -9.049270   -0.816279    1.148160
    107          1           0       -9.313990   -0.840259    2.214760
    108          1           0       -9.499560    0.084831    0.713850
    109          1           0       -9.523800   -1.687679    0.675390
    110          6           0       -4.853490    0.418841   -1.805810
    111          9           0       -5.145880    1.100251   -0.686190
    112          9           0       -4.622440    1.328321   -2.756400
    113          9           0       -5.941990   -0.272689   -2.157660
    114          6           0        3.629779   -4.383110   -0.090210
    115          9           0        4.320949   -4.453720   -1.237600
    116          9           0        4.345690   -3.662170    0.771100
    117          9           0        3.544129   -5.631680    0.383500
 ---------------------------------------------------------------------
 Rotational constants (GHZ):           0.0582623           0.0364340           0.0313390
 General basis read from cards:  (5D, 7F)
 ======================================================================================================
                                       Pseudopotential Parameters
 ======================================================================================================
  Center     Atomic      Valence      Angular      Power
  Number     Number     Electrons     Momentum     of R      Exponent        Coefficient   SO-Coeffient
 ======================================================================================================
    1          6
                                   No pseudopotential on this center.
    2          6
                                   No pseudopotential on this center.
    3          6
                                   No pseudopotential on this center.
    4          6
                                   No pseudopotential on this center.
    5          6
                                   No pseudopotential on this center.
    6          6
                                   No pseudopotential on this center.
    7          6
                                   No pseudopotential on this center.
    8          6
                                   No pseudopotential on this center.
    9          6
                                   No pseudopotential on this center.
   10          6
                                   No pseudopotential on this center.
   11          1
                                   No pseudopotential on this center.
   12          1
                                   No pseudopotential on this center.
   13          1
                                   No pseudopotential on this center.
   14          1
                                   No pseudopotential on this center.
   15          1
                                   No pseudopotential on this center.
   16          1
                                   No pseudopotential on this center.
   17          7
                                   No pseudopotential on this center.
   18          7
                                   No pseudopotential on this center.
   19         77           17
                                      G and up 
                                                     1      823.5880147       -0.15780140    0.00000000
                                                     2      364.6613336    -1517.52704460    0.00000000
                                                     2       55.7082801     -316.53065290    0.00000000
                                                     2       12.0464544      -91.88809410    0.00000000
                                                     2        3.5120610       -9.22417730    0.00000000
                                      S - G
                                                     0      188.0490770        3.15780140    0.00000000
                                                     1      340.4194712       26.83225770    0.00000000
                                                     2      128.2373673      800.42500070    0.00000000
                                                     2       33.8644961      369.40506830    0.00000000
                                                     2        4.7560005      242.41718990    0.00000000
                                                     2        3.9649974     -118.21732820    0.00000000
                                      P - G
                                                     0      289.7291139        2.15780140    0.00000000
                                                     1       87.4633789       61.96786100    0.00000000
                                                     2       30.4363766      269.05819860    0.00000000
                                                     2        4.0553412      231.16547930    0.00000000
                                                     2        3.5525341     -133.69526670    0.00000000
                                      D - G
                                                     0      136.4017106        3.15780140    0.00000000
                                                     1       95.0776925       45.93498030    0.00000000
                                                     2       49.2258410      359.03446680    0.00000000
                                                     2       15.0874145      176.47401190    0.00000000
                                                     2        4.0405764       54.51552860    0.00000000
                                      F - G
                                                     0      127.3507908        3.95461970    0.00000000
                                                     1       66.2364374       52.97736550    0.00000000
                                                     2       34.4299229      274.86433830    0.00000000
                                                     2       10.1995721      137.20473380    0.00000000
                                                     2        2.5409702       14.86333050    0.00000000
   20          8
                                   No pseudopotential on this center.
   21          8
                                   No pseudopotential on this center.
   22          8
                                   No pseudopotential on this center.
   23          5
                                   No pseudopotential on this center.
   24          5
                                   No pseudopotential on this center.
   25          5
                                   No pseudopotential on this center.
   26          8
                                   No pseudopotential on this center.
   27          8
                                   No pseudopotential on this center.
   28          6
                                   No pseudopotential on this center.
   29          6
                                   No pseudopotential on this center.
   30          6
                                   No pseudopotential on this center.
   31          6
                                   No pseudopotential on this center.
   32          6
                                   No pseudopotential on this center.
   33          6
                                   No pseudopotential on this center.
   34          8
                                   No pseudopotential on this center.
   35          6
                                   No pseudopotential on this center.
   36          1
                                   No pseudopotential on this center.
   37          1
                                   No pseudopotential on this center.
   38          1
                                   No pseudopotential on this center.
   39          6
                                   No pseudopotential on this center.
   40          1
                                   No pseudopotential on this center.
   41          1
                                   No pseudopotential on this center.
   42          1
                                   No pseudopotential on this center.
   43          6
                                   No pseudopotential on this center.
   44          1
                                   No pseudopotential on this center.
   45          1
                                   No pseudopotential on this center.
   46          1
                                   No pseudopotential on this center.
   47          6
                                   No pseudopotential on this center.
   48          1
                                   No pseudopotential on this center.
   49          1
                                   No pseudopotential on this center.
   50          1
                                   No pseudopotential on this center.
   51          6
                                   No pseudopotential on this center.
   52          1
                                   No pseudopotential on this center.
   53          1
                                   No pseudopotential on this center.
   54          1
                                   No pseudopotential on this center.
   55          6
                                   No pseudopotential on this center.
   56          1
                                   No pseudopotential on this center.
   57          1
                                   No pseudopotential on this center.
   58          1
                                   No pseudopotential on this center.
   59          6
                                   No pseudopotential on this center.
   60          1
                                   No pseudopotential on this center.
   61          1
                                   No pseudopotential on this center.
   62          1
                                   No pseudopotential on this center.
   63          6
                                   No pseudopotential on this center.
   64          1
                                   No pseudopotential on this center.
   65          1
                                   No pseudopotential on this center.
   66          1
                                   No pseudopotential on this center.
   67          6
                                   No pseudopotential on this center.
   68          1
                                   No pseudopotential on this center.
   69          1
                                   No pseudopotential on this center.
   70          1
                                   No pseudopotential on this center.
   71          6
                                   No pseudopotential on this center.
   72          1
                                   No pseudopotential on this center.
   73          1
                                   No pseudopotential on this center.
   74          1
                                   No pseudopotential on this center.
   75          6
                                   No pseudopotential on this center.
   76          1
                                   No pseudopotential on this center.
   77          1
                                   No pseudopotential on this center.
   78          1
                                   No pseudopotential on this center.
   79          6
                                   No pseudopotential on this center.
   80          1
                                   No pseudopotential on this center.
   81          1
                                   No pseudopotential on this center.
   82          1
                                   No pseudopotential on this center.
   83          1
                                   No pseudopotential on this center.
   84          6
                                   No pseudopotential on this center.
   85          8
                                   No pseudopotential on this center.
   86          6
                                   No pseudopotential on this center.
   87          1
                                   No pseudopotential on this center.
   88          1
                                   No pseudopotential on this center.
   89          6
                                   No pseudopotential on this center.
   90          1
                                   No pseudopotential on this center.
   91          1
                                   No pseudopotential on this center.
   92          7
                                   No pseudopotential on this center.
   93          6
                                   No pseudopotential on this center.
   94          1
                                   No pseudopotential on this center.
   95          1
                                   No pseudopotential on this center.
   96          1
                                   No pseudopotential on this center.
   97          6
                                   No pseudopotential on this center.
   98          1
                                   No pseudopotential on this center.
   99          1
                                   No pseudopotential on this center.
  100          6
                                   No pseudopotential on this center.
  101          1
                                   No pseudopotential on this center.
  102          1
                                   No pseudopotential on this center.
  103          6
                                   No pseudopotential on this center.
  104          1
                                   No pseudopotential on this center.
  105          1
                                   No pseudopotential on this center.
  106          6
                                   No pseudopotential on this center.
  107          1
                                   No pseudopotential on this center.
  108          1
                                   No pseudopotential on this center.
  109          1
                                   No pseudopotential on this center.
  110          6
                                   No pseudopotential on this center.
  111          9
                                   No pseudopotential on this center.
  112          9
                                   No pseudopotential on this center.
  113          9
                                   No pseudopotential on this center.
  114          6
                                   No pseudopotential on this center.
  115          9
                                   No pseudopotential on this center.
  116          9
                                   No pseudopotential on this center.
  117          9
                                   No pseudopotential on this center.
 ======================================================================================================
 There are   997 symmetry adapted cartesian basis functions of A   symmetry.
 There are   938 symmetry adapted basis functions of A   symmetry.
   938 basis functions,  1875 primitive gaussians,   997 cartesian basis functions
   225 alpha electrons      225 beta electrons
       nuclear repulsion energy     10473.0518342775 Hartrees.
 NAtoms=  117 NActive=  117 NUniq=  117 SFac= 1.00D+00 NAtFMM=   60 NAOKFM=T Big=T
 Integral buffers will be    131072 words long.
 Raffenetti 2 integral format.
 Two-electron integral symmetry is turned on.
 One-electron integrals computed using PRISM.
   1 Symmetry operations used in ECPInt.
 ECPInt:  NShTT=   62835 NPrTT=  387974 LenC2=   44735 LenP2D=  136564.
 LDataN:  DoStor=T MaxTD1= 6 Len=  172
 NBasis=   938 RedAO= T EigKep=  4.59D-04  NBF=   938
 NBsUse=   938 1.00D-06 EigRej= -1.00D+00 NBFU=   938
 Defaulting to unpruned grid for atomic number  77.
 ExpMin= 2.90D-02 ExpMax= 7.00D+03 ExpMxC= 1.05D+03 IAcc=3 IRadAn=         5 AccDes= 0.00D+00
 Harris functional with IExCor= 1009 and IRadAn=       5 diagonalized for initial guess.
 HarFok:  IExCor= 1009 AccDes= 0.00D+00 IRadAn=         5 IDoV= 1 UseB2=F ITyADJ=14
 ICtDFT=  3500011 ScaDFX=  1.000000  1.000000  1.000000  1.000000
 Defaulting to unpruned grid for atomic number  77.
 FoFCou: FMM=F IPFlag=           0 FMFlag=      100000 FMFlg1=        2001
         NFxFlg=           0 DoJE=T BraDBF=F KetDBF=T FulRan=T
         wScrn=  0.000000 ICntrl=       500 IOpCl=  0 I1Cent=   200000004 NGrid=           0
         NMat0=    1 NMatS0=      1 NMatT0=    0 NMatD0=    1 NMtDS0=    0 NMtDT0=    0
 Petite list used in FoFCou.
 Requested convergence on RMS density matrix=1.00D-08 within 128 cycles.
 Requested convergence on MAX density matrix=1.00D-06.
 Requested convergence on             energy=1.00D-06.
 No special actions if energy rises.
 Defaulting to unpruned grid for atomic number  77.
 Defaulting to unpruned grid for atomic number  77.
 Defaulting to unpruned grid for atomic number  77.
 Defaulting to unpruned grid for atomic number  77.
 Defaulting to unpruned grid for atomic number  77.
 Defaulting to unpruned grid for atomic number  77.
 Defaulting to unpruned grid for atomic number  77.
 Defaulting to unpruned grid for atomic number  77.
 Defaulting to unpruned grid for atomic number  77.
 Defaulting to unpruned grid for atomic number  77.
 Defaulting to unpruned grid for atomic number  77.
 Defaulting to unpruned grid for atomic number  77.
 Defaulting to unpruned grid for atomic number  77.
 Defaulting to unpruned grid for atomic number  77.
 Defaulting to unpruned grid for atomic number  77.
 Defaulting to unpruned grid for atomic number  77.
 SCF Done:  E(RM06) =  -2951.38063774     A.U. after   15 cycles
            NFock= 15  Conv=0.73D-08     -V/T= 2.0310
 DoSCS=F DFT=T ScalE2(SS,OS)=  1.000000  1.000000
 Range of M.O.s used for correlation:     1   938
 NBasis=   938 NAE=   225 NBE=   225 NFC=     0 NFV=     0
 NROrb=    938 NOA=   225 NOB=   225 NVA=   713 NVB=   713

 **** Warning!!: The largest alpha MO coefficient is  0.12156254D+02

   1 Symmetry operations used in ECPInt.
 ECPInt:  NShTT=   62835 NPrTT=  387974 LenC2=   44735 LenP2D=  136564.
 LDataN:  DoStor=T MaxTD1= 7 Len=  274
 Number of processors reduced to   6 by ecpmxn.
 Symmetrizing basis deriv contribution to polar:
 IMax=3 JMax=2 DiffMx= 0.00D+00
 G2DrvN: will do   118 centers at a time, making    1 passes.
 Calling FoFCou, ICntrl=  3107 FMM=T I1Cent=   0 AccDes= 0.00D+00.
 Defaulting to unpruned grid for atomic number  77.
 Defaulting to unpruned grid for atomic number  77.
 Defaulting to unpruned grid for atomic number  77.
 Defaulting to unpruned grid for atomic number  77.
 Defaulting to unpruned grid for atomic number  77.
 Defaulting to unpruned grid for atomic number  77.
 Defaulting to unpruned grid for atomic number  77.
 Defaulting to unpruned grid for atomic number  77.
 Defaulting to unpruned grid for atomic number  77.
 Defaulting to unpruned grid for atomic number  77.
 Defaulting to unpruned grid for atomic number  77.
 Defaulting to unpruned grid for atomic number  77.
 Defaulting to unpruned grid for atomic number  77.
 Defaulting to unpruned grid for atomic number  77.
 Defaulting to unpruned grid for atomic number  77.
 Defaulting to unpruned grid for atomic number  77.
 End of G2Drv F.D. properties file   721 does not exist.
 End of G2Drv F.D. properties file   722 does not exist.
 End of G2Drv F.D. properties file   788 does not exist.
          IDoAtm=11111111111111111111111111111111111111111111111111
          IDoAtm=11111111111111111111111111111111111111111111111111
          IDoAtm=11111111111111111
          Differentiating once with respect to electric field.
                with respect to dipole field.
          Differentiating once with respect to nuclear coordinates.
 Defaulting to unpruned grid for atomic number  77.
 CalDSu exits because no D1Ps are significant.
 Defaulting to unpruned grid for atomic number  77.
 Defaulting to unpruned grid for atomic number  77.
 Defaulting to unpruned grid for atomic number  77.
 Defaulting to unpruned grid for atomic number  77.
 Defaulting to unpruned grid for atomic number  77.
 Defaulting to unpruned grid for atomic number  77.
 Defaulting to unpruned grid for atomic number  77.
 Defaulting to unpruned grid for atomic number  77.
 Defaulting to unpruned grid for atomic number  77.
 Defaulting to unpruned grid for atomic number  77.
 Defaulting to unpruned grid for atomic number  77.
 Defaulting to unpruned grid for atomic number  77.
 Defaulting to unpruned grid for atomic number  77.
 Defaulting to unpruned grid for atomic number  77.
 Defaulting to unpruned grid for atomic number  77.
 Defaulting to unpruned grid for atomic number  77.
          There are   354 degrees of freedom in the 1st order CPHF.  IDoFFX=6 NUNeed=     3.
    351 vectors produced by pass  0 Test12= 1.60D-13 1.00D-09 XBig12= 5.06D+02 9.47D+00.
 AX will form    72 AO Fock derivatives at one time.
    351 vectors produced by pass  1 Test12= 1.60D-13 1.00D-09 XBig12= 8.60D+01 1.07D+00.
    351 vectors produced by pass  2 Test12= 1.60D-13 1.00D-09 XBig12= 9.77D-01 7.96D-02.
    351 vectors produced by pass  3 Test12= 1.60D-13 1.00D-09 XBig12= 6.62D-03 5.80D-03.
    351 vectors produced by pass  4 Test12= 1.60D-13 1.00D-09 XBig12= 2.64D-05 2.64D-04.
    311 vectors produced by pass  5 Test12= 1.60D-13 1.00D-09 XBig12= 5.37D-08 1.06D-05.
     82 vectors produced by pass  6 Test12= 1.60D-13 1.00D-09 XBig12= 7.87D-11 5.29D-07.
      3 vectors produced by pass  7 Test12= 1.60D-13 1.00D-09 XBig12= 1.04D-13 2.00D-08.
 InvSVY:  IOpt=1 It=  1 EMax= 1.01D-14
 Solved reduced A of dimension  2151 with   354 vectors.
 Isotropic polarizability for W=    0.000000      523.81 Bohr**3.
 End of Minotr F.D. properties file   721 does not exist.
 End of Minotr F.D. properties file   722 does not exist.
 End of Minotr F.D. properties file   788 does not exist.
 Hyperfine terms turned off by default for NAtoms > 100.

 **********************************************************************

            Population analysis using the SCF Density.

 **********************************************************************

 Orbital symmetries:
       Occupied  (A) (A) (A) (A) (A) (A) (A) (A) (A) (A) (A) (A)
                 (A) (A) (A) (A) (A) (A) (A) (A) (A) (A) (A) (A)
                 (A) (A) (A) (A) (A) (A) (A) (A) (A) (A) (A) (A)
                 (A) (A) (A) (A) (A) (A) (A) (A) (A) (A) (A) (A)
                 (A) (A) (A) (A) (A) (A) (A) (A) (A) (A) (A) (A)
                 (A) (A) (A) (A) (A) (A) (A) (A) (A) (A) (A) (A)
                 (A) (A) (A) (A) (A) (A) (A) (A) (A) (A) (A) (A)
                 (A) (A) (A) (A) (A) (A) (A) (A) (A) (A) (A) (A)
                 (A) (A) (A) (A) (A) (A) (A) (A) (A) (A) (A) (A)
                 (A) (A) (A) (A) (A) (A) (A) (A) (A) (A) (A) (A)
                 (A) (A) (A) (A) (A) (A) (A) (A) (A) (A) (A) (A)
                 (A) (A) (A) (A) (A) (A) (A) (A) (A) (A) (A) (A)
                 (A) (A) (A) (A) (A) (A) (A) (A) (A) (A) (A) (A)
                 (A) (A) (A) (A) (A) (A) (A) (A) (A) (A) (A) (A)
                 (A) (A) (A) (A) (A) (A) (A) (A) (A) (A) (A) (A)
                 (A) (A) (A) (A) (A) (A) (A) (A) (A) (A) (A) (A)
                 (A) (A) (A) (A) (A) (A) (A) (A) (A) (A) (A) (A)
                 (A) (A) (A) (A) (A) (A) (A) (A) (A) (A) (A) (A)
                 (A) (A) (A) (A) (A) (A) (A) (A) (A)
       Virtual   (A) (A) (A) (A) (A) (A) (A) (A) (A) (A) (A) (A)
                 (A) (A) (A) (A) (A) (A) (A) (A) (A) (A) (A) (A)
                 (A) (A) (A) (A) (A) (A) (A) (A) (A) (A) (A) (A)
                 (A) (A) (A) (A) (A) (A) (A) (A) (A) (A) (A) (A)
                 (A) (A) (A) (A) (A) (A) (A) (A) (A) (A) (A) (A)
                 (A) (A) (A) (A) (A) (A) (A) (A) (A) (A) (A) (A)
                 (A) (A) (A) (A) (A) (A) (A) (A) (A) (A) (A) (A)
                 (A) (A) (A) (A) (A) (A) (A) (A) (A) (A) (A) (A)
                 (A) (A) (A) (A) (A) (A) (A) (A) (A) (A) (A) (A)
                 (A) (A) (A) (A) (A) (A) (A) (A) (A) (A) (A) (A)
                 (A) (A) (A) (A) (A) (A) (A) (A) (A) (A) (A) (A)
                 (A) (A) (A) (A) (A) (A) (A) (A) (A) (A) (A) (A)
                 (A) (A) (A) (A) (A) (A) (A) (A) (A) (A) (A) (A)
                 (A) (A) (A) (A) (A) (A) (A) (A) (A) (A) (A) (A)
                 (A) (A) (A) (A) (A) (A) (A) (A) (A) (A) (A) (A)
                 (A) (A) (A) (A) (A) (A) (A) (A) (A) (A) (A) (A)
                 (A) (A) (A) (A) (A) (A) (A) (A) (A) (A) (A) (A)
                 (A) (A) (A) (A) (A) (A) (A) (A) (A) (A) (A) (A)
                 (A) (A) (A) (A) (A) (A) (A) (A) (A) (A) (A) (A)
                 (A) (A) (A) (A) (A) (A) (A) (A) (A) (A) (A) (A)
                 (A) (A) (A) (A) (A) (A) (A) (A) (A) (A) (A) (A)
                 (A) (A) (A) (A) (A) (A) (A) (A) (A) (A) (A) (A)
                 (A) (A) (A) (A) (A) (A) (A) (A) (A) (A) (A) (A)
                 (A) (A) (A) (A) (A) (A) (A) (A) (A) (A) (A) (A)
                 (A) (A) (A) (A) (A) (A) (A) (A) (A) (A) (A) (A)
                 (A) (A) (A) (A) (A) (A) (A) (A) (A) (A) (A) (A)
                 (A) (A) (A) (A) (A) (A) (A) (A) (A) (A) (A) (A)
                 (A) (A) (A) (A) (A) (A) (A) (A) (A) (A) (A) (A)
                 (A) (A) (A) (A) (A) (A) (A) (A) (A) (A) (A) (A)
                 (A) (A) (A) (A) (A) (A) (A) (A) (A) (A) (A) (A)
                 (A) (A) (A) (A) (A) (A) (A) (A) (A) (A) (A) (A)
                 (A) (A) (A) (A) (A) (A) (A) (A) (A) (A) (A) (A)
                 (A) (A) (A) (A) (A) (A) (A) (A) (A) (A) (A) (A)
                 (A) (A) (A) (A) (A) (A) (A) (A) (A) (A) (A) (A)
                 (A) (A) (A) (A) (A) (A) (A) (A) (A) (A) (A) (A)
                 (A) (A) (A) (A) (A) (A) (A) (A) (A) (A) (A) (A)
                 (A) (A) (A) (A) (A) (A) (A) (A) (A) (A) (A) (A)
                 (A) (A) (A) (A) (A) (A) (A) (A) (A) (A) (A) (A)
                 (A) (A) (A) (A) (A) (A) (A) (A) (A) (A) (A) (A)
                 (A) (A) (A) (A) (A) (A) (A) (A) (A) (A) (A) (A)
                 (A) (A) (A) (A) (A) (A) (A) (A) (A) (A) (A) (A)
                 (A) (A) (A) (A) (A) (A) (A) (A) (A) (A) (A) (A)
                 (A) (A) (A) (A) (A) (A) (A) (A) (A) (A) (A) (A)
                 (A) (A) (A) (A) (A) (A) (A) (A) (A) (A) (A) (A)
                 (A) (A) (A) (A) (A) (A) (A) (A) (A) (A) (A) (A)
                 (A) (A) (A) (A) (A) (A) (A) (A) (A) (A) (A) (A)
                 (A) (A) (A) (A) (A) (A) (A) (A) (A) (A) (A) (A)
                 (A) (A) (A) (A) (A) (A) (A) (A) (A) (A) (A) (A)
                 (A) (A) (A) (A) (A) (A) (A) (A) (A) (A) (A) (A)
                 (A) (A) (A) (A) (A) (A) (A) (A) (A) (A) (A) (A)
                 (A) (A) (A) (A) (A) (A) (A) (A) (A) (A) (A) (A)
                 (A) (A) (A) (A) (A) (A) (A) (A) (A) (A) (A) (A)
                 (A) (A) (A) (A) (A) (A) (A) (A) (A) (A) (A) (A)
                 (A) (A) (A) (A) (A) (A) (A) (A) (A) (A) (A) (A)
                 (A) (A) (A) (A) (A) (A) (A) (A) (A) (A) (A) (A)
                 (A) (A) (A) (A) (A) (A) (A) (A) (A) (A) (A) (A)
                 (A) (A) (A) (A) (A) (A) (A) (A) (A) (A) (A) (A)
                 (A) (A) (A) (A) (A) (A) (A) (A) (A) (A) (A) (A)
                 (A) (A) (A) (A) (A) (A) (A) (A) (A) (A) (A) (A)
                 (A) (A) (A) (A) (A)
 The electronic state is 1-A.
 Alpha  occ. eigenvalues --  -24.84109 -24.83635 -24.83283 -24.83255 -24.82812
 Alpha  occ. eigenvalues --  -24.82746 -19.20634 -19.20396 -19.20316 -19.20266
 Alpha  occ. eigenvalues --  -19.20109 -19.19744 -19.18271 -14.45807 -14.45404
 Alpha  occ. eigenvalues --  -14.42203 -10.52100 -10.51464 -10.33825 -10.33024
 Alpha  occ. eigenvalues --  -10.32952 -10.31547 -10.31427 -10.30174 -10.30087
 Alpha  occ. eigenvalues --  -10.29851 -10.29674 -10.29492 -10.29369 -10.29304
 Alpha  occ. eigenvalues --  -10.29268 -10.29166 -10.29147 -10.29107 -10.29044
 Alpha  occ. eigenvalues --  -10.27657 -10.26254 -10.24654 -10.23669 -10.23644
 Alpha  occ. eigenvalues --  -10.23603 -10.23217 -10.22985 -10.22982 -10.22949
 Alpha  occ. eigenvalues --  -10.22806 -10.22771 -10.22676 -10.22565 -10.22439
 Alpha  occ. eigenvalues --  -10.22429 -10.22042 -10.21788 -10.21747  -6.80785
 Alpha  occ. eigenvalues --   -6.79775  -6.79190  -3.63798  -2.06368  -2.05791
 Alpha  occ. eigenvalues --   -2.05007  -1.36457  -1.35830  -1.28032  -1.27417
 Alpha  occ. eigenvalues --   -1.27359  -1.26790  -1.06426  -1.06225  -1.06023
 Alpha  occ. eigenvalues --   -1.04040  -1.01067  -0.99449  -0.99310  -0.99063
 Alpha  occ. eigenvalues --   -0.98604  -0.93816  -0.86933  -0.86101  -0.84366
 Alpha  occ. eigenvalues --   -0.81617  -0.80736  -0.80571  -0.80411  -0.80138
 Alpha  occ. eigenvalues --   -0.76923  -0.75976  -0.74999  -0.74904  -0.74639
 Alpha  occ. eigenvalues --   -0.72829  -0.71873  -0.71074  -0.70566  -0.70393
 Alpha  occ. eigenvalues --   -0.70163  -0.69502  -0.69038  -0.67698  -0.67685
 Alpha  occ. eigenvalues --   -0.67481  -0.66678  -0.66625  -0.65571  -0.62540
 Alpha  occ. eigenvalues --   -0.62415  -0.62092  -0.61812  -0.61714  -0.61621
 Alpha  occ. eigenvalues --   -0.61467  -0.61232  -0.60974  -0.60525  -0.57368
 Alpha  occ. eigenvalues --   -0.57058  -0.54853  -0.54787  -0.54625  -0.54362
 Alpha  occ. eigenvalues --   -0.53950  -0.53324  -0.53210  -0.53026  -0.51869
 Alpha  occ. eigenvalues --   -0.50695  -0.50166  -0.49921  -0.49819  -0.49342
 Alpha  occ. eigenvalues --   -0.49212  -0.48925  -0.48472  -0.48080  -0.47727
 Alpha  occ. eigenvalues --   -0.47532  -0.47287  -0.46950  -0.46665  -0.46537
 Alpha  occ. eigenvalues --   -0.46351  -0.46256  -0.46173  -0.46081  -0.45896
 Alpha  occ. eigenvalues --   -0.45740  -0.45342  -0.45126  -0.44914  -0.44640
 Alpha  occ. eigenvalues --   -0.44482  -0.44359  -0.44238  -0.43832  -0.43772
 Alpha  occ. eigenvalues --   -0.43623  -0.43438  -0.43329  -0.43218  -0.43122
 Alpha  occ. eigenvalues --   -0.43083  -0.42069  -0.41263  -0.40656  -0.40474
 Alpha  occ. eigenvalues --   -0.40195  -0.40152  -0.40110  -0.40098  -0.40044
 Alpha  occ. eigenvalues --   -0.39886  -0.39838  -0.39830  -0.39579  -0.39501
 Alpha  occ. eigenvalues --   -0.39258  -0.39144  -0.38889  -0.38767  -0.38466
 Alpha  occ. eigenvalues --   -0.38030  -0.37679  -0.37593  -0.37326  -0.37185
 Alpha  occ. eigenvalues --   -0.36762  -0.36614  -0.36544  -0.36398  -0.36271
 Alpha  occ. eigenvalues --   -0.36027  -0.35909  -0.35687  -0.35616  -0.35015
 Alpha  occ. eigenvalues --   -0.34834  -0.34718  -0.34710  -0.34160  -0.33617
 Alpha  occ. eigenvalues --   -0.33338  -0.33027  -0.32784  -0.32586  -0.32254
 Alpha  occ. eigenvalues --   -0.32122  -0.31884  -0.31789  -0.31604  -0.31104
 Alpha  occ. eigenvalues --   -0.30498  -0.30058  -0.29995  -0.28551  -0.28087
 Alpha  occ. eigenvalues --   -0.27310  -0.26867  -0.26604  -0.26242  -0.26109
 Alpha  occ. eigenvalues --   -0.25463  -0.25277  -0.23394  -0.22925  -0.19335
 Alpha virt. eigenvalues --   -0.08464  -0.04715  -0.04122  -0.00643   0.02127
 Alpha virt. eigenvalues --    0.03080   0.04432   0.05626   0.06497   0.07120
 Alpha virt. eigenvalues --    0.07476   0.08179   0.09007   0.09156   0.09517
 Alpha virt. eigenvalues --    0.09798   0.10205   0.10529   0.11193   0.11403
 Alpha virt. eigenvalues --    0.11558   0.11865   0.11970   0.12303   0.12483
 Alpha virt. eigenvalues --    0.12699   0.13090   0.13387   0.13645   0.13821
 Alpha virt. eigenvalues --    0.13994   0.14199   0.14321   0.14398   0.14637
 Alpha virt. eigenvalues --    0.15094   0.15405   0.15585   0.15609   0.15914
 Alpha virt. eigenvalues --    0.15984   0.16096   0.16324   0.16474   0.16712
 Alpha virt. eigenvalues --    0.16845   0.17147   0.17530   0.17650   0.17888
 Alpha virt. eigenvalues --    0.17988   0.18337   0.18608   0.18760   0.18842
 Alpha virt. eigenvalues --    0.18998   0.19101   0.19221   0.19432   0.19608
 Alpha virt. eigenvalues --    0.19663   0.19901   0.20258   0.20333   0.20456
 Alpha virt. eigenvalues --    0.20542   0.20639   0.20821   0.21176   0.21267
 Alpha virt. eigenvalues --    0.21625   0.21803   0.21967   0.22158   0.22327
 Alpha virt. eigenvalues --    0.22362   0.22495   0.22735   0.22811   0.23076
 Alpha virt. eigenvalues --    0.23588   0.23648   0.23811   0.24426   0.24524
 Alpha virt. eigenvalues --    0.24696   0.24803   0.24950   0.25288   0.25423
 Alpha virt. eigenvalues --    0.25603   0.25843   0.26179   0.26376   0.26450
 Alpha virt. eigenvalues --    0.26754   0.26907   0.27237   0.27309   0.27582
 Alpha virt. eigenvalues --    0.27799   0.27968   0.28239   0.28684   0.29357
 Alpha virt. eigenvalues --    0.29396   0.30217   0.30604   0.31136   0.31552
 Alpha virt. eigenvalues --    0.31767   0.31891   0.32117   0.32954   0.34039
 Alpha virt. eigenvalues --    0.34372   0.34808   0.35677   0.35772   0.36334
 Alpha virt. eigenvalues --    0.36649   0.37240   0.37657   0.38242   0.39104
 Alpha virt. eigenvalues --    0.40021   0.40314   0.41124   0.41525   0.43961
 Alpha virt. eigenvalues --    0.44694   0.44938   0.46173   0.46505   0.46816
 Alpha virt. eigenvalues --    0.47390   0.48346   0.48805   0.49244   0.50011
 Alpha virt. eigenvalues --    0.50215   0.50717   0.50833   0.51067   0.51431
 Alpha virt. eigenvalues --    0.51603   0.51831   0.52425   0.52513   0.52825
 Alpha virt. eigenvalues --    0.53465   0.53684   0.53958   0.54535   0.54593
 Alpha virt. eigenvalues --    0.54809   0.55080   0.55575   0.56025   0.56139
 Alpha virt. eigenvalues --    0.56475   0.56607   0.57141   0.57504   0.57762
 Alpha virt. eigenvalues --    0.57911   0.57924   0.58240   0.58433   0.58599
 Alpha virt. eigenvalues --    0.58888   0.58988   0.59433   0.59694   0.59772
 Alpha virt. eigenvalues --    0.60268   0.60398   0.61032   0.61302   0.61630
 Alpha virt. eigenvalues --    0.61687   0.62095   0.62381   0.62770   0.63036
 Alpha virt. eigenvalues --    0.63679   0.63974   0.64366   0.64507   0.65557
 Alpha virt. eigenvalues --    0.65688   0.65970   0.66066   0.66364   0.66726
 Alpha virt. eigenvalues --    0.66945   0.67132   0.67405   0.67780   0.68114
 Alpha virt. eigenvalues --    0.68315   0.68547   0.68812   0.69123   0.69828
 Alpha virt. eigenvalues --    0.70111   0.70582   0.70647   0.70993   0.71190
 Alpha virt. eigenvalues --    0.71620   0.72073   0.72405   0.72481   0.72773
 Alpha virt. eigenvalues --    0.72973   0.73244   0.73759   0.73819   0.74175
 Alpha virt. eigenvalues --    0.74685   0.74863   0.74985   0.75118   0.75489
 Alpha virt. eigenvalues --    0.76113   0.76665   0.77187   0.77701   0.78183
 Alpha virt. eigenvalues --    0.78594   0.78693   0.79224   0.79378   0.79886
 Alpha virt. eigenvalues --    0.80103   0.80522   0.81029   0.81683   0.82221
 Alpha virt. eigenvalues --    0.82494   0.82609   0.82975   0.83288   0.83599
 Alpha virt. eigenvalues --    0.83748   0.83894   0.83940   0.84252   0.84528
 Alpha virt. eigenvalues --    0.84858   0.85219   0.85477   0.85653   0.85811
 Alpha virt. eigenvalues --    0.85960   0.86403   0.86690   0.86899   0.87131
 Alpha virt. eigenvalues --    0.87587   0.87674   0.87769   0.88113   0.88562
 Alpha virt. eigenvalues --    0.88640   0.88870   0.88978   0.89191   0.89484
 Alpha virt. eigenvalues --    0.89542   0.89726   0.89918   0.90015   0.90227
 Alpha virt. eigenvalues --    0.90418   0.90582   0.91067   0.91352   0.91562
 Alpha virt. eigenvalues --    0.91773   0.92009   0.92444   0.92795   0.93180
 Alpha virt. eigenvalues --    0.93260   0.93542   0.93813   0.94234   0.94450
 Alpha virt. eigenvalues --    0.94628   0.94742   0.95055   0.95123   0.95379
 Alpha virt. eigenvalues --    0.95612   0.95999   0.96414   0.96536   0.96961
 Alpha virt. eigenvalues --    0.97696   0.97939   0.98295   0.98825   0.98959
 Alpha virt. eigenvalues --    0.99334   0.99521   1.00497   1.00730   1.00985
 Alpha virt. eigenvalues --    1.01897   1.02087   1.02619   1.02994   1.03549
 Alpha virt. eigenvalues --    1.04109   1.04577   1.04738   1.05255   1.05536
 Alpha virt. eigenvalues --    1.05778   1.06644   1.06723   1.07996   1.08217
 Alpha virt. eigenvalues --    1.08914   1.09284   1.09758   1.09995   1.10744
 Alpha virt. eigenvalues --    1.11201   1.11727   1.12126   1.12887   1.13334
 Alpha virt. eigenvalues --    1.13834   1.14035   1.14400   1.14781   1.15229
 Alpha virt. eigenvalues --    1.16206   1.16626   1.16755   1.17686   1.17974
 Alpha virt. eigenvalues --    1.18556   1.18911   1.19515   1.19729   1.20230
 Alpha virt. eigenvalues --    1.20727   1.21047   1.21200   1.21557   1.22424
 Alpha virt. eigenvalues --    1.22579   1.23404   1.23837   1.24558   1.25290
 Alpha virt. eigenvalues --    1.25598   1.26199   1.26666   1.26987   1.27375
 Alpha virt. eigenvalues --    1.28127   1.28389   1.28709   1.29107   1.30659
 Alpha virt. eigenvalues --    1.30857   1.31680   1.33447   1.33815   1.33910
 Alpha virt. eigenvalues --    1.34183   1.34401   1.34572   1.34805   1.35377
 Alpha virt. eigenvalues --    1.35650   1.35826   1.36373   1.36942   1.37485
 Alpha virt. eigenvalues --    1.38119   1.38529   1.38738   1.39656   1.40048
 Alpha virt. eigenvalues --    1.40547   1.40767   1.41045   1.41425   1.41961
 Alpha virt. eigenvalues --    1.42179   1.42507   1.43266   1.43598   1.43933
 Alpha virt. eigenvalues --    1.44065   1.44758   1.45530   1.45791   1.46252
 Alpha virt. eigenvalues --    1.46951   1.47170   1.47464   1.47968   1.48479
 Alpha virt. eigenvalues --    1.48800   1.49658   1.50594   1.50981   1.51336
 Alpha virt. eigenvalues --    1.51704   1.52613   1.53425   1.53992   1.54330
 Alpha virt. eigenvalues --    1.54654   1.55961   1.56308   1.57157   1.57938
 Alpha virt. eigenvalues --    1.58330   1.58662   1.60228   1.61171   1.61575
 Alpha virt. eigenvalues --    1.61904   1.63021   1.63724   1.64368   1.64701
 Alpha virt. eigenvalues --    1.65203   1.65690   1.65981   1.66922   1.67037
 Alpha virt. eigenvalues --    1.68232   1.68693   1.68963   1.69147   1.69568
 Alpha virt. eigenvalues --    1.70141   1.70646   1.70993   1.71072   1.71220
 Alpha virt. eigenvalues --    1.71365   1.73199   1.73566   1.74036   1.74814
 Alpha virt. eigenvalues --    1.75115   1.75852   1.76465   1.76500   1.77154
 Alpha virt. eigenvalues --    1.77589   1.77888   1.78314   1.78792   1.79711
 Alpha virt. eigenvalues --    1.80565   1.80684   1.81576   1.81908   1.82132
 Alpha virt. eigenvalues --    1.83100   1.83439   1.83596   1.84018   1.84306
 Alpha virt. eigenvalues --    1.84568   1.85033   1.85133   1.85366   1.85616
 Alpha virt. eigenvalues --    1.86420   1.86938   1.87046   1.87236   1.87432
 Alpha virt. eigenvalues --    1.87777   1.87862   1.88363   1.89343   1.89788
 Alpha virt. eigenvalues --    1.89924   1.90352   1.90903   1.91130   1.91167
 Alpha virt. eigenvalues --    1.91537   1.91605   1.91753   1.92183   1.92362
 Alpha virt. eigenvalues --    1.92653   1.92779   1.93330   1.93499   1.93608
 Alpha virt. eigenvalues --    1.93889   1.94499   1.95139   1.95463   1.95861
 Alpha virt. eigenvalues --    1.96055   1.96791   1.96930   1.97344   1.97512
 Alpha virt. eigenvalues --    1.98160   1.98813   1.99893   2.00018   2.00558
 Alpha virt. eigenvalues --    2.00750   2.01462   2.01891   2.02141   2.02250
 Alpha virt. eigenvalues --    2.02514   2.02535   2.02824   2.03133   2.03499
 Alpha virt. eigenvalues --    2.03885   2.04534   2.04640   2.05042   2.05085
 Alpha virt. eigenvalues --    2.05862   2.06406   2.06663   2.06829   2.07051
 Alpha virt. eigenvalues --    2.07514   2.07804   2.08066   2.08142   2.08596
 Alpha virt. eigenvalues --    2.08885   2.09256   2.09587   2.09762   2.10063
 Alpha virt. eigenvalues --    2.10663   2.10881   2.11041   2.11370   2.11737
 Alpha virt. eigenvalues --    2.11999   2.12866   2.13108   2.13725   2.14131
 Alpha virt. eigenvalues --    2.14245   2.14359   2.14926   2.15314   2.15860
 Alpha virt. eigenvalues --    2.16597   2.17027   2.17235   2.17648   2.17813
 Alpha virt. eigenvalues --    2.18246   2.18457   2.18795   2.19139   2.19465
 Alpha virt. eigenvalues --    2.19557   2.19690   2.20184   2.20684   2.21014
 Alpha virt. eigenvalues --    2.21238   2.21557   2.21736   2.22225   2.22785
 Alpha virt. eigenvalues --    2.23428   2.23830   2.23858   2.24415   2.24816
 Alpha virt. eigenvalues --    2.25285   2.25553   2.25815   2.26155   2.26483
 Alpha virt. eigenvalues --    2.26641   2.27154   2.27549   2.27709   2.28407
 Alpha virt. eigenvalues --    2.28643   2.29807   2.31100   2.31347   2.31440
 Alpha virt. eigenvalues --    2.31806   2.32326   2.32726   2.33352   2.33621
 Alpha virt. eigenvalues --    2.34059   2.34110   2.34748   2.35136   2.35937
 Alpha virt. eigenvalues --    2.36301   2.38737   2.39146   2.39234   2.39376
 Alpha virt. eigenvalues --    2.39986   2.40517   2.41820   2.43627   2.44272
 Alpha virt. eigenvalues --    2.44916   2.45864   2.46559   2.47366   2.48382
 Alpha virt. eigenvalues --    2.48528   2.48960   2.49362   2.49563   2.49900
 Alpha virt. eigenvalues --    2.50281   2.50952   2.51114   2.52310   2.53332
 Alpha virt. eigenvalues --    2.54860   2.55231   2.57465   2.59112   2.59560
 Alpha virt. eigenvalues --    2.60147   2.60542   2.61509   2.62330   2.63673
 Alpha virt. eigenvalues --    2.64121   2.64670   2.64836   2.65295   2.66450
 Alpha virt. eigenvalues --    2.67172   2.67898   2.69089   2.70163   2.71376
 Alpha virt. eigenvalues --    2.71956   2.74788   2.76669   2.77122   2.77244
 Alpha virt. eigenvalues --    2.77788   2.78362   2.78785   2.79588   2.79950
 Alpha virt. eigenvalues --    2.80279   2.80596   2.80947   2.81249   2.81547
 Alpha virt. eigenvalues --    2.81904   2.82750   2.83425   2.84688   2.85345
 Alpha virt. eigenvalues --    2.86055   2.87734   2.89175   2.90183   2.91898
 Alpha virt. eigenvalues --    2.92085   2.93432   2.94428   2.95737   2.96396
 Alpha virt. eigenvalues --    2.97407   2.98220   2.99198   3.03258   3.04349
 Alpha virt. eigenvalues --    3.05733   3.06026   3.07101   3.07329   3.07888
 Alpha virt. eigenvalues --    3.08733   3.11259   3.11835   3.12542   3.12587
 Alpha virt. eigenvalues --    3.13710   3.14443   3.15326   3.20655   3.26265
 Alpha virt. eigenvalues --    3.32684   3.45231  13.34324
          Condensed to atoms (all electrons):
 Mulliken charges:
               1
     1  C    0.320340
     2  C    0.036329
     3  C   -0.069786
     4  C   -0.160367
     5  C   -0.167469
     6  C    0.349835
     7  C    0.062286
     8  C   -0.078474
     9  C   -0.153062
    10  C   -0.182435
    11  H    0.206772
    12  H    0.199758
    13  H    0.183642
    14  H    0.224145
    15  H    0.200877
    16  H    0.178984
    17  N   -0.481505
    18  N   -0.518063
    19  Ir  -0.302132
    20  O   -0.525047
    21  O   -0.513446
    22  O   -0.499500
    23  B    0.493139
    24  B    0.534956
    25  B    0.533297
    26  O   -0.529972
    27  O   -0.531058
    28  C    0.294420
    29  C    0.295735
    30  C    0.289739
    31  C    0.297233
    32  C    0.300321
    33  C    0.291906
    34  O   -0.536721
    35  C   -0.508257
    36  H    0.150417
    37  H    0.167086
    38  H    0.171048
    39  C   -0.510587
    40  H    0.151229
    41  H    0.182439
    42  H    0.161176
    43  C   -0.508478
    44  H    0.148823
    45  H    0.183937
    46  H    0.147816
    47  C   -0.511083
    48  H    0.151469
    49  H    0.164717
    50  H    0.169667
    51  C   -0.512038
    52  H    0.167700
    53  H    0.147249
    54  H    0.179046
    55  C   -0.505707
    56  H    0.170893
    57  H    0.163674
    58  H    0.151929
    59  C   -0.500520
    60  H    0.146061
    61  H    0.155962
    62  H    0.193873
    63  C   -0.512717
    64  H    0.166653
    65  H    0.167595
    66  H    0.153143
    67  C   -0.506085
    68  H    0.158772
    69  H    0.156831
    70  H    0.163600
    71  C   -0.505778
    72  H    0.151206
    73  H    0.170922
    74  H    0.167562
    75  C   -0.496242
    76  H    0.165829
    77  H    0.176516
    78  H    0.142057
    79  C   -0.508996
    80  H    0.147456
    81  H    0.169438
    82  H    0.171454
    83  H    0.193088
    84  C    0.580395
    85  O   -0.520700
    86  C   -0.416244
    87  H    0.171779
    88  H    0.161406
    89  C   -0.334734
    90  H    0.196220
    91  H    0.231139
    92  N   -0.360242
    93  C   -0.368377
    94  H    0.164799
    95  H    0.181209
    96  H    0.200696
    97  C   -0.260138
    98  H    0.114567
    99  H    0.176138
   100  C   -0.284801
   101  H    0.144620
   102  H    0.138902
   103  C   -0.281824
   104  H    0.145933
   105  H    0.139501
   106  C   -0.497438
   107  H    0.158525
   108  H    0.165381
   109  H    0.158252
   110  C    0.973875
   111  F   -0.307709
   112  F   -0.303043
   113  F   -0.312036
   114  C    0.970149
   115  F   -0.310774
   116  F   -0.307246
   117  F   -0.314700
 Sum of Mulliken charges =  -0.00000
 Mulliken charges with hydrogens summed into heavy atoms:
               1
     1  C    0.320340
     2  C    0.243101
     3  C   -0.069786
     4  C    0.039392
     5  C    0.016173
     6  C    0.349835
     7  C    0.286430
     8  C   -0.078474
     9  C    0.047814
    10  C   -0.003451
    17  N   -0.481505
    18  N   -0.518063
    19  Ir  -0.109044
    20  O   -0.525047
    21  O   -0.513446
    22  O   -0.499500
    23  B    0.493139
    24  B    0.534956
    25  B    0.533297
    26  O   -0.529972
    27  O   -0.531058
    28  C    0.294420
    29  C    0.295735
    30  C    0.289739
    31  C    0.297233
    32  C    0.300321
    33  C    0.291906
    34  O   -0.536721
    35  C   -0.019706
    39  C   -0.015743
    43  C   -0.027902
    47  C   -0.025229
    51  C   -0.018044
    55  C   -0.019211
    59  C   -0.004623
    63  C   -0.025326
    67  C   -0.026882
    71  C   -0.016089
    75  C   -0.011840
    79  C   -0.020648
    84  C    0.580395
    85  O   -0.520700
    86  C   -0.083060
    89  C    0.092625
    92  N   -0.360242
    93  C    0.178328
    97  C    0.030567
   100  C   -0.001279
   103  C    0.003610
   106  C   -0.015280
   110  C    0.973875
   111  F   -0.307709
   112  F   -0.303043
   113  F   -0.312036
   114  C    0.970149
   115  F   -0.310774
   116  F   -0.307246
   117  F   -0.314700
 APT charges:
               1
     1  C    0.189350
     2  C    0.066115
     3  C   -0.211748
     4  C    0.082397
     5  C   -0.157117
     6  C    0.227390
     7  C    0.046816
     8  C   -0.196734
     9  C    0.103001
    10  C   -0.193245
    11  H    0.114872
    12  H    0.068519
    13  H    0.047457
    14  H    0.131505
    15  H    0.058087
    16  H    0.046093
    17  N   -0.175630
    18  N   -0.087919
    19  Ir  -1.142729
    20  O   -0.942961
    21  O   -0.982141
    22  O   -0.954218
    23  B    1.268341
    24  B    1.224218
    25  B    1.303386
    26  O   -0.971419
    27  O   -0.916101
    28  C    0.461628
    29  C    0.462985
    30  C    0.485818
    31  C    0.487965
    32  C    0.501119
    33  C    0.497108
    34  O   -1.013309
    35  C    0.000780
    36  H   -0.020239
    37  H    0.001250
    38  H    0.003286
    39  C   -0.023254
    40  H   -0.024723
    41  H    0.008977
    42  H   -0.005733
    43  C   -0.046945
    44  H   -0.020574
    45  H    0.032940
    46  H    0.001238
    47  C   -0.010806
    48  H   -0.013892
    49  H   -0.002499
    50  H    0.001489
    51  C   -0.007557
    52  H   -0.004376
    53  H   -0.020049
    54  H    0.007413
    55  C   -0.029088
    56  H    0.002722
    57  H   -0.006804
    58  H   -0.021925
    59  C   -0.026551
    60  H   -0.029763
    61  H   -0.011286
    62  H    0.026957
    63  C   -0.007010
    64  H    0.001424
    65  H   -0.002570
    66  H   -0.017032
    67  C   -0.027642
    68  H   -0.020841
    69  H   -0.004564
    70  H   -0.000284
    71  C   -0.006292
    72  H   -0.016357
    73  H    0.004259
    74  H   -0.001795
    75  C   -0.040479
    76  H   -0.000503
    77  H    0.027765
    78  H   -0.028228
    79  C   -0.007563
    80  H   -0.016984
    81  H   -0.000345
    82  H    0.000176
    83  H    0.270901
    84  C    0.865009
    85  O   -0.663136
    86  C   -0.047778
    87  H   -0.022989
    88  H    0.009641
    89  C    0.439704
    90  H   -0.041058
    91  H    0.000246
    92  N   -0.805459
    93  C    0.277743
    94  H   -0.036441
    95  H   -0.015529
    96  H    0.029012
    97  C    0.105668
    98  H   -0.044037
    99  H   -0.009852
   100  C    0.133191
   101  H   -0.062646
   102  H   -0.054080
   103  C    0.080692
   104  H   -0.038100
   105  H   -0.036210
   106  C    0.084374
   107  H   -0.027487
   108  H   -0.030176
   109  H   -0.028027
   110  C    1.762458
   111  F   -0.538639
   112  F   -0.574746
   113  F   -0.590660
   114  C    1.825477
   115  F   -0.602069
   116  F   -0.517450
   117  F   -0.622569
 Sum of APT charges =  -0.00000
 APT charges with hydrogens summed into heavy atoms:
               1
     1  C    0.189350
     2  C    0.180987
     3  C   -0.211748
     4  C    0.150917
     5  C   -0.109660
     6  C    0.227390
     7  C    0.178321
     8  C   -0.196734
     9  C    0.161088
    10  C   -0.147152
    17  N   -0.175630
    18  N   -0.087919
    19  Ir  -0.871828
    20  O   -0.942961
    21  O   -0.982141
    22  O   -0.954218
    23  B    1.268341
    24  B    1.224218
    25  B    1.303386
    26  O   -0.971419
    27  O   -0.916101
    28  C    0.461628
    29  C    0.462985
    30  C    0.485818
    31  C    0.487965
    32  C    0.501119
    33  C    0.497108
    34  O   -1.013309
    35  C   -0.014923
    39  C   -0.044732
    43  C   -0.033341
    47  C   -0.025709
    51  C   -0.024569
    55  C   -0.055095
    59  C   -0.040642
    63  C   -0.025189
    67  C   -0.053331
    71  C   -0.020185
    75  C   -0.041446
    79  C   -0.024716
    84  C    0.865009
    85  O   -0.663136
    86  C   -0.061126
    89  C    0.398892
    92  N   -0.805459
    93  C    0.254785
    97  C    0.051778
   100  C    0.016466
   103  C    0.006382
   106  C   -0.001317
   110  C    1.762458
   111  F   -0.538639
   112  F   -0.574746
   113  F   -0.590660
   114  C    1.825477
   115  F   -0.602069
   116  F   -0.517450
   117  F   -0.622569
 Electronic spatial extent (au):  <R**2>=          38360.9509
 Charge=             -0.0000 electrons
 Dipole moment (field-independent basis, Debye):
    X=             -1.6219    Y=             -0.9890    Z=             -2.1017  Tot=              2.8330
 Quadrupole moment (field-independent basis, Debye-Ang):
   XX=           -352.0076   YY=           -342.7831   ZZ=           -346.6590
   XY=              5.8755   XZ=              0.0982   YZ=             14.0919
 Traceless Quadrupole moment (field-independent basis, Debye-Ang):
   XX=             -4.8577   YY=              4.3668   ZZ=              0.4909
   XY=              5.8755   XZ=              0.0982   YZ=             14.0919
 Octapole moment (field-independent basis, Debye-Ang**2):
  XXX=             74.8671  YYY=            -29.0634  ZZZ=             27.8571  XYY=            -23.6415
  XXY=             13.7199  XXZ=             27.0651  XZZ=             29.7987  YZZ=            -22.6689
  YYZ=            -65.1872  XYZ=            -35.4915
 Hexadecapole moment (field-independent basis, Debye-Ang**3):
 XXXX=         -27004.2079 YYYY=         -13179.6229 ZZZZ=          -8636.2732 XXXY=            -96.0800
 XXXZ=            197.3570 YYYX=           -320.2756 YYYZ=            213.9984 ZZZX=            137.4802
 ZZZY=             18.9864 XXYY=          -6863.8541 XXZZ=          -5674.4916 YYZZ=          -3697.6650
 XXYZ=            118.2754 YYXZ=            140.0296 ZZXY=            -63.3725
 N-N= 1.047305183428D+04 E-N=-2.782533692632D+04  KE= 2.862615563415D+03
  Exact polarizability:     604.530      -7.797     523.672      11.082      29.070     443.229
 Approx polarizability:     803.589     -30.524     786.131      37.382      65.748     669.206
   1 Symmetry operations used in ECPInt.
 ECPInt:  NShTT=   62835 NPrTT=  387974 LenC2=   44735 LenP2D=  136564.
 LDataN:  DoStor=T MaxTD1= 8 Len=  415
 Calling FoFJK, ICntrl=    100127 FMM=F ISym2X=0 I1Cent= 0 IOpClX= 0 NMat=1 NMatS=1 NMatT=0.
 Defaulting to unpruned grid for atomic number  77.
 Defaulting to unpruned grid for atomic number  77.
 Defaulting to unpruned grid for atomic number  77.
 Defaulting to unpruned grid for atomic number  77.
 Defaulting to unpruned grid for atomic number  77.
 Defaulting to unpruned grid for atomic number  77.
 Defaulting to unpruned grid for atomic number  77.
 Defaulting to unpruned grid for atomic number  77.
 Defaulting to unpruned grid for atomic number  77.
 Defaulting to unpruned grid for atomic number  77.
 Defaulting to unpruned grid for atomic number  77.
 Defaulting to unpruned grid for atomic number  77.
 Defaulting to unpruned grid for atomic number  77.
 Defaulting to unpruned grid for atomic number  77.
 Defaulting to unpruned grid for atomic number  77.
 Defaulting to unpruned grid for atomic number  77.
 Full mass-weighted force constant matrix:
 Low frequencies --- -765.5881   -8.7327   -3.1979    0.0005    0.0007    0.0008
 Low frequencies ---    0.9937   16.7785   19.5149
 ******    1 imaginary frequencies (negative Signs) ****** 
 Diagonal vibrational polarizability:
      103.4050861      79.6179199     131.5639256
 Harmonic frequencies (cm**-1), IR intensities (KM/Mole), Raman scattering
 activities (A**4/AMU), depolarization ratios for plane and unpolarized
 incident light, reduced masses (AMU), force constants (mDyne/A),
 and normal coordinates:
                      1                      2                      3
                      A                      A                      A
 Frequencies --   -765.5881                16.2609                19.2497
 Red. masses --      1.1390                 5.5142                 4.8494
 Frc consts  --      0.3933                 0.0009                 0.0011
 IR Inten    --    350.9266                 0.3718                 0.0553
  Atom AN      X      Y      Z        X      Y      Z        X      Y      Z
     1   6     0.00   0.00  -0.00     0.02  -0.04  -0.00     0.02  -0.02   0.01
     2   6    -0.00  -0.00   0.00     0.00  -0.04  -0.01     0.02  -0.02  -0.00
     3   6     0.00  -0.00  -0.00     0.00  -0.06  -0.01     0.03  -0.02  -0.03
     4   6     0.00  -0.00   0.00     0.01  -0.06   0.01     0.03  -0.02  -0.03
     5   6     0.00   0.00   0.00     0.02  -0.05   0.01     0.03  -0.02  -0.01
     6   6    -0.00   0.01   0.00     0.03  -0.02  -0.01     0.02  -0.02   0.02
     7   6     0.00   0.00  -0.00     0.03   0.01  -0.03     0.02  -0.01   0.02
     8   6    -0.00   0.00   0.00     0.05   0.02  -0.04     0.02  -0.01   0.03
     9   6    -0.00   0.00   0.00     0.05   0.00  -0.03     0.02  -0.02   0.03
    10   6    -0.00   0.00   0.00     0.04  -0.02  -0.02     0.02  -0.02   0.03
    11   1    -0.01  -0.00   0.01    -0.00  -0.04  -0.02     0.01  -0.02   0.00
    12   1    -0.00  -0.00   0.00     0.01  -0.07   0.02     0.04  -0.01  -0.05
    13   1    -0.00  -0.00   0.00     0.02  -0.05   0.02     0.03  -0.02  -0.02
    14   1     0.01   0.00  -0.01     0.03   0.02  -0.03     0.01  -0.01   0.02
    15   1    -0.00   0.00  -0.00     0.07   0.01  -0.04     0.02  -0.02   0.04
    16   1    -0.00   0.00   0.01     0.04  -0.03  -0.01     0.02  -0.03   0.03
    17   7    -0.00   0.00   0.00     0.01  -0.04  -0.01     0.01  -0.02   0.01
    18   7     0.01   0.02  -0.01     0.02  -0.01  -0.01     0.01  -0.01   0.02
    19  77    -0.01  -0.00   0.01    -0.00  -0.02  -0.01     0.00  -0.02   0.03
    20   8     0.00   0.00  -0.00     0.00   0.01   0.01    -0.04  -0.00  -0.02
    21   8     0.00   0.00  -0.00    -0.03  -0.01  -0.00     0.03  -0.03   0.02
    22   8     0.00  -0.00  -0.00    -0.01  -0.02  -0.01    -0.00  -0.02   0.05
    23   5     0.00  -0.01   0.01    -0.01  -0.01   0.00     0.02  -0.01   0.00
    24   5     0.01   0.00  -0.01     0.01  -0.00   0.00    -0.03  -0.01   0.00
    25   5     0.01   0.01  -0.02    -0.02  -0.02  -0.00    -0.01  -0.02   0.04
    26   8    -0.00  -0.00  -0.00    -0.02  -0.02   0.00    -0.02  -0.00   0.05
    27   8     0.00   0.00  -0.00     0.04   0.00   0.01    -0.05  -0.01  -0.01
    28   6     0.00   0.00  -0.00     0.05   0.02   0.02    -0.07   0.00  -0.04
    29   6     0.00   0.00  -0.00     0.02   0.02   0.02    -0.08   0.00  -0.04
    30   6     0.00   0.00  -0.00    -0.02  -0.02  -0.00    -0.00  -0.02   0.06
    31   6    -0.00   0.00   0.00    -0.02  -0.02   0.01    -0.01  -0.01   0.07
    32   6     0.00   0.00  -0.00    -0.04  -0.01   0.02     0.05   0.01  -0.02
    33   6     0.00  -0.00   0.00    -0.02  -0.03   0.03     0.02   0.07  -0.06
    34   8    -0.00  -0.00  -0.00    -0.01  -0.02   0.02     0.02   0.05  -0.04
    35   6     0.00   0.00  -0.00     0.01   0.04   0.04    -0.08   0.01  -0.07
    36   1     0.00   0.00  -0.00     0.03   0.04   0.05    -0.11   0.01  -0.09
    37   1     0.00   0.00  -0.00    -0.01   0.04   0.03    -0.08   0.01  -0.06
    38   1     0.00  -0.00  -0.00    -0.00   0.06   0.05    -0.05   0.00  -0.10
    39   6     0.00   0.00  -0.00     0.03   0.00   0.01    -0.11  -0.00  -0.01
    40   1    -0.00   0.00  -0.00     0.05   0.01   0.01    -0.15   0.00  -0.02
    41   1     0.00  -0.00   0.00     0.04  -0.02  -0.01    -0.11  -0.00   0.02
    42   1     0.00   0.00  -0.00    -0.00  -0.00   0.01    -0.11  -0.00  -0.00
    43   6     0.00  -0.00  -0.00     0.04   0.04   0.04    -0.05   0.01  -0.07
    44   1     0.00  -0.00   0.00     0.05   0.06   0.06    -0.06   0.00  -0.10
    45   1     0.00   0.00  -0.00     0.02   0.03   0.04    -0.02   0.01  -0.08
    46   1    -0.00   0.00   0.00     0.07   0.04   0.03    -0.05   0.01  -0.06
    47   6     0.00  -0.00  -0.00     0.07   0.02   0.02    -0.11   0.00  -0.04
    48   1    -0.00  -0.00  -0.00     0.08   0.03   0.04    -0.13   0.01  -0.07
    49   1    -0.00   0.00  -0.00     0.09   0.02   0.03    -0.10   0.00  -0.05
    50   1     0.00  -0.00   0.00     0.08   0.00   0.01    -0.13  -0.00  -0.01
    51   6     0.00   0.00  -0.00    -0.04  -0.01   0.02     0.03   0.02  -0.02
    52   1    -0.00  -0.00  -0.00    -0.05  -0.00   0.01     0.05  -0.03   0.00
    53   1    -0.00  -0.00   0.00    -0.04  -0.02   0.03     0.04   0.06  -0.05
    54   1     0.00   0.00   0.00    -0.02  -0.02   0.01    -0.03   0.02  -0.00
    55   6    -0.00   0.00  -0.00    -0.06  -0.01   0.02     0.14  -0.00  -0.04
    56   1    -0.00  -0.00  -0.00    -0.07   0.00   0.01     0.15  -0.05  -0.01
    57   1    -0.00   0.00   0.00    -0.06  -0.01   0.03     0.16  -0.00  -0.04
    58   1    -0.00   0.00  -0.00    -0.07  -0.02   0.04     0.16   0.03  -0.07
    59   6    -0.00  -0.00  -0.00     0.00  -0.04   0.03    -0.04   0.09  -0.05
    60   1    -0.00  -0.00   0.00     0.00  -0.04   0.04    -0.06   0.11  -0.05
    61   1     0.00   0.00  -0.00     0.01  -0.05   0.04    -0.05   0.13  -0.06
    62   1     0.00   0.00   0.00     0.01  -0.03   0.02    -0.07   0.06  -0.02
    63   6    -0.00  -0.00  -0.00    -0.03  -0.04   0.06     0.07   0.12  -0.11
    64   1    -0.00   0.00   0.00    -0.05  -0.04   0.05     0.12   0.10  -0.11
    65   1     0.00  -0.00   0.00    -0.02  -0.05   0.07     0.04   0.15  -0.13
    66   1    -0.00   0.00  -0.00    -0.04  -0.05   0.06     0.07   0.14  -0.12
    67   6     0.00  -0.00   0.00    -0.02  -0.02   0.01    -0.00  -0.01   0.08
    68   1     0.00  -0.00   0.00    -0.02  -0.02   0.01     0.00  -0.01   0.09
    69   1    -0.00   0.00   0.00    -0.02  -0.02   0.02    -0.01  -0.00   0.08
    70   1    -0.00  -0.00   0.00    -0.01  -0.02   0.01     0.00  -0.02   0.08
    71   6     0.00  -0.00  -0.00    -0.03  -0.02   0.01    -0.02   0.01   0.08
    72   1     0.00  -0.00   0.00    -0.04  -0.02   0.00    -0.02   0.01   0.09
    73   1     0.00  -0.00  -0.00    -0.04  -0.02   0.00    -0.03   0.01   0.07
    74   1    -0.00   0.00   0.00    -0.04  -0.03   0.01    -0.02   0.01   0.08
    75   6     0.00  -0.00  -0.00    -0.03  -0.01  -0.01    -0.01  -0.01   0.06
    76   1     0.00   0.00  -0.00    -0.02  -0.01  -0.02    -0.01  -0.02   0.05
    77   1     0.00   0.00  -0.00    -0.03  -0.01  -0.02    -0.02  -0.01   0.05
    78   1    -0.00  -0.00   0.00    -0.03  -0.01  -0.00    -0.01  -0.01   0.06
    79   6     0.00  -0.00   0.00    -0.02  -0.02  -0.00     0.01  -0.02   0.07
    80   1    -0.00  -0.00  -0.00    -0.02  -0.02   0.00     0.01  -0.02   0.08
    81   1     0.00  -0.00   0.00    -0.01  -0.02   0.00     0.01  -0.03   0.08
    82   1     0.00   0.00  -0.00    -0.01  -0.02  -0.01     0.01  -0.03   0.07
    83   1     0.23   0.76  -0.52    -0.01  -0.03  -0.01     0.01  -0.03   0.04
    84   6     0.00   0.00  -0.00    -0.05   0.04  -0.00    -0.02   0.00  -0.01
    85   8    -0.00  -0.00  -0.00    -0.08   0.03  -0.03    -0.04   0.00  -0.02
    86   6    -0.00   0.00   0.00    -0.04   0.07   0.06    -0.02   0.03  -0.00
    87   1    -0.01  -0.00   0.00    -0.00   0.05   0.07    -0.02   0.01   0.00
[...]
 ,0.00111787,-0.00033843,0.00047607,-0.00003776,0.00004266,-0.00002514,
 0.00000073,-0.00000938,0.00001578,0.00000310,0.00002680,-0.00000521,0.
 00001814,-0.00002508,-0.00000216,0.00000772,0.00002823,0.00001095,-0.0
 0000564,-0.00001239,0.00001215,0.00002405,-0.00001027,0.00000170,-0.00
 000691,0.00002765,-0.00000045,0.00001615,-0.00040447,0.00005228,0.0000
 0315,0.00001265,-0.00001383,-0.00003353,0.00018374,0.00001204,0.000074
 54,-0.00020940,-0.00016192,0.00006429,-0.00016769,0.00001740,0.0000133
 8,0.00002329,-0.00000650,0.00001332,0.00006962,0.00004992,-0.00000322,
 0.00003318,0.00002618,0.00004965,-0.00005944,0.00006203,0.00000635,0.0
 0000897,-0.00002179,0.00002484,0.00003212,0.00003047,-0.00001435,-0.00
 005590,0.00000315,0.00008440,0.00009317,0.00015173,0.00002416,-0.00008
 550,-0.00006820,-0.00021302,0.00004792,0.00000447,0.00004197,0.0000183
 1,0.00008699,0.00020387,-0.00005406,0.00003343,-0.00000205,0.00002625,
 0.00000793,-0.00004461,0.00001801,-0.00000183,0.00000838,-0.00008560,0
 .00001543,0.00021997,0.00024557,-0.00022361,-0.00028655,-0.00120908,-0
 .00068070,0.00009929,0.00015160,-0.00005086,0.00001058,-0.00017426,-0.
 00003064,-0.00000717,0.00000752,-0.00000054,-0.00000260,0.00001114,-0.
 00000033,0.00001437,-0.00000121,0.00000733,-0.00000464,-0.00000887,-0.
 00000192,0.00000444,0.00000957,-0.00000156,-0.00000271,0.00001010,-0.0
 0000037,-0.00000409,-0.00000654,-0.00000110,0.00000987,-0.00000433,0.0
 0000454,-0.00001798,-0.00000438,-0.00001322,0.00001357,0.00000656,0.00
 000632,-0.00000064,-0.00000519,0.00000389,0.00000509,0.00000163,0.0000
 0004,-0.00000667,-0.00000232,-0.00000256,0.00000171,0.00000028,0.00000
 514,-0.00000915,0.00000002,-0.00000240,0.00001460,0.00001235,0.0000027
 4,-0.00001236,-0.00001926,-0.00007128,0.00003070,-0.00005487,-0.000061
 30,-0.00003443,0.00003271,0.00014348,-0.00000615,0.00001509,-0.0000173
 4,-0.00000763,0.00000286,0.00001523,0.00000029,-0.00000358,-0.00001391
 ,0.00011561,-0.00007753,-0.00022531,-0.00005554,0.00000624,0.00009067,
 -0.00005409,-0.00005640,-0.00001241,-0.00012714,-0.00000257,0.00013043
 ,0.00001384,-0.00005601,-0.00005154,-0.00000227,0.00000707,0.00000150,
 -0.00001477,0.00000211,0.00000245,0.00000880,0.00000981,0.00000375,0.0
 0000325,0.00000633,-0.00002879,0.00000802,0.00000185,0.00002379,0.0000
 0113,-0.00000221,-0.00000293,0.00000900,0.00000033,-0.00000093,-0.0000
 0201,-0.00000120,-0.00000336,-0.00000828,0.00000323,0.00001327,-0.0000
 0079,-0.00000370,-0.00001237,0.00000188,-0.00000113,-0.00000267,0.0000
 0301,0.00000205,0.00001048,0.00000414,0.00000063,-0.00000063,-0.000003
 71,-0.00000144,0.00000746,-0.00000260,0.00000249,-0.00000286,-0.000000
 97,-0.00000106,-0.00000115,0.00031125,-0.00023857,-0.00000445,-0.00008
 545,0.00010740,0.00006514,-0.00006651,0.00010946,-0.00004445,-0.000094
 30,0.00001700,-0.00001162,-0.09515885,-0.06906490,-0.17025695,-0.01074
 115,-0.03535254,-0.07098626,0.12586870,0.12944117,0.23388425,0.0004900
 0,-0.00003373,0.00002824,-0.00005668,-0.00011470,-0.00003861,-0.000214
 16,0.00025366,0.00001041,0.00019525,-0.00009424,0.00002480,-0.00030537
 ,0.00016869,-0.00010862,0.00040998,0.00073450,0.00079432,-0.00176315,-
 0.00165766,-0.00355221,0.00197673,0.03403717,-0.01108408,0.00003565,0.
 00092068,0.00015690,0.00040735,0.00021059,0.00080024,-0.00003691,-0.00
 002154,0.00001006,-0.00002257,-0.00000233,-0.00000572,0.00005421,0.000
 01146,0.00003480,-0.00013130,0.00022973,-0.00025148,-0.00055109,0.0006
 4061,-0.00021267,-0.00003714,-0.00005248,-0.00003891,-0.00028645,0.000
 15550,-0.00010418,-0.00250621,0.00031858,0.00104863,0.00042485,0.00009
 260,0.00002002,0.00044003,0.00017828,-0.00032582,0.00046119,0.00009034
 ,0.00033621,0.00009506,0.00039828,0.00000097,-0.00084392,-0.00025632,-
 0.00044966,-0.00070899,-0.00039647,0.00039800,-0.00016778,-0.00053031,
 0.00006141,-0.00000341,0.00036535,-0.00008440,0.00060539,0.00023456,-0
 .00054606,-0.00067082,-0.00011268,0.00019870,-0.00004525,0.00008218,0.
 00021488,-0.00000849,-0.00011604,0.00006426,0.00001581,-0.00016104,-0.
 00002268,-0.00024216,0.00006513,-0.00007300,-0.00036479,-0.00002040,-0
 .00021842,0.00080688,0.00011762,0.00025636,-0.00000229,0.00001098,-0.0
 0003389,0.00001884,0.00001045,-0.00002672,0.00001143,-0.00000682,0.000
 01199,0.00001104,0.00001639,0.00003205,0.00000582,-0.00005236,-0.00003
 894,0.00000734,0.00000801,-0.00002977,0.00001603,0.00000762,0.00002422
 ,0.00000583,-0.00001507,0.00001549,0.00025543,0.00012392,0.00004309,0.
 00006224,0.00003196,-0.00002498,-0.00005446,0.00001788,0.00001277,-0.0
 0025312,0.00011317,-0.00006568,0.00009112,0.00003313,-0.00001140,0.000
 02436,0.00001946,-0.00004394,-0.00007438,-0.00002780,-0.00001581,0.000
 02149,-0.00003254,0.00004734,0.00002040,-0.00000948,0.00001381,-0.0000
 0239,0.00000222,-0.00000971,0.00002606,0.00001387,0.00002258,-0.000009
 17,-0.00000895,0.00000021,0.00003480,-0.00001957,0.00001291,0.00000684
 ,-0.00001934,-0.00002884,-0.00006744,0.00001443,-0.00001702,0.00003833
 ,0.00001221,0.00005061,0.00008265,0.00000242,0.00005585,0.00001744,0.0
 0003411,0.00000452,-0.00000669,0.00000857,-0.00002310,-0.00000027,-0.0
 0004188,0.00000443,0.00005171,0.00005153,-0.00002707,-0.00005893,-0.00
 002037,0.00011116,0.00004712,0.00006499,-0.00005383,0.00002505,-0.0000
 4735,-0.00000236,-0.00000995,0.00001819,0.00000466,-0.00000486,0.00002
 379,0.00000182,0.00001717,-0.00000936,0.00001029,-0.00000152,-0.000012
 27,-0.00001661,-0.00001131,0.00001995,0.00000384,-0.00000230,0.0000206
 7,-0.00000510,0.00000306,-0.00000620,-0.00000470,0.00000493,-0.0000087
 9,0.00000243,-0.00000153,0.00002160,-0.00001184,0.00001082,-0.00000022
 ,0.00001138,-0.00001154,-0.00000842,0.00000601,0.00000490,0.00001491,-
 0.00001302,0.00000456,0.00001402,-0.00000995,-0.00000548,0.00001409,0.
 00000024,-0.00000079,-0.00000767,-0.00000744,0.00001315,0.00000366,0.0
 0000928,0.00001154,0.00001136,-0.00007997,0.00015849,-0.00006057,-0.00
 006673,-0.00014562,0.00006135,0.00015553,-0.00003127,0.00002082,-0.000
 01130,-0.00001315,0.00000139,0.00001932,-0.00000096,-0.00000506,-0.000
 02076,0.00024788,-0.00018350,-0.00025653,-0.00004647,-0.00000161,0.000
 07170,-0.00001713,-0.00002666,0.00001183,-0.00023091,0.00004417,0.0001
 0520,0.00001975,-0.00010462,-0.00006270,-0.00000835,0.00001843,-0.0000
 0872,-0.00002936,0.00000684,0.00000939,0.00001738,0.00000399,0.0000016
 1,0.00000756,0.00002096,-0.00003020,0.00001178,0.00000279,0.00002615,0
 .00000754,0.00000047,-0.00000180,0.00002315,0.00000137,-0.00000156,-0.
 00001545,-0.00000845,-0.00000886,-0.00001110,0.00000691,0.00001725,-0.
 00000304,-0.00000601,-0.00000925,0.00000250,-0.00000917,-0.00000655,0.
 00000599,0.00000443,0.00001335,0.00000926,0.00000473,-0.00000233,-0.00
 000502,-0.00000257,0.00001117,-0.00000816,0.00000877,-0.00000489,-0.00
 000497,-0.00000768,-0.00000260,0.00054597,-0.00040584,0.00013122,-0.00
 014122,0.00016189,0.00005562,-0.00011331,0.00020127,-0.00011546,-0.000
 19037,0.00001822,-0.00005119,-0.08175954,0.01106431,-0.00668949,0.0029
 3427,-0.02957615,0.02875908,0.00235062,-0.04036459,-0.00022141,0.07860
 845,-0.00035100,0.00003792,0.00019017,0.00010269,0.00017054,0.00006120
 ,0.00026837,-0.00031919,-0.00002481,-0.00022533,0.00014954,-0.00000441
 ,0.00038555,-0.00029811,0.00009703,-0.00066496,-0.00006124,-0.00011743
 ,0.00270624,0.00083864,0.00344659,0.00736351,-0.03580985,0.01565665,-0
 .00190157,-0.00243098,-0.00329330,0.00186410,0.00015101,-0.00075930,0.
 00001170,0.00000203,-0.00000830,0.00003421,-0.00000537,0.00001588,-0.0
 0004861,-0.00000249,-0.00001944,-0.00045619,0.00045135,0.00066646,0.00
 036181,0.00029435,0.00218175,0.00026828,-0.00008683,0.00014055,0.00030
 314,0.00000183,0.00018522,0.00230763,-0.00052224,-0.00113171,0.0000334
 9,0.00014085,-0.00028044,-0.00017636,-0.00038707,0.00017280,-0.0001205
 3,-0.00021499,-0.00057828,-0.00000077,-0.00054171,0.00001151,-0.000198
 54,0.00047196,0.00058699,0.00007883,0.00068128,0.00010225,-0.00005743,
 0.00069242,-0.00007971,0.00015135,-0.00051524,0.00013151,0.00008588,-0
 .00055467,0.00018557,-0.00011187,0.00006648,-0.00032340,0.00008785,0.0
 0013975,-0.00007256,-0.00005131,0.00019415,-0.00007775,-0.00006656,0.0
 0024622,0.00004075,0.00013576,-0.00004198,0.00024675,0.00021451,0.0002
 7894,0.00030302,0.00000005,-0.00065066,-0.00042191,0.00000849,-0.00004
 525,-0.00001822,-0.00001195,0.00001833,0.00001494,0.00001009,-0.000053
 12,0.00000441,0.00002691,0.00004037,0.00001926,0.00001489,-0.00006846,
 -0.00001822,-0.00001420,0.00000899,0.00003026,-0.00001354,0.00001741,-
 0.00001663,0.00001958,-0.00004745,0.00000680,0.00013290,0.00021368,0.0
 0011825,-0.00004588,-0.00010160,0.00008605,0.00002021,0.00015291,0.000
 01644,-0.00004974,-0.00008058,-0.00019072,0.00005843,0.00003622,0.0000
 4147,-0.00003822,-0.00003208,0.00001888,-0.00000885,-0.00003733,-0.000
 07947,0.00004450,-0.00001660,0.00003845,0.00001841,0.00001090,-0.00003
 733,0.00002921,-0.00001744,-0.00003039,-0.00003090,-0.00000212,0.00000
 009,0.00000094,0.00000736,0.00001366,0.00003072,0.00009057,-0.00003240
 ,0.00004021,-0.00004488,-0.00003014,-0.00003798,-0.00005435,0.00007999
 ,-0.00005167,-0.00001168,-0.00001279,0.00000189,-0.00005079,-0.0000209
 8,-0.00004159,-0.00004203,-0.00002715,0.00002806,0.00002948,-0.0000173
 0,0.00000842,-0.00000039,0.00001135,-0.00004798,0.00005972,-0.00010268
 ,0.00001067,-0.00001770,0.00022246,0.00010584,0.00010700,-0.00002475,-
 0.00002885,-0.00012513,-0.00006872,0.00002221,-0.00002399,-0.00000889,
 0.00000937,-0.00003761,-0.00000669,-0.00000855,0.00001769,-0.00000192,
 -0.00000951,0.00001381,0.00001618,0.00000783,-0.00002448,0.00000497,0.
 00000165,-0.00003331,0.00000235,-0.00000400,0.00001417,-0.00000858,0.0
 0000636,0.00001651,0.00000306,0.00001114,-0.00002122,0.00001803,-0.000
 00247,0.00001937,-0.00000106,-0.00000866,0.00002496,-0.00002376,0.0000
 0438,-0.00003545,0.00001913,-0.00000103,-0.00001889,0.00000095,0.00001
 015,-0.00002691,0.00000770,0.00000613,0.00001010,-0.00000427,-0.000013
 63,0.00000720,-0.00000666,-0.00009405,-0.00013307,0.00020004,-0.000291
 40,-0.00042547,-0.00006851,0.00010080,0.00031133,-0.00016298,0.0000409
 6,-0.00001085,0.00003086,0.00002276,-0.00000642,-0.00002437,-0.0000000
 5,0.00002070,0.00002763,-0.00050277,0.00025506,0.00028749,0.00004972,0
 .00000028,-0.00008793,0.00003402,0.00000037,-0.00005191,0.00054141,0.0
 0019420,-0.00005591,-0.00001026,0.00008915,0.00008396,-0.00000708,-0.0
 0000948,-0.00000465,0.00004505,-0.00000327,-0.00002128,-0.00002589,0.0
 0000282,0.00001852,0.00000100,-0.00006325,0.00005605,-0.00001729,-0.00
 000739,-0.00003602,-0.00001072,0.00001190,-0.00001082,-0.00003384,0.00
 000116,-0.00000029,0.00003469,0.00001854,0.00001825,0.00001603,-0.0000
 1223,-0.00002887,0.00000044,-0.00000058,0.00001978,-0.00000172,0.00002
 244,0.00001339,-0.00001071,-0.00000813,-0.00002367,-0.00001465,-0.0000
 0463,0.00000020,0.00000851,0.00000066,-0.00001691,0.00000607,-0.000007
 25,0.00000440,0.00001070,0.00001269,0.00000731,-0.00081562,0.00044529,
 -0.00012709,0.00020556,-0.00019598,-0.00008559,0.00017087,-0.00021718,
 0.00011569,0.00031410,0.00001142,0.00007199,0.01168422,-0.26945795,0.0
 7650969,-0.01843964,-0.01086391,0.03653395,-0.02853415,-0.06502289,-0.
 01238336,0.02296868,0.38263936,0.00013435,-0.00002313,0.00002549,-0.00
 000820,-0.00004140,-0.00001687,-0.00007891,0.00008107,0.00000791,0.000
 05582,-0.00003968,0.00000797,-0.00011733,0.00006264,-0.00002516,0.0003
 4922,0.00024035,0.00019223,-0.00219057,-0.00058213,-0.00250213,-0.0023
 6093,0.01694061,0.00592629,0.00054590,-0.00031516,0.00018605,0.0002357
 1,0.00027972,0.00018104,-0.00000213,0.00000044,-0.00000257,-0.00000776
 ,0.00000077,-0.00000754,0.00003315,0.00001000,-0.00000982,-0.00016389,
 0.00011954,0.00007277,-0.00021579,0.00055071,-0.00025697,0.00000598,-0
 .00000838,-0.00006904,-0.00008029,0.00006892,-0.00002825,-0.00086553,0
 .00118559,0.00054487,-0.00006555,-0.00005904,0.00026321,-0.00001733,0.
 00019047,0.00007917,0.00019662,0.00005231,0.00031670,0.00001371,0.0001
 8547,0.00002821,-0.00024651,-0.00014001,-0.00038796,0.00009217,-0.0003
 1662,-0.00027923,0.00001935,-0.00021359,-0.00002682,-0.00004664,0.0001
 6574,-0.00001396,-0.00019931,0.00028435,0.00016367,0.00018263,0.000016
 44,0.00005873,-0.00002730,-0.00012095,-0.00005494,0.00002207,-0.000048
 02,0.00001089,0.00002242,-0.00008142,-0.00002217,-0.00012806,0.0000827
 4,-0.00014769,-0.00017621,-0.00004156,-0.00015431,0.00022662,0.0000781
 1,0.00027220,-0.00001766,0.00003099,0.00000616,-0.00000103,-0.00001447
 ,0.00000870,-0.00000634,0.00003352,-0.00000735,-0.00000649,-0.00003084
 ,-0.00001761,-0.00000367,0.00005363,0.00002206,0.00000029,-0.00001166,
 0.00000299,0.00001066,-0.00001332,-0.00000077,-0.00001192,0.00003443,-
 0.00000667,-0.00012040,-0.00032210,-0.00000915,-0.00000111,0.00002885,
 -0.00001880,-0.00000420,0.00008904,-0.00002525,0.00014918,-0.00019085,
 -0.00000071,-0.00001976,-0.00010169,-0.00000293,0.00001273,0.00001510,
 0.00000407,0.00003156,0.00005406,0.00004987,-0.00002401,0.00003159,-0.
 00001577,0.00000655,-0.00002553,0.00003553,-0.00000914,0.00001068,0.00
 000659,0.00001545,0.00001005,0.00000550,-0.00000337,-0.00002318,-0.000
 00400,0.00000773,-0.00000048,0.00007355,-0.00001026,-0.00000361,-0.000
 00306,-0.00002993,0.00001614,-0.00005396,0.00002939,0.00000930,0.00002
 470,0.00005452,-0.00000052,0.00000622,0.00001095,0.00001758,0.00001246
 ,-0.00002682,-0.00000614,0.00001289,0.00000057,-0.00002142,-0.00000030
 ,0.00006932,0.00005671,-0.00005183,-0.00001956,-0.00001048,0.00002704,
 -0.00001947,-0.00000610,0.00000554,0.00001048,-0.00000615,0.00001882,-
 0.00000813,0.00000786,0.00000299,-0.00000400,0.00001245,0.00000197,0.0
 0000345,-0.00000387,-0.00000031,0.00000333,-0.00000533,-0.00000282,0.0
 0000216,0.00000864,-0.00000290,-0.00000123,0.00001151,-0.00000010,-0.0
 0000114,-0.00000640,0.00000453,-0.00000044,-0.00000517,-0.00000066,-0.
 00001229,0.00000169,-0.00000958,0.00000322,-0.00000505,-0.00000023,0.0
 0000642,-0.00000939,0.00000921,-0.00000060,0.00001063,-0.00000433,-0.0
 0000409,0.00000339,0.00000022,-0.00000176,0.00000736,-0.00000071,-0.00
 000629,-0.00000160,0.00000302,0.00000762,0.00000103,0.00000096,0.00004
 692,0.00007579,-0.00011508,0.00008327,0.00019128,0.00003443,-0.0000090
 1,-0.00014757,0.00006806,-0.00000980,0.00000246,-0.00001597,-0.0000090
 7,0.00000405,0.00000962,-0.00000032,-0.00000791,-0.00000804,0.00019095
 ,-0.00010690,-0.00012594,-0.00002999,0.00000780,0.00005248,-0.00003415
 ,-0.00001042,0.00001068,-0.00020834,-0.00009817,0.00004230,0.00000120,
 -0.00002483,-0.00003467,0.00000413,0.00000173,0.00000773,-0.00001622,0
 .00000012,0.00000659,0.00000831,0.00000037,-0.00000755,-0.00000231,0.0
 0002211,-0.00002318,0.00000562,0.00000165,0.00001580,0.00000218,-0.000
 00615,0.00000263,0.00000922,-0.00000175,-0.00000110,-0.00000926,-0.000
 00476,-0.00000566,-0.00000614,0.00000422,0.00001170,0.00000057,0.00000
 089,-0.00000944,0.00000071,-0.00000616,-0.00000412,0.00000320,0.000002
 28,0.00000936,0.00000430,0.00000031,-0.00000001,-0.00000321,0.00000004
 ,0.00000630,-0.00000073,0.00000091,-0.00000130,-0.00000284,-0.00000268
 ,-0.00000250,0.00024555,-0.00012572,0.00000053,-0.00006471,0.00006107,
 0.00004031,-0.00005210,0.00005473,-0.00002135,-0.00009413,-0.00000265,
 -0.00001424,-0.00672077,0.07351312,-0.10468594,0.02365217,0.05205873,-
 0.04317949,-0.00311311,-0.02570942,0.01627701,-0.00907006,-0.11804438,
 0.12722232\\-0.00000216,0.00000617,-0.00000020,0.00000345,-0.00000486,
 -0.00000140,-0.00000302,0.00000107,-0.00000032,-0.00000197,-0.00000137
 ,-0.00000099,-0.00000102,-0.00000120,0.00000149,0.00000345,-0.00001114
 ,-0.00000205,0.00000341,0.00000017,0.00000021,0.00000309,0.00000272,0.
 00000290,-0.00000687,0.00000655,-0.00000136,0.00000791,0.00000657,0.00
 000839,-0.00000044,-0.00000041,0.00000012,0.00000397,0.00000032,0.0000
 0236,0.00000139,-0.00000015,0.00000098,-0.00000182,-0.00000053,-0.0000
 0068,0.00000292,-0.00000439,-0.00000022,-0.00000281,-0.00000292,-0.000
 00273,-0.00000323,-0.00000261,0.00000027,0.00000276,0.00000153,0.00000
 184,0.00000180,-0.00000219,0.00000089,-0.00000012,0.00000249,0.0000020
 5,-0.00000129,0.00000113,-0.00000178,-0.00000193,0.00000034,-0.0000008
 1,0.00000237,-0.00000009,-0.00000024,-0.00000211,0.00000364,0.00000147
 ,0.00000039,0.00000468,-0.00000167,-0.00000141,-0.00000184,-0.00000084
 ,0.00000200,-0.00000457,-0.00000310,-0.00000287,0.00000288,-0.00000054
 ,-0.00000490,-0.00000059,0.00000003,-0.00000306,-0.00000139,0.00000036
 ,0.00000461,-0.00000103,-0.00000158,0.00000234,0.00000564,0.00000482,0
 .00000006,-0.00000399,-0.00000201,0.00000031,0.00000269,0.00000059,0.0
 0000567,0.00000427,-0.00000242,-0.00000138,0.00000079,0.00000130,-0.00
 000155,-0.00000193,-0.00000096,-0.00000146,0.00000040,-0.00000139,-0.0
 0000349,0.00000334,-0.00000099,0.00000016,-0.00000055,-0.00000130,0.00
 000125,-0.00000017,0.00000092,0.00000151,-0.00000481,-0.00000138,0.000
 00117,-0.00000593,-0.00000189,-0.00000033,0.00000106,-0.00000036,0.000
 00011,0.00000161,0.00000270,0.00000086,0.00000332,0.00000054,0.0000031
 1,-0.00000763,-0.00000082,-0.00000024,0.00000020,0.00000026,-0.0000000
 4,0.00000494,0.00000021,-0.00000168,0.00000083,0.00000030,-0.00000499,
 0.00000245,-0.00000418,0.00000115,0.00000103,-0.00000153,0.00000148,0.
 00000160,0.00000003,0.00000041,-0.00000157,0.00000126,-0.00000532,0.00
 000513,0.00000045,0.00000258,0.00000116,-0.00000156,0.00000042,-0.0000
 0143,-0.00000157,0.00000397,0.00000080,0.00000184,-0.00000797,0.000002
 71,-0.00000270,0.00000243,0.00000365,0.00000140,0.00000006,0.00000122,
 -0.00000071,0.00000379,-0.00000224,0.00000022,-0.00000231,-0.00000110,
 -0.00000476,0.00000170,0.00000582,0.00000010,-0.00000130,0.00000232,0.
 00000274,0.00000155,0.00000166,0.00000076,-0.00000005,-0.00000265,0.00
 000098,-0.00000223,0.00000161,-0.00000108,-0.00000096,0.00000032,-0.00
 000098,-0.00000037,-0.00000076,0.00000058,-0.00000233,0.00000367,-0.00
 000232,-0.00000183,-0.00000411,-0.00000124,-0.00000085,-0.00000059,0.0
 0000047,-0.00000107,-0.00000014,-0.00000028,-0.00000459,-0.00000597,-0
 .00000716,0.00000242,0.00000129,0.00000131,-0.00000196,0.00000385,0.00
 000308,-0.00000138,0.00000145,-0.00000155,0.00000575,0.00000348,-0.000
 00478,-0.00000113,-0.00000078,-0.00000059,-0.00000525,-0.00000122,0.00
 000382,-0.00000314,0.00000008,-0.00000175,-0.00000043,0.00000033,-0.00
 000020,0.00000141,0.00000694,0.00000049,0.00000338,-0.00000758,-0.0000
 0165,-0.00000156,0.00000340,0.00000500,0.00000162,-0.00000103,-0.00000
 190,0.00000064,-0.00000197,0.00000139,0.00000060,0.00000178,0.00000261
 ,0.00000038,-0.00000080,-0.00000071,0.00000115,-0.00000166,0.00000032,
 -0.00000420,0.00000260,0.00000040,-0.00000200,-0.00000163,-0.00000657,
 0.00000051,-0.00000221,0.00000487,0.00000048,-0.00000024,0.00000055,0.
 00000181,0.00000147,0.00000097,0.00000482,-0.00000521,-0.00000632,0.00
 000069,-0.00000089,0.00000596,-0.00000016,0.00000111,0.00000063,-0.000
 00466,-0.00000028,0.00000594,0.00000137,-0.00000094,0.00000103,0.00000
 088,-0.00000053,-0.00000339,-0.00000026,-0.00000301,0.00000767,-0.0000
 0133,-0.00000237,-0.00000058,0.00000078,-0.00000096,-0.00000420,0.0000
 0347,0.00000399,-0.00000097,0.00000001,-0.00000150,0.00000176,0.000000
 53,-0.00000476,0.00000224,-0.00000060,-0.00000405,-0.00000043,0.000000
 72,0.00000016,0.00000425,0.00000128,-0.00000338,-0.00000263,-0.0000000
 3,-0.00000208,0.00000028,-0.00000111,-0.00000251,-0.00000013,-0.000001
 93,-0.00000250,0.00000027,0.00000076,0.00000125,0.00000170,0.00000173,
 0.00000093,-0.00000048,0.00000170,0.00000230,0.00000054\\\@
 The archive entry for this job was punched.


 THAT'S WHAT MAKES US A GREAT COUNTRY.
 THE LITTLE THINGS ARE SERIOUS AND THE BIG ONES ARE NOT.
           WILL ROGERS
 Job cpu time:       1 days 23 hours  2 minutes 49.2 seconds.
 Elapsed time:       0 days  3 hours  0 minutes 12.5 seconds.
 File lengths (MBytes):  RWF=  11754 Int=      0 D2E=      0 Chk=     62 Scr=      1
 Normal termination of Gaussian 16 at Sat Dec  7 21:47:50 2024.
