/mnt/lustre/scratch/nvme/SLURM/9663635/usccqdma.iL2fmoJLN3
OMP_STACKSIZE=0m
GAUSS_PDEF=16
GAUSS_MDEF=65536MB
GAUSS_RDEF=SCF=Direct
 Entering Gaussian System, Link 0=g16.exe
 Initial command:
 /opt/cesga/2020/software/Core/g16/c1/l1.exe "/mnt/lustre/scratch/nvme/SLURM/9663635/usccqdma.iL2fmoJLN3/Gau-1472257.inp" -scrdir="/mnt/lustre/scratch/nvme/SLURM/9663635/usccqdma.iL2fmoJLN3/"
 Default is to use a total of  16 processors:
                               16 via shared-memory
                                1 via Linda
 Entering Link 1 = /opt/cesga/2020/software/Core/g16/c1/l1.exe PID=   1472285.
  
 Copyright (c) 1988-2019, Gaussian, Inc.  All Rights Reserved.
  
 This is part of the Gaussian(R) 16 program.  It is based on
 the Gaussian(R) 09 system (copyright 2009, Gaussian, Inc.),
 the Gaussian(R) 03 system (copyright 2003, Gaussian, Inc.),
 the Gaussian(R) 98 system (copyright 1998, Gaussian, Inc.),
 the Gaussian(R) 94 system (copyright 1995, Gaussian, Inc.),
 the Gaussian 92(TM) system (copyright 1992, Gaussian, Inc.),
 the Gaussian 90(TM) system (copyright 1990, Gaussian, Inc.),
 the Gaussian 88(TM) system (copyright 1988, Gaussian, Inc.),
 the Gaussian 86(TM) system (copyright 1986, Carnegie Mellon
 University), and the Gaussian 82(TM) system (copyright 1983,
 Carnegie Mellon University). Gaussian is a federally registered
 trademark of Gaussian, Inc.
  
 This software contains proprietary and confidential information,
 including trade secrets, belonging to Gaussian, Inc.
  
 This software is provided under written license and may be
 used, copied, transmitted, or stored only in accord with that
 written license.
  
 The following legend is applicable only to US Government
 contracts under FAR:
  
                    RESTRICTED RIGHTS LEGEND
  
 Use, reproduction and disclosure by the US Government is
 subject to restrictions as set forth in subparagraphs (a)
 and (c) of the Commercial Computer Software - Restricted
 Rights clause in FAR 52.227-19.
  
 Gaussian, Inc.
 340 Quinnipiac St., Bldg. 40, Wallingford CT 06492
  
  
 ---------------------------------------------------------------
 Warning -- This program may not be used in any manner that
 competes with the business of Gaussian, Inc. or will provide
 assistance to any competitor of Gaussian, Inc.  The licensee
 of this program is prohibited from giving any competitor of
 Gaussian, Inc. access to this program.  By using this program,
 the user acknowledges that Gaussian, Inc. is engaged in the
 business of creating and licensing software in the field of
 computational chemistry and represents and warrants to the
 licensee that it is not a competitor of Gaussian, Inc. and that
 it will not use this program in any manner prohibited above.
 ---------------------------------------------------------------
  

 Cite this work as:
 Gaussian 16, Revision C.01,
 M. J. Frisch, G. W. Trucks, H. B. Schlegel, G. E. Scuseria, 
 M. A. Robb, J. R. Cheeseman, G. Scalmani, V. Barone, 
 G. A. Petersson, H. Nakatsuji, X. Li, M. Caricato, A. V. Marenich, 
 J. Bloino, B. G. Janesko, R. Gomperts, B. Mennucci, H. P. Hratchian, 
 J. V. Ortiz, A. F. Izmaylov, J. L. Sonnenberg, D. Williams-Young, 
 F. Ding, F. Lipparini, F. Egidi, J. Goings, B. Peng, A. Petrone, 
 T. Henderson, D. Ranasinghe, V. G. Zakrzewski, J. Gao, N. Rega, 
 G. Zheng, W. Liang, M. Hada, M. Ehara, K. Toyota, R. Fukuda, 
 J. Hasegawa, M. Ishida, T. Nakajima, Y. Honda, O. Kitao, H. Nakai, 
 T. Vreven, K. Throssell, J. A. Montgomery, Jr., J. E. Peralta, 
 F. Ogliaro, M. J. Bearpark, J. J. Heyd, E. N. Brothers, K. N. Kudin, 
 V. N. Staroverov, T. A. Keith, R. Kobayashi, J. Normand, 
 K. Raghavachari, A. P. Rendell, J. C. Burant, S. S. Iyengar, 
 J. Tomasi, M. Cossi, J. M. Millam, M. Klene, C. Adamo, R. Cammi, 
 J. W. Ochterski, R. L. Martin, K. Morokuma, O. Farkas, 
 J. B. Foresman, and D. J. Fox, Gaussian, Inc., Wallingford CT, 2019.
 
 ******************************************
 Gaussian 16:  ES64L-G16RevC.01  3-Jul-2019
                 7-Dec-2024 
 ******************************************
 Default route: SCF=Direct
 ----------------------------------------------------
 # m06/genecp scf=tight int=ultrafine 5d freq=noraman
 ----------------------------------------------------
 1/10=4,30=1,38=1/1,3;
 2/12=2,17=6,18=5,40=1/2;
 3/5=7,8=1,11=2,16=1,17=8,25=1,30=1,71=2,74=-54,75=-5,140=1/1,2,3;
 4//1;
 5/5=2,32=2,38=5,98=1/2;
 8/6=4,10=90,11=11/1;
 11/6=1,8=1,9=11,15=111,16=1/1,2,10;
 10/6=1/2;
 6/7=2,8=2,9=2,10=2,28=1/1;
 7/8=1,10=1,25=1/1,2,3,16;
 1/10=4,30=1/3;
 99//99;
 ------
 OPT-TS
 ------
 Symbolic Z-matrix:
 Charge =  0 Multiplicity = 1
 C                     0.98112  -1.96797  -1.72061 
 C                    -1.25792  -1.91972  -1.1377 
 C                    -1.5597   -2.94077  -2.02151 
 C                    -0.54265  -3.48154  -2.80091 
 C                     0.73972  -2.99111  -2.64011 
 C                     2.33259  -1.45809  -1.43564 
 C                     3.62746  -0.11271  -0.07636 
 C                     4.80328  -0.54654  -0.66731 
 C                     4.71722  -1.46245  -1.71105 
 C                     3.47057  -1.9234   -2.09811 
 H                    -2.01602  -1.48606  -0.48877 
 H                    -0.74982  -4.28799  -3.50174 
 H                     1.55604  -3.42514  -3.20909 
 H                     3.63539   0.62005   0.72842 
 H                     5.61381  -1.82068  -2.21318 
 H                     3.38772  -2.65389  -2.89754 
 N                    -0.02217  -1.43107  -1.00001 
 N                     2.42233  -0.54329  -0.45648 
 Ir                    0.47125   0.10099   0.50959 
 O                    -1.83245   2.21113   0.07324 
 O                     0.75393   3.30971   0.3666 
 O                    -2.43545  -0.43291   1.17728 
 B                     1.0528    2.0568   -0.14139 
 B                    -0.8925    1.37346  -0.51112 
 B                    -1.25412   0.16686   1.62042 
 O                    -1.37441   0.53251   2.94338 
 O                    -1.17718   1.19613  -1.85915 
 C                    -2.48591   1.73753  -2.11469 
 C                    -2.64975   2.7718   -0.96135 
 C                    -3.25742  -0.70729   2.32026 
 C                    -2.74193   0.34698   3.34468 
 C                     1.8783    4.16493   0.12474 
 C                     2.53441   3.50944  -1.12386 
 O                     2.17061   2.13203  -0.9673 
 C                    -2.07876   4.14438  -1.28804 
 H                    -2.02762   4.73062  -0.36186 
 H                    -1.05709   4.06434  -1.67813 
 H                    -2.69806   4.68396  -2.01725 
 C                    -4.06815   2.92641  -0.44845 
 H                    -4.73773   3.27392  -1.2485 
 H                    -4.45926   1.98181  -0.05248 
 H                    -4.0913    3.67053   0.3585 
 C                    -2.50136   2.32854  -3.51017 
 H                    -1.68587   3.04637  -3.65477 
 H                    -2.3809    1.52839  -4.2516 
 H                    -3.45621   2.83553  -3.71057 
 C                    -3.48283   0.58839  -2.02773 
 H                    -3.18258  -0.19909  -2.73223 
 H                    -3.50952   0.15816  -1.01653 
 H                    -4.49729   0.9116   -2.29761 
 C                     1.39166   5.58545  -0.07853 
 H                     0.91429   5.94608   0.84142 
 H                     2.23148   6.25572  -0.31267 
 H                     0.65543   5.65297  -0.88702 
 C                     2.75398   4.09319   1.37024 
 H                     3.1125    3.06904   1.54497 
 H                     3.62053   4.76518   1.30821 
 H                     2.14986   4.38184   2.23893 
 C                     1.93854   3.97527  -2.44507 
 H                     2.32857   3.33972  -3.24979 
 H                     0.84557   3.86867  -2.44464 
 H                     2.19485   5.01889  -2.67119 
 C                     4.04652   3.61253  -1.18287 
 H                     4.41671   3.08596  -2.07234 
 H                     4.36692   4.66216  -1.25084 
 H                     4.52217   3.16213  -0.30388 
 C                    -3.42723   1.69849   3.20994 
 H                    -2.8923    2.42408   3.83514 
 H                    -3.37672   2.05461   2.17343 
 H                    -4.47551   1.6647    3.5368 
 C                    -2.76977  -0.11442   4.78768 
 H                    -2.14818  -1.00419   4.93999 
 H                    -2.38404   0.68134   5.43726 
 H                    -3.79736  -0.34434   5.10487 
 C                    -2.97224  -2.14954   2.72094 
 H                    -3.15813  -2.79347   1.84954 
 H                    -1.92296  -2.28286   3.01647 
 H                    -3.61571  -2.48697   3.54451 
 C                    -4.71156  -0.56762   1.91739 
 H                    -4.92317   0.4218    1.49529 
 H                    -4.95311  -1.32065   1.15422 
 H                    -5.37686  -0.72869   2.77774 
 H                     0.90889   1.00812   1.76554 
 C                     2.76944  -2.94021   1.43908 
 O                     2.21868  -3.52751   0.50694 
 C                     4.19549  -3.30049   1.83966 
 H                     4.82873  -2.40003   1.80292 
 H                     4.20852  -3.62701   2.89143 
 C                     0.75454  -1.61611   1.84828 
 H                     0.28182  -2.5055    1.41159 
 H                     0.28467  -1.41791   2.82228 
 N                     2.1467   -1.95592   2.13864 
 C                     2.73379  -1.2202    3.23324 
 H                     2.44938  -0.16134   3.13895 
 H                     2.36139  -1.57891   4.20614 
 H                     3.82554  -1.28483   3.23438 
 C                     4.77691  -4.37165   0.93763 
 H                     5.7951   -4.63464   1.24979 
 H                     4.15949  -5.27613   0.95224 
 C                    -2.97105  -3.41391  -2.16033 
 F                    -3.72053  -3.06764  -1.10904 
 F                    -3.54937  -2.89339  -3.2523 
 F                    -3.02911  -4.74379  -2.28895 
 H                     5.76076  -0.16417  -0.32188 
 H                     4.80955  -4.02405  -0.10294 
 

 GradGradGradGradGradGradGradGradGradGradGradGradGradGradGradGradGradGrad
 Berny optimization.
 Initialization pass.
 Trust Radius=3.00D-01 FncErr=1.00D-07 GrdErr=1.00D-07 EigMax=2.50D+02 EigMin=1.00D-04
 Number of steps in this run=      2 maximum allowed number of steps=      2.
 GradGradGradGradGradGradGradGradGradGradGradGradGradGradGradGradGradGrad

 Stoichiometry    C34H54B3F3IrN3O7
 Framework group  C1[X(C34H54B3F3IrN3O7)]
 Deg. of freedom   309
 Full point group                 C1      NOp   1
 Largest Abelian subgroup         C1      NOp   1
 Largest concise Abelian subgroup C1      NOp   1
                         Standard orientation:                         
 ---------------------------------------------------------------------
 Center     Atomic      Atomic             Coordinates (Angstroms)
 Number     Number       Type             X           Y           Z
 ---------------------------------------------------------------------
      1          6           0        0.981123   -1.967969   -1.720611
      2          6           0       -1.257917   -1.919724   -1.137701
      3          6           0       -1.559695   -2.940774   -2.021511
      4          6           0       -0.542644   -3.481542   -2.800911
      5          6           0        0.739725   -2.991110   -2.640111
      6          6           0        2.332593   -1.458087   -1.435641
      7          6           0        3.627460   -0.112704   -0.076361
      8          6           0        4.803281   -0.546532   -0.667311
      9          6           0        4.717223   -1.462442   -1.711051
     10          6           0        3.470573   -1.923394   -2.098111
     11          1           0       -2.016017   -1.486065   -0.488771
     12          1           0       -0.749812   -4.287993   -3.501741
     13          1           0        1.556046   -3.425138   -3.209091
     14          1           0        3.635388    0.620056    0.728419
     15          1           0        5.613813   -1.820670   -2.213181
     16          1           0        3.387725   -2.653885   -2.897541
     17          7           0       -0.022168   -1.431071   -1.000011
     18          7           0        2.422331   -0.543286   -0.456481
     19         77           0        0.471249    0.100990    0.509589
     20          8           0       -1.832455    2.211125    0.073239
     21          8           0        0.753923    3.309710    0.366599
     22          8           0       -2.435449   -0.432916    1.177279
     23          5           0        1.052796    2.056801   -0.141391
     24          5           0       -0.892503    1.373457   -0.511121
     25          5           0       -1.254121    0.166856    1.620419
     26          8           0       -1.374411    0.532506    2.943379
     27          8           0       -1.177183    1.196127   -1.859151
     28          6           0       -2.485914    1.737524   -2.114691
     29          6           0       -2.649756    2.771794   -0.961351
     30          6           0       -3.257419   -0.707297    2.320259
     31          6           0       -2.741931    0.346974    3.344679
     32          6           0        1.878292    4.164933    0.124739
     33          6           0        2.534403    3.509444   -1.123861
     34          8           0        2.170606    2.132033   -0.967301
     35          6           0       -2.078768    4.144375   -1.288041
     36          1           0       -2.027629    4.730615   -0.361861
     37          1           0       -1.057098    4.064337   -1.678131
     38          1           0       -2.698069    4.683954   -2.017251
     39          6           0       -4.068156    2.926401   -0.448451
     40          1           0       -4.737737    3.273910   -1.248501
     41          1           0       -4.459264    1.981800   -0.052481
     42          1           0       -4.091307    3.670521    0.358499
     43          6           0       -2.501365    2.328534   -3.510171
     44          1           0       -1.685876    3.046366   -3.654771
     45          1           0       -2.380903    1.528384   -4.251601
     46          1           0       -3.456216    2.835522   -3.710571
     47          6           0       -3.482831    0.588382   -2.027731
     48          1           0       -3.182580   -0.199097   -2.732231
     49          1           0       -3.509521    0.158152   -1.016531
     50          1           0       -4.497292    0.911590   -2.297611
     51          6           0        1.391649    5.585452   -0.078531
     52          1           0        0.914278    5.946081    0.841419
     53          1           0        2.231468    6.255723   -0.312671
     54          1           0        0.655419    5.652970   -0.887021
     55          6           0        2.753972    4.093194    1.370239
     56          1           0        3.112494    3.069045    1.544969
     57          1           0        3.620521    4.765186    1.308209
     58          1           0        2.149851    4.381843    2.238929
     59          6           0        1.938532    3.975273   -2.445071
     60          1           0        2.328563    3.339723   -3.249791
     61          1           0        0.845562    3.868671   -2.444641
     62          1           0        2.194840    5.018893   -2.671191
     63          6           0        4.046513    3.612537   -1.182871
     64          1           0        4.416704    3.085967   -2.072341
     65          1           0        4.366911    4.662167   -1.250841
     66          1           0        4.522164    3.162138   -0.303881
     67          6           0       -3.427234    1.698482    3.209939
     68          1           0       -2.892305    2.424073    3.835139
     69          1           0       -3.376724    2.054602    2.173429
     70          1           0       -4.475514    1.664690    3.536799
     71          6           0       -2.769770   -0.114426    4.787679
     72          1           0       -2.148178   -1.004195    4.939989
     73          1           0       -2.384042    0.681334    5.437259
     74          1           0       -3.797360   -0.344348    5.104869
     75          6           0       -2.972236   -2.149547    2.720939
     76          1           0       -3.158125   -2.793477    1.849539
     77          1           0       -1.922956   -2.282865    3.016469
     78          1           0       -3.615706   -2.486978    3.544509
     79          6           0       -4.711559   -0.567630    1.917389
     80          1           0       -4.923171    0.421789    1.495289
     81          1           0       -4.953108   -1.320661    1.154219
     82          1           0       -5.376859   -0.728701    2.777739
     83          1           0        0.908888    1.008121    1.765539
     84          6           0        2.769445   -2.940206    1.439079
     85          8           0        2.218686   -3.527507    0.506939
     86          6           0        4.195496   -3.300483    1.839659
     87          1           0        4.828734   -2.400022    1.802919
     88          1           0        4.208527   -3.627003    2.891429
     89          6           0        0.754543   -1.616110    1.848279
     90          1           0        0.281825   -2.505501    1.411589
     91          1           0        0.284672   -1.417911    2.822279
     92          7           0        2.146703   -1.955917    2.138639
     93          6           0        2.733792   -1.220196    3.233239
     94          1           0        2.449380   -0.161336    3.138949
     95          1           0        2.361393   -1.578907    4.206139
     96          1           0        3.825542   -1.284824    3.234379
     97          6           0        4.776918   -4.371642    0.937629
     98          1           0        5.795109   -4.634630    1.249789
     99          1           0        4.159500   -5.276123    0.952239
    100          6           0       -2.971044   -3.413917   -2.160331
    101          9           0       -3.720524   -3.067648   -1.109041
    102          9           0       -3.549365   -2.893398   -3.252301
    103          9           0       -3.029101   -4.743797   -2.288951
    104          1           0        5.760760   -0.164160   -0.321881
    105          1           0        4.809557   -4.024042   -0.102941
 ---------------------------------------------------------------------
 Rotational constants (GHZ):           0.0631953           0.0591307           0.0471574
 General basis read from cards:  (5D, 7F)
 ======================================================================================================
                                       Pseudopotential Parameters
 ======================================================================================================
  Center     Atomic      Valence      Angular      Power
  Number     Number     Electrons     Momentum     of R      Exponent        Coefficient   SO-Coeffient
 ======================================================================================================
    1          6
                                   No pseudopotential on this center.
    2          6
                                   No pseudopotential on this center.
    3          6
                                   No pseudopotential on this center.
    4          6
                                   No pseudopotential on this center.
    5          6
                                   No pseudopotential on this center.
    6          6
                                   No pseudopotential on this center.
    7          6
                                   No pseudopotential on this center.
    8          6
                                   No pseudopotential on this center.
    9          6
                                   No pseudopotential on this center.
   10          6
                                   No pseudopotential on this center.
   11          1
                                   No pseudopotential on this center.
   12          1
                                   No pseudopotential on this center.
   13          1
                                   No pseudopotential on this center.
   14          1
                                   No pseudopotential on this center.
   15          1
                                   No pseudopotential on this center.
   16          1
                                   No pseudopotential on this center.
   17          7
                                   No pseudopotential on this center.
   18          7
                                   No pseudopotential on this center.
   19         77           17
                                      G and up 
                                                     1      823.5880147       -0.15780140    0.00000000
                                                     2      364.6613336    -1517.52704460    0.00000000
                                                     2       55.7082801     -316.53065290    0.00000000
                                                     2       12.0464544      -91.88809410    0.00000000
                                                     2        3.5120610       -9.22417730    0.00000000
                                      S - G
                                                     0      188.0490770        3.15780140    0.00000000
                                                     1      340.4194712       26.83225770    0.00000000
                                                     2      128.2373673      800.42500070    0.00000000
                                                     2       33.8644961      369.40506830    0.00000000
                                                     2        4.7560005      242.41718990    0.00000000
                                                     2        3.9649974     -118.21732820    0.00000000
                                      P - G
                                                     0      289.7291139        2.15780140    0.00000000
                                                     1       87.4633789       61.96786100    0.00000000
                                                     2       30.4363766      269.05819860    0.00000000
                                                     2        4.0553412      231.16547930    0.00000000
                                                     2        3.5525341     -133.69526670    0.00000000
                                      D - G
                                                     0      136.4017106        3.15780140    0.00000000
                                                     1       95.0776925       45.93498030    0.00000000
                                                     2       49.2258410      359.03446680    0.00000000
                                                     2       15.0874145      176.47401190    0.00000000
                                                     2        4.0405764       54.51552860    0.00000000
                                      F - G
                                                     0      127.3507908        3.95461970    0.00000000
                                                     1       66.2364374       52.97736550    0.00000000
                                                     2       34.4299229      274.86433830    0.00000000
                                                     2       10.1995721      137.20473380    0.00000000
                                                     2        2.5409702       14.86333050    0.00000000
   20          8
                                   No pseudopotential on this center.
   21          8
                                   No pseudopotential on this center.
   22          8
                                   No pseudopotential on this center.
   23          5
                                   No pseudopotential on this center.
   24          5
                                   No pseudopotential on this center.
   25          5
                                   No pseudopotential on this center.
   26          8
                                   No pseudopotential on this center.
   27          8
                                   No pseudopotential on this center.
   28          6
                                   No pseudopotential on this center.
   29          6
                                   No pseudopotential on this center.
   30          6
                                   No pseudopotential on this center.
   31          6
                                   No pseudopotential on this center.
   32          6
                                   No pseudopotential on this center.
   33          6
                                   No pseudopotential on this center.
   34          8
                                   No pseudopotential on this center.
   35          6
                                   No pseudopotential on this center.
   36          1
                                   No pseudopotential on this center.
   37          1
                                   No pseudopotential on this center.
   38          1
                                   No pseudopotential on this center.
   39          6
                                   No pseudopotential on this center.
   40          1
                                   No pseudopotential on this center.
   41          1
                                   No pseudopotential on this center.
   42          1
                                   No pseudopotential on this center.
   43          6
                                   No pseudopotential on this center.
   44          1
                                   No pseudopotential on this center.
   45          1
                                   No pseudopotential on this center.
   46          1
                                   No pseudopotential on this center.
   47          6
                                   No pseudopotential on this center.
   48          1
                                   No pseudopotential on this center.
   49          1
                                   No pseudopotential on this center.
   50          1
                                   No pseudopotential on this center.
   51          6
                                   No pseudopotential on this center.
   52          1
                                   No pseudopotential on this center.
   53          1
                                   No pseudopotential on this center.
   54          1
                                   No pseudopotential on this center.
   55          6
                                   No pseudopotential on this center.
   56          1
                                   No pseudopotential on this center.
   57          1
                                   No pseudopotential on this center.
   58          1
                                   No pseudopotential on this center.
   59          6
                                   No pseudopotential on this center.
   60          1
                                   No pseudopotential on this center.
   61          1
                                   No pseudopotential on this center.
   62          1
                                   No pseudopotential on this center.
   63          6
                                   No pseudopotential on this center.
   64          1
                                   No pseudopotential on this center.
   65          1
                                   No pseudopotential on this center.
   66          1
                                   No pseudopotential on this center.
   67          6
                                   No pseudopotential on this center.
   68          1
                                   No pseudopotential on this center.
   69          1
                                   No pseudopotential on this center.
   70          1
                                   No pseudopotential on this center.
   71          6
                                   No pseudopotential on this center.
   72          1
                                   No pseudopotential on this center.
   73          1
                                   No pseudopotential on this center.
   74          1
                                   No pseudopotential on this center.
   75          6
                                   No pseudopotential on this center.
   76          1
                                   No pseudopotential on this center.
   77          1
                                   No pseudopotential on this center.
   78          1
                                   No pseudopotential on this center.
   79          6
                                   No pseudopotential on this center.
   80          1
                                   No pseudopotential on this center.
   81          1
                                   No pseudopotential on this center.
   82          1
                                   No pseudopotential on this center.
   83          1
                                   No pseudopotential on this center.
   84          6
                                   No pseudopotential on this center.
   85          8
                                   No pseudopotential on this center.
   86          6
                                   No pseudopotential on this center.
   87          1
                                   No pseudopotential on this center.
   88          1
                                   No pseudopotential on this center.
   89          6
                                   No pseudopotential on this center.
   90          1
                                   No pseudopotential on this center.
   91          1
                                   No pseudopotential on this center.
   92          7
                                   No pseudopotential on this center.
   93          6
                                   No pseudopotential on this center.
   94          1
                                   No pseudopotential on this center.
   95          1
                                   No pseudopotential on this center.
   96          1
                                   No pseudopotential on this center.
   97          6
                                   No pseudopotential on this center.
   98          1
                                   No pseudopotential on this center.
   99          1
                                   No pseudopotential on this center.
  100          6
                                   No pseudopotential on this center.
  101          9
                                   No pseudopotential on this center.
  102          9
                                   No pseudopotential on this center.
  103          9
                                   No pseudopotential on this center.
  104          1
                                   No pseudopotential on this center.
  105          1
                                   No pseudopotential on this center.
 ======================================================================================================
 There are   882 symmetry adapted cartesian basis functions of A   symmetry.
 There are   830 symmetry adapted basis functions of A   symmetry.
   830 basis functions,  1659 primitive gaussians,   882 cartesian basis functions
   197 alpha electrons      197 beta electrons
       nuclear repulsion energy      8608.2881522026 Hartrees.
 NAtoms=  105 NActive=  105 NUniq=  105 SFac= 1.00D+00 NAtFMM=   60 NAOKFM=T Big=T
 Integral buffers will be    131072 words long.
 Raffenetti 2 integral format.
 Two-electron integral symmetry is turned on.
 One-electron integrals computed using PRISM.
   1 Symmetry operations used in ECPInt.
 ECPInt:  NShTT=   50086 NPrTT=  307226 LenC2=   38715 LenP2D=  120610.
 LDataN:  DoStor=T MaxTD1= 6 Len=  172
 NBasis=   830 RedAO= T EigKep=  4.84D-04  NBF=   830
 NBsUse=   830 1.00D-06 EigRej= -1.00D+00 NBFU=   830
 Defaulting to unpruned grid for atomic number  77.
 ExpMin= 2.90D-02 ExpMax= 7.00D+03 ExpMxC= 1.05D+03 IAcc=3 IRadAn=         5 AccDes= 0.00D+00
 Harris functional with IExCor= 1009 and IRadAn=       5 diagonalized for initial guess.
 HarFok:  IExCor= 1009 AccDes= 0.00D+00 IRadAn=         5 IDoV= 1 UseB2=F ITyADJ=14
 ICtDFT=  3500011 ScaDFX=  1.000000  1.000000  1.000000  1.000000
 Defaulting to unpruned grid for atomic number  77.
 FoFCou: FMM=F IPFlag=           0 FMFlag=      100000 FMFlg1=        2001
         NFxFlg=           0 DoJE=T BraDBF=F KetDBF=T FulRan=T
         wScrn=  0.000000 ICntrl=       500 IOpCl=  0 I1Cent=   200000004 NGrid=           0
         NMat0=    1 NMatS0=      1 NMatT0=    0 NMatD0=    1 NMtDS0=    0 NMtDT0=    0
 Petite list used in FoFCou.
 Requested convergence on RMS density matrix=1.00D-08 within 128 cycles.
 Requested convergence on MAX density matrix=1.00D-06.
 Requested convergence on             energy=1.00D-06.
 No special actions if energy rises.
 Defaulting to unpruned grid for atomic number  77.
 Defaulting to unpruned grid for atomic number  77.
 Defaulting to unpruned grid for atomic number  77.
 Defaulting to unpruned grid for atomic number  77.
 Defaulting to unpruned grid for atomic number  77.
 Defaulting to unpruned grid for atomic number  77.
 Defaulting to unpruned grid for atomic number  77.
 Defaulting to unpruned grid for atomic number  77.
 Defaulting to unpruned grid for atomic number  77.
 Defaulting to unpruned grid for atomic number  77.
 Defaulting to unpruned grid for atomic number  77.
 Defaulting to unpruned grid for atomic number  77.
 Defaulting to unpruned grid for atomic number  77.
 Defaulting to unpruned grid for atomic number  77.
 Defaulting to unpruned grid for atomic number  77.
 Defaulting to unpruned grid for atomic number  77.
 SCF Done:  E(RM06) =  -2496.61360799     A.U. after   16 cycles
            NFock= 16  Conv=0.38D-08     -V/T= 2.0359
 DoSCS=F DFT=T ScalE2(SS,OS)=  1.000000  1.000000
 Range of M.O.s used for correlation:     1   830
 NBasis=   830 NAE=   197 NBE=   197 NFC=     0 NFV=     0
 NROrb=    830 NOA=   197 NOB=   197 NVA=   633 NVB=   633
   1 Symmetry operations used in ECPInt.
 ECPInt:  NShTT=   50086 NPrTT=  307226 LenC2=   38715 LenP2D=  120610.
 LDataN:  DoStor=T MaxTD1= 7 Len=  274
 Number of processors reduced to   8 by ecpmxn.
 Symmetrizing basis deriv contribution to polar:
 IMax=3 JMax=2 DiffMx= 0.00D+00
 G2DrvN: will do   106 centers at a time, making    1 passes.
 Calling FoFCou, ICntrl=  3107 FMM=T I1Cent=   0 AccDes= 0.00D+00.
 Defaulting to unpruned grid for atomic number  77.
 Defaulting to unpruned grid for atomic number  77.
 Defaulting to unpruned grid for atomic number  77.
 Defaulting to unpruned grid for atomic number  77.
 Defaulting to unpruned grid for atomic number  77.
 Defaulting to unpruned grid for atomic number  77.
 Defaulting to unpruned grid for atomic number  77.
 Defaulting to unpruned grid for atomic number  77.
 Defaulting to unpruned grid for atomic number  77.
 Defaulting to unpruned grid for atomic number  77.
 Defaulting to unpruned grid for atomic number  77.
 Defaulting to unpruned grid for atomic number  77.
 Defaulting to unpruned grid for atomic number  77.
 Defaulting to unpruned grid for atomic number  77.
 Defaulting to unpruned grid for atomic number  77.
 Defaulting to unpruned grid for atomic number  77.
 End of G2Drv F.D. properties file   721 does not exist.
 End of G2Drv F.D. properties file   722 does not exist.
 End of G2Drv F.D. properties file   788 does not exist.
          IDoAtm=11111111111111111111111111111111111111111111111111
          IDoAtm=11111111111111111111111111111111111111111111111111
          IDoAtm=11111
          Differentiating once with respect to electric field.
                with respect to dipole field.
          Differentiating once with respect to nuclear coordinates.
 Defaulting to unpruned grid for atomic number  77.
 CalDSu exits because no D1Ps are significant.
 Defaulting to unpruned grid for atomic number  77.
 Defaulting to unpruned grid for atomic number  77.
 Defaulting to unpruned grid for atomic number  77.
 Defaulting to unpruned grid for atomic number  77.
 Defaulting to unpruned grid for atomic number  77.
 Defaulting to unpruned grid for atomic number  77.
 Defaulting to unpruned grid for atomic number  77.
 Defaulting to unpruned grid for atomic number  77.
 Defaulting to unpruned grid for atomic number  77.
 Defaulting to unpruned grid for atomic number  77.
 Defaulting to unpruned grid for atomic number  77.
 Defaulting to unpruned grid for atomic number  77.
 Defaulting to unpruned grid for atomic number  77.
 Defaulting to unpruned grid for atomic number  77.
 Defaulting to unpruned grid for atomic number  77.
 Defaulting to unpruned grid for atomic number  77.
          There are   318 degrees of freedom in the 1st order CPHF.  IDoFFX=6 NUNeed=     3.
    315 vectors produced by pass  0 Test12= 1.25D-13 1.00D-09 XBig12= 4.78D+02 7.49D+00.
 AX will form    72 AO Fock derivatives at one time.
    315 vectors produced by pass  1 Test12= 1.25D-13 1.00D-09 XBig12= 6.22D+01 7.93D-01.
    315 vectors produced by pass  2 Test12= 1.25D-13 1.00D-09 XBig12= 7.58D-01 9.60D-02.
    315 vectors produced by pass  3 Test12= 1.25D-13 1.00D-09 XBig12= 5.45D-03 5.54D-03.
    315 vectors produced by pass  4 Test12= 1.25D-13 1.00D-09 XBig12= 2.04D-05 3.74D-04.
    284 vectors produced by pass  5 Test12= 1.25D-13 1.00D-09 XBig12= 3.96D-08 1.66D-05.
     77 vectors produced by pass  6 Test12= 1.25D-13 1.00D-09 XBig12= 6.00D-11 4.32D-07.
      3 vectors produced by pass  7 Test12= 1.25D-13 1.00D-09 XBig12= 8.47D-14 1.45D-08.
 InvSVY:  IOpt=1 It=  1 EMax= 2.49D-14
 Solved reduced A of dimension  1939 with   318 vectors.
 Isotropic polarizability for W=    0.000000      475.83 Bohr**3.
 End of Minotr F.D. properties file   721 does not exist.
 End of Minotr F.D. properties file   722 does not exist.
 End of Minotr F.D. properties file   788 does not exist.
 Hyperfine terms turned off by default for NAtoms > 100.

 **********************************************************************

            Population analysis using the SCF Density.

 **********************************************************************

 Orbital symmetries:
       Occupied  (A) (A) (A) (A) (A) (A) (A) (A) (A) (A) (A) (A)
                 (A) (A) (A) (A) (A) (A) (A) (A) (A) (A) (A) (A)
                 (A) (A) (A) (A) (A) (A) (A) (A) (A) (A) (A) (A)
                 (A) (A) (A) (A) (A) (A) (A) (A) (A) (A) (A) (A)
                 (A) (A) (A) (A) (A) (A) (A) (A) (A) (A) (A) (A)
                 (A) (A) (A) (A) (A) (A) (A) (A) (A) (A) (A) (A)
                 (A) (A) (A) (A) (A) (A) (A) (A) (A) (A) (A) (A)
                 (A) (A) (A) (A) (A) (A) (A) (A) (A) (A) (A) (A)
                 (A) (A) (A) (A) (A) (A) (A) (A) (A) (A) (A) (A)
                 (A) (A) (A) (A) (A) (A) (A) (A) (A) (A) (A) (A)
                 (A) (A) (A) (A) (A) (A) (A) (A) (A) (A) (A) (A)
                 (A) (A) (A) (A) (A) (A) (A) (A) (A) (A) (A) (A)
                 (A) (A) (A) (A) (A) (A) (A) (A) (A) (A) (A) (A)
                 (A) (A) (A) (A) (A) (A) (A) (A) (A) (A) (A) (A)
                 (A) (A) (A) (A) (A) (A) (A) (A) (A) (A) (A) (A)
                 (A) (A) (A) (A) (A) (A) (A) (A) (A) (A) (A) (A)
                 (A) (A) (A) (A) (A)
       Virtual   (A) (A) (A) (A) (A) (A) (A) (A) (A) (A) (A) (A)
                 (A) (A) (A) (A) (A) (A) (A) (A) (A) (A) (A) (A)
                 (A) (A) (A) (A) (A) (A) (A) (A) (A) (A) (A) (A)
                 (A) (A) (A) (A) (A) (A) (A) (A) (A) (A) (A) (A)
                 (A) (A) (A) (A) (A) (A) (A) (A) (A) (A) (A) (A)
                 (A) (A) (A) (A) (A) (A) (A) (A) (A) (A) (A) (A)
                 (A) (A) (A) (A) (A) (A) (A) (A) (A) (A) (A) (A)
                 (A) (A) (A) (A) (A) (A) (A) (A) (A) (A) (A) (A)
                 (A) (A) (A) (A) (A) (A) (A) (A) (A) (A) (A) (A)
                 (A) (A) (A) (A) (A) (A) (A) (A) (A) (A) (A) (A)
                 (A) (A) (A) (A) (A) (A) (A) (A) (A) (A) (A) (A)
                 (A) (A) (A) (A) (A) (A) (A) (A) (A) (A) (A) (A)
                 (A) (A) (A) (A) (A) (A) (A) (A) (A) (A) (A) (A)
                 (A) (A) (A) (A) (A) (A) (A) (A) (A) (A) (A) (A)
                 (A) (A) (A) (A) (A) (A) (A) (A) (A) (A) (A) (A)
                 (A) (A) (A) (A) (A) (A) (A) (A) (A) (A) (A) (A)
                 (A) (A) (A) (A) (A) (A) (A) (A) (A) (A) (A) (A)
                 (A) (A) (A) (A) (A) (A) (A) (A) (A) (A) (A) (A)
                 (A) (A) (A) (A) (A) (A) (A) (A) (A) (A) (A) (A)
                 (A) (A) (A) (A) (A) (A) (A) (A) (A) (A) (A) (A)
                 (A) (A) (A) (A) (A) (A) (A) (A) (A) (A) (A) (A)
                 (A) (A) (A) (A) (A) (A) (A) (A) (A) (A) (A) (A)
                 (A) (A) (A) (A) (A) (A) (A) (A) (A) (A) (A) (A)
                 (A) (A) (A) (A) (A) (A) (A) (A) (A) (A) (A) (A)
                 (A) (A) (A) (A) (A) (A) (A) (A) (A) (A) (A) (A)
                 (A) (A) (A) (A) (A) (A) (A) (A) (A) (A) (A) (A)
                 (A) (A) (A) (A) (A) (A) (A) (A) (A) (A) (A) (A)
                 (A) (A) (A) (A) (A) (A) (A) (A) (A) (A) (A) (A)
                 (A) (A) (A) (A) (A) (A) (A) (A) (A) (A) (A) (A)
                 (A) (A) (A) (A) (A) (A) (A) (A) (A) (A) (A) (A)
                 (A) (A) (A) (A) (A) (A) (A) (A) (A) (A) (A) (A)
                 (A) (A) (A) (A) (A) (A) (A) (A) (A) (A) (A) (A)
                 (A) (A) (A) (A) (A) (A) (A) (A) (A) (A) (A) (A)
                 (A) (A) (A) (A) (A) (A) (A) (A) (A) (A) (A) (A)
                 (A) (A) (A) (A) (A) (A) (A) (A) (A) (A) (A) (A)
                 (A) (A) (A) (A) (A) (A) (A) (A) (A) (A) (A) (A)
                 (A) (A) (A) (A) (A) (A) (A) (A) (A) (A) (A) (A)
                 (A) (A) (A) (A) (A) (A) (A) (A) (A) (A) (A) (A)
                 (A) (A) (A) (A) (A) (A) (A) (A) (A) (A) (A) (A)
                 (A) (A) (A) (A) (A) (A) (A) (A) (A) (A) (A) (A)
                 (A) (A) (A) (A) (A) (A) (A) (A) (A) (A) (A) (A)
                 (A) (A) (A) (A) (A) (A) (A) (A) (A) (A) (A) (A)
                 (A) (A) (A) (A) (A) (A) (A) (A) (A) (A) (A) (A)
                 (A) (A) (A) (A) (A) (A) (A) (A) (A) (A) (A) (A)
                 (A) (A) (A) (A) (A) (A) (A) (A) (A) (A) (A) (A)
                 (A) (A) (A) (A) (A) (A) (A) (A) (A) (A) (A) (A)
                 (A) (A) (A) (A) (A) (A) (A) (A) (A) (A) (A) (A)
                 (A) (A) (A) (A) (A) (A) (A) (A) (A) (A) (A) (A)
                 (A) (A) (A) (A) (A) (A) (A) (A) (A) (A) (A) (A)
                 (A) (A) (A) (A) (A) (A) (A) (A) (A) (A) (A) (A)
                 (A) (A) (A) (A) (A) (A) (A) (A) (A) (A) (A) (A)
                 (A) (A) (A) (A) (A) (A) (A) (A) (A) (A) (A) (A)
                 (A) (A) (A) (A) (A) (A) (A) (A) (A)
 The electronic state is 1-A.
 Alpha  occ. eigenvalues --  -24.82727 -24.82458 -24.82112 -19.20915 -19.20703
 Alpha  occ. eigenvalues --  -19.20616 -19.20613 -19.20161 -19.19972 -19.16831
 Alpha  occ. eigenvalues --  -14.45245 -14.44425 -14.40758 -10.50918 -10.32484
 Alpha  occ. eigenvalues --  -10.32225 -10.31851 -10.30584 -10.30122 -10.29957
 Alpha  occ. eigenvalues --  -10.29833 -10.29447 -10.29425 -10.29390 -10.29241
 Alpha  occ. eigenvalues --  -10.29056 -10.28784 -10.28625 -10.28172 -10.27927
 Alpha  occ. eigenvalues --  -10.27697 -10.26311 -10.24346 -10.23637 -10.23076
 Alpha  occ. eigenvalues --  -10.22950 -10.22934 -10.22876 -10.22813 -10.22803
 Alpha  occ. eigenvalues --  -10.22738 -10.22551 -10.22436 -10.22335 -10.22224
 Alpha  occ. eigenvalues --  -10.22189 -10.21512  -6.81636  -6.81362  -6.80463
 Alpha  occ. eigenvalues --   -3.64959  -2.07210  -2.06624  -2.06224  -1.35260
 Alpha  occ. eigenvalues --   -1.26772  -1.26274  -1.06979  -1.06511  -1.06216
 Alpha  occ. eigenvalues --   -1.02661  -1.00225  -0.99875  -0.99483  -0.99380
 Alpha  occ. eigenvalues --   -0.97628  -0.92214  -0.85768  -0.83776  -0.83081
 Alpha  occ. eigenvalues --   -0.81029  -0.80539  -0.80264  -0.78761  -0.77542
 Alpha  occ. eigenvalues --   -0.75462  -0.74903  -0.74710  -0.73409  -0.71004
 Alpha  occ. eigenvalues --   -0.70442  -0.70150  -0.70059  -0.68460  -0.68343
 Alpha  occ. eigenvalues --   -0.68201  -0.67805  -0.67566  -0.67340  -0.65095
 Alpha  occ. eigenvalues --   -0.64113  -0.62510  -0.61834  -0.61398  -0.61280
 Alpha  occ. eigenvalues --   -0.61226  -0.61007  -0.59957  -0.57087  -0.55558
 Alpha  occ. eigenvalues --   -0.54971  -0.54759  -0.54603  -0.53658  -0.53524
 Alpha  occ. eigenvalues --   -0.53198  -0.52128  -0.51771  -0.50163  -0.49498
 Alpha  occ. eigenvalues --   -0.48872  -0.48751  -0.48496  -0.48394  -0.47919
 Alpha  occ. eigenvalues --   -0.47714  -0.47252  -0.46931  -0.46566  -0.46436
 Alpha  occ. eigenvalues --   -0.46245  -0.45998  -0.45730  -0.45257  -0.45173
 Alpha  occ. eigenvalues --   -0.44947  -0.44699  -0.44396  -0.44239  -0.44189
 Alpha  occ. eigenvalues --   -0.43914  -0.43707  -0.43475  -0.43406  -0.43136
 Alpha  occ. eigenvalues --   -0.42613  -0.42190  -0.41893  -0.40681  -0.40593
 Alpha  occ. eigenvalues --   -0.40309  -0.40178  -0.40024  -0.39935  -0.39848
 Alpha  occ. eigenvalues --   -0.39798  -0.39719  -0.39535  -0.39437  -0.39254
 Alpha  occ. eigenvalues --   -0.39092  -0.38831  -0.38720  -0.38139  -0.37775
 Alpha  occ. eigenvalues --   -0.37592  -0.37444  -0.37296  -0.37175  -0.37136
 Alpha  occ. eigenvalues --   -0.37039  -0.36570  -0.36255  -0.36167  -0.36157
 Alpha  occ. eigenvalues --   -0.35866  -0.35609  -0.35374  -0.35150  -0.34845
 Alpha  occ. eigenvalues --   -0.34814  -0.34334  -0.34120  -0.33641  -0.33170
 Alpha  occ. eigenvalues --   -0.32901  -0.32605  -0.32229  -0.31839  -0.31583
 Alpha  occ. eigenvalues --   -0.31269  -0.31109  -0.30476  -0.30364  -0.29846
 Alpha  occ. eigenvalues --   -0.28768  -0.27904  -0.27372  -0.26859  -0.26672
 Alpha  occ. eigenvalues --   -0.26434  -0.26204  -0.25392  -0.24172  -0.23810
 Alpha  occ. eigenvalues --   -0.22850  -0.18621
 Alpha virt. eigenvalues --   -0.07133  -0.03674  -0.02923   0.01207   0.01483
 Alpha virt. eigenvalues --    0.02735   0.05112   0.05510   0.05894   0.07013
 Alpha virt. eigenvalues --    0.07452   0.08632   0.09627   0.09713   0.10288
 Alpha virt. eigenvalues --    0.10722   0.10934   0.11022   0.11279   0.11489
 Alpha virt. eigenvalues --    0.12458   0.12625   0.12821   0.13543   0.13629
 Alpha virt. eigenvalues --    0.13798   0.13973   0.14418   0.14652   0.14737
 Alpha virt. eigenvalues --    0.14864   0.15344   0.15408   0.15718   0.15754
 Alpha virt. eigenvalues --    0.15864   0.16004   0.16283   0.16548   0.16666
 Alpha virt. eigenvalues --    0.16921   0.17087   0.17116   0.17296   0.17807
 Alpha virt. eigenvalues --    0.17860   0.18002   0.18217   0.18572   0.18685
 Alpha virt. eigenvalues --    0.18911   0.19070   0.19342   0.19542   0.19658
 Alpha virt. eigenvalues --    0.19796   0.20204   0.20234   0.20600   0.20801
 Alpha virt. eigenvalues --    0.21216   0.21395   0.21663   0.21827   0.22016
 Alpha virt. eigenvalues --    0.22138   0.22516   0.22809   0.23011   0.23159
 Alpha virt. eigenvalues --    0.23234   0.23496   0.23776   0.23853   0.24067
 Alpha virt. eigenvalues --    0.24270   0.24387   0.24744   0.24967   0.25116
 Alpha virt. eigenvalues --    0.25217   0.25488   0.26002   0.26181   0.26297
 Alpha virt. eigenvalues --    0.26985   0.27151   0.27351   0.27595   0.27805
 Alpha virt. eigenvalues --    0.28080   0.28650   0.28691   0.29418   0.29716
 Alpha virt. eigenvalues --    0.30211   0.30722   0.30860   0.31570   0.31862
 Alpha virt. eigenvalues --    0.32084   0.32610   0.33136   0.34618   0.35197
 Alpha virt. eigenvalues --    0.35604   0.36338   0.36668   0.37195   0.37639
 Alpha virt. eigenvalues --    0.37852   0.39243   0.39889   0.40032   0.40116
 Alpha virt. eigenvalues --    0.41321   0.43042   0.43319   0.44747   0.45719
 Alpha virt. eigenvalues --    0.46701   0.47489   0.47962   0.48653   0.49311
 Alpha virt. eigenvalues --    0.49706   0.50372   0.50581   0.50727   0.50963
 Alpha virt. eigenvalues --    0.51485   0.51693   0.52183   0.52518   0.52818
 Alpha virt. eigenvalues --    0.52840   0.53433   0.54009   0.54579   0.55095
 Alpha virt. eigenvalues --    0.55564   0.55657   0.56000   0.56389   0.56902
 Alpha virt. eigenvalues --    0.57224   0.57294   0.57403   0.57877   0.57927
 Alpha virt. eigenvalues --    0.58580   0.58927   0.58953   0.59247   0.59773
 Alpha virt. eigenvalues --    0.59892   0.60111   0.60338   0.60720   0.60855
 Alpha virt. eigenvalues --    0.60882   0.61525   0.61705   0.62461   0.62591
 Alpha virt. eigenvalues --    0.62691   0.62875   0.63256   0.63428   0.63670
 Alpha virt. eigenvalues --    0.64481   0.64704   0.65283   0.65376   0.65665
 Alpha virt. eigenvalues --    0.66096   0.66442   0.66946   0.67250   0.67397
 Alpha virt. eigenvalues --    0.67812   0.68454   0.68897   0.69495   0.69583
 Alpha virt. eigenvalues --    0.69834   0.70368   0.71107   0.71215   0.71327
 Alpha virt. eigenvalues --    0.71763   0.72120   0.72276   0.72720   0.72994
 Alpha virt. eigenvalues --    0.73406   0.73712   0.73999   0.74217   0.74471
 Alpha virt. eigenvalues --    0.74784   0.75518   0.76024   0.76555   0.76624
 Alpha virt. eigenvalues --    0.77299   0.77792   0.78243   0.78415   0.78773
 Alpha virt. eigenvalues --    0.79276   0.79605   0.79890   0.80527   0.80865
 Alpha virt. eigenvalues --    0.81446   0.81919   0.82089   0.82767   0.82991
 Alpha virt. eigenvalues --    0.83281   0.83591   0.83933   0.84190   0.84229
 Alpha virt. eigenvalues --    0.84515   0.84868   0.85034   0.85185   0.85463
 Alpha virt. eigenvalues --    0.85923   0.86135   0.86477   0.86637   0.87115
 Alpha virt. eigenvalues --    0.87215   0.87291   0.87675   0.87986   0.88179
 Alpha virt. eigenvalues --    0.88401   0.88497   0.88753   0.88955   0.89348
 Alpha virt. eigenvalues --    0.89440   0.89532   0.90069   0.90291   0.90369
 Alpha virt. eigenvalues --    0.90752   0.90910   0.91396   0.91455   0.91714
 Alpha virt. eigenvalues --    0.92355   0.92556   0.92859   0.92978   0.93498
 Alpha virt. eigenvalues --    0.93831   0.94055   0.94665   0.94850   0.95285
 Alpha virt. eigenvalues --    0.95529   0.95731   0.96495   0.96826   0.96989
 Alpha virt. eigenvalues --    0.97088   0.97416   0.97836   0.98494   0.98656
 Alpha virt. eigenvalues --    0.98948   0.99289   0.99775   1.00012   1.00493
 Alpha virt. eigenvalues --    1.01010   1.01310   1.02067   1.02191   1.02791
 Alpha virt. eigenvalues --    1.03379   1.04000   1.04731   1.06093   1.06205
 Alpha virt. eigenvalues --    1.06482   1.07037   1.07816   1.08015   1.09041
 Alpha virt. eigenvalues --    1.09374   1.10104   1.10540   1.11629   1.12611
 Alpha virt. eigenvalues --    1.13080   1.13704   1.14179   1.14490   1.15126
 Alpha virt. eigenvalues --    1.15289   1.16521   1.16939   1.17267   1.17719
 Alpha virt. eigenvalues --    1.17963   1.17991   1.18736   1.19310   1.19866
 Alpha virt. eigenvalues --    1.20099   1.20443   1.20532   1.21857   1.22386
 Alpha virt. eigenvalues --    1.22750   1.22998   1.23850   1.24135   1.24634
 Alpha virt. eigenvalues --    1.25970   1.26203   1.26942   1.27783   1.28000
 Alpha virt. eigenvalues --    1.28298   1.29314   1.29923   1.30201   1.31345
 Alpha virt. eigenvalues --    1.32247   1.33112   1.33702   1.33941   1.34352
 Alpha virt. eigenvalues --    1.35352   1.35792   1.36568   1.36986   1.37221
 Alpha virt. eigenvalues --    1.37748   1.38699   1.38912   1.39076   1.39730
 Alpha virt. eigenvalues --    1.40403   1.40823   1.41167   1.41991   1.42729
 Alpha virt. eigenvalues --    1.43265   1.43310   1.44194   1.44468   1.45052
 Alpha virt. eigenvalues --    1.45420   1.46001   1.46109   1.46672   1.46983
 Alpha virt. eigenvalues --    1.47520   1.47699   1.48092   1.48933   1.49558
 Alpha virt. eigenvalues --    1.50377   1.50553   1.51375   1.51705   1.52596
 Alpha virt. eigenvalues --    1.53238   1.54630   1.55021   1.55685   1.57840
 Alpha virt. eigenvalues --    1.58265   1.59171   1.60060   1.61239   1.62001
 Alpha virt. eigenvalues --    1.62521   1.63105   1.64047   1.64737   1.64789
 Alpha virt. eigenvalues --    1.65318   1.66205   1.66594   1.66784   1.67435
 Alpha virt. eigenvalues --    1.67889   1.68661   1.69259   1.70018   1.70429
 Alpha virt. eigenvalues --    1.70969   1.72067   1.72159   1.73325   1.73890
 Alpha virt. eigenvalues --    1.74349   1.75198   1.76220   1.76496   1.76849
 Alpha virt. eigenvalues --    1.77573   1.78141   1.78786   1.79427   1.79801
 Alpha virt. eigenvalues --    1.80584   1.80757   1.81616   1.81749   1.82403
 Alpha virt. eigenvalues --    1.82796   1.83165   1.83429   1.83786   1.84432
 Alpha virt. eigenvalues --    1.84850   1.85635   1.86258   1.86694   1.86818
 Alpha virt. eigenvalues --    1.87128   1.87543   1.87791   1.88232   1.88573
 Alpha virt. eigenvalues --    1.89313   1.89505   1.90172   1.90491   1.91082
 Alpha virt. eigenvalues --    1.91215   1.91409   1.91823   1.92222   1.92302
 Alpha virt. eigenvalues --    1.92573   1.92771   1.93015   1.93219   1.93689
 Alpha virt. eigenvalues --    1.93901   1.94538   1.94823   1.95073   1.95944
 Alpha virt. eigenvalues --    1.96350   1.97006   1.97608   1.97758   1.98543
 Alpha virt. eigenvalues --    1.98915   1.99508   2.01390   2.02039   2.02405
 Alpha virt. eigenvalues --    2.02622   2.02843   2.03171   2.03447   2.03679
 Alpha virt. eigenvalues --    2.03884   2.04569   2.04763   2.05016   2.05780
 Alpha virt. eigenvalues --    2.06003   2.06690   2.06885   2.07165   2.07807
 Alpha virt. eigenvalues --    2.08001   2.08247   2.09076   2.09574   2.09859
 Alpha virt. eigenvalues --    2.10043   2.10485   2.11139   2.11370   2.11744
 Alpha virt. eigenvalues --    2.12023   2.12966   2.13339   2.13426   2.13924
 Alpha virt. eigenvalues --    2.14001   2.14600   2.14932   2.15244   2.16094
 Alpha virt. eigenvalues --    2.16226   2.16946   2.17347   2.17717   2.18060
 Alpha virt. eigenvalues --    2.18241   2.18649   2.18780   2.19312   2.19563
 Alpha virt. eigenvalues --    2.20200   2.20352   2.20676   2.21397   2.21709
 Alpha virt. eigenvalues --    2.21964   2.22433   2.22806   2.23163   2.23511
 Alpha virt. eigenvalues --    2.24101   2.24251   2.24534   2.25085   2.25427
 Alpha virt. eigenvalues --    2.25983   2.26340   2.26620   2.27185   2.27649
 Alpha virt. eigenvalues --    2.27839   2.28039   2.28718   2.29784   2.30529
 Alpha virt. eigenvalues --    2.30914   2.31475   2.31918   2.32657   2.32769
 Alpha virt. eigenvalues --    2.33430   2.33816   2.34201   2.34859   2.34961
 Alpha virt. eigenvalues --    2.36176   2.37006   2.38137   2.38784   2.39039
 Alpha virt. eigenvalues --    2.39888   2.40186   2.40849   2.42076   2.44162
 Alpha virt. eigenvalues --    2.45225   2.46474   2.47166   2.47434   2.48156
 Alpha virt. eigenvalues --    2.48282   2.48470   2.49597   2.49930   2.50364
 Alpha virt. eigenvalues --    2.51333   2.52086   2.52264   2.54742   2.54819
 Alpha virt. eigenvalues --    2.55134   2.59654   2.60647   2.61019   2.61229
 Alpha virt. eigenvalues --    2.61401   2.61696   2.62710   2.64179   2.64732
 Alpha virt. eigenvalues --    2.64947   2.65816   2.66782   2.67528   2.68924
 Alpha virt. eigenvalues --    2.70190   2.71156   2.72342   2.72985   2.77057
 Alpha virt. eigenvalues --    2.77239   2.77699   2.78012   2.78716   2.78950
 Alpha virt. eigenvalues --    2.79316   2.79667   2.80315   2.81252   2.81355
 Alpha virt. eigenvalues --    2.81645   2.82479   2.83259   2.84048   2.84559
 Alpha virt. eigenvalues --    2.85411   2.90165   2.91071   2.91710   2.92233
 Alpha virt. eigenvalues --    2.93706   2.94954   2.95891   2.96145   2.96444
 Alpha virt. eigenvalues --    2.99745   3.00419   3.03039   3.05528   3.05815
 Alpha virt. eigenvalues --    3.07304   3.07688   3.08442   3.11401   3.12854
 Alpha virt. eigenvalues --    3.12945   3.13181   3.15044   3.22663   3.26930
 Alpha virt. eigenvalues --    3.32413   3.46128  11.51310
          Condensed to atoms (all electrons):
 Mulliken charges:
               1
     1  C    0.364113
     2  C    0.056448
     3  C   -0.078752
     4  C   -0.151016
     5  C   -0.180863
     6  C    0.325207
     7  C    0.073214
     8  C   -0.168999
     9  C   -0.148222
    10  C   -0.167626
    11  H    0.230598
    12  H    0.198016
    13  H    0.177117
    14  H    0.178983
    15  H    0.182397
    16  H    0.172303
    17  N   -0.529761
    18  N   -0.460717
    19  Ir  -0.284881
    20  O   -0.507162
    21  O   -0.497864
    22  O   -0.534988
    23  B    0.547292
    24  B    0.482572
    25  B    0.518519
    26  O   -0.501647
    27  O   -0.502061
    28  C    0.293181
    29  C    0.291904
    30  C    0.295041
    31  C    0.286619
    32  C    0.293249
    33  C    0.296498
    34  O   -0.502039
    35  C   -0.490149
    36  H    0.177012
    37  H    0.151680
    38  H    0.146479
    39  C   -0.512527
    40  H    0.152230
    41  H    0.164532
    42  H    0.171912
    43  C   -0.505653
    44  H    0.166135
    45  H    0.171500
    46  H    0.150220
    47  C   -0.511348
    48  H    0.155901
    49  H    0.176200
    50  H    0.153035
    51  C   -0.508148
    52  H    0.176093
    53  H    0.148977
    54  H    0.168077
    55  C   -0.507663
    56  H    0.161553
    57  H    0.149612
    58  H    0.186745
    59  C   -0.505024
    60  H    0.174982
    61  H    0.169634
    62  H    0.151471
    63  C   -0.506666
    64  H    0.169192
    65  H    0.154976
    66  H    0.155442
    67  C   -0.507708
    68  H    0.174262
    69  H    0.185021
    70  H    0.142049
    71  C   -0.508129
    72  H    0.167761
    73  H    0.172489
    74  H    0.148213
    75  C   -0.506937
    76  H    0.167820
    77  H    0.174896
    78  H    0.153070
    79  C   -0.509898
    80  H    0.167270
    81  H    0.166361
    82  H    0.154853
    83  H    0.166611
    84  C    0.582361
    85  O   -0.536625
    86  C   -0.403876
    87  H    0.154493
    88  H    0.174851
    89  C   -0.337352
    90  H    0.180151
    91  H    0.148653
    92  N   -0.361587
    93  C   -0.375990
    94  H    0.205010
    95  H    0.178643
    96  H    0.161056
    97  C   -0.471749
    98  H    0.149481
    99  H    0.182263
   100  C    0.962739
   101  F   -0.310278
   102  F   -0.307979
   103  F   -0.315241
   104  H    0.178124
   105  H    0.151759
 Sum of Mulliken charges =  -0.00000
 Mulliken charges with hydrogens summed into heavy atoms:
               1
     1  C    0.364113
     2  C    0.287046
     3  C   -0.078752
     4  C    0.047001
     5  C   -0.003745
     6  C    0.325207
     7  C    0.252198
     8  C    0.009125
     9  C    0.034174
    10  C    0.004677
    17  N   -0.529761
    18  N   -0.460717
    19  Ir  -0.118270
    20  O   -0.507162
    21  O   -0.497864
    22  O   -0.534988
    23  B    0.547292
    24  B    0.482572
    25  B    0.518519
    26  O   -0.501647
    27  O   -0.502061
    28  C    0.293181
    29  C    0.291904
    30  C    0.295041
    31  C    0.286619
    32  C    0.293249
    33  C    0.296498
    34  O   -0.502039
    35  C   -0.014979
    39  C   -0.023853
    43  C   -0.017797
    47  C   -0.026213
    51  C   -0.015001
    55  C   -0.009753
    59  C   -0.008936
    63  C   -0.027056
    67  C   -0.006376
    71  C   -0.019666
    75  C   -0.011151
    79  C   -0.021414
    84  C    0.582361
    85  O   -0.536625
    86  C   -0.074532
    89  C   -0.008547
    92  N   -0.361587
    93  C    0.168719
    97  C    0.011755
   100  C    0.962739
   101  F   -0.310278
   102  F   -0.307979
   103  F   -0.315241
 APT charges:
               1
     1  C    0.257768
     2  C    0.042546
     3  C   -0.228233
     4  C    0.123426
     5  C   -0.190554
     6  C    0.216810
     7  C    0.104955
     8  C   -0.083976
     9  C    0.115540
    10  C   -0.168928
    11  H    0.172580
    12  H    0.057475
    13  H    0.045856
    14  H    0.051761
    15  H    0.033866
    16  H    0.045123
    17  N   -0.099227
    18  N   -0.218484
    19  Ir  -0.752500
    20  O   -0.998580
    21  O   -0.977350
    22  O   -1.015720
    23  B    1.221983
    24  B    1.255849
    25  B    1.302961
    26  O   -0.954183
    27  O   -0.913784
    28  C    0.482887
    29  C    0.495009
    30  C    0.494713
    31  C    0.492581
    32  C    0.502509
    33  C    0.501573
    34  O   -0.939104
    35  C   -0.021556
    36  H    0.009856
    37  H   -0.005058
    38  H   -0.029249
    39  C   -0.008738
    40  H   -0.018325
    41  H    0.000065
    42  H    0.004237
    43  C    0.000032
    44  H   -0.002251
    45  H   -0.000823
    46  H   -0.015627
    47  C   -0.053918
    48  H    0.003820
    49  H    0.027807
    50  H   -0.017126
    51  C   -0.003464
    52  H    0.004126
    53  H   -0.018691
    54  H    0.001574
    55  C   -0.031986
    56  H   -0.014724
    57  H   -0.020805
    58  H    0.011582
    59  C   -0.019814
    60  H   -0.000330
    61  H   -0.005977
    62  H   -0.023322
    63  C   -0.014444
    64  H    0.002369
    65  H   -0.012485
    66  H   -0.005252
    67  C   -0.034730
    68  H    0.002529
    69  H    0.027152
    70  H   -0.026831
    71  C   -0.006894
    72  H    0.000829
    73  H   -0.001105
    74  H   -0.016156
    75  C   -0.026357
    76  H   -0.000425
    77  H    0.013634
    78  H   -0.023025
    79  C   -0.003876
    80  H    0.001290
    81  H   -0.003241
    82  H   -0.019946
    83  H   -0.011513
    84  C    0.849333
    85  O   -0.699774
    86  C    0.012432
    87  H   -0.025161
    88  H   -0.033089
    89  C    0.322468
    90  H   -0.038724
    91  H   -0.063773
    92  N   -0.785957
    93  C    0.274767
    94  H    0.014443
    95  H   -0.042763
    96  H   -0.002395
    97  C    0.074370
    98  H   -0.038672
    99  H    0.011580
   100  C    1.800129
   101  F   -0.522291
   102  F   -0.600798
   103  F   -0.600341
   104  H    0.036432
   105  H   -0.012204
 Sum of APT charges =   0.00000
 APT charges with hydrogens summed into heavy atoms:
               1
     1  C    0.257768
     2  C    0.215126
     3  C   -0.228233
     4  C    0.180901
     5  C   -0.144699
     6  C    0.216810
     7  C    0.156716
     8  C   -0.047544
     9  C    0.149405
    10  C   -0.123805
    17  N   -0.099227
    18  N   -0.218484
    19  Ir  -0.764014
    20  O   -0.998580
    21  O   -0.977350
    22  O   -1.015720
    23  B    1.221983
    24  B    1.255849
    25  B    1.302961
    26  O   -0.954183
    27  O   -0.913784
    28  C    0.482887
    29  C    0.495009
    30  C    0.494713
    31  C    0.492581
    32  C    0.502509
    33  C    0.501573
    34  O   -0.939104
    35  C   -0.046007
    39  C   -0.022761
    43  C   -0.018669
    47  C   -0.039417
    51  C   -0.016455
    55  C   -0.055933
    59  C   -0.049443
    63  C   -0.029812
    67  C   -0.031879
    71  C   -0.023327
    75  C   -0.036173
    79  C   -0.025773
    84  C    0.849333
    85  O   -0.699774
    86  C   -0.045818
    89  C    0.219972
    92  N   -0.785957
    93  C    0.244053
    97  C    0.035075
   100  C    1.800129
   101  F   -0.522291
   102  F   -0.600798
   103  F   -0.600341
 Electronic spatial extent (au):  <R**2>=          27416.8312
 Charge=             -0.0000 electrons
 Dipole moment (field-independent basis, Debye):
    X=              4.1823    Y=              0.7457    Z=             -2.2524  Tot=              4.8084
 Quadrupole moment (field-independent basis, Debye-Ang):
   XX=           -284.4435   YY=           -315.1781   ZZ=           -304.8635
   XY=             -3.3549   XZ=             -7.1636   YZ=              2.6372
 Traceless Quadrupole moment (field-independent basis, Debye-Ang):
   XX=             17.0515   YY=            -13.6831   ZZ=             -3.3684
   XY=             -3.3549   XZ=             -7.1636   YZ=              2.6372
 Octapole moment (field-independent basis, Debye-Ang**2):
  XXX=            112.7861  YYY=             45.5598  ZZZ=             27.8272  XYY=             22.4880
  XXY=              8.8919  XXZ=             24.4783  XZZ=             16.5655  YZZ=            -64.6538
  YYZ=            -36.1425  XYZ=             34.2375
 Hexadecapole moment (field-independent basis, Debye-Ang**3):
 XXXX=         -13981.4987 YYYY=         -13165.0621 ZZZZ=          -7719.4530 XXXY=             22.3622
 XXXZ=            -18.5702 YYYX=            339.1079 YYYZ=            216.8257 ZZZX=             80.7885
 ZZZY=            231.1815 XXYY=          -4615.1410 XXZZ=          -3575.3920 YYZZ=          -3324.2519
 XXYZ=            -10.8777 YYXZ=             -1.4607 ZZXY=            -60.2422
 N-N= 8.608288152203D+03 E-N=-2.302234638760D+04  KE= 2.410169557142D+03
  Exact polarizability:     530.602      -9.142     473.564      -7.267      30.121     423.325
 Approx polarizability:     756.702      12.450     673.854      -2.691      86.378     649.582
   1 Symmetry operations used in ECPInt.
 ECPInt:  NShTT=   50086 NPrTT=  307226 LenC2=   38715 LenP2D=  120610.
 LDataN:  DoStor=T MaxTD1= 8 Len=  415
 Calling FoFJK, ICntrl=    100127 FMM=F ISym2X=0 I1Cent= 0 IOpClX= 0 NMat=1 NMatS=1 NMatT=0.
 Defaulting to unpruned grid for atomic number  77.
 Defaulting to unpruned grid for atomic number  77.
 Defaulting to unpruned grid for atomic number  77.
 Defaulting to unpruned grid for atomic number  77.
 Defaulting to unpruned grid for atomic number  77.
 Defaulting to unpruned grid for atomic number  77.
 Defaulting to unpruned grid for atomic number  77.
 Defaulting to unpruned grid for atomic number  77.
 Defaulting to unpruned grid for atomic number  77.
 Defaulting to unpruned grid for atomic number  77.
 Defaulting to unpruned grid for atomic number  77.
 Defaulting to unpruned grid for atomic number  77.
 Defaulting to unpruned grid for atomic number  77.
 Defaulting to unpruned grid for atomic number  77.
 Defaulting to unpruned grid for atomic number  77.
 Defaulting to unpruned grid for atomic number  77.
 Full mass-weighted force constant matrix:
 Low frequencies ---    0.0003    0.0005    0.0007    1.2239    5.8125    7.2813
 Low frequencies ---   11.6882   15.6589   33.2927
 Diagonal vibrational polarizability:
      138.3047209      82.9347527      73.3056786
 Harmonic frequencies (cm**-1), IR intensities (KM/Mole), Raman scattering
 activities (A**4/AMU), depolarization ratios for plane and unpolarized
 incident light, reduced masses (AMU), force constants (mDyne/A),
 and normal coordinates:
                      1                      2                      3
                      A                      A                      A
 Frequencies --     10.6829                15.4577                33.2706
 Red. masses --      4.9818                 5.0308                 5.0018
 Frc consts  --      0.0003                 0.0007                 0.0033
 IR Inten    --      0.0312                 0.6225                 0.8702
  Atom AN      X      Y      Z        X      Y      Z        X      Y      Z
     1   6    -0.02  -0.01  -0.01    -0.04  -0.02  -0.02    -0.02   0.08  -0.05
     2   6    -0.01  -0.03   0.03    -0.03  -0.00  -0.01     0.00  -0.02   0.04
     3   6    -0.02  -0.02   0.04    -0.05   0.00  -0.02    -0.00   0.03  -0.01
     4   6    -0.04  -0.02   0.01    -0.06  -0.01  -0.02    -0.02   0.11  -0.09
     5   6    -0.04  -0.01  -0.01    -0.05  -0.02  -0.02    -0.02   0.13  -0.11
     6   6    -0.02  -0.01  -0.04    -0.03  -0.03  -0.04    -0.02   0.08  -0.05
     7   6     0.00  -0.00  -0.07    -0.01  -0.05  -0.04    -0.01  -0.02   0.04
     8   6    -0.01  -0.01  -0.08    -0.02  -0.05  -0.05    -0.02   0.05  -0.03
     9   6    -0.02  -0.02  -0.07    -0.04  -0.04  -0.06    -0.03   0.15  -0.11
    10   6    -0.03  -0.02  -0.05    -0.04  -0.03  -0.05    -0.03   0.17  -0.12
    11   1     0.00  -0.03   0.05    -0.03   0.00  -0.01     0.01  -0.07   0.09
    12   1    -0.05  -0.01   0.01    -0.07  -0.01  -0.02    -0.02   0.15  -0.14
    13   1    -0.05  -0.00  -0.03    -0.06  -0.03  -0.02    -0.03   0.19  -0.16
    14   1     0.01   0.01  -0.08    -0.00  -0.05  -0.03    -0.00  -0.09   0.11
    15   1    -0.03  -0.03  -0.07    -0.04  -0.04  -0.07    -0.04   0.22  -0.17
    16   1    -0.04  -0.03  -0.04    -0.05  -0.02  -0.06    -0.04   0.25  -0.19
    17   7    -0.01  -0.02   0.01    -0.03  -0.02  -0.02    -0.01   0.01   0.02
    18   7    -0.00  -0.00  -0.05    -0.02  -0.03  -0.03    -0.01  -0.00   0.03
    19  77     0.00  -0.00  -0.01    -0.01  -0.02  -0.02    -0.01  -0.02   0.04
    20   8    -0.00  -0.02  -0.06     0.01  -0.00  -0.00     0.01  -0.01  -0.01
    21   8    -0.04  -0.00   0.06     0.01  -0.02   0.02     0.04  -0.02   0.01
    22   8     0.00   0.02   0.00    -0.01   0.00  -0.01    -0.01   0.00   0.02
    23   5    -0.01   0.01   0.05     0.00  -0.02   0.00     0.01  -0.03   0.02
    24   5     0.02  -0.01  -0.05    -0.00  -0.01  -0.01     0.02  -0.01   0.02
    25   5     0.01   0.02  -0.01    -0.00  -0.02  -0.01    -0.02  -0.00   0.03
    26   8     0.02   0.03  -0.01     0.01  -0.03  -0.01    -0.03   0.01   0.03
    27   8     0.05  -0.01  -0.05    -0.01   0.00  -0.01     0.04  -0.02   0.01
    28   6     0.04  -0.03  -0.07    -0.00   0.02  -0.00     0.05  -0.03  -0.01
    29   6     0.01  -0.04  -0.08     0.01   0.01   0.01     0.02  -0.02  -0.03
    30   6     0.01   0.04   0.01    -0.01  -0.00  -0.01    -0.04   0.02   0.01
    31   6     0.02   0.06  -0.01     0.01  -0.01  -0.00    -0.04   0.03   0.00
    32   6    -0.04   0.02   0.12     0.02  -0.03   0.04     0.04  -0.04  -0.02
    33   6     0.01   0.05   0.12     0.02  -0.02   0.03     0.02  -0.06  -0.02
    34   8     0.02   0.04   0.09     0.01  -0.02   0.01    -0.01  -0.05  -0.01
    35   6    -0.01  -0.03  -0.07     0.02   0.01   0.01     0.03  -0.02  -0.03
    36   1    -0.03  -0.03  -0.07     0.02   0.00   0.02     0.01  -0.02  -0.04
    37   1     0.00  -0.01  -0.05     0.02   0.00   0.01     0.03  -0.03  -0.01
    38   1     0.00  -0.04  -0.08     0.02   0.02   0.02     0.04  -0.03  -0.05
    39   6    -0.00  -0.06  -0.10     0.01   0.02   0.01     0.01  -0.02  -0.06
    40   1     0.00  -0.07  -0.11     0.01   0.03   0.02     0.03  -0.03  -0.07
    41   1     0.01  -0.06  -0.10     0.01   0.02   0.01     0.01  -0.01  -0.05
    42   1    -0.03  -0.05  -0.10     0.02   0.01   0.02    -0.00  -0.01  -0.06
    43   6     0.05  -0.04  -0.07    -0.00   0.03   0.00     0.06  -0.05  -0.02
    44   1     0.05  -0.03  -0.06     0.00   0.02   0.01     0.06  -0.04  -0.02
    45   1     0.07  -0.04  -0.07    -0.01   0.03  -0.00     0.08  -0.06  -0.01
    46   1     0.05  -0.05  -0.09     0.00   0.04   0.01     0.06  -0.06  -0.04
    47   6     0.06  -0.05  -0.08    -0.01   0.02  -0.01     0.05  -0.04  -0.02
    48   1     0.08  -0.05  -0.07    -0.02   0.03  -0.01     0.06  -0.04  -0.01
    49   1     0.04  -0.04  -0.08    -0.01   0.02  -0.01     0.04  -0.03  -0.01
    50   1     0.06  -0.07  -0.10    -0.01   0.03  -0.00     0.05  -0.05  -0.03
    51   6    -0.05   0.01   0.13     0.03  -0.02   0.06     0.06  -0.03  -0.03
    52   1    -0.08  -0.01   0.13     0.03  -0.03   0.06     0.08  -0.02  -0.02
    53   1    -0.05   0.03   0.17     0.04  -0.03   0.07     0.07  -0.05  -0.05
    54   1    -0.03   0.02   0.11     0.03  -0.01   0.05     0.05  -0.03  -0.02
    55   6    -0.08  -0.00   0.14     0.01  -0.06   0.04     0.07  -0.04  -0.03
    56   1    -0.07  -0.00   0.13     0.00  -0.06   0.02     0.05  -0.04  -0.03
    57   1    -0.09   0.01   0.19     0.02  -0.06   0.05     0.08  -0.05  -0.06
    58   1    -0.12  -0.04   0.13     0.01  -0.07   0.04     0.09  -0.01  -0.03
    59   6     0.04   0.07   0.11     0.02   0.01   0.03     0.01  -0.06  -0.02
    60   1     0.08   0.09   0.11     0.02   0.01   0.03    -0.01  -0.07  -0.02
    61   1     0.05   0.05   0.08     0.02   0.01   0.03     0.01  -0.04  -0.01
    62   1     0.03   0.08   0.14     0.03   0.01   0.05     0.03  -0.07  -0.03
    63   6     0.01   0.08   0.17     0.02  -0.03   0.04     0.02  -0.09  -0.04
    64   1     0.05   0.10   0.18     0.02  -0.02   0.03    -0.00  -0.10  -0.04
    65   1    -0.01   0.08   0.20     0.02  -0.03   0.05     0.04  -0.09  -0.06
    66   1    -0.01   0.07   0.18     0.01  -0.04   0.03     0.02  -0.09  -0.05
    67   6     0.03   0.06  -0.03     0.02  -0.01   0.01    -0.03   0.04  -0.03
    68   1     0.04   0.07  -0.05     0.03  -0.02   0.01    -0.03   0.04  -0.03
    69   1     0.03   0.04  -0.04     0.02   0.00   0.01    -0.00   0.02  -0.04
    70   1     0.03   0.08  -0.03     0.02   0.00   0.02    -0.03   0.05  -0.05
    71   6     0.01   0.08   0.00     0.01  -0.03  -0.01    -0.08   0.05   0.01
    72   1    -0.00   0.08   0.02     0.00  -0.03  -0.02    -0.09   0.05   0.03
    73   1     0.02   0.09  -0.01     0.02  -0.03  -0.00    -0.08   0.06   0.00
    74   1     0.01   0.10   0.00     0.01  -0.02  -0.00    -0.09   0.07  -0.01
    75   6    -0.00   0.05   0.03    -0.02  -0.01  -0.02    -0.06   0.03   0.03
    76   1    -0.01   0.04   0.04    -0.03   0.00  -0.03    -0.05   0.01   0.04
    77   1    -0.00   0.05   0.03    -0.02  -0.02  -0.03    -0.06   0.02   0.05
    78   1     0.00   0.07   0.04    -0.01  -0.01  -0.02    -0.07   0.04   0.03
    79   6     0.00   0.05   0.01    -0.01   0.02   0.00    -0.03   0.03  -0.02
    80   1     0.01   0.04   0.00    -0.00   0.02   0.01    -0.01   0.03  -0.03
    81   1    -0.00   0.04   0.03    -0.02   0.03  -0.00    -0.02   0.02  -0.02
    82   1     0.01   0.06   0.02    -0.00   0.02   0.00    -0.04   0.04  -0.03
    83   1     0.02  -0.01  -0.01     0.00  -0.03  -0.02    -0.01  -0.02   0.05
    84   6     0.01  -0.00  -0.04     0.11   0.09   0.06    -0.00   0.03  -0.02
    85   8    -0.02  -0.01  -0.02     0.18   0.06   0.04     0.01   0.07  -0.05
    86   6     0.01  -0.01  -0.07     0.11   0.16   0.13     0.01   0.04  -0.04
    87   1     0.02  -0.01  -0.09     0.06   0.19   0.15    -0.01   0.06   0.01
    88   1     0.04  -0.00  -0.07     0.07   0.17   0.13     0.02  -0.02  -0.06
    89   6     0.02   0.01  -0.00     0.02  -0.02  -0.02    -0.02  -0.03   0.03
    90   1     0.01   0.01   0.02     0.09  -0.04  -0.04    -0.02  -0.02   0.02
    91   1     0.04   0.02   0.00    -0.03  -0.05  -0.04    -0.03  -0.04   0.03
    92   7     0.03   0.00  -0.03     0.02   0.06   0.04    -0.02  -0.02   0.03
    93   6     0.06   0.01  -0.05    -0.06   0.10   0.05    -0.04  -0.06   0.07
    94   1     0.07   0.01  -0.06    -0.09   0.09   0.02    -0.03  -0.05   0.09
    95   1     0.07   0.03  -0.04    -0.10   0.11   0.04    -0.07  -0.09   0.05
    96   1     0.06  -0.01  -0.07    -0.06   0.14   0.11    -0.04  -0.07   0.09
    97   6    -0.01  -0.02  -0.07     0.20   0.18   0.17     0.03   0.10  -0.10
    98   1    -0.01  -0.03  -0.09     0.20   0.25   0.21     0.04   0.12  -0.12
    99   1    -0.02  -0.02  -0.06     0.25   0.15   0.16     0.06   0.08  -0.13
   100   6    -0.02  -0.03   0.06    -0.05   0.02  -0.02     0.01  -0.02   0.02
   101   9    -0.02   0.00   0.05    -0.05   0.03  -0.01     0.02  -0.03   0.02
   102   9    -0.03  -0.07   0.05    -0.05   0.03  -0.01    -0.02  -0.05   0.02
   103   9    -0.02  -0.04   0.10    -0.07   0.02  -0.02     0.05  -0.02   0.03
   104   1    -0.00  -0.01  -0.09    -0.02  -0.06  -0.05    -0.01   0.04  -0.02
   105   1    -0.03  -0.03  -0.08     0.22   0.17   0.16     0.01   0.15  -0.08
                      4                      5                      6
                      A                      A                      A
 Frequencies --     44.6569                46.5608                52.2038
 Red. masses --      5.1519                 4.6651                 7.7882
 Frc consts  --      0.0061                 0.0060                 0.0125
 IR Inten    --      0.2440                 0.2091                 0.2424
  Atom AN      X      Y      Z        X      Y      Z        X      Y      Z
     1   6    -0.02   0.04  -0.03    -0.01  -0.03   0.05    -0.01   0.07  -0.06
     2   6    -0.00   0.01   0.02    -0.01  -0.00   0.03    -0.00   0.03  -0.02
     3   6    -0.03   0.09  -0.06    -0.02   0.00   0.03    -0.00   0.04  -0.02
     4   6    -0.06   0.17  -0.15    -0.02  -0.02   0.05    -0.02   0.09  -0.07
     5   6    -0.05   0.14  -0.13    -0.01  -0.04   0.06    -0.02   0.10  -0.10
     6   6    -0.01  -0.00   0.00    -0.01  -0.02   0.03    -0.00   0.04  -0.03
     7   6     0.01  -0.03   0.02     0.00   0.03  -0.03    -0.01  -0.04   0.05
     8   6     0.01  -0.08   0.05    -0.00   0.02  -0.04    -0.00  -0.07   0.08
     9   6     0.00  -0.10   0.07    -0.01  -0.01  -0.01     0.00  -0.03   0.05
    10   6    -0.00  -0.06   0.04    -0.01  -0.03   0.02     0.00   0.02  -0.01
    11   1     0.01  -0.04   0.07    -0.01   0.01   0.02     0.01   0.02   0.00
    12   1    -0.08   0.25  -0.23    -0.02  -0.02   0.05    -0.03   0.10  -0.09
    13   1    -0.07   0.20  -0.21    -0.01  -0.05   0.06    -0.03   0.13  -0.14
    14   1     0.01  -0.02   0.01     0.01   0.05  -0.05    -0.01  -0.06   0.07
    15   1     0.00  -0.14   0.11    -0.02  -0.02  -0.01     0.01  -0.05   0.08
    16   1    -0.00  -0.08   0.06    -0.02  -0.06   0.05     0.01   0.04  -0.02
    17   7     0.00  -0.01   0.03    -0.01  -0.01   0.04    -0.00   0.05  -0.04
    18   7     0.00  -0.00  -0.00    -0.00   0.01   0.00    -0.01   0.01  -0.00
    19  77     0.01  -0.01   0.02     0.00   0.00   0.03    -0.00   0.01  -0.03
    20   8    -0.01  -0.05  -0.02    -0.00  -0.02  -0.02     0.00   0.02   0.00
    21   8    -0.05   0.00  -0.04     0.02  -0.00   0.05    -0.00   0.02  -0.03
    22   8     0.02  -0.01   0.04    -0.03   0.05  -0.01    -0.01   0.03  -0.01
    23   5    -0.01  -0.01   0.01    -0.01   0.00   0.01     0.01   0.01  -0.01
    24   5     0.00  -0.03  -0.01     0.03   0.01  -0.01    -0.01   0.01  -0.00
    25   5     0.02  -0.00   0.03    -0.01   0.00   0.02     0.00   0.00  -0.02
    26   8     0.03   0.01   0.03    -0.01  -0.05   0.03     0.04  -0.04  -0.00
    27   8     0.02  -0.04  -0.01     0.07   0.04  -0.02    -0.02   0.01  -0.00
    28   6     0.02  -0.06  -0.03     0.07   0.02  -0.06    -0.03   0.01   0.01
    29   6    -0.01  -0.06  -0.03    -0.00  -0.03  -0.02    -0.01   0.02   0.01
    30   6     0.03  -0.01   0.05    -0.02   0.00  -0.02     0.01  -0.00  -0.00
    31   6     0.03   0.01   0.04    -0.01  -0.05   0.02     0.05  -0.05   0.03
    32   6    -0.07   0.02  -0.04     0.02  -0.01  -0.00     0.00   0.02  -0.01
    33   6    -0.03  -0.00  -0.01    -0.05   0.00  -0.05     0.03   0.01   0.01
    34   8     0.01  -0.01   0.03    -0.06   0.00  -0.04     0.04   0.01   0.02
    35   6    -0.04  -0.05  -0.03    -0.06   0.01   0.04    -0.01   0.01   0.00
    36   1    -0.05  -0.05  -0.03    -0.11  -0.02   0.06     0.00   0.02  -0.00
    37   1    -0.04  -0.03  -0.03    -0.04   0.07   0.06    -0.02   0.01  -0.01
    38   1    -0.05  -0.06  -0.03    -0.06   0.01   0.04    -0.02   0.01   0.01
    39   6    -0.02  -0.09  -0.04    -0.02  -0.11  -0.05    -0.00   0.01   0.04
    40   1    -0.03  -0.11  -0.05    -0.02  -0.13  -0.05    -0.02   0.01   0.05
    41   1    -0.00  -0.10  -0.04     0.02  -0.14  -0.08     0.01   0.01   0.05
    42   1    -0.04  -0.09  -0.05    -0.07  -0.13  -0.03     0.01   0.01   0.04
    43   6     0.03  -0.06  -0.03     0.11   0.06  -0.04    -0.04   0.01   0.01
    44   1     0.02  -0.05  -0.02     0.10   0.09   0.02    -0.04   0.01   0.00
    45   1     0.05  -0.06  -0.03     0.16   0.09  -0.06    -0.05   0.01   0.01
    46   1     0.02  -0.08  -0.05     0.11   0.05  -0.06    -0.04   0.02   0.02
    47   6     0.03  -0.07  -0.04     0.10  -0.01  -0.14    -0.03   0.01   0.02
    48   1     0.04  -0.06  -0.05     0.15   0.02  -0.15    -0.04   0.01   0.02
[...]
 0000033,-0.00000012,-0.00000029,-0.00000175,-0.00000447,-0.00000205,0.
 00000109,0.00000167,-0.00000015,0.00000091,0.00000083,0.00000002,-0.00
 000111,0.00000007,0.00000171,-0.00000163,-0.00000098,-0.00000087,0.000
 00135,-0.00000133,-0.00000018,0.00000094,0.00000129,-0.00000021,-0.000
 00029,0.,0.00000168,-0.00000767,0.00001547,-0.00001491,-0.00034476,0.0
 0023499,-0.00015126,0.00017537,-0.00007455,0.00016116,-0.00005821,-0.0
 0015935,-0.00006408,-0.00000455,0.00004989,0.00018254,0.00006009,0.000
 05186,-0.00001427,-0.00002686,-0.00000672,-0.00002690,0.00000219,-0.00
 000845,0.00001218,0.00001024,-0.00000624,0.00000951,0.00008454,-0.0001
 7006,0.00008474,-0.00006578,0.00000505,-0.00003326,0.00001630,-0.00001
 752,-0.00000860,0.00001049,-0.00000482,0.00000172,0.00000884,0.0000172
 8,0.00003390,0.00005897,0.00002662,-0.00003926,0.00002261,-0.00005632,
 0.00003895,0.00001862,0.00003798,-0.00000805,0.00005954,0.00005812,-0.
 00002487,-0.00001687,-0.00000610,0.00001325,-0.00002864,-0.00000726,-0
 .00001174,-0.00001030,-0.00001678,0.00000153,0.09592515,0.07493172,-0.
 00006479,0.00079697,-0.00051417,-0.00003578,0.00000272,-0.00000164,-0.
 00003403,0.00002378,0.00001856,0.00003304,0.00005635,0.00000904,0.0000
 0335,-0.00010739,-0.00004427,0.00076973,-0.00074254,-0.00125439,0.0117
 6372,0.00691735,0.00728507,-0.07766287,-0.04304346,-0.07585332,-0.0218
 0638,-0.00622791,-0.00283404,0.00104373,-0.00623211,-0.00010195,0.0000
 0229,-0.00000998,-0.00001024,0.00000114,0.00000690,-0.00000720,0.00001
 238,0.00001384,0.00008127,-0.00058564,0.00164290,-0.00125433,0.0000848
 0,0.00246233,-0.00084484,-0.00110590,-0.00041532,-0.00007298,-0.000035
 45,-0.00004157,0.00002788,0.00385879,-0.00431001,0.00313409,-0.0002006
 0,0.00018024,0.00016342,0.00000423,0.00000102,0.00001332,0.00003895,0.
 00004009,-0.00003653,0.00003006,0.00002287,-0.00001408,-0.00005138,-0.
 00001322,0.00004291,0.00003505,-0.00000257,-0.00006135,0.00002772,-0.0
 0008090,0.00002207,0.00001830,0.00001340,-0.00003134,-0.00001271,0.000
 01742,-0.00000464,0.00000150,-0.00000940,0.00000251,-0.00000229,-0.000
 00967,-0.00000001,0.00000125,-0.00000499,0.00000704,-0.00000289,0.0000
 0027,-0.00000080,-0.00000233,0.00001772,0.00005572,-0.00015056,-0.0001
 1405,-0.00000248,0.00004755,0.00015621,-0.00011314,-0.00000094,0.00000
 204,0.00000349,0.00000037,0.00000041,0.00000039,0.00000072,-0.00000098
 ,-0.00000052,-0.00000010,-0.00000034,-0.00000030,0.00000006,0.00000171
 ,0.00000072,0.00000003,-0.00000027,-0.00000057,0.00000150,0.00000097,-
 0.00000076,-0.00000043,-0.00000006,0.00000071,-0.00000162,-0.00000125,
 -0.00000084,0.00000107,0.00000206,-0.00000047,0.00000004,-0.00000037,0
 .00000129,-0.00000023,0.00000063,-0.00000053,-0.00000115,0.00000085,-0
 .00000271,0.00000096,-0.00000011,0.00000413,0.00000157,-0.00000144,-0.
 00000236,-0.00000096,0.00000131,0.00000008,-0.00000622,-0.00000284,-0.
 00001265,0.00000388,-0.00000352,-0.00000307,0.00000154,0.00000570,0.00
 000216,-0.00000347,0.00000379,-0.00000077,0.00000765,-0.00002823,-0.00
 001466,0.00000159,0.00000352,0.00000250,0.00000238,0.00000806,0.000007
 13,0.00000488,0.00000145,-0.00000580,0.00002487,0.00002759,-0.00000343
 ,-0.00000810,-0.00000681,-0.00001024,0.00001477,-0.00000431,0.00000602
 ,-0.00000406,0.00000736,-0.00000715,0.00005253,-0.00000778,0.00005790,
 -0.00004103,0.00003458,-0.00009883,0.00002216,-0.00002181,-0.00001201,
 -0.00003580,0.00002957,0.00006935,0.00000154,0.00000190,-0.00000014,0.
 00000019,-0.00000020,0.00000058,-0.00000120,0.00000044,-0.00000023,0.0
 0000030,-0.00000049,-0.00000025,0.00000374,-0.00000078,0.00000079,-0.0
 0000002,0.00000221,-0.00000039,0.00000072,-0.00000083,-0.00000034,-0.0
 0000053,0.00000032,-0.00000194,0.00000254,-0.00000008,-0.00000242,0.00
 000121,0.00000112,0.00000073,-0.00000051,-0.00000065,-0.00000112,-0.00
 000038,0.00000210,0.00000008,0.00000027,0.00000082,-0.00000328,-0.0000
 0099,0.00000105,-0.00000021,0.00000091,0.00000024,0.00000077,0.0000013
 3,0.00000006,0.00000031,0.00000675,-0.00000591,0.00000712,0.00016250,-
 0.00017703,0.00002502,-0.00008819,0.00003793,-0.00002514,0.00008583,0.
 00015600,0.00005051,-0.00006727,-0.00008530,-0.00005857,-0.00003071,-0
 .00003360,0.00000219,0.00003484,-0.00003729,0.00001152,-0.00000323,0.0
 0000179,-0.00001048,-0.00000205,0.00000685,-0.00000247,-0.00009442,0.0
 0013526,-0.00007008,0.00008630,0.00002130,0.00006311,0.00001588,-0.000
 00378,0.00000602,-0.00002272,-0.00000908,-0.00000379,-0.00002891,0.000
 02164,-0.00002826,-0.00004827,-0.00001900,0.00002475,0.00000511,0.0000
 0524,0.00001110,0.00000324,-0.00002002,-0.00001692,0.00006150,-0.00001
 177,0.00003697,-0.00002559,0.00000412,0.00000449,-0.00001083,0.0000045
 5,-0.00000931,-0.00001592,-0.00000897,-0.00000618,0.08391298,0.0489382
 1,0.07222949,-0.00005885,0.00001221,-0.00004182,-0.00000014,0.00000614
 ,-0.00000242,0.00002904,-0.00000157,-0.00001718,-0.00003235,-0.0000208
 9,-0.00000379,0.00001870,0.00001036,0.00004744,-0.00017192,0.00004615,
 0.00015600,0.00003791,0.00006146,-0.00005707,-0.00007105,0.00007892,0.
 00010835,0.00035670,-0.00018383,0.00023099,-0.00018249,-0.00006700,0.0
 0004427,-0.00000601,0.00000791,0.00001009,-0.00000255,0.00000205,-0.00
 000142,-0.00000281,0.00000274,-0.00004028,-0.00000215,-0.00001339,0.00
 000147,-0.00010374,-0.00006334,0.00019284,0.00000534,0.00001264,-0.000
 11789,0.00002333,0.00000398,0.00000301,-0.00007110,-0.00002897,-0.0000
 6028,-0.00001371,0.00001940,0.00001963,0.00003713,-0.00003257,0.000004
 54,-0.00001622,-0.00006026,-0.00000654,0.00003991,0.00000093,-0.000035
 37,0.00001768,0.00006868,0.00000862,-0.00005580,0.00004166,-0.00001115
 ,-0.00005200,0.00001455,0.00004493,0.00003430,-0.00000744,-0.00004017,
 0.00003283,-0.00002279,0.00002202,-0.00001792,0.00001212,-0.00000621,-
 0.00001222,0.00001249,-0.00001030,-0.00001558,-0.00000707,0.00002005,-
 0.00002109,0.00000127,0.00001282,0.00002031,0.00001793,-0.00000091,0.0
 0001442,0.00003935,-0.00000738,-0.00002092,-0.00005776,0.00001411,0.00
 000119,-0.00000262,0.00000075,-0.00000140,0.00000066,-0.00000205,0.000
 00025,0.00000153,-0.00000062,0.00000122,-0.00000197,0.00000182,0.00000
 086,-0.00000159,0.00000044,0.00000170,-0.00000041,0.00000123,-0.000001
 13,0.00000044,0.00000055,-0.00000009,-0.00000096,-0.00000181,0.0000015
 5,-0.00000023,0.00000139,-0.00000140,-0.00000033,-0.00000013,-0.000001
 00,0.00000076,-0.00000091,0.00000240,-0.00000149,0.00000096,0.00000345
 ,-0.00000105,0.00000257,-0.00000190,0.00000066,-0.00000474,-0.00000292
 ,0.00000190,0.00000203,0.00000359,-0.00000222,0.00000079,-0.00000093,-
 0.00000129,-0.00000148,0.00000170,-0.00000035,-0.00000089,-0.00000171,
 -0.00000246,0.00000088,0.00000036,0.00000102,-0.00000018,-0.00000434,0
 .00000005,-0.00000144,0.00000332,0.00000052,0.00000212,-0.00000319,-0.
 00000354,-0.00000012,0.00000185,0.00000017,-0.00000017,-0.00000156,-0.
 00000492,0.00000116,0.00000101,0.00000242,-0.00000141,-0.00000168,0.00
 000155,-0.00000087,-0.00000013,-0.00000451,0.00000178,-0.00000409,-0.0
 0000323,0.00000028,0.00000169,0.00000374,-0.00000031,-0.00000096,-0.00
 000473,0.00000042,0.00000276,0.00000302,0.00000080,0.00000248,-0.00000
 025,-0.00000177,-0.00000186,-0.00000098,0.00000021,-0.00000239,0.00000
 060,0.00000005,0.00000298,-0.00000084,-0.00000045,0.00000209,-0.000001
 16,-0.00000162,-0.00000101,0.00000060,0.00000213,-0.00000100,-0.000001
 80,-0.00000110,0.00000202,0.00000068,-0.00000137,0.00000134,0.00000492
 ,-0.00000172,-0.00000325,-0.00000257,0.00000083,-0.00000274,-0.0000026
 8,0.00000541,0.00000440,0.00000011,-0.00000342,0.00000180,0.00000199,-
 0.00000075,-0.00000059,-0.00000030,0.00000084,-0.00000157,-0.00000095,
 0.00000091,0.00000255,0.00000010,-0.00000222,-0.00001404,-0.00000528,-
 0.00001964,0.00056255,-0.00003888,0.00245224,-0.00078769,-0.00016801,-
 0.00115416,-0.00099638,-0.00474231,0.01216664,0.00039814,-0.00007626,-
 0.00065996,-0.00070988,0.00208331,0.00143032,-0.00002357,0.00000961,-0
 .00004511,-0.00003721,0.00000139,0.00001907,0.00002229,-0.00001238,-0.
 00001703,0.00000584,-0.00033910,-0.00040091,0.00017786,0.00004382,0.00
 008890,-0.00004236,-0.00005056,-0.00004059,0.00000260,-0.00004344,-0.0
 0006522,-0.00006021,-0.00004166,-0.00000391,-0.04667424,-0.00189460,0.
 00575431,0.00267839,0.00966952,-0.02837326,-0.00075170,-0.00532170,0.0
 1780197,-0.00009678,-0.00002784,-0.00001514,0.00003065,0.00000146,-0.0
 0000982,0.00003194,-0.00000005,0.00001952,0.00002252,0.00001960,0.0000
 0474,-0.00002638,-0.00008495,-0.00000841,0.04654498,0.00011900,0.00007
 342,0.00005490,0.00000028,-0.00001381,-0.00001771,-0.00004217,0.000002
 81,0.00001748,0.00003684,-0.00000388,-0.00000652,-0.00008754,-0.000027
 53,0.00000994,-0.00007561,0.00012894,0.00009331,0.00014596,-0.00008410
 ,-0.00007123,-0.00022140,-0.00013607,0.00000116,0.00001546,-0.00083850
 ,0.00084061,0.00010226,-0.00022997,0.00046410,-0.00000247,-0.00000123,
 0.00000191,-0.00001132,-0.00000153,-0.00000458,0.00000280,0.00002334,-
 0.00002722,-0.00000283,0.00000650,0.00000408,-0.00006280,0.00004985,0.
 00008167,-0.00002982,0.00003459,-0.00007787,-0.00003243,-0.00000231,-0
 .00000090,-0.00009647,-0.00006982,-0.00009052,0.00001742,0.00002059,-0
 .00002596,-0.00002150,0.00001705,-0.00000960,-0.00001073,0.00002147,0.
 00001023,-0.00002696,-0.00000848,0.00001431,0.00005062,-0.00003063,-0.
 00002335,0.00002310,-0.00003227,0.00002997,0.00003239,0.00000423,-0.00
 003422,-0.00001821,-0.00000044,0.00002407,-0.00001814,0.00000583,-0.00
 001479,0.00001201,-0.00000299,0.00000443,0.00000716,-0.00000270,0.0000
 0675,0.00000480,0.00000181,-0.00000810,0.00000834,-0.00000036,-0.00000
 327,-0.00000142,-0.00000538,-0.00000383,-0.00000561,-0.00002716,0.0000
 0591,-0.00003092,0.00004097,0.00000157,0.00000005,0.00000045,-0.000001
 87,0.00000061,-0.00000038,0.00000028,-0.00000019,-0.00000041,0.0000010
 7,-0.00000100,0.00000130,-0.00000094,-0.00000048,0.00000013,-0.0000003
 8,-0.00000101,0.00000053,-0.00000070,-0.00000012,-0.00000023,0.0000003
 2,0.00000007,0.00000009,0.00000050,-0.00000082,0.00000102,-0.00000063,
 0.00000035,-0.00000050,0.00000052,0.00000060,-0.00000076,-0.00000021,-
 0.00000127,0.00000077,-0.00000040,-0.00000186,0.00000049,-0.00000035,0
 .00000104,-0.00000058,0.00000029,0.00000088,-0.00000024,-0.00000020,-0
 .00000180,0.00000048,-0.00000026,-0.00000138,0.00000029,0.00000190,-0.
 00000099,0.00000117,0.00000109,0.00000077,0.00000013,-0.00000044,-0.00
 000033,-0.00000004,-0.00000082,0.00000098,-0.00000243,0.00000180,-0.00
 000019,0.00000183,-0.00000441,0.00000075,0.00000046,-0.00000051,-0.000
 00178,0.00000228,0.00000079,0.00000016,0.00000301,-0.00000137,0.000000
 24,-0.00000177,0.00000226,-0.00000124,-0.00000011,0.00000002,0.0000000
 5,0.00000309,-0.00000114,0.00000450,0.00000094,0.00000204,-0.00000124,
 -0.00000512,0.00000532,-0.00000132,0.00000482,-0.00000060,-0.00000245,
 -0.00000368,-0.00000621,-0.00000127,0.00000002,0.00000047,0.00000030,0
 .00000027,0.00000014,0.00000078,-0.00000053,0.,-0.00000132,0.00000033,
 0.00000043,-0.00000135,0.00000041,0.00000002,-0.00000038,-0.00000083,-
 0.00000040,0.00000009,0.00000093,0.00000050,-0.00000036,-0.00000058,0.
 00000109,-0.00000125,0.00000074,0.00000157,0.00000072,0.00000003,-0.00
 000004,-0.00000046,-0.00000048,-0.00000083,-0.00000031,-0.00000118,0.0
 0000080,-0.00000090,-0.00000014,0.00000165,0.00000022,0.00000038,-0.00
 000034,0.00000034,-0.00000032,-0.00000066,-0.00000127,-0.00000021,0.00
 000062,0.00000358,0.00000296,0.00000257,-0.00068737,0.00047739,0.00020
 782,0.00062124,-0.00034928,0.00013333,0.00084486,0.00793496,-0.0243344
 0,-0.00081567,0.00128028,0.00055406,0.00258033,-0.00317857,-0.00321309
 ,-0.00003496,0.00003717,0.00003584,0.00001991,0.00000454,0.00002172,-0
 .00002316,0.00000204,-0.00000771,-0.00016780,-0.00027193,0.00002929,-0
 .00011525,-0.00011808,0.00000061,0.00004038,0.00001048,0.00001878,-0.0
 0003306,0.00003979,0.00002251,0.00008044,0.00004754,-0.00006747,-0.002
 76622,-0.07503406,0.08352268,-0.00121223,-0.00349464,0.00549873,0.0007
 6661,-0.00783434,0.02506641,0.00003485,0.00003755,0.00001734,-0.000003
 77,-0.00000472,-0.00000488,-0.00001420,-0.00000549,-0.00001049,-0.0000
 0750,-0.00002390,-0.00000714,-0.00001055,-0.00003593,0.00001282,0.0011
 3425,0.08155811,0.00007197,0.00006398,0.00003541,0.00000143,-0.0000025
 8,-0.00000552,-0.00005976,-0.00000715,0.00001746,0.00003200,0.00002611
 ,0.00001190,-0.00005122,-0.00004722,-0.00002861,0.00049083,-0.00026431
 ,-0.00037834,-0.00008343,-0.00015257,-0.00013225,0.00014165,-0.0002114
 6,-0.00064273,-0.00044132,0.00103313,-0.00061682,0.00023423,0.00083270
 ,-0.00017399,0.00000302,-0.00000757,-0.00001756,0.00000007,-0.00000220
 ,-0.00000325,0.00000861,0.00001497,0.00002584,-0.00000896,0.00004217,0
 .00000308,0.00007080,-0.00012474,0.00007640,-0.00001885,-0.00009105,-0
 .00006144,-0.00007441,-0.00005491,-0.00003877,0.00001904,0.00013393,0.
 00033163,0.00001474,-0.00000082,0.00008139,-0.00002355,0.00002176,0.00
 000802,-0.00002136,0.00002048,0.00002464,-0.00004510,-0.00001359,0.000
 06712,0.00008836,-0.00005254,-0.00006291,0.00002393,-0.00006162,-0.000
 00284,0.00002219,0.00004226,-0.00012040,-0.00001898,-0.00001328,0.0000
 6825,-0.00001790,0.00001903,0.00000941,0.00001753,-0.00000821,0.000002
 02,0.00000903,-0.00000033,0.00000046,0.00001432,0.00002033,-0.00003185
 ,0.00000836,0.00000064,-0.00001021,-0.00000476,-0.00001039,-0.00001526
 ,-0.00000474,-0.00003524,0.00000130,-0.00005212,0.00004494,0.00002180,
 -0.00000053,0.00000053,-0.00000134,0.00000037,0.00000072,0.00000103,-0
 .00000130,-0.00000091,0.00000085,-0.00000043,0.00000066,-0.00000119,0.
 00000063,0.00000110,0.00000118,-0.00000048,-0.00000052,0.00000011,-0.0
 0000038,-0.00000184,-0.00000130,-0.00000009,0.00000236,0.00000124,-0.0
 0000059,0.00000047,-0.00000136,0.00000045,-0.00000158,0.00000001,0.000
 00160,0.00000067,0.00000185,-0.00000225,0.00000104,-0.00000013,-0.0000
 0226,-0.00000121,-0.00000328,0.00000117,0.00000073,0.00000438,0.000002
 02,-0.00000169,-0.00000163,-0.00000246,0.00000210,-0.00000050,-0.00000
 052,0.00000066,0.00000513,-0.00000241,0.00000263,0.00000231,0.00000064
 ,-0.00000079,-0.00000121,0.00000121,-0.00000109,-0.00000032,0.00000089
 ,-0.00000066,0.00000724,0.00000161,0.00000006,-0.00000913,0.00000081,-
 0.00000064,-0.00000135,-0.00000478,0.00000565,0.00000224,0.00000061,0.
 00000296,-0.00000186,-0.00000099,-0.00000138,0.00000553,-0.00000214,-0
 .00000089,-0.00000085,0.00000054,0.00000351,-0.00000122,0.00000482,0.0
 0000145,0.00000065,-0.00000188,-0.00000356,0.00001086,-0.00000211,0.00
 000764,-0.00000136,-0.00000175,-0.00000711,-0.00001006,-0.00000225,-0.
 00000214,0.00000223,0.00000104,0.00000150,-0.00000085,0.00000336,-0.00
 000158,0.00000048,-0.00000126,0.00000034,0.00000008,-0.00000460,0.0000
 0648,0.00000132,0.00000017,-0.00000581,-0.00000067,-0.00000063,0.00000
 277,0.00000198,0.00000082,-0.00000119,0.00000238,-0.00001010,-0.000007
 85,-0.00000363,0.00000224,0.00000316,-0.00000053,0.00000383,0.00000285
 ,0.00000055,-0.00000182,-0.00000210,0.00000369,-0.00000304,-0.00000606
 ,0.00000437,0.00000305,-0.00000262,-0.00000016,0.00000147,0.00000283,-
 0.00000041,-0.00000358,0.00000016,0.00000202,0.00001302,0.00003767,0.0
 0000159,-0.00196867,0.00029871,-0.00232919,-0.00012884,0.00070952,0.00
 195015,0.00163375,0.00568650,-0.01949150,-0.00031021,0.00005671,0.0007
 5303,0.00155641,-0.00352155,-0.00093676,-0.00011271,0.00003936,-0.0000
 9771,0.00003583,-0.00001784,0.00000483,0.00002218,-0.00000819,0.000038
 35,0.00049121,-0.00001014,0.00026400,-0.00014442,-0.00010060,-0.000040
 98,0.00007743,-0.00001197,0.00001607,-0.00002916,0.00003619,0.00003998
 ,0.00013397,0.00011797,-0.00001814,0.00727187,0.08274529,-0.28337864,0
 .00114739,0.00204989,-0.00651141,-0.00062258,-0.00051671,-0.00003803,0
 .00010952,0.00004331,-0.00001423,-0.00003769,-0.00000106,0.00002276,-0
 .00003275,-0.00000574,-0.00000958,-0.00002429,-0.00002742,-0.00000106,
 -0.00000125,-0.00000854,-0.00001742,-0.00940435,-0.08874784,0.31133118
 \\-0.00000174,-0.00000307,0.00000029,-0.00000012,0.00000016,0.00000045
 ,-0.00000940,0.00000060,0.00000705,0.00000004,-0.00000855,-0.00000323,
 0.00000197,0.00000107,0.00000403,-0.00000132,-0.00000638,-0.00000190,-
 0.00000797,0.00000073,0.00000575,0.00000201,-0.00000009,0.00000297,-0.
 00000412,-0.00001312,-0.00000686,0.00000018,0.00000266,0.00000842,-0.0
 0000059,-0.00000016,0.00000233,-0.00000237,0.,0.00000261,-0.00000298,-
 0.00000226,0.00000075,0.00000092,-0.00000436,-0.00000620,-0.00000126,-
 0.00000268,-0.00000043,-0.00000195,-0.00000579,-0.00000232,-0.00000345
 ,-0.00000358,0.00000235,0.00000513,-0.00000181,-0.00000059,0.00000180,
 0.00000253,0.00000315,0.00000107,-0.00000062,-0.00000944,0.,-0.0000009
 5,-0.00000118,-0.00000314,0.00000208,-0.00000252,0.00000390,0.00000096
 ,-0.00000082,-0.00000349,0.00000390,-0.00000071,0.00000036,0.00000423,
 0.00000290,0.00000244,0.00000443,-0.00000546,0.00000219,-0.00000261,-0
 .00000574,0.00000513,0.00000042,0.00000124,0.00000622,-0.00000406,0.00
 000024,-0.00000111,0.00000144,0.00000096,-0.00000519,0.00000447,0.0000
 0580,0.00000013,0.00000096,0.00000337,0.00000675,0.00000010,-0.0000005
 4,-0.00000006,-0.00000385,0.00000401,0.00000406,0.00000053,-0.00001540
 ,0.00000037,0.00000187,0.00000119,-0.00000151,-0.00000143,-0.00000132,
 0.00000281,-0.00000232,-0.00000237,0.00000285,0.00000270,-0.00000753,0
 .00000078,-0.00000062,-0.00000510,0.00000039,-0.00000230,-0.00000244,-
 0.00000015,-0.00000157,-0.00000553,0.00000249,-0.00000031,-0.00000927,
 0.00000235,-0.00000296,-0.00000322,0.00000277,-0.00000046,-0.00000252,
 0.00000571,-0.00000409,-0.00000327,0.00000353,0.,0.00000114,0.00000230
 ,-0.00000362,-0.00000468,0.00000093,0.00000045,-0.00000516,0.00000191,
 -0.00000253,-0.00000452,-0.00000218,-0.00000613,0.00000203,-0.00000046
 ,-0.00000034,0.00000119,0.00000308,0.00000283,0.00000229,0.00000176,0.
 00000027,0.00000256,0.00000199,-0.00000275,0.00000323,-0.00000260,0.00
 000208,0.00000259,-0.00000223,-0.00000086,0.00000526,-0.00000280,-0.00
 000134,0.00000210,0.00000454,-0.00000296,0.00000102,0.00000273,0.00000
 228,0.00000460,0.00000417,0.00000073,0.00000014,0.00000260,0.00000041,
 0.00000304,0.00000278,-0.00000650,-0.00000127,0.00000096,0.00000285,0.
 00000882,0.00000129,0.00000193,0.00000579,0.00000124,0.00000176,0.0000
 0595,0.00000776,0.00000457,-0.00001064,0.00000160,0.00000584,-0.000001
 43,0.00000094,0.00000330,-0.00000015,-0.00000456,0.00000441,0.,-0.0000
 0269,0.00001664,-0.00000259,0.00000087,0.00000078,0.00000175,-0.000000
 94,0.00000182,-0.00000295,-0.00000045,0.00000499,-0.00000038,0.0000004
 1,0.00000827,-0.00000457,-0.00000099,0.00000376,0.00000405,-0.00000240
 ,0.00000278,0.00000143,-0.00000350,0.00000282,0.00000510,-0.00000408,0
 .00000858,-0.00000139,-0.00000009,0.00000120,-0.00000079,-0.00000014,0
 .00000451,0.00000223,0.00000142,0.00000392,-0.00000119,0.00000042,-0.0
 0000162,-0.00000277,-0.00000530,-0.00000433,-0.00000183,-0.00000260,0.
 00000057,0.00000589,-0.00000144,-0.00000408,-0.00000202,-0.00000095,-0
 .00000186,-0.00000131,-0.00000055,-0.00000079,0.00000213,-0.00000513,-
 0.00000362,-0.00000015,0.00000044,0.00000166,0.00000177,0.00000084,0.0
 0000223,0.00000173,0.00000112,0.00000492,0.00000648,-0.00000110,-0.000
 00684,0.00000256,0.00000070,0.00000403,-0.00000299,0.00000137,0.000001
 76,-0.00000289,0.00000151,-0.00000024,-0.00000171,-0.00000299,0.000000
 31,-0.00000025,-0.00000307,-0.00000319,-0.00000065,-0.00000286,-0.0000
 0314,0.00000100,0.00000155,0.00000088,0.00000792,-0.00000266,0.0000008
 4,0.00000080,-0.00000327,-0.00000165,0.00000005,-0.00000453,-0.0000013
 0,0.00000519,0.00000070,-0.00000230,-0.00000164,-0.00000387,-0.0000048
 4,0.00000412\\\@
 The archive entry for this job was punched.


 QED = W**5 (WHICH WAS WHAT WE WANTED)
 Job cpu time:       1 days 21 hours  8 minutes 33.5 seconds.
 Elapsed time:       0 days  2 hours 52 minutes 42.2 seconds.
 File lengths (MBytes):  RWF=   8253 Int=      0 D2E=      0 Chk=     49 Scr=      1
 Normal termination of Gaussian 16 at Sat Dec  7 21:46:03 2024.
