/mnt/lustre/scratch/nvme/SLURM/9663507/usccqdma.fSG7uuLplr
OMP_STACKSIZE=0m
GAUSS_PDEF=16
GAUSS_MDEF=65536MB
GAUSS_RDEF=SCF=Direct
 Entering Gaussian System, Link 0=g16.exe
 Initial command:
 /opt/cesga/2020/software/Core/g16/c1/l1.exe "/mnt/lustre/scratch/nvme/SLURM/9663507/usccqdma.fSG7uuLplr/Gau-704732.inp" -scrdir="/mnt/lustre/scratch/nvme/SLURM/9663507/usccqdma.fSG7uuLplr/"
 Default is to use a total of  16 processors:
                               16 via shared-memory
                                1 via Linda
 Entering Link 1 = /opt/cesga/2020/software/Core/g16/c1/l1.exe PID=    704759.
  
 Copyright (c) 1988-2019, Gaussian, Inc.  All Rights Reserved.
  
 This is part of the Gaussian(R) 16 program.  It is based on
 the Gaussian(R) 09 system (copyright 2009, Gaussian, Inc.),
 the Gaussian(R) 03 system (copyright 2003, Gaussian, Inc.),
 the Gaussian(R) 98 system (copyright 1998, Gaussian, Inc.),
 the Gaussian(R) 94 system (copyright 1995, Gaussian, Inc.),
 the Gaussian 92(TM) system (copyright 1992, Gaussian, Inc.),
 the Gaussian 90(TM) system (copyright 1990, Gaussian, Inc.),
 the Gaussian 88(TM) system (copyright 1988, Gaussian, Inc.),
 the Gaussian 86(TM) system (copyright 1986, Carnegie Mellon
 University), and the Gaussian 82(TM) system (copyright 1983,
 Carnegie Mellon University). Gaussian is a federally registered
 trademark of Gaussian, Inc.
  
 This software contains proprietary and confidential information,
 including trade secrets, belonging to Gaussian, Inc.
  
 This software is provided under written license and may be
 used, copied, transmitted, or stored only in accord with that
 written license.
  
 The following legend is applicable only to US Government
 contracts under FAR:
  
                    RESTRICTED RIGHTS LEGEND
  
 Use, reproduction and disclosure by the US Government is
 subject to restrictions as set forth in subparagraphs (a)
 and (c) of the Commercial Computer Software - Restricted
 Rights clause in FAR 52.227-19.
  
 Gaussian, Inc.
 340 Quinnipiac St., Bldg. 40, Wallingford CT 06492
  
  
 ---------------------------------------------------------------
 Warning -- This program may not be used in any manner that
 competes with the business of Gaussian, Inc. or will provide
 assistance to any competitor of Gaussian, Inc.  The licensee
 of this program is prohibited from giving any competitor of
 Gaussian, Inc. access to this program.  By using this program,
 the user acknowledges that Gaussian, Inc. is engaged in the
 business of creating and licensing software in the field of
 computational chemistry and represents and warrants to the
 licensee that it is not a competitor of Gaussian, Inc. and that
 it will not use this program in any manner prohibited above.
 ---------------------------------------------------------------
  

 Cite this work as:
 Gaussian 16, Revision C.01,
 M. J. Frisch, G. W. Trucks, H. B. Schlegel, G. E. Scuseria, 
 M. A. Robb, J. R. Cheeseman, G. Scalmani, V. Barone, 
 G. A. Petersson, H. Nakatsuji, X. Li, M. Caricato, A. V. Marenich, 
 J. Bloino, B. G. Janesko, R. Gomperts, B. Mennucci, H. P. Hratchian, 
 J. V. Ortiz, A. F. Izmaylov, J. L. Sonnenberg, D. Williams-Young, 
 F. Ding, F. Lipparini, F. Egidi, J. Goings, B. Peng, A. Petrone, 
 T. Henderson, D. Ranasinghe, V. G. Zakrzewski, J. Gao, N. Rega, 
 G. Zheng, W. Liang, M. Hada, M. Ehara, K. Toyota, R. Fukuda, 
 J. Hasegawa, M. Ishida, T. Nakajima, Y. Honda, O. Kitao, H. Nakai, 
 T. Vreven, K. Throssell, J. A. Montgomery, Jr., J. E. Peralta, 
 F. Ogliaro, M. J. Bearpark, J. J. Heyd, E. N. Brothers, K. N. Kudin, 
 V. N. Staroverov, T. A. Keith, R. Kobayashi, J. Normand, 
 K. Raghavachari, A. P. Rendell, J. C. Burant, S. S. Iyengar, 
 J. Tomasi, M. Cossi, J. M. Millam, M. Klene, C. Adamo, R. Cammi, 
 J. W. Ochterski, R. L. Martin, K. Morokuma, O. Farkas, 
 J. B. Foresman, and D. J. Fox, Gaussian, Inc., Wallingford CT, 2019.
 
 ******************************************
 Gaussian 16:  ES64L-G16RevC.01  3-Jul-2019
                 7-Dec-2024 
 ******************************************
 Default route: SCF=Direct
 ----------------------------------------------------
 # m06/genecp scf=tight int=ultrafine 5d freq=noraman
 ----------------------------------------------------
 1/10=4,30=1,38=1/1,3;
 2/12=2,17=6,18=5,40=1/2;
 3/5=7,8=1,11=2,16=1,17=8,25=1,30=1,71=2,74=-54,75=-5,140=1/1,2,3;
 4//1;
 5/5=2,32=2,38=5,98=1/2;
 8/6=4,10=90,11=11/1;
 11/6=1,8=1,9=11,15=111,16=1/1,2,10;
 10/6=1/2;
 6/7=2,8=2,9=2,10=2,28=1/1;
 7/8=1,10=1,25=1/1,2,3,16;
 1/10=4,30=1/3;
 99//99;
 ------
 OPT-TS
 ------
 Symbolic Z-matrix:
 Charge =  0 Multiplicity = 1
 C                     0.21594  -2.56534   0.96752 
 C                     1.93468  -1.00268   0.95121 
 C                     2.84384  -1.9359    1.41987 
 C                     2.41075  -3.2291    1.68608 
 C                     1.08214  -3.54036   1.45924 
 C                    -1.19911  -2.83654   0.66517 
 C                    -3.20329  -1.93994  -0.09482 
 C                    -3.84373  -3.1618    0.0273 
 C                    -3.121    -4.26064   0.48905 
 C                    -1.78635  -4.09846   0.80646 
 H                     2.22814   0.01877   0.71225 
 H                     3.10547  -3.98259   2.05034 
 H                     0.7268   -4.54867   1.64977 
 H                    -3.70697  -1.05415  -0.47932 
 H                    -3.60544  -5.23066   0.58839 
 H                    -1.20578  -4.94969   1.15028 
 N                     0.65201  -1.30737   0.73067 
 N                    -1.91623  -1.78349   0.22699 
 Ir                   -0.75897   0.15239   0.01677 
 O                    -1.99235   1.11948   2.74902 
 O                    -3.01806   0.5894   -1.98221 
 O                     1.77907   1.7936   -0.26277 
 B                    -1.83308   1.10955  -1.47119 
 B                    -0.86925   0.74698   2.03674 
 B                     0.41833   1.80298   0.05043 
 O                     0.04009   3.06921   0.47823 
 O                     0.26088   0.78273   2.84627 
 C                    -0.18129   0.95786   4.20257 
 C                    -1.552     1.66241   4.00731 
 C                     2.35018   3.03146   0.19554 
 C                     1.11368   3.97482   0.19021 
 C                    -3.64866   1.63176  -2.74747 
 C                    -2.43547   2.51396  -3.17075 
 O                    -1.50935   2.30108  -2.09264 
 C                    -2.58363   1.35388   5.0725 
 H                    -3.51665   1.88657   4.84967 
 H                    -2.81192   0.28346   5.12068 
 H                    -2.23318   1.68353   6.0614 
 C                    -1.42753   3.1678    3.81439 
 H                    -1.13721   3.68007   4.74179 
 H                    -0.70183   3.40337   3.02363 
 H                    -2.40074   3.56037   3.49443 
 C                    -0.30389  -0.4384    4.80054 
 H                     0.65904  -0.95399   4.68674 
 H                    -0.56003  -0.41336   5.86827 
 H                    -1.06667  -1.0262    4.27107 
 C                     0.85283   1.7621    4.96257 
 H                     1.06168   2.72007   4.47167 
 H                     0.51535   1.9634    5.9895 
 H                     1.79394   1.19899   5.01755 
 C                    -4.41696   1.00779  -3.89389 
 H                    -3.78049   0.35374  -4.49987 
 H                    -5.24319   0.40243  -3.4994 
 H                    -4.84617   1.78324  -4.54436 
 C                    -4.60763   2.3499   -1.80667 
 H                    -4.07185   2.80973  -0.96547 
 H                    -5.18514   3.12841  -2.32248 
 H                    -5.31272   1.61649  -1.39509 
 C                    -1.76381   2.04524  -4.45404 
 H                    -1.54737   0.96893  -4.43364 
 H                    -2.38057   2.25794  -5.33733 
 H                    -0.80988   2.57859  -4.56537 
 C                    -2.72858   3.99833  -3.26701 
 H                    -3.06223   4.40782  -2.30746 
 H                    -1.81627   4.53379  -3.56132 
 H                    -3.4995    4.1986   -4.02491 
 C                     1.14145   5.06191   1.24596 
 H                     1.21635   4.64454   2.25732 
 H                     1.99014   5.74277   1.08644 
 H                     0.21718   5.6516    1.19208 
 C                     0.82896   4.58742  -1.17612 
 H                    -0.16399   5.05405  -1.14627 
 H                     1.56961   5.35274  -1.44561 
 H                     0.80008   3.81945  -1.96115 
 C                     3.46998   3.4271   -0.74469 
 H                     4.26768   2.67257  -0.70166 
 H                     3.12465   3.49715  -1.78256 
 H                     3.90325   4.39513  -0.45471 
 C                     2.9042    2.77429   1.59105 
 H                     3.39446   3.66301   2.01055 
 H                     2.10883   2.44216   2.27263 
 H                     3.65326   1.97252   1.53464 
 H                    -1.97454   1.21329   0.19951 
 C                     2.10477  -1.50272  -2.10175 
 O                     1.75993  -2.59389  -1.64655 
 C                     3.57173  -1.18889  -2.35206 
 H                     3.72035  -0.89993  -3.40444 
 H                     3.84229  -0.29628  -1.75866 
 C                    -0.18878  -0.69027  -2.03417 
 H                    -0.77971  -0.3653   -2.90115 
 H                    -0.36695  -1.76449  -1.92021 
 N                     1.21244  -0.50605  -2.35977 
 C                     1.55642   0.71311  -3.05944 
 H                     1.54723   0.56645  -4.15305 
 H                     0.81295   1.4777   -2.80697 
 H                     2.53558   1.09631  -2.75682 
 C                     4.47919  -2.34866  -1.97585 
 H                     4.20628  -2.69955  -0.97046 
 H                     4.27261  -3.20118  -2.64145 
 C                     5.96076  -2.00076  -2.01363 
 H                     6.16515  -1.17631  -1.30848 
 H                     6.53941  -2.86171  -1.63966 
 C                     6.48543  -1.62005  -3.39199 
 H                     6.21357  -2.40889  -4.11327 
 H                     5.98469  -0.70421  -3.74407 
 C                     7.99006  -1.40653  -3.39831 
 H                     8.27673  -0.61275  -2.69405 
 H                     8.51914  -2.31991  -3.09208 
 H                     8.36272  -1.12188  -4.39027 
 C                     4.26208  -1.52703   1.669 
 F                     4.64011  -0.52869   0.86106 
 F                     4.43502  -1.10379   2.92616 
 F                     5.10466  -2.54772   1.47505 
 C                    -5.28252  -3.33922  -0.34264 
 F                    -5.85495  -2.19444  -0.71184 
 F                    -5.41084  -4.20863  -1.35199 
 F                    -5.98013  -3.83685   0.68618 
 

 GradGradGradGradGradGradGradGradGradGradGradGradGradGradGradGradGradGrad
 Berny optimization.
 Initialization pass.
 Trust Radius=3.00D-01 FncErr=1.00D-07 GrdErr=1.00D-07 EigMax=2.50D+02 EigMin=1.00D-04
 Number of steps in this run=      2 maximum allowed number of steps=      2.
 GradGradGradGradGradGradGradGradGradGradGradGradGradGradGradGradGradGrad

 Stoichiometry    C38H59B3F6IrN3O7
 Framework group  C1[X(C38H59B3F6IrN3O7)]
 Deg. of freedom   345
 Full point group                 C1      NOp   1
 Largest Abelian subgroup         C1      NOp   1
 Largest concise Abelian subgroup C1      NOp   1
                         Standard orientation:                         
 ---------------------------------------------------------------------
 Center     Atomic      Atomic             Coordinates (Angstroms)
 Number     Number       Type             X           Y           Z
 ---------------------------------------------------------------------
      1          6           0        0.215940   -2.565340    0.967520
      2          6           0        1.934680   -1.002681    0.951210
      3          6           0        2.843840   -1.935901    1.419870
      4          6           0        2.410750   -3.229101    1.686080
      5          6           0        1.082139   -3.540360    1.459240
      6          6           0       -1.199110   -2.836540    0.665170
      7          6           0       -3.203290   -1.939940   -0.094820
      8          6           0       -3.843730   -3.161800    0.027300
      9          6           0       -3.121001   -4.260640    0.489050
     10          6           0       -1.786351   -4.098460    0.806460
     11          1           0        2.228140    0.018769    0.712250
     12          1           0        3.105469   -3.982591    2.050340
     13          1           0        0.726799   -4.548670    1.649770
     14          1           0       -3.706970   -1.054150   -0.479320
     15          1           0       -3.605441   -5.230660    0.588390
     16          1           0       -1.205781   -4.949690    1.150280
     17          7           0        0.652010   -1.307370    0.730670
     18          7           0       -1.916230   -1.783490    0.226990
     19         77           0       -0.758970    0.152390    0.016770
     20          8           0       -1.992350    1.119480    2.749020
     21          8           0       -3.018060    0.589400   -1.982210
     22          8           0        1.779070    1.793599   -0.262770
     23          5           0       -1.833080    1.109550   -1.471190
     24          5           0       -0.869250    0.746980    2.036740
     25          5           0        0.418330    1.802980    0.050430
     26          8           0        0.040090    3.069210    0.478230
     27          8           0        0.260880    0.782730    2.846270
     28          6           0       -0.181290    0.957860    4.202570
     29          6           0       -1.552000    1.662410    4.007310
     30          6           0        2.350180    3.031459    0.195540
     31          6           0        1.113681    3.974820    0.190210
     32          6           0       -3.648660    1.631760   -2.747470
     33          6           0       -2.435470    2.513960   -3.170750
     34          8           0       -1.509350    2.301080   -2.092640
     35          6           0       -2.583630    1.353880    5.072500
     36          1           0       -3.516650    1.886570    4.849670
     37          1           0       -2.811920    0.283460    5.120680
     38          1           0       -2.233180    1.683530    6.061400
     39          6           0       -1.427530    3.167800    3.814390
     40          1           0       -1.137210    3.680070    4.741790
     41          1           0       -0.701830    3.403370    3.023630
     42          1           0       -2.400740    3.560370    3.494430
     43          6           0       -0.303890   -0.438400    4.800540
     44          1           0        0.659040   -0.953990    4.686740
     45          1           0       -0.560030   -0.413360    5.868270
     46          1           0       -1.066670   -1.026200    4.271070
     47          6           0        0.852830    1.762100    4.962570
     48          1           0        1.061680    2.720070    4.471670
     49          1           0        0.515350    1.963400    5.989500
     50          1           0        1.793940    1.198989    5.017550
     51          6           0       -4.416960    1.007790   -3.893890
     52          1           0       -3.780490    0.353740   -4.499870
     53          1           0       -5.243190    0.402430   -3.499400
     54          1           0       -4.846170    1.783240   -4.544360
     55          6           0       -4.607630    2.349900   -1.806670
     56          1           0       -4.071850    2.809730   -0.965470
     57          1           0       -5.185140    3.128410   -2.322480
     58          1           0       -5.312720    1.616490   -1.395090
     59          6           0       -1.763810    2.045240   -4.454040
     60          1           0       -1.547370    0.968930   -4.433640
     61          1           0       -2.380570    2.257940   -5.337330
     62          1           0       -0.809880    2.578590   -4.565370
     63          6           0       -2.728579    3.998330   -3.267010
     64          1           0       -3.062229    4.407820   -2.307460
     65          1           0       -1.816269    4.533790   -3.561320
     66          1           0       -3.499499    4.198600   -4.024910
     67          6           0        1.141451    5.061910    1.245960
     68          1           0        1.216351    4.644540    2.257320
     69          1           0        1.990141    5.742769    1.086440
     70          1           0        0.217181    5.651600    1.192080
     71          6           0        0.828961    4.587420   -1.176120
     72          1           0       -0.163989    5.054050   -1.146270
     73          1           0        1.569611    5.352739   -1.445610
     74          1           0        0.800080    3.819450   -1.961150
     75          6           0        3.469980    3.427099   -0.744690
     76          1           0        4.267680    2.672569   -0.701660
     77          1           0        3.124650    3.497149   -1.782560
     78          1           0        3.903251    4.395129   -0.454710
     79          6           0        2.904200    2.774289    1.591050
     80          1           0        3.394460    3.663009    2.010550
     81          1           0        2.108830    2.442159    2.272630
     82          1           0        3.653260    1.972519    1.534640
     83          1           0       -1.974540    1.213290    0.199510
     84          6           0        2.104770   -1.502721   -2.101750
     85          8           0        1.759930   -2.593891   -1.646550
     86          6           0        3.571730   -1.188891   -2.352060
     87          1           0        3.720350   -0.899931   -3.404440
     88          1           0        3.842290   -0.296281   -1.758660
     89          6           0       -0.188780   -0.690270   -2.034170
     90          1           0       -0.779710   -0.365300   -2.901150
     91          1           0       -0.366950   -1.764490   -1.920210
     92          7           0        1.212440   -0.506050   -2.359770
     93          6           0        1.556420    0.713109   -3.059440
     94          1           0        1.547230    0.566449   -4.153050
     95          1           0        0.812950    1.477700   -2.806970
     96          1           0        2.535580    1.096309   -2.756820
     97          6           0        4.479190   -2.348661   -1.975850
     98          1           0        4.206280   -2.699551   -0.970460
     99          1           0        4.272610   -3.201181   -2.641450
    100          6           0        5.960760   -2.000761   -2.013630
    101          1           0        6.165150   -1.176311   -1.308480
    102          1           0        6.539410   -2.861711   -1.639660
    103          6           0        6.485430   -1.620051   -3.391990
    104          1           0        6.213570   -2.408891   -4.113270
    105          1           0        5.984690   -0.704211   -3.744070
    106          6           0        7.990060   -1.406531   -3.398310
    107          1           0        8.276730   -0.612751   -2.694050
    108          1           0        8.519140   -2.319911   -3.092080
    109          1           0        8.362720   -1.121881   -4.390270
    110          6           0        4.262080   -1.527031    1.669000
    111          9           0        4.640110   -0.528691    0.861060
    112          9           0        4.435020   -1.103791    2.926160
    113          9           0        5.104660   -2.547721    1.475050
    114          6           0       -5.282520   -3.339220   -0.342640
    115          9           0       -5.854950   -2.194440   -0.711840
    116          9           0       -5.410841   -4.208630   -1.351990
    117          9           0       -5.980131   -3.836849    0.686180
 ---------------------------------------------------------------------
 Rotational constants (GHZ):           0.0516534           0.0362724           0.0349570
 General basis read from cards:  (5D, 7F)
 ======================================================================================================
                                       Pseudopotential Parameters
 ======================================================================================================
  Center     Atomic      Valence      Angular      Power
  Number     Number     Electrons     Momentum     of R      Exponent        Coefficient   SO-Coeffient
 ======================================================================================================
    1          6
                                   No pseudopotential on this center.
    2          6
                                   No pseudopotential on this center.
    3          6
                                   No pseudopotential on this center.
    4          6
                                   No pseudopotential on this center.
    5          6
                                   No pseudopotential on this center.
    6          6
                                   No pseudopotential on this center.
    7          6
                                   No pseudopotential on this center.
    8          6
                                   No pseudopotential on this center.
    9          6
                                   No pseudopotential on this center.
   10          6
                                   No pseudopotential on this center.
   11          1
                                   No pseudopotential on this center.
   12          1
                                   No pseudopotential on this center.
   13          1
                                   No pseudopotential on this center.
   14          1
                                   No pseudopotential on this center.
   15          1
                                   No pseudopotential on this center.
   16          1
                                   No pseudopotential on this center.
   17          7
                                   No pseudopotential on this center.
   18          7
                                   No pseudopotential on this center.
   19         77           17
                                      G and up 
                                                     1      823.5880147       -0.15780140    0.00000000
                                                     2      364.6613336    -1517.52704460    0.00000000
                                                     2       55.7082801     -316.53065290    0.00000000
                                                     2       12.0464544      -91.88809410    0.00000000
                                                     2        3.5120610       -9.22417730    0.00000000
                                      S - G
                                                     0      188.0490770        3.15780140    0.00000000
                                                     1      340.4194712       26.83225770    0.00000000
                                                     2      128.2373673      800.42500070    0.00000000
                                                     2       33.8644961      369.40506830    0.00000000
                                                     2        4.7560005      242.41718990    0.00000000
                                                     2        3.9649974     -118.21732820    0.00000000
                                      P - G
                                                     0      289.7291139        2.15780140    0.00000000
                                                     1       87.4633789       61.96786100    0.00000000
                                                     2       30.4363766      269.05819860    0.00000000
                                                     2        4.0553412      231.16547930    0.00000000
                                                     2        3.5525341     -133.69526670    0.00000000
                                      D - G
                                                     0      136.4017106        3.15780140    0.00000000
                                                     1       95.0776925       45.93498030    0.00000000
                                                     2       49.2258410      359.03446680    0.00000000
                                                     2       15.0874145      176.47401190    0.00000000
                                                     2        4.0405764       54.51552860    0.00000000
                                      F - G
                                                     0      127.3507908        3.95461970    0.00000000
                                                     1       66.2364374       52.97736550    0.00000000
                                                     2       34.4299229      274.86433830    0.00000000
                                                     2       10.1995721      137.20473380    0.00000000
                                                     2        2.5409702       14.86333050    0.00000000
   20          8
                                   No pseudopotential on this center.
   21          8
                                   No pseudopotential on this center.
   22          8
                                   No pseudopotential on this center.
   23          5
                                   No pseudopotential on this center.
   24          5
                                   No pseudopotential on this center.
   25          5
                                   No pseudopotential on this center.
   26          8
                                   No pseudopotential on this center.
   27          8
                                   No pseudopotential on this center.
   28          6
                                   No pseudopotential on this center.
   29          6
                                   No pseudopotential on this center.
   30          6
                                   No pseudopotential on this center.
   31          6
                                   No pseudopotential on this center.
   32          6
                                   No pseudopotential on this center.
   33          6
                                   No pseudopotential on this center.
   34          8
                                   No pseudopotential on this center.
   35          6
                                   No pseudopotential on this center.
   36          1
                                   No pseudopotential on this center.
   37          1
                                   No pseudopotential on this center.
   38          1
                                   No pseudopotential on this center.
   39          6
                                   No pseudopotential on this center.
   40          1
                                   No pseudopotential on this center.
   41          1
                                   No pseudopotential on this center.
   42          1
                                   No pseudopotential on this center.
   43          6
                                   No pseudopotential on this center.
   44          1
                                   No pseudopotential on this center.
   45          1
                                   No pseudopotential on this center.
   46          1
                                   No pseudopotential on this center.
   47          6
                                   No pseudopotential on this center.
   48          1
                                   No pseudopotential on this center.
   49          1
                                   No pseudopotential on this center.
   50          1
                                   No pseudopotential on this center.
   51          6
                                   No pseudopotential on this center.
   52          1
                                   No pseudopotential on this center.
   53          1
                                   No pseudopotential on this center.
   54          1
                                   No pseudopotential on this center.
   55          6
                                   No pseudopotential on this center.
   56          1
                                   No pseudopotential on this center.
   57          1
                                   No pseudopotential on this center.
   58          1
                                   No pseudopotential on this center.
   59          6
                                   No pseudopotential on this center.
   60          1
                                   No pseudopotential on this center.
   61          1
                                   No pseudopotential on this center.
   62          1
                                   No pseudopotential on this center.
   63          6
                                   No pseudopotential on this center.
   64          1
                                   No pseudopotential on this center.
   65          1
                                   No pseudopotential on this center.
   66          1
                                   No pseudopotential on this center.
   67          6
                                   No pseudopotential on this center.
   68          1
                                   No pseudopotential on this center.
   69          1
                                   No pseudopotential on this center.
   70          1
                                   No pseudopotential on this center.
   71          6
                                   No pseudopotential on this center.
   72          1
                                   No pseudopotential on this center.
   73          1
                                   No pseudopotential on this center.
   74          1
                                   No pseudopotential on this center.
   75          6
                                   No pseudopotential on this center.
   76          1
                                   No pseudopotential on this center.
   77          1
                                   No pseudopotential on this center.
   78          1
                                   No pseudopotential on this center.
   79          6
                                   No pseudopotential on this center.
   80          1
                                   No pseudopotential on this center.
   81          1
                                   No pseudopotential on this center.
   82          1
                                   No pseudopotential on this center.
   83          1
                                   No pseudopotential on this center.
   84          6
                                   No pseudopotential on this center.
   85          8
                                   No pseudopotential on this center.
   86          6
                                   No pseudopotential on this center.
   87          1
                                   No pseudopotential on this center.
   88          1
                                   No pseudopotential on this center.
   89          6
                                   No pseudopotential on this center.
   90          1
                                   No pseudopotential on this center.
   91          1
                                   No pseudopotential on this center.
   92          7
                                   No pseudopotential on this center.
   93          6
                                   No pseudopotential on this center.
   94          1
                                   No pseudopotential on this center.
   95          1
                                   No pseudopotential on this center.
   96          1
                                   No pseudopotential on this center.
   97          6
                                   No pseudopotential on this center.
   98          1
                                   No pseudopotential on this center.
   99          1
                                   No pseudopotential on this center.
  100          6
                                   No pseudopotential on this center.
  101          1
                                   No pseudopotential on this center.
  102          1
                                   No pseudopotential on this center.
  103          6
                                   No pseudopotential on this center.
  104          1
                                   No pseudopotential on this center.
  105          1
                                   No pseudopotential on this center.
  106          6
                                   No pseudopotential on this center.
  107          1
                                   No pseudopotential on this center.
  108          1
                                   No pseudopotential on this center.
  109          1
                                   No pseudopotential on this center.
  110          6
                                   No pseudopotential on this center.
  111          9
                                   No pseudopotential on this center.
  112          9
                                   No pseudopotential on this center.
  113          9
                                   No pseudopotential on this center.
  114          6
                                   No pseudopotential on this center.
  115          9
                                   No pseudopotential on this center.
  116          9
                                   No pseudopotential on this center.
  117          9
                                   No pseudopotential on this center.
 ======================================================================================================
 There are   997 symmetry adapted cartesian basis functions of A   symmetry.
 There are   938 symmetry adapted basis functions of A   symmetry.
   938 basis functions,  1875 primitive gaussians,   997 cartesian basis functions
   225 alpha electrons      225 beta electrons
       nuclear repulsion energy     10476.1409443184 Hartrees.
 NAtoms=  117 NActive=  117 NUniq=  117 SFac= 1.00D+00 NAtFMM=   60 NAOKFM=T Big=T
 Integral buffers will be    131072 words long.
 Raffenetti 2 integral format.
 Two-electron integral symmetry is turned on.
 One-electron integrals computed using PRISM.
   1 Symmetry operations used in ECPInt.
 ECPInt:  NShTT=   62835 NPrTT=  387974 LenC2=   45259 LenP2D=  137732.
 LDataN:  DoStor=T MaxTD1= 6 Len=  172
 NBasis=   938 RedAO= T EigKep=  4.28D-04  NBF=   938
 NBsUse=   938 1.00D-06 EigRej= -1.00D+00 NBFU=   938
 Defaulting to unpruned grid for atomic number  77.
 ExpMin= 2.90D-02 ExpMax= 7.00D+03 ExpMxC= 1.05D+03 IAcc=3 IRadAn=         5 AccDes= 0.00D+00
 Harris functional with IExCor= 1009 and IRadAn=       5 diagonalized for initial guess.
 HarFok:  IExCor= 1009 AccDes= 0.00D+00 IRadAn=         5 IDoV= 1 UseB2=F ITyADJ=14
 ICtDFT=  3500011 ScaDFX=  1.000000  1.000000  1.000000  1.000000
 Defaulting to unpruned grid for atomic number  77.
 FoFCou: FMM=F IPFlag=           0 FMFlag=      100000 FMFlg1=        2001
         NFxFlg=           0 DoJE=T BraDBF=F KetDBF=T FulRan=T
         wScrn=  0.000000 ICntrl=       500 IOpCl=  0 I1Cent=   200000004 NGrid=           0
         NMat0=    1 NMatS0=      1 NMatT0=    0 NMatD0=    1 NMtDS0=    0 NMtDT0=    0
 Petite list used in FoFCou.
 Requested convergence on RMS density matrix=1.00D-08 within 128 cycles.
 Requested convergence on MAX density matrix=1.00D-06.
 Requested convergence on             energy=1.00D-06.
 No special actions if energy rises.
 Defaulting to unpruned grid for atomic number  77.
 Defaulting to unpruned grid for atomic number  77.
 Defaulting to unpruned grid for atomic number  77.
 Defaulting to unpruned grid for atomic number  77.
 Defaulting to unpruned grid for atomic number  77.
 Defaulting to unpruned grid for atomic number  77.
 Defaulting to unpruned grid for atomic number  77.
 Defaulting to unpruned grid for atomic number  77.
 Defaulting to unpruned grid for atomic number  77.
 Defaulting to unpruned grid for atomic number  77.
 Defaulting to unpruned grid for atomic number  77.
 Defaulting to unpruned grid for atomic number  77.
 Defaulting to unpruned grid for atomic number  77.
 Defaulting to unpruned grid for atomic number  77.
 Defaulting to unpruned grid for atomic number  77.
 Defaulting to unpruned grid for atomic number  77.
 SCF Done:  E(RM06) =  -2951.39086346     A.U. after   14 cycles
            NFock= 14  Conv=0.99D-08     -V/T= 2.0310
 DoSCS=F DFT=T ScalE2(SS,OS)=  1.000000  1.000000
 Range of M.O.s used for correlation:     1   938
 NBasis=   938 NAE=   225 NBE=   225 NFC=     0 NFV=     0
 NROrb=    938 NOA=   225 NOB=   225 NVA=   713 NVB=   713

 **** Warning!!: The largest alpha MO coefficient is  0.12132085D+02


 **** Warning!!: The smallest alpha delta epsilon is  0.96992315D-01

   1 Symmetry operations used in ECPInt.
 ECPInt:  NShTT=   62835 NPrTT=  387974 LenC2=   45259 LenP2D=  137732.
 LDataN:  DoStor=T MaxTD1= 7 Len=  274
 Number of processors reduced to   6 by ecpmxn.
 Symmetrizing basis deriv contribution to polar:
 IMax=3 JMax=2 DiffMx= 0.00D+00
 G2DrvN: will do   118 centers at a time, making    1 passes.
 Calling FoFCou, ICntrl=  3107 FMM=T I1Cent=   0 AccDes= 0.00D+00.
 Defaulting to unpruned grid for atomic number  77.
 Defaulting to unpruned grid for atomic number  77.
 Defaulting to unpruned grid for atomic number  77.
 Defaulting to unpruned grid for atomic number  77.
 Defaulting to unpruned grid for atomic number  77.
 Defaulting to unpruned grid for atomic number  77.
 Defaulting to unpruned grid for atomic number  77.
 Defaulting to unpruned grid for atomic number  77.
 Defaulting to unpruned grid for atomic number  77.
 Defaulting to unpruned grid for atomic number  77.
 Defaulting to unpruned grid for atomic number  77.
 Defaulting to unpruned grid for atomic number  77.
 Defaulting to unpruned grid for atomic number  77.
 Defaulting to unpruned grid for atomic number  77.
 Defaulting to unpruned grid for atomic number  77.
 Defaulting to unpruned grid for atomic number  77.
 End of G2Drv F.D. properties file   721 does not exist.
 End of G2Drv F.D. properties file   722 does not exist.
 End of G2Drv F.D. properties file   788 does not exist.
          IDoAtm=11111111111111111111111111111111111111111111111111
          IDoAtm=11111111111111111111111111111111111111111111111111
          IDoAtm=11111111111111111
          Differentiating once with respect to electric field.
                with respect to dipole field.
          Differentiating once with respect to nuclear coordinates.
 Defaulting to unpruned grid for atomic number  77.
 CalDSu exits because no D1Ps are significant.
 Defaulting to unpruned grid for atomic number  77.
 Defaulting to unpruned grid for atomic number  77.
 Defaulting to unpruned grid for atomic number  77.
 Defaulting to unpruned grid for atomic number  77.
 Defaulting to unpruned grid for atomic number  77.
 Defaulting to unpruned grid for atomic number  77.
 Defaulting to unpruned grid for atomic number  77.
 Defaulting to unpruned grid for atomic number  77.
 Defaulting to unpruned grid for atomic number  77.
 Defaulting to unpruned grid for atomic number  77.
 Defaulting to unpruned grid for atomic number  77.
 Defaulting to unpruned grid for atomic number  77.
 Defaulting to unpruned grid for atomic number  77.
 Defaulting to unpruned grid for atomic number  77.
 Defaulting to unpruned grid for atomic number  77.
 Defaulting to unpruned grid for atomic number  77.
          There are   354 degrees of freedom in the 1st order CPHF.  IDoFFX=6 NUNeed=     3.
    351 vectors produced by pass  0 Test12= 1.60D-13 1.00D-09 XBig12= 5.22D+02 1.17D+01.
 AX will form    72 AO Fock derivatives at one time.
    351 vectors produced by pass  1 Test12= 1.60D-13 1.00D-09 XBig12= 8.83D+01 1.27D+00.
    351 vectors produced by pass  2 Test12= 1.60D-13 1.00D-09 XBig12= 1.06D+00 9.87D-02.
    351 vectors produced by pass  3 Test12= 1.60D-13 1.00D-09 XBig12= 8.36D-03 6.25D-03.
    351 vectors produced by pass  4 Test12= 1.60D-13 1.00D-09 XBig12= 3.46D-05 3.11D-04.
    307 vectors produced by pass  5 Test12= 1.60D-13 1.00D-09 XBig12= 7.46D-08 1.38D-05.
     80 vectors produced by pass  6 Test12= 1.60D-13 1.00D-09 XBig12= 1.08D-10 6.04D-07.
      3 vectors produced by pass  7 Test12= 1.60D-13 1.00D-09 XBig12= 1.41D-13 2.75D-08.
 InvSVY:  IOpt=1 It=  1 EMax= 3.91D-14
 Solved reduced A of dimension  2145 with   354 vectors.
 Isotropic polarizability for W=    0.000000      526.17 Bohr**3.
 End of Minotr F.D. properties file   721 does not exist.
 End of Minotr F.D. properties file   722 does not exist.
 End of Minotr F.D. properties file   788 does not exist.
 Hyperfine terms turned off by default for NAtoms > 100.

 **********************************************************************

            Population analysis using the SCF Density.

 **********************************************************************

 Orbital symmetries:
       Occupied  (A) (A) (A) (A) (A) (A) (A) (A) (A) (A) (A) (A)
                 (A) (A) (A) (A) (A) (A) (A) (A) (A) (A) (A) (A)
                 (A) (A) (A) (A) (A) (A) (A) (A) (A) (A) (A) (A)
                 (A) (A) (A) (A) (A) (A) (A) (A) (A) (A) (A) (A)
                 (A) (A) (A) (A) (A) (A) (A) (A) (A) (A) (A) (A)
                 (A) (A) (A) (A) (A) (A) (A) (A) (A) (A) (A) (A)
                 (A) (A) (A) (A) (A) (A) (A) (A) (A) (A) (A) (A)
                 (A) (A) (A) (A) (A) (A) (A) (A) (A) (A) (A) (A)
                 (A) (A) (A) (A) (A) (A) (A) (A) (A) (A) (A) (A)
                 (A) (A) (A) (A) (A) (A) (A) (A) (A) (A) (A) (A)
                 (A) (A) (A) (A) (A) (A) (A) (A) (A) (A) (A) (A)
                 (A) (A) (A) (A) (A) (A) (A) (A) (A) (A) (A) (A)
                 (A) (A) (A) (A) (A) (A) (A) (A) (A) (A) (A) (A)
                 (A) (A) (A) (A) (A) (A) (A) (A) (A) (A) (A) (A)
                 (A) (A) (A) (A) (A) (A) (A) (A) (A) (A) (A) (A)
                 (A) (A) (A) (A) (A) (A) (A) (A) (A) (A) (A) (A)
                 (A) (A) (A) (A) (A) (A) (A) (A) (A) (A) (A) (A)
                 (A) (A) (A) (A) (A) (A) (A) (A) (A) (A) (A) (A)
                 (A) (A) (A) (A) (A) (A) (A) (A) (A)
       Virtual   (A) (A) (A) (A) (A) (A) (A) (A) (A) (A) (A) (A)
                 (A) (A) (A) (A) (A) (A) (A) (A) (A) (A) (A) (A)
                 (A) (A) (A) (A) (A) (A) (A) (A) (A) (A) (A) (A)
                 (A) (A) (A) (A) (A) (A) (A) (A) (A) (A) (A) (A)
                 (A) (A) (A) (A) (A) (A) (A) (A) (A) (A) (A) (A)
                 (A) (A) (A) (A) (A) (A) (A) (A) (A) (A) (A) (A)
                 (A) (A) (A) (A) (A) (A) (A) (A) (A) (A) (A) (A)
                 (A) (A) (A) (A) (A) (A) (A) (A) (A) (A) (A) (A)
                 (A) (A) (A) (A) (A) (A) (A) (A) (A) (A) (A) (A)
                 (A) (A) (A) (A) (A) (A) (A) (A) (A) (A) (A) (A)
                 (A) (A) (A) (A) (A) (A) (A) (A) (A) (A) (A) (A)
                 (A) (A) (A) (A) (A) (A) (A) (A) (A) (A) (A) (A)
                 (A) (A) (A) (A) (A) (A) (A) (A) (A) (A) (A) (A)
                 (A) (A) (A) (A) (A) (A) (A) (A) (A) (A) (A) (A)
                 (A) (A) (A) (A) (A) (A) (A) (A) (A) (A) (A) (A)
                 (A) (A) (A) (A) (A) (A) (A) (A) (A) (A) (A) (A)
                 (A) (A) (A) (A) (A) (A) (A) (A) (A) (A) (A) (A)
                 (A) (A) (A) (A) (A) (A) (A) (A) (A) (A) (A) (A)
                 (A) (A) (A) (A) (A) (A) (A) (A) (A) (A) (A) (A)
                 (A) (A) (A) (A) (A) (A) (A) (A) (A) (A) (A) (A)
                 (A) (A) (A) (A) (A) (A) (A) (A) (A) (A) (A) (A)
                 (A) (A) (A) (A) (A) (A) (A) (A) (A) (A) (A) (A)
                 (A) (A) (A) (A) (A) (A) (A) (A) (A) (A) (A) (A)
                 (A) (A) (A) (A) (A) (A) (A) (A) (A) (A) (A) (A)
                 (A) (A) (A) (A) (A) (A) (A) (A) (A) (A) (A) (A)
                 (A) (A) (A) (A) (A) (A) (A) (A) (A) (A) (A) (A)
                 (A) (A) (A) (A) (A) (A) (A) (A) (A) (A) (A) (A)
                 (A) (A) (A) (A) (A) (A) (A) (A) (A) (A) (A) (A)
                 (A) (A) (A) (A) (A) (A) (A) (A) (A) (A) (A) (A)
                 (A) (A) (A) (A) (A) (A) (A) (A) (A) (A) (A) (A)
                 (A) (A) (A) (A) (A) (A) (A) (A) (A) (A) (A) (A)
                 (A) (A) (A) (A) (A) (A) (A) (A) (A) (A) (A) (A)
                 (A) (A) (A) (A) (A) (A) (A) (A) (A) (A) (A) (A)
                 (A) (A) (A) (A) (A) (A) (A) (A) (A) (A) (A) (A)
                 (A) (A) (A) (A) (A) (A) (A) (A) (A) (A) (A) (A)
                 (A) (A) (A) (A) (A) (A) (A) (A) (A) (A) (A) (A)
                 (A) (A) (A) (A) (A) (A) (A) (A) (A) (A) (A) (A)
                 (A) (A) (A) (A) (A) (A) (A) (A) (A) (A) (A) (A)
                 (A) (A) (A) (A) (A) (A) (A) (A) (A) (A) (A) (A)
                 (A) (A) (A) (A) (A) (A) (A) (A) (A) (A) (A) (A)
                 (A) (A) (A) (A) (A) (A) (A) (A) (A) (A) (A) (A)
                 (A) (A) (A) (A) (A) (A) (A) (A) (A) (A) (A) (A)
                 (A) (A) (A) (A) (A) (A) (A) (A) (A) (A) (A) (A)
                 (A) (A) (A) (A) (A) (A) (A) (A) (A) (A) (A) (A)
                 (A) (A) (A) (A) (A) (A) (A) (A) (A) (A) (A) (A)
                 (A) (A) (A) (A) (A) (A) (A) (A) (A) (A) (A) (A)
                 (A) (A) (A) (A) (A) (A) (A) (A) (A) (A) (A) (A)
                 (A) (A) (A) (A) (A) (A) (A) (A) (A) (A) (A) (A)
                 (A) (A) (A) (A) (A) (A) (A) (A) (A) (A) (A) (A)
                 (A) (A) (A) (A) (A) (A) (A) (A) (A) (A) (A) (A)
                 (A) (A) (A) (A) (A) (A) (A) (A) (A) (A) (A) (A)
                 (A) (A) (A) (A) (A) (A) (A) (A) (A) (A) (A) (A)
                 (A) (A) (A) (A) (A) (A) (A) (A) (A) (A) (A) (A)
                 (A) (A) (A) (A) (A) (A) (A) (A) (A) (A) (A) (A)
                 (A) (A) (A) (A) (A) (A) (A) (A) (A) (A) (A) (A)
                 (A) (A) (A) (A) (A) (A) (A) (A) (A) (A) (A) (A)
                 (A) (A) (A) (A) (A) (A) (A) (A) (A) (A) (A) (A)
                 (A) (A) (A) (A) (A) (A) (A) (A) (A) (A) (A) (A)
                 (A) (A) (A) (A) (A) (A) (A) (A) (A) (A) (A) (A)
                 (A) (A) (A) (A) (A)
 The electronic state is 1-A.
 Alpha  occ. eigenvalues --  -24.83372 -24.83227 -24.83156 -24.82833 -24.82744
 Alpha  occ. eigenvalues --  -24.82605 -19.21378 -19.21355 -19.21022 -19.20876
 Alpha  occ. eigenvalues --  -19.20694 -19.20182 -19.16501 -14.46471 -14.45671
 Alpha  occ. eigenvalues --  -14.40508 -10.51567 -10.51471 -10.33264 -10.33058
 Alpha  occ. eigenvalues --  -10.32167 -10.31601 -10.30937 -10.30356 -10.30317
 Alpha  occ. eigenvalues --  -10.30248 -10.29906 -10.29799 -10.29778 -10.29626
 Alpha  occ. eigenvalues --  -10.29603 -10.29476 -10.29422 -10.29315 -10.28992
 Alpha  occ. eigenvalues --  -10.25483 -10.23910 -10.23494 -10.23437 -10.23377
 Alpha  occ. eigenvalues --  -10.23340 -10.23303 -10.23234 -10.23158 -10.23149
 Alpha  occ. eigenvalues --  -10.23062 -10.23057 -10.22938 -10.22759 -10.22533
 Alpha  occ. eigenvalues --  -10.22521 -10.22368 -10.22231 -10.22176  -6.82787
 Alpha  occ. eigenvalues --   -6.80464  -6.79905  -3.65228  -2.08274  -2.06946
 Alpha  occ. eigenvalues --   -2.05921  -1.35927  -1.35810  -1.27452  -1.27266
 Alpha  occ. eigenvalues --   -1.26867  -1.26859  -1.07375  -1.06803  -1.06465
 Alpha  occ. eigenvalues --   -1.02410  -1.01166  -1.00512  -0.99825  -0.99551
 Alpha  occ. eigenvalues --   -0.98705  -0.91997  -0.86907  -0.86024  -0.84455
 Alpha  occ. eigenvalues --   -0.81352  -0.80874  -0.80678  -0.80644  -0.80543
 Alpha  occ. eigenvalues --   -0.76001  -0.75865  -0.75751  -0.75292  -0.75023
 Alpha  occ. eigenvalues --   -0.72664  -0.71166  -0.70850  -0.70498  -0.70274
 Alpha  occ. eigenvalues --   -0.69574  -0.69506  -0.68923  -0.68370  -0.68062
 Alpha  occ. eigenvalues --   -0.67735  -0.66590  -0.65522  -0.65283  -0.62635
 Alpha  occ. eigenvalues --   -0.62173  -0.62101  -0.61896  -0.61852  -0.61665
 Alpha  occ. eigenvalues --   -0.61466  -0.60924  -0.60725  -0.60474  -0.57111
 Alpha  occ. eigenvalues --   -0.56392  -0.55707  -0.55131  -0.55070  -0.54800
 Alpha  occ. eigenvalues --   -0.54641  -0.53959  -0.53453  -0.51855  -0.51626
 Alpha  occ. eigenvalues --   -0.50123  -0.49649  -0.49389  -0.49260  -0.49205
 Alpha  occ. eigenvalues --   -0.49039  -0.48854  -0.48526  -0.48083  -0.47845
 Alpha  occ. eigenvalues --   -0.47494  -0.47287  -0.47141  -0.47032  -0.46744
 Alpha  occ. eigenvalues --   -0.46665  -0.46450  -0.45900  -0.45758  -0.45559
 Alpha  occ. eigenvalues --   -0.45375  -0.45235  -0.45038  -0.44931  -0.44833
 Alpha  occ. eigenvalues --   -0.44703  -0.44489  -0.44285  -0.44003  -0.43838
 Alpha  occ. eigenvalues --   -0.43500  -0.43282  -0.43179  -0.43159  -0.42989
 Alpha  occ. eigenvalues --   -0.42658  -0.41981  -0.40913  -0.40823  -0.40617
 Alpha  occ. eigenvalues --   -0.40564  -0.40455  -0.40420  -0.40257  -0.40146
 Alpha  occ. eigenvalues --   -0.40087  -0.40011  -0.39928  -0.39607  -0.39417
 Alpha  occ. eigenvalues --   -0.39367  -0.39025  -0.38701  -0.38247  -0.38186
 Alpha  occ. eigenvalues --   -0.37929  -0.37701  -0.37648  -0.37312  -0.37043
 Alpha  occ. eigenvalues --   -0.36949  -0.36850  -0.36614  -0.36514  -0.36302
 Alpha  occ. eigenvalues --   -0.36148  -0.36102  -0.35638  -0.35537  -0.35320
 Alpha  occ. eigenvalues --   -0.35092  -0.34821  -0.34162  -0.34006  -0.33527
 Alpha  occ. eigenvalues --   -0.33458  -0.33180  -0.32906  -0.32845  -0.32538
 Alpha  occ. eigenvalues --   -0.32252  -0.32011  -0.31686  -0.31588  -0.31130
 Alpha  occ. eigenvalues --   -0.31109  -0.30841  -0.30330  -0.30121  -0.28508
 Alpha  occ. eigenvalues --   -0.27868  -0.27355  -0.27271  -0.26924  -0.26643
 Alpha  occ. eigenvalues --   -0.25689  -0.24406  -0.23950  -0.22607  -0.18350
 Alpha virt. eigenvalues --   -0.08651  -0.04657  -0.03961  -0.00338   0.02113
 Alpha virt. eigenvalues --    0.03478   0.04892   0.05611   0.06217   0.06829
 Alpha virt. eigenvalues --    0.07347   0.07783   0.08762   0.08908   0.09175
 Alpha virt. eigenvalues --    0.09317   0.09988   0.10679   0.10992   0.11262
 Alpha virt. eigenvalues --    0.11417   0.11954   0.12154   0.12719   0.12802
 Alpha virt. eigenvalues --    0.13060   0.13320   0.13616   0.13921   0.14057
 Alpha virt. eigenvalues --    0.14127   0.14170   0.14529   0.14751   0.14982
 Alpha virt. eigenvalues --    0.15078   0.15353   0.15494   0.15542   0.15680
 Alpha virt. eigenvalues --    0.16116   0.16198   0.16530   0.16736   0.16838
 Alpha virt. eigenvalues --    0.16956   0.17022   0.17327   0.17471   0.17736
 Alpha virt. eigenvalues --    0.17874   0.18191   0.18299   0.18553   0.18681
 Alpha virt. eigenvalues --    0.19046   0.19170   0.19303   0.19368   0.19595
 Alpha virt. eigenvalues --    0.19842   0.19895   0.19996   0.20060   0.20158
 Alpha virt. eigenvalues --    0.20475   0.20654   0.20863   0.20922   0.21305
 Alpha virt. eigenvalues --    0.21387   0.21639   0.21985   0.22235   0.22267
 Alpha virt. eigenvalues --    0.22504   0.22743   0.22830   0.23037   0.23196
 Alpha virt. eigenvalues --    0.23430   0.23444   0.23747   0.24126   0.24253
 Alpha virt. eigenvalues --    0.24409   0.24767   0.25094   0.25246   0.25377
 Alpha virt. eigenvalues --    0.25770   0.25826   0.26014   0.26359   0.26479
 Alpha virt. eigenvalues --    0.26691   0.26885   0.27070   0.27340   0.27452
 Alpha virt. eigenvalues --    0.27512   0.27831   0.27978   0.28280   0.29074
 Alpha virt. eigenvalues --    0.29503   0.30114   0.30325   0.31170   0.31536
 Alpha virt. eigenvalues --    0.31693   0.32240   0.33005   0.33390   0.34364
 Alpha virt. eigenvalues --    0.34564   0.34986   0.35461   0.36041   0.36213
 Alpha virt. eigenvalues --    0.37066   0.37708   0.38285   0.38762   0.39437
 Alpha virt. eigenvalues --    0.39863   0.40007   0.40612   0.41742   0.43516
 Alpha virt. eigenvalues --    0.44590   0.46317   0.47155   0.47516   0.47769
 Alpha virt. eigenvalues --    0.48121   0.48631   0.49156   0.49508   0.49980
 Alpha virt. eigenvalues --    0.50286   0.50478   0.50525   0.50864   0.51105
 Alpha virt. eigenvalues --    0.51237   0.51911   0.52214   0.52266   0.52532
 Alpha virt. eigenvalues --    0.52775   0.53588   0.53741   0.54028   0.54325
 Alpha virt. eigenvalues --    0.55028   0.55320   0.55434   0.55686   0.56082
 Alpha virt. eigenvalues --    0.56146   0.56444   0.56678   0.56752   0.57032
 Alpha virt. eigenvalues --    0.57606   0.57851   0.58299   0.58394   0.58601
 Alpha virt. eigenvalues --    0.58813   0.59082   0.59361   0.59540   0.59898
 Alpha virt. eigenvalues --    0.59996   0.60513   0.60844   0.61414   0.61480
 Alpha virt. eigenvalues --    0.61904   0.62292   0.62729   0.62924   0.63426
 Alpha virt. eigenvalues --    0.63636   0.63989   0.64017   0.64212   0.64611
 Alpha virt. eigenvalues --    0.64689   0.65275   0.65869   0.66238   0.66520
 Alpha virt. eigenvalues --    0.66842   0.66969   0.67262   0.67783   0.68263
 Alpha virt. eigenvalues --    0.68639   0.68993   0.69161   0.69307   0.69941
 Alpha virt. eigenvalues --    0.70042   0.70685   0.70973   0.71257   0.71411
 Alpha virt. eigenvalues --    0.71758   0.72081   0.72180   0.72487   0.72516
 Alpha virt. eigenvalues --    0.72836   0.73280   0.73324   0.73868   0.74401
 Alpha virt. eigenvalues --    0.74480   0.74624   0.74945   0.75846   0.76244
 Alpha virt. eigenvalues --    0.76393   0.76624   0.77320   0.77852   0.78099
 Alpha virt. eigenvalues --    0.78441   0.78728   0.79097   0.79482   0.79602
 Alpha virt. eigenvalues --    0.79987   0.80216   0.81263   0.81360   0.81966
 Alpha virt. eigenvalues --    0.82406   0.82597   0.82896   0.83272   0.83571
 Alpha virt. eigenvalues --    0.83756   0.83981   0.84171   0.84229   0.84557
 Alpha virt. eigenvalues --    0.84609   0.84918   0.85177   0.85335   0.85463
 Alpha virt. eigenvalues --    0.85859   0.86030   0.86186   0.86675   0.86756
 Alpha virt. eigenvalues --    0.87246   0.87418   0.87730   0.88048   0.88167
 Alpha virt. eigenvalues --    0.88288   0.88740   0.88864   0.89052   0.89349
 Alpha virt. eigenvalues --    0.89599   0.89740   0.90007   0.90241   0.90367
 Alpha virt. eigenvalues --    0.90482   0.90652   0.91162   0.91199   0.91431
 Alpha virt. eigenvalues --    0.91792   0.92157   0.92408   0.92649   0.93312
 Alpha virt. eigenvalues --    0.93630   0.93866   0.94269   0.94541   0.94619
 Alpha virt. eigenvalues --    0.95074   0.95141   0.95233   0.95707   0.95799
 Alpha virt. eigenvalues --    0.95967   0.96062   0.96458   0.96890   0.97306
 Alpha virt. eigenvalues --    0.97423   0.97838   0.98329   0.98571   0.99169
 Alpha virt. eigenvalues --    0.99443   1.00170   1.00494   1.00896   1.01542
 Alpha virt. eigenvalues --    1.01727   1.02298   1.03036   1.03273   1.03520
 Alpha virt. eigenvalues --    1.04220   1.04838   1.05186   1.05586   1.06422
 Alpha virt. eigenvalues --    1.06917   1.07066   1.07650   1.08189   1.08399
 Alpha virt. eigenvalues --    1.08520   1.09010   1.09667   1.10163   1.10643
 Alpha virt. eigenvalues --    1.11516   1.12206   1.13006   1.13299   1.13883
 Alpha virt. eigenvalues --    1.14926   1.15288   1.15536   1.16005   1.16286
 Alpha virt. eigenvalues --    1.16652   1.17214   1.17491   1.17552   1.18022
 Alpha virt. eigenvalues --    1.18089   1.18551   1.18988   1.19467   1.19922
 Alpha virt. eigenvalues --    1.20253   1.20854   1.21510   1.21941   1.22283
 Alpha virt. eigenvalues --    1.22750   1.23306   1.24172   1.24483   1.24882
 Alpha virt. eigenvalues --    1.25231   1.26030   1.26914   1.27345   1.27917
 Alpha virt. eigenvalues --    1.28283   1.28752   1.29381   1.30134   1.30552
 Alpha virt. eigenvalues --    1.31523   1.31644   1.32600   1.33059   1.33491
 Alpha virt. eigenvalues --    1.34005   1.34248   1.34883   1.35430   1.35802
 Alpha virt. eigenvalues --    1.36277   1.36421   1.36712   1.37400   1.37821
 Alpha virt. eigenvalues --    1.37981   1.38237   1.38805   1.38931   1.39014
 Alpha virt. eigenvalues --    1.39520   1.40097   1.40733   1.41957   1.42458
 Alpha virt. eigenvalues --    1.42756   1.43427   1.43810   1.44080   1.44257
 Alpha virt. eigenvalues --    1.44562   1.44884   1.45161   1.45442   1.45861
 Alpha virt. eigenvalues --    1.46229   1.46990   1.47282   1.47586   1.48102
 Alpha virt. eigenvalues --    1.48313   1.48776   1.49388   1.50208   1.50917
 Alpha virt. eigenvalues --    1.51735   1.52556   1.53255   1.53851   1.54375
 Alpha virt. eigenvalues --    1.55216   1.55655   1.56900   1.57178   1.58461
 Alpha virt. eigenvalues --    1.58924   1.59747   1.60486   1.61558   1.62725
 Alpha virt. eigenvalues --    1.63871   1.64178   1.64434   1.64998   1.65035
 Alpha virt. eigenvalues --    1.65636   1.66542   1.66685   1.67216   1.67726
 Alpha virt. eigenvalues --    1.68089   1.68507   1.69421   1.69739   1.69944
 Alpha virt. eigenvalues --    1.70507   1.70692   1.72180   1.72600   1.72807
 Alpha virt. eigenvalues --    1.73017   1.73875   1.74279   1.74402   1.75633
 Alpha virt. eigenvalues --    1.75824   1.76150   1.76358   1.77001   1.77873
 Alpha virt. eigenvalues --    1.78246   1.78303   1.79056   1.79217   1.79653
 Alpha virt. eigenvalues --    1.79996   1.80765   1.81394   1.81582   1.81703
 Alpha virt. eigenvalues --    1.82191   1.82718   1.83466   1.83918   1.84022
 Alpha virt. eigenvalues --    1.84508   1.84655   1.85315   1.85792   1.86132
 Alpha virt. eigenvalues --    1.86546   1.86768   1.87483   1.87572   1.87628
 Alpha virt. eigenvalues --    1.87828   1.88006   1.88491   1.89108   1.89645
 Alpha virt. eigenvalues --    1.89969   1.90374   1.90678   1.90851   1.91222
 Alpha virt. eigenvalues --    1.91469   1.91585   1.91896   1.92069   1.92355
 Alpha virt. eigenvalues --    1.92921   1.93244   1.93352   1.93581   1.93848
 Alpha virt. eigenvalues --    1.93864   1.94295   1.94600   1.95552   1.95685
 Alpha virt. eigenvalues --    1.96038   1.96636   1.97022   1.97366   1.97771
 Alpha virt. eigenvalues --    1.98483   1.99022   1.99463   2.00216   2.00729
 Alpha virt. eigenvalues --    2.01087   2.01422   2.01726   2.01982   2.02256
 Alpha virt. eigenvalues --    2.02383   2.02590   2.02757   2.03306   2.03481
 Alpha virt. eigenvalues --    2.04211   2.04423   2.04905   2.05141   2.05638
 Alpha virt. eigenvalues --    2.05808   2.05992   2.06350   2.06550   2.06629
 Alpha virt. eigenvalues --    2.07259   2.07434   2.07841   2.09279   2.09324
 Alpha virt. eigenvalues --    2.09508   2.09684   2.09781   2.09978   2.10243
 Alpha virt. eigenvalues --    2.10741   2.10916   2.11649   2.11897   2.12325
 Alpha virt. eigenvalues --    2.12595   2.12898   2.13560   2.13879   2.14583
 Alpha virt. eigenvalues --    2.14772   2.15198   2.15459   2.15706   2.15928
 Alpha virt. eigenvalues --    2.16349   2.16821   2.17054   2.17922   2.18026
 Alpha virt. eigenvalues --    2.18430   2.18604   2.18975   2.19174   2.19335
 Alpha virt. eigenvalues --    2.19813   2.19958   2.20211   2.20746   2.21067
 Alpha virt. eigenvalues --    2.21815   2.21928   2.22299   2.22678   2.22788
 Alpha virt. eigenvalues --    2.22847   2.23122   2.23512   2.24311   2.24785
 Alpha virt. eigenvalues --    2.25261   2.25365   2.25717   2.25942   2.26536
 Alpha virt. eigenvalues --    2.26668   2.27492   2.27780   2.28249   2.28374
 Alpha virt. eigenvalues --    2.29196   2.30945   2.31127   2.31595   2.32063
 Alpha virt. eigenvalues --    2.32373   2.32516   2.32706   2.33101   2.33285
 Alpha virt. eigenvalues --    2.33891   2.35035   2.35447   2.36526   2.36917
 Alpha virt. eigenvalues --    2.37691   2.38115   2.38507   2.38780   2.39315
 Alpha virt. eigenvalues --    2.40693   2.41659   2.42610   2.43229   2.43848
 Alpha virt. eigenvalues --    2.44730   2.45176   2.45809   2.46970   2.47294
 Alpha virt. eigenvalues --    2.47919   2.48552   2.48723   2.49106   2.49748
 Alpha virt. eigenvalues --    2.50411   2.52144   2.52491   2.53035   2.54831
 Alpha virt. eigenvalues --    2.55843   2.55952   2.58192   2.59002   2.59608
 Alpha virt. eigenvalues --    2.59813   2.60216   2.60722   2.62961   2.63600
 Alpha virt. eigenvalues --    2.63740   2.64018   2.65033   2.66253   2.66535
 Alpha virt. eigenvalues --    2.67456   2.68159   2.70031   2.71529   2.72167
 Alpha virt. eigenvalues --    2.72858   2.75469   2.76616   2.76672   2.76819
 Alpha virt. eigenvalues --    2.77609   2.77731   2.78037   2.78878   2.79361
 Alpha virt. eigenvalues --    2.79878   2.80267   2.80569   2.80977   2.81272
 Alpha virt. eigenvalues --    2.81841   2.82449   2.83353   2.84311   2.85039
 Alpha virt. eigenvalues --    2.85750   2.87814   2.88634   2.90678   2.90756
 Alpha virt. eigenvalues --    2.92303   2.93863   2.94210   2.94970   2.95899
 Alpha virt. eigenvalues --    2.96629   2.98425   3.01719   3.02393   3.03563
 Alpha virt. eigenvalues --    3.04341   3.05108   3.06555   3.07791   3.08542
 Alpha virt. eigenvalues --    3.08939   3.10671   3.11067   3.11522   3.12106
 Alpha virt. eigenvalues --    3.12634   3.14273   3.15442   3.23002   3.26942
 Alpha virt. eigenvalues --    3.32209   3.45546  13.90021
          Condensed to atoms (all electrons):
 Mulliken charges:
               1
     1  C    0.356404
     2  C    0.062273
     3  C   -0.051776
     4  C   -0.148972
     5  C   -0.172855
     6  C    0.298750
     7  C    0.043435
     8  C   -0.078855
     9  C   -0.157896
    10  C   -0.185733
    11  H    0.230749
    12  H    0.200459
    13  H    0.176904
    14  H    0.236257
    15  H    0.201981
    16  H    0.183235
    17  N   -0.554906
    18  N   -0.495272
    19  Ir  -0.104721
    20  O   -0.500539
    21  O   -0.529313
    22  O   -0.533123
    23  B    0.434520
    24  B    0.502469
    25  B    0.469580
    26  O   -0.519375
    27  O   -0.519441
    28  C    0.296700
    29  C    0.290013
    30  C    0.296175
    31  C    0.289898
    32  C    0.288417
    33  C    0.291289
    34  O   -0.505347
    35  C   -0.514325
    36  H    0.174351
    37  H    0.169717
    38  H    0.150164
    39  C   -0.507076
    40  H    0.144988
    41  H    0.179779
    42  H    0.174696
    43  C   -0.510778
    44  H    0.168634
    45  H    0.154689
    46  H    0.171128
    47  C   -0.508296
    48  H    0.165155
    49  H    0.154037
    50  H    0.171473
    51  C   -0.512122
    52  H    0.174707
    53  H    0.173276
    54  H    0.153197
    55  C   -0.517029
    56  H    0.187216
    57  H    0.154491
    58  H    0.173733
    59  C   -0.504684
    60  H    0.171001
    61  H    0.157350
    62  H    0.163169
    63  C   -0.507065
    64  H    0.176453
    65  H    0.168469
    66  H    0.151870
    67  C   -0.507141
    68  H    0.160309
    69  H    0.151020
    70  H    0.172510
    71  C   -0.488886
    72  H    0.170651
    73  H    0.144260
    74  H    0.161978
    75  C   -0.508862
    76  H    0.164937
    77  H    0.165733
    78  H    0.154633
    79  C   -0.517129
    80  H    0.151689
    81  H    0.180939
    82  H    0.158364
    83  H    0.219817
    84  C    0.580562
    85  O   -0.547501
    86  C   -0.405545
    87  H    0.166056
    88  H    0.160685
    89  C   -0.327540
    90  H    0.151051
    91  H    0.189277
    92  N   -0.345060
    93  C   -0.356517
    94  H    0.156999
    95  H    0.191393
    96  H    0.168188
    97  C   -0.261966
    98  H    0.131468
    99  H    0.156089
   100  C   -0.281666
   101  H    0.135913
   102  H    0.142224
   103  C   -0.281963
   104  H    0.145692
   105  H    0.145109
   106  C   -0.496894
   107  H    0.158825
   108  H    0.158504
   109  H    0.161837
   110  C    0.968117
   111  F   -0.308420
   112  F   -0.304870
   113  F   -0.313017
   114  C    0.968837
   115  F   -0.308975
   116  F   -0.311061
   117  F   -0.314406
 Sum of Mulliken charges =  -0.00000
 Mulliken charges with hydrogens summed into heavy atoms:
               1
     1  C    0.356404
     2  C    0.293022
     3  C   -0.051776
     4  C    0.051487
     5  C    0.004049
     6  C    0.298750
     7  C    0.279692
     8  C   -0.078855
     9  C    0.044086
    10  C   -0.002498
    17  N   -0.554906
    18  N   -0.495272
    19  Ir   0.115096
    20  O   -0.500539
    21  O   -0.529313
    22  O   -0.533123
    23  B    0.434520
    24  B    0.502469
    25  B    0.469580
    26  O   -0.519375
    27  O   -0.519441
    28  C    0.296700
    29  C    0.290013
    30  C    0.296175
    31  C    0.289898
    32  C    0.288417
    33  C    0.291289
    34  O   -0.505347
    35  C   -0.020093
    39  C   -0.007613
    43  C   -0.016326
    47  C   -0.017630
    51  C   -0.010942
    55  C   -0.001589
    59  C   -0.013164
    63  C   -0.010273
    67  C   -0.023302
    71  C   -0.011998
    75  C   -0.023559
    79  C   -0.026137
    84  C    0.580562
    85  O   -0.547501
    86  C   -0.078804
    89  C    0.012788
    92  N   -0.345060
    93  C    0.160063
    97  C    0.025591
   100  C   -0.003529
   103  C    0.008838
   106  C   -0.017729
   110  C    0.968117
   111  F   -0.308420
   112  F   -0.304870
   113  F   -0.313017
   114  C    0.968837
   115  F   -0.308975
   116  F   -0.311061
   117  F   -0.314406
 APT charges:
               1
     1  C    0.124859
     2  C    0.033507
     3  C   -0.168866
     4  C    0.076795
     5  C   -0.145198
     6  C    0.247541
     7  C    0.033107
     8  C   -0.174860
     9  C    0.089559
    10  C   -0.210694
    11  H    0.157930
    12  H    0.064180
    13  H    0.043489
    14  H    0.123359
    15  H    0.058474
    16  H    0.047689
    17  N   -0.055582
    18  N   -0.125499
    19  Ir  -1.029157
    20  O   -0.947731
    21  O   -1.021504
    22  O   -0.956652
    23  B    1.478419
    24  B    1.276448
    25  B    1.240227
    26  O   -0.971402
    27  O   -0.949720
    28  C    0.465633
    29  C    0.465158
    30  C    0.478323
    31  C    0.478445
    32  C    0.531878
    33  C    0.504769
    34  O   -1.007314
    35  C   -0.005205
    36  H    0.000017
    37  H   -0.000866
    38  H   -0.015142
    39  C   -0.027690
    40  H   -0.024049
    41  H    0.022028
    42  H    0.001578
    43  C   -0.036717
    44  H   -0.003620
    45  H   -0.017624
    46  H   -0.004118
    47  C    0.002241
    48  H   -0.003109
    49  H   -0.019749
    50  H    0.004577
    51  C   -0.015938
    52  H    0.006598
    53  H    0.004273
    54  H   -0.013475
    55  C   -0.041363
    56  H    0.008784
    57  H   -0.019053
    58  H    0.006062
    59  C   -0.041081
    60  H    0.009250
    61  H   -0.021982
    62  H    0.004251
    63  C   -0.009612
    64  H    0.010400
    65  H    0.001327
    66  H   -0.017372
    67  C    0.006214
    68  H   -0.010801
    69  H   -0.019394
    70  H    0.001595
    71  C   -0.017307
    72  H   -0.003868
    73  H   -0.028553
    74  H    0.006336
    75  C   -0.014801
    76  H    0.005689
    77  H    0.003911
    78  H   -0.014223
    79  C   -0.030519
    80  H   -0.019761
    81  H    0.017168
    82  H   -0.000042
    83  H    0.060870
    84  C    0.867277
    85  O   -0.681177
    86  C   -0.019733
    87  H   -0.016702
    88  H   -0.024928
    89  C    0.320665
    90  H   -0.063531
    91  H   -0.034157
    92  N   -0.771234
    93  C    0.300760
    94  H   -0.069673
    95  H    0.038715
    96  H   -0.000171
    97  C    0.119958
    98  H   -0.034395
    99  H   -0.036815
   100  C    0.112164
   101  H   -0.034894
   102  H   -0.061253
   103  C    0.099398
   104  H   -0.050199
   105  H   -0.042277
   106  C    0.072040
   107  H   -0.018459
   108  H   -0.024533
   109  H   -0.039541
   110  C    1.750598
   111  F   -0.530212
   112  F   -0.584875
   113  F   -0.575331
   114  C    1.866476
   115  F   -0.530970
   116  F   -0.616471
   117  F   -0.628267
 Sum of APT charges =  -0.00000
 APT charges with hydrogens summed into heavy atoms:
               1
     1  C    0.124859
     2  C    0.191437
     3  C   -0.168866
     4  C    0.140976
     5  C   -0.101709
     6  C    0.247541
     7  C    0.156465
     8  C   -0.174860
     9  C    0.148033
    10  C   -0.163005
    17  N   -0.055582
    18  N   -0.125499
    19  Ir  -0.968287
    20  O   -0.947731
    21  O   -1.021504
    22  O   -0.956652
    23  B    1.478419
    24  B    1.276448
    25  B    1.240227
    26  O   -0.971402
    27  O   -0.949720
    28  C    0.465633
    29  C    0.465158
    30  C    0.478323
    31  C    0.478445
    32  C    0.531878
    33  C    0.504769
    34  O   -1.007314
    35  C   -0.021196
    39  C   -0.028132
    43  C   -0.062079
    47  C   -0.016039
    51  C   -0.018543
    55  C   -0.045570
    59  C   -0.049561
    63  C   -0.015258
    67  C   -0.022386
    71  C   -0.043391
    75  C   -0.019425
    79  C   -0.033154
    84  C    0.867277
    85  O   -0.681177
    86  C   -0.061364
    89  C    0.222978
    92  N   -0.771234
    93  C    0.269631
    97  C    0.048749
   100  C    0.016017
   103  C    0.006921
   106  C   -0.010493
   110  C    1.750598
   111  F   -0.530212
   112  F   -0.584875
   113  F   -0.575331
   114  C    1.866476
   115  F   -0.530970
   116  F   -0.616471
   117  F   -0.628267
 Electronic spatial extent (au):  <R**2>=          37669.0865
 Charge=             -0.0000 electrons
 Dipole moment (field-independent basis, Debye):
    X=             -0.2929    Y=             -0.7425    Z=              1.6061  Tot=              1.7935
 Quadrupole moment (field-independent basis, Debye-Ang):
   XX=           -366.1439   YY=           -331.9186   ZZ=           -341.7413
   XY=              2.2310   XZ=              3.6620   YZ=            -17.8764
 Traceless Quadrupole moment (field-independent basis, Debye-Ang):
   XX=            -19.5426   YY=             14.6826   ZZ=              4.8599
   XY=              2.2310   XZ=              3.6620   YZ=            -17.8764
 Octapole moment (field-independent basis, Debye-Ang**2):
  XXX=           -119.5988  YYY=           -120.7203  ZZZ=             35.4942  XYY=            -40.8405
  XXY=             47.1489  XXZ=            -25.7095  XZZ=            -62.2057  YZZ=             23.8032
  YYZ=             68.2892  XYZ=             13.6845
 Hexadecapole moment (field-independent basis, Debye-Ang**3):
 XXXX=         -22807.4609 YYYY=         -12564.8706 ZZZZ=         -12349.9324 XXXY=            -39.4750
 XXXZ=            286.5385 YYYX=            337.1814 YYYZ=           -305.8733 ZZZX=            227.2023
 ZZZY=              6.7517 XXYY=          -5834.2858 XXZZ=          -5771.2163 YYZZ=          -4279.9914
 XXYZ=           -117.0449 YYXZ=            135.8995 ZZXY=            -46.5426
 N-N= 1.047614094432D+04 E-N=-2.783132924845D+04  KE= 2.862604891421D+03
  Exact polarizability:     581.421      11.529     533.666      15.093     -30.837     463.420
 Approx polarizability:     814.465      16.079     798.700      44.142     -54.521     651.802
   1 Symmetry operations used in ECPInt.
 ECPInt:  NShTT=   62835 NPrTT=  387974 LenC2=   45259 LenP2D=  137732.
 LDataN:  DoStor=T MaxTD1= 8 Len=  415
 Calling FoFJK, ICntrl=    100127 FMM=F ISym2X=0 I1Cent= 0 IOpClX= 0 NMat=1 NMatS=1 NMatT=0.
 Defaulting to unpruned grid for atomic number  77.
 Defaulting to unpruned grid for atomic number  77.
 Defaulting to unpruned grid for atomic number  77.
 Defaulting to unpruned grid for atomic number  77.
 Defaulting to unpruned grid for atomic number  77.
 Defaulting to unpruned grid for atomic number  77.
 Defaulting to unpruned grid for atomic number  77.
 Defaulting to unpruned grid for atomic number  77.
 Defaulting to unpruned grid for atomic number  77.
 Defaulting to unpruned grid for atomic number  77.
 Defaulting to unpruned grid for atomic number  77.
 Defaulting to unpruned grid for atomic number  77.
 Defaulting to unpruned grid for atomic number  77.
 Defaulting to unpruned grid for atomic number  77.
 Defaulting to unpruned grid for atomic number  77.
 Defaulting to unpruned grid for atomic number  77.
 Full mass-weighted force constant matrix:
 Low frequencies ---   -5.3610   -0.0007   -0.0003    0.0004    6.1368    7.3175
 Low frequencies ---   14.9160   18.8530   24.6433
 Diagonal vibrational polarizability:
      114.5145587      74.0470081     127.1192481
 Harmonic frequencies (cm**-1), IR intensities (KM/Mole), Raman scattering
 activities (A**4/AMU), depolarization ratios for plane and unpolarized
 incident light, reduced masses (AMU), force constants (mDyne/A),
 and normal coordinates:
                      1                      2                      3
                      A                      A                      A
 Frequencies --     14.8188                18.7082                24.5708
 Red. masses --      7.5538                 5.0430                 5.0745
 Frc consts  --      0.0010                 0.0010                 0.0018
 IR Inten    --      0.2565                 0.1034                 0.0571
  Atom AN      X      Y      Z        X      Y      Z        X      Y      Z
     1   6    -0.00  -0.01  -0.02     0.02   0.02   0.01    -0.02  -0.01  -0.02
     2   6     0.01  -0.03  -0.02     0.01   0.03  -0.01    -0.03  -0.00   0.00
     3   6     0.00  -0.04  -0.03     0.02   0.04  -0.02    -0.02   0.00   0.01
     4   6    -0.01  -0.04  -0.04     0.03   0.04  -0.00    -0.01  -0.00  -0.01
     5   6    -0.01  -0.03  -0.03     0.03   0.03   0.01    -0.01  -0.01  -0.03
     6   6    -0.01   0.00   0.01     0.02   0.01   0.02    -0.02  -0.01  -0.02
     7   6    -0.01   0.03   0.03     0.02  -0.01   0.01    -0.02  -0.00  -0.00
     8   6    -0.04   0.05   0.09     0.02  -0.01   0.04    -0.03   0.00   0.01
     9   6    -0.05   0.04   0.11     0.02   0.00   0.06    -0.03  -0.00   0.01
    10   6    -0.04   0.02   0.06     0.02   0.01   0.05    -0.02  -0.01  -0.01
    11   1     0.02  -0.03  -0.02     0.00   0.03  -0.02    -0.03   0.00   0.01
    12   1    -0.01  -0.05  -0.05     0.04   0.04  -0.01    -0.01  -0.00  -0.01
    13   1    -0.02  -0.03  -0.04     0.04   0.03   0.02    -0.00  -0.02  -0.04
    14   1    -0.00   0.03   0.02     0.01  -0.02  -0.00    -0.02  -0.00   0.00
    15   1    -0.08   0.06   0.16     0.02   0.00   0.08    -0.03   0.00   0.01
    16   1    -0.05   0.02   0.08     0.03   0.02   0.07    -0.02  -0.01  -0.01
    17   7     0.01  -0.02  -0.02     0.01   0.02   0.00    -0.02  -0.01  -0.01
    18   7    -0.00   0.00  -0.01     0.02   0.00   0.01    -0.02  -0.01  -0.01
    19  77     0.02  -0.01  -0.02     0.00   0.01  -0.00    -0.01  -0.01  -0.01
    20   8    -0.04  -0.06  -0.04    -0.06  -0.01  -0.03     0.04   0.06  -0.00
    21   8     0.03  -0.02  -0.03     0.02   0.01  -0.02    -0.01  -0.00  -0.02
    22   8     0.02   0.00   0.00     0.01  -0.01   0.04    -0.00  -0.02   0.00
    23   5     0.02  -0.01  -0.03     0.02   0.01  -0.01    -0.01  -0.00  -0.01
    24   5    -0.02  -0.02  -0.02    -0.04  -0.01  -0.00     0.01  -0.01  -0.01
    25   5     0.01  -0.01  -0.01     0.00   0.00   0.01    -0.00  -0.01  -0.01
    26   8    -0.00  -0.01  -0.01     0.01   0.01   0.01     0.00  -0.01  -0.01
    27   8    -0.03   0.01  -0.00    -0.06  -0.02   0.03     0.02  -0.09  -0.02
    28   6    -0.06  -0.01  -0.01    -0.10  -0.03   0.02     0.04  -0.08  -0.01
    29   6    -0.08  -0.05  -0.03    -0.09  -0.02  -0.01     0.09   0.02   0.01
    30   6     0.00   0.01   0.01     0.02  -0.03   0.07     0.01  -0.03   0.02
    31   6    -0.01  -0.00   0.01     0.04  -0.01   0.04     0.02  -0.02  -0.00
    32   6     0.03  -0.02  -0.04     0.03   0.02  -0.02     0.00  -0.00  -0.03
    33   6     0.02  -0.02  -0.03     0.04   0.01  -0.01     0.01  -0.01  -0.02
    34   8     0.02  -0.01  -0.03     0.03   0.00  -0.01     0.00  -0.01  -0.01
    35   6    -0.09  -0.08  -0.05    -0.12  -0.03  -0.04     0.07   0.07   0.01
    36   1    -0.10  -0.11  -0.07    -0.12  -0.02  -0.07     0.11   0.14   0.02
    37   1    -0.06  -0.09  -0.06    -0.13  -0.03  -0.06    -0.00   0.09  -0.01
    38   1    -0.12  -0.07  -0.04    -0.15  -0.04  -0.03     0.10   0.03   0.01
    39   6    -0.12  -0.05  -0.03    -0.08  -0.02   0.01     0.19   0.01   0.03
    40   1    -0.16  -0.04  -0.02    -0.11  -0.03   0.02     0.24  -0.03   0.03
    41   1    -0.11  -0.02  -0.01    -0.06  -0.02   0.03     0.20  -0.03   0.02
    42   1    -0.13  -0.08  -0.05    -0.07  -0.02  -0.02     0.22   0.09   0.05
    43   6    -0.03  -0.02  -0.02    -0.12  -0.04  -0.00    -0.06  -0.08  -0.03
    44   1    -0.02   0.01  -0.02    -0.13  -0.05   0.00    -0.09  -0.15  -0.04
    45   1    -0.04  -0.03  -0.02    -0.14  -0.05  -0.01    -0.06  -0.08  -0.03
    46   1    -0.01  -0.03  -0.03    -0.12  -0.03  -0.03    -0.09  -0.02  -0.04
    47   6    -0.11   0.02   0.01    -0.12  -0.04   0.06     0.11  -0.17  -0.01
    48   1    -0.12   0.02   0.01    -0.10  -0.04   0.08     0.16  -0.17   0.01
    49   1    -0.14   0.02   0.00    -0.15  -0.05   0.05     0.15  -0.18   0.00
    50   1    -0.09   0.05   0.05    -0.13  -0.05   0.08     0.07  -0.23  -0.06
    51   6     0.03  -0.02  -0.04     0.03   0.02  -0.03     0.02  -0.01  -0.04
    52   1     0.03  -0.02  -0.04     0.04   0.02  -0.03     0.02  -0.01  -0.03
    53   1     0.03  -0.03  -0.04     0.03   0.03  -0.04     0.01  -0.00  -0.04
    54   1     0.03  -0.02  -0.04     0.04   0.03  -0.03     0.02  -0.01  -0.05
    55   6     0.02  -0.03  -0.04     0.02   0.02  -0.03    -0.00   0.00  -0.05
    56   1     0.02  -0.02  -0.04     0.02   0.02  -0.03    -0.01   0.01  -0.04
    57   1     0.02  -0.03  -0.04     0.03   0.03  -0.04     0.00   0.00  -0.06
    58   1     0.02  -0.03  -0.04     0.02   0.03  -0.04    -0.01   0.01  -0.05
    59   6     0.03  -0.01  -0.03     0.04   0.01  -0.01     0.02  -0.02  -0.02
    60   1     0.03  -0.01  -0.03     0.04   0.01  -0.01     0.02  -0.02  -0.01
    61   1     0.03  -0.02  -0.03     0.05   0.02  -0.01     0.03  -0.02  -0.02
    62   1     0.03  -0.01  -0.03     0.04   0.01  -0.01     0.02  -0.02  -0.01
    63   6     0.02  -0.02  -0.03     0.05   0.01  -0.01     0.02  -0.01  -0.03
    64   1     0.01  -0.02  -0.03     0.04   0.01  -0.01     0.01  -0.00  -0.04
    65   1     0.02  -0.01  -0.02     0.06   0.01   0.00     0.02  -0.01  -0.02
    66   1     0.02  -0.02  -0.03     0.06   0.02  -0.02     0.03  -0.01  -0.04
    67   6    -0.02  -0.01   0.02     0.02  -0.01   0.04     0.02  -0.01  -0.01
    68   1    -0.04  -0.02   0.01    -0.02  -0.01   0.04     0.02  -0.00  -0.01
    69   1    -0.02  -0.01   0.03     0.04  -0.03   0.07     0.02  -0.02  -0.02
    70   1    -0.03  -0.02   0.01     0.04   0.01   0.01     0.02  -0.01  -0.01
    71   6     0.00   0.00   0.01     0.08  -0.00   0.03     0.03  -0.03  -0.01
    72   1    -0.00  -0.01   0.00     0.09   0.00  -0.00     0.04  -0.02  -0.02
    73   1    -0.00   0.01   0.02     0.10  -0.01   0.05     0.04  -0.03  -0.01
    74   1     0.01   0.01   0.00     0.10  -0.00   0.03     0.04  -0.03  -0.01
    75   6     0.00   0.02   0.02     0.06  -0.05   0.11     0.03  -0.04   0.04
    76   1     0.01   0.03   0.02     0.04  -0.08   0.13     0.02  -0.05   0.05
    77   1     0.01   0.02   0.02     0.10  -0.03   0.10     0.05  -0.04   0.03
    78   1    -0.01   0.03   0.03     0.09  -0.07   0.14     0.03  -0.05   0.04
    79   6    -0.00   0.00   0.01    -0.04  -0.05   0.09    -0.02  -0.04   0.02
    80   1    -0.02   0.01   0.02    -0.03  -0.06   0.11    -0.01  -0.05   0.03
    81   1    -0.00  -0.01   0.01    -0.07  -0.03   0.06    -0.04  -0.02   0.01
    82   1     0.01   0.01   0.01    -0.05  -0.07   0.12    -0.03  -0.05   0.04
    83   1     0.02  -0.00  -0.03    -0.00   0.01  -0.02    -0.01  -0.01  -0.01
    84   6     0.05   0.03  -0.02    -0.00  -0.01  -0.01     0.02   0.00   0.01
    85   8     0.06   0.02  -0.03    -0.01  -0.01  -0.01     0.04  -0.00   0.01
    86   6     0.05   0.05  -0.01    -0.00  -0.02  -0.03     0.02   0.02   0.01
    87   1     0.05   0.08  -0.01    -0.02  -0.04  -0.04     0.01   0.01   0.00
[...]
 .00001588,-0.00001340,-0.00002071,-0.00000982,-0.00001514,-0.00000737,
 -0.00000662,-0.00001675,-0.00001827,-0.00000437,0.00000649,0.00000488,
 0.00000843,0.00000830,0.00000355,0.00003284,0.00001256,0.00001086,-0.0
 0000306,-0.00000122,0.00001140,0.00000614,-0.00000665,-0.00001731,-0.0
 0001777,-0.00001281,-0.00000274,-0.00000546,-0.00000169,0.,-0.00000358
 ,-0.00001491,0.00000618,0.00000563,-0.00000354,-0.00001239,-0.00000727
 ,0.00000700,0.00000443,0.00001624,-0.00001209,0.00004014,-0.00010322,-
 0.00003268,0.00006801,0.00008357,-0.00005193,-0.00010567,0.00002015,0.
 00003355,0.00002873,0.00008978,0.00002203,0.00005039,0.00000850,0.0000
 5430,0.00003237,0.00000377,-0.00004448,0.00002010,-0.00004655,0.000004
 62,-0.00005235,0.00001283,-0.00001411,0.00003704,-0.00003800,0.0000035
 3,-0.00003698,0.00001771,-0.00003045,0.00004164,0.00000372,0.00002272,
 -0.00000174,-0.00000063,-0.00000626,0.00002158,-0.00000841,0.00001573,
 0.00000719,-0.00000394,-0.00000064,-0.00000858,0.00002002,-0.00001935,
 0.00001619,-0.00001286,-0.00001462,0.00000388,0.00000686,0.00000526,0.
 00001056,-0.00001518,-0.00001502,-0.00000086,0.00001116,0.00000033,-0.
 00000544,-0.00001313,-0.00001612,0.00001060,0.00001109,-0.00000224,-0.
 00000581,-0.00001242,-0.00001805,0.00001202,-0.00000213,0.00001109,-0.
 00000695,-0.00001131,-0.00001420,-0.00000875,-0.00000006,0.00000868,-0
 .00000089,0.00000562,0.00000259,0.00000951,-0.00001177,-0.00001625,0.0
 0000023,-0.00000599,-0.00002045,-0.00000978,-0.00000996,-0.00001890,-0
 .00001025,0.00000244,0.00001294,0.00001429,0.00001171,0.00000835,0.000
 00131,0.00008996,0.00003423,-0.00002584,0.00018858,-0.00023266,0.00001
 896,-0.00005167,0.00018126,0.00015420,-0.00002818,-0.00002199,-0.00003
 436,-0.00000913,-0.00000705,0.00001934,-0.00000319,0.00002029,-0.00000
 227,0.00041637,0.00002058,-0.00034394,-0.00002053,0.00000029,0.0001709
 4,-0.00002363,0.00000777,-0.00000476,-0.00039142,0.00008631,0.00015143
 ,0.00001405,0.00010374,-0.00012823,-0.00000612,-0.00000724,0.00006414,
 0.00000081,-0.00000053,-0.00002586,-0.00000566,-0.00001660,0.00000573,
 0.00000628,-0.00001829,-0.00004348,0.00000392,-0.00001993,0.00002527,-
 0.00000772,0.00001480,0.00001996,0.00001184,0.00000087,0.00000388,0.00
 001066,0.00001167,0.00000463,-0.00001275,0.00000358,-0.00000292,-0.000
 00825,-0.00001320,-0.00002307,0.00000162,0.00001044,0.00001082,0.00000
 167,0.00000247,-0.00000344,0.00000345,-0.00000084,0.00000931,0.0000035
 1,0.00000395,-0.00000043,-0.00000310,0.00000334,-0.00000620,-0.0000107
 5,-0.00000578,0.00001083,0.00061185,0.00010420,0.00002972,-0.00014900,
 -0.00010143,0.00004883,-0.00016747,-0.00005784,-0.00009260,-0.00020221
 ,0.00007234,0.00000210,-0.03544674,-0.10367456,-0.20131222,0.00791882,
 -0.02062722,0.01176569,0.02326178,0.17143557,0.28307881,0.00006310,-0.
 00003117,0.00052365,-0.00002434,0.00020184,-0.00001569,-0.00041018,-0.
 00021464,0.00007252,0.00025217,-0.00002305,0.00004414,-0.00042644,-0.0
 0017309,-0.00017604,0.00092034,-0.00125304,0.00046001,-0.00377430,0.00
 554825,0.00041335,-0.03188831,-0.02396868,0.03419986,0.00062300,-0.002
 41384,0.00076709,0.00009462,-0.00086259,-0.00082855,-0.00000411,0.0000
 7575,-0.00001754,-0.00003959,0.00001370,-0.00000823,0.00007293,-0.0000
 2524,0.00004223,-0.00015732,0.00023196,0.00029919,-0.00101221,0.000453
 24,0.00061117,-0.00015915,0.00009782,-0.00002711,-0.00046212,0.0002311
 2,-0.00025733,-0.00263649,-0.00153349,-0.00296098,0.00018860,-0.000135
 18,-0.00009216,0.00031156,-0.00032287,-0.00078096,0.00049002,-0.000604
 55,0.00057296,-0.00041096,-0.00054655,-0.00004350,-0.00046052,0.000776
 47,-0.00056534,-0.00011571,0.00075583,0.00113391,0.00035614,0.00083980
 ,0.00022021,-0.00019975,-0.00067597,-0.00012190,0.00000462,-0.00021589
 ,-0.00069998,-0.00012005,0.00003154,0.00030812,0.00000538,0.00012151,0
 .00033602,0.00011743,0.00025280,0.00010391,0.00014238,0.00018443,-0.00
 006130,-0.00040260,0.00042509,-0.00027331,-0.00017873,0.00001859,-0.00
 022670,0.00024615,-0.00050505,0.00048234,-0.00000264,-0.00003537,-0.00
 003224,0.00002868,-0.00004352,0.00001087,-0.00003827,0.00003543,0.0000
 0522,0.00001096,0.00000289,-0.00003365,-0.00001184,-0.00001610,-0.0000
 6887,-0.00001496,-0.00003698,-0.00002761,0.00001521,0.00003263,0.00000
 891,0.00001467,-0.00000596,0.00002046,0.00001712,0.00002317,-0.0000362
 0,0.00003695,-0.00000357,0.00002785,-0.00000075,-0.00001456,-0.0000699
 7,-0.00004734,-0.00000543,0.00004630,0.00000701,0.00000179,-0.00003445
 ,-0.00000513,0.00000521,0.00001242,0.00000069,-0.00001496,-0.00004498,
 0.00000098,-0.00000066,0.00001941,0.00001813,-0.00005139,0.00004640,0.
 00000282,0.00000691,-0.00004207,-0.00001505,0.00004154,-0.00001826,0.0
 0001775,-0.00003447,0.00004004,0.00002568,-0.00009227,0.00001701,-0.00
 001479,0.00002683,0.00001144,0.00003377,-0.00005457,0.00001796,-0.0000
 2414,0.00005467,-0.00000854,0.00003395,0.00002583,0.00003995,-0.000011
 81,-0.00002098,-0.00004084,0.00002276,-0.00001990,0.00003997,-0.000003
 95,0.00000863,-0.00001642,-0.00000403,-0.00001162,0.00002758,-0.000010
 14,-0.00000263,-0.00001612,-0.00000698,-0.00000949,-0.00001088,0.00002
 345,-0.00001755,0.00002917,-0.00001271,-0.00002390,0.00001560,-0.00000
 342,0.00001365,-0.00000328,-0.00001977,-0.00002195,-0.00000770,0.00002
 244,-0.00000975,0.00000011,-0.00002457,-0.00001603,0.00001688,0.000019
 87,0.00000133,-0.00000167,-0.00002200,-0.00002732,0.00001564,0.0000068
 7,0.00001091,-0.00002397,-0.00002287,-0.00002808,-0.00001536,0.0000102
 8,0.00001495,0.00000571,0.00000686,0.00001508,0.00000193,-0.00002099,-
 0.00003310,-0.00000289,-0.00003246,-0.00003147,-0.00001566,-0.00002065
 ,-0.00003640,-0.00002020,0.00000523,0.00002242,0.00002125,0.00002613,0
 .00001305,0.00000171,0.00012036,0.00004591,0.00001907,0.00037878,-0.00
 011817,-0.00000432,-0.00023395,0.00005625,0.00016985,-0.00006480,-0.00
 003092,-0.00002155,-0.00001006,-0.00000331,0.00002605,-0.00001375,0.00
 001378,-0.00001293,0.00052929,-0.00000729,-0.00047090,-0.00001847,0.00
 008603,0.00013957,0.00006501,-0.00007459,0.00001238,-0.00056875,-0.000
 02792,0.00015511,0.00001016,0.00020643,-0.00016060,-0.00000116,-0.0000
 2031,0.00007632,0.00001789,0.00000041,-0.00002871,-0.00003637,-0.00002
 917,0.00001296,0.00001642,-0.00002173,-0.00004142,0.00001135,-0.000023
 10,0.00003841,-0.00000296,0.00000917,0.00001518,0.00002999,0.00000560,
 0.00000939,0.00000786,0.00000172,0.00000196,-0.00002786,0.00001339,-0.
 00000301,-0.00001298,-0.00001272,-0.00003053,0.00000217,0.00000414,0.0
 0000723,0.00000336,0.00001070,-0.00000632,0.00001002,-0.00000046,0.000
 01816,0.00000175,-0.00000129,-0.00000786,-0.00000722,0.00000961,-0.000
 00980,-0.00001863,-0.00000844,0.00002067,0.00102557,0.00023773,0.00023
 972,-0.00023709,-0.00016343,0.00002706,-0.00030475,-0.00013837,-0.0002
 6798,-0.00031413,0.00008707,-0.00003631,-0.16498620,-0.04717293,0.0940
 0281,0.02093448,-0.00076467,-0.00487314,0.01111240,0.00632483,0.019716
 70,0.17155968,-0.00016113,0.00006734,0.00020926,-0.00003351,0.00009210
 ,-0.00002785,-0.00014813,-0.00008783,0.00003136,0.00009369,0.00000221,
 0.00002191,-0.00015413,-0.00011754,-0.00006061,0.00030749,0.00016541,0
 .00007051,-0.00013794,0.00034656,0.00018710,-0.01356216,0.00362025,0.0
 1200573,0.00065169,-0.00276784,0.00038358,-0.00084288,-0.00001075,-0.0
 0136183,0.00000381,0.00001572,-0.00000293,-0.00001891,0.00000319,-0.00
 000282,0.00001408,0.00000472,-0.00000035,0.00031885,0.00057612,0.00035
 659,-0.00045452,0.00129235,0.00047243,-0.00019313,-0.00000724,-0.00005
 867,-0.00010167,0.00020361,-0.00009820,-0.00025510,0.00016992,-0.00113
 126,0.00002834,0.00001868,-0.00004132,0.00002416,-0.00010069,-0.000284
 62,-0.00028409,-0.00028862,0.00004012,-0.00016319,-0.00016536,-0.00001
 343,0.00036490,0.00021678,0.00009141,0.00007237,0.00019833,0.00038474,
 0.00017248,0.00025484,0.00005378,-0.00009141,-0.00020005,-0.00004587,-
 0.00004963,-0.00005547,-0.00027306,-0.00003295,-0.00000863,0.00013034,
 0.00002010,0.00005302,0.00015095,0.00005068,0.00008318,0.00003789,0.00
 006197,0.00006344,-0.00000853,-0.00005182,0.00012856,-0.00008720,0.000
 03249,0.00005259,-0.00006442,-0.00011380,-0.00019454,0.00008264,0.0000
 0740,-0.00002167,-0.00001568,0.00000431,0.00000021,0.00001037,-0.00000
 535,0.00000912,0.00000985,-0.00000426,-0.00000308,-0.00001762,0.000000
 96,-0.00000904,-0.00002489,-0.00000764,-0.00001428,-0.00001451,0.00000
 684,0.00001111,0.00000485,-0.00000093,0.00000605,0.00001024,-0.0000018
 2,0.00001851,-0.00001716,0.00000445,-0.00000019,0.00001181,0.00000190,
 -0.00000779,-0.00002755,-0.00001019,-0.00001067,0.00002110,-0.00000161
 ,0.00000720,-0.00001417,0.00000190,0.00000492,0.00000437,0.00000237,-0
 .00000705,-0.00001618,-0.00000595,0.00000065,0.00000694,0.00013450,0.0
 0005281,-0.00002558,-0.00001483,0.00000274,-0.00000719,-0.00008491,0.0
 0003019,-0.00005705,-0.00002196,-0.00005167,0.00002623,0.00009404,0.00
 006096,-0.00003791,-0.00001906,-0.00000802,0.00000034,-0.00000816,-0.0
 0003546,0.00002977,-0.00006364,0.00002640,0.00002211,-0.00002114,-0.00
 001229,0.00000660,0.00001233,-0.00000412,-0.00001298,0.00001142,0.0000
 0159,0.00000329,-0.00002176,-0.00000869,0.00000212,-0.00002697,-0.0000
 0946,0.00000945,0.00000784,0.00001257,-0.00000173,-0.00001956,-0.00001
 653,0.00000705,0.00000973,0.00000453,0.00000007,-0.00000235,-0.0000080
 1,0.00000191,0.00000033,0.00000465,-0.00000396,-0.00000908,-0.00000840
 ,-0.00000088,0.00000655,0.00000086,0.00000088,-0.00000439,-0.00000517,
 0.00000441,0.00000251,0.00001038,0.00000343,-0.00001218,-0.00001159,0.
 00000300,0.00001235,0.00000071,-0.00000956,-0.00000865,-0.00000774,-0.
 00000315,0.00000079,0.00000766,0.00000168,0.00000443,0.00000439,-0.000
 00158,-0.00000603,-0.00001236,-0.00000148,-0.00001168,-0.00000751,-0.0
 0000642,-0.00000659,-0.00001385,-0.00000703,0.00000293,0.00000806,0.00
 000804,0.00000635,0.00000714,0.00000052,0.00001389,0.00004404,0.000030
 14,0.00016998,-0.00014742,0.00003484,-0.00007818,0.00009974,0.00003417
 ,-0.00002602,-0.00000793,-0.00000886,-0.00000366,-0.00000169,0.0000074
 7,-0.00000465,0.00000670,-0.00000241,0.00019140,-0.00002332,-0.0001446
 9,0.00000267,0.00002467,0.00000958,0.00001865,-0.00002758,0.00001429,-
 0.00025970,0.00006035,0.00003589,0.00000264,0.00005206,-0.00005357,0.0
 0000403,-0.00000690,0.00002033,0.00001550,0.00000436,-0.00000199,-0.00
 001527,-0.00000866,0.00000165,0.00000587,-0.00001474,-0.00001556,0.000
 00413,-0.00000882,0.00001193,-0.00000217,0.00000573,0.00000900,0.00001
 184,0.00000255,0.00000355,0.00000407,0.00000139,0.00000177,-0.00001404
 ,0.00000690,-0.00000195,-0.00000429,-0.00000833,-0.00001186,0.00000129
 ,0.00000212,0.00000381,0.00000047,0.00000664,-0.00000362,0.00000408,-0
 .00000043,0.00000687,0.00000106,-0.00000029,-0.00000211,-0.00000390,0.
 00000489,-0.00000432,-0.00000671,-0.00000365,0.00000737,0.00038901,0.0
 0005640,0.00009628,-0.00008376,-0.00004498,0.00000163,-0.00011513,-0.0
 0004550,-0.00010045,-0.00012545,0.00004658,-0.00001437,-0.04908407,-0.
 10518242,0.05818026,-0.01390411,-0.04165760,0.05198065,0.01247384,0.01
 602798,-0.02351874,0.06511424,0.12711404,0.00011439,-0.00006749,-0.000
 04720,0.00002863,-0.00005797,0.00000983,0.00007769,0.00005643,-0.00001
 138,-0.00004339,-0.00001440,-0.00000190,0.00009836,0.00007306,0.000051
 65,-0.00032314,-0.00042260,-0.00024310,0.00184122,-0.00084894,0.000217
 87,0.00940426,0.00679016,-0.00056678,-0.00154659,0.00177835,-0.0001360
 8,0.00091864,0.00001397,0.00083773,-0.00000265,-0.00000782,-0.00001032
 ,0.00001497,-0.00000410,-0.00000557,-0.00000929,-0.00000908,-0.0000296
 5,-0.00028786,-0.00036565,-0.00010847,0.00035122,-0.00092971,-0.000733
 09,0.00017474,-0.00002185,-0.00000900,0.00004348,-0.00011744,0.0000178
 2,0.00050060,0.00077402,0.00010277,0.00000511,-0.00006839,0.00035693,-
 0.00020849,0.00007108,0.00042168,0.00038708,0.00032885,0.00016138,0.00
 014894,0.00016135,0.00005104,-0.00046321,-0.00016618,-0.00033095,0.000
 12216,-0.00022502,-0.00062869,-0.00015438,-0.00023658,-0.00015417,0.00
 007550,0.00019919,0.00009465,-0.00003193,0.00006197,0.00038768,0.00007
 272,0.00002662,-0.00017999,0.00002474,-0.00001995,-0.00016860,-0.00004
 702,-0.00007856,-0.00005090,-0.00004672,-0.00004658,-0.00000950,0.0000
 0805,-0.00016416,-0.00004834,-0.00007246,-0.00006091,0.00002489,0.0001
 7740,0.00016822,0.00002961,-0.00000497,0.00005325,0.00001188,-0.000010
 20,0.00003228,-0.00000403,0.00003057,-0.00004157,0.00001486,-0.0000154
 0,-0.00001162,0.00001240,-0.00000523,0.00000304,0.00004426,0.00000726,
 0.00001367,0.00000986,-0.00001553,-0.00001917,-0.00000404,0.00000263,0
 .00000291,-0.00001444,0.00002263,-0.00001115,0.00004430,-0.00002126,-0
 .00000063,-0.00001145,0.00000350,0.00000528,0.00003811,0.00001436,0.00
 000059,-0.00004057,-0.00000635,-0.00000898,0.00002750,-0.00000339,-0.0
 0001906,-0.00000420,0.00000265,0.00000950,0.00002225,-0.00000032,0.000
 00508,-0.00000913,-0.00014383,-0.00005090,0.00004318,-0.00003355,-0.00
 001641,0.00004672,0.00013052,-0.00006296,0.00001329,0.00003033,0.00007
 455,-0.00002244,-0.00006625,-0.00003433,0.00006719,0.00003524,0.000036
 96,0.00001116,0.00000455,0.00002592,-0.00002342,0.00004548,-0.00004609
 ,-0.00005942,0.00001924,0.00000187,0.00000352,-0.00002929,0.00001076,0
 .00000189,-0.00000643,-0.00001377,0.00000987,0.00002473,0.00001840,0.0
 0000030,0.00002771,0.00000817,-0.00000621,-0.00001023,-0.00000354,0.00
 000910,0.00001901,0.00001851,-0.00000917,-0.00000428,-0.00001061,0.000
 00233,0.00000061,0.00000789,-0.00000810,0.00000594,-0.00000569,0.00001
 284,0.00000490,0.00000677,0.00000460,-0.00000588,0.00000316,-0.0000046
 3,0.00000614,0.00000151,-0.00000188,-0.00000077,-0.00001108,-0.0000067
 2,0.00001042,0.00000889,-0.00000112,-0.00001515,0.00000268,0.00001301,
 0.00000862,0.00000927,0.00000568,-0.00000229,-0.00000623,-0.00000392,-
 0.00000326,-0.00000660,0.00000719,0.00000602,0.00001183,0.00000099,0.0
 0001875,0.00000778,0.00000442,0.00000739,0.00001154,0.00000809,-0.0000
 0423,-0.00000311,-0.00000584,-0.00000437,-0.00000492,-0.00000066,0.000
 00225,-0.00004899,-0.00006353,-0.00014643,0.00005698,-0.00002631,0.000
 09551,-0.00001694,0.00002580,0.00002394,0.00000213,-0.00000617,0.00000
 138,-0.00000175,-0.00000189,0.00000619,0.00000203,0.00000236,-0.000110
 11,-0.00001527,0.00005792,-0.00000414,-0.00003476,0.00004956,-0.000029
 68,0.00005750,-0.00003067,0.00015454,0.00000416,0.00001613,0.00000354,
 -0.00003309,0.00001644,-0.00000592,0.00000495,-0.00000214,-0.00001775,
 -0.00000662,-0.00000473,0.00001933,0.00000640,-0.00000189,-0.00000545,
 0.00001073,-0.00000319,-0.00000438,0.00000072,-0.00000415,-0.00000168,
 0.00000025,0.00000069,-0.00001118,-0.00000415,-0.00000291,0.00000057,0
 .00000551,0.00000030,0.00001265,-0.00000773,0.00000070,0.00000212,0.00
 000368,0.00000484,-0.00000072,0.00000293,0.00000111,-0.00000027,-0.000
 00748,0.00000313,-0.00000414,-0.00000025,-0.00000522,0.00000058,0.0000
 0297,0.00000353,0.00000360,-0.00000494,0.00000270,0.00000442,0.0000020
 7,-0.00000545,-0.00021982,-0.00004387,-0.00014770,0.00004410,0.0000150
 0,0.00002547,0.00007134,0.00003792,0.00010266,0.00007042,-0.00001936,0
 .00002484,0.09339534,0.05556852,-0.18505833,0.00553011,0.04476455,-0.0
 2639722,0.03176545,-0.00923673,-0.07732885,-0.14207521,-0.09764057,0.2
 8921088\\0.00002032,0.00001372,0.00000521,-0.00000738,-0.00000696,0.00
 001590,0.00001119,0.00001645,-0.00000702,0.00000320,0.00001013,-0.0000
 0303,0.00000594,0.00000690,0.00001429,0.00000779,-0.00000810,-0.000003
 56,-0.00001728,-0.00001787,-0.00000183,0.00001332,-0.00000516,0.000004
 47,-0.00000417,0.00000197,0.00000288,0.00001140,0.00000768,0.00000085,
 0.00000003,0.00002902,-0.00000166,0.00000590,0.00000134,0.00000111,-0.
 00000278,-0.00000479,-0.00000118,-0.00000660,0.00000707,-0.00000556,0.
 00000446,-0.00000010,0.00000276,0.00000579,0.00000158,0.00000208,-0.00
 001691,-0.00003850,-0.00000239,-0.00000286,-0.00000792,0.00000875,0.00
 004655,0.00006885,0.00003065,0.00000046,0.00000216,0.00000167,-0.00000
 328,-0.00001718,0.00000130,0.00001074,0.00000027,0.00003646,-0.0000064
 4,0.00002063,-0.00000444,0.00001121,0.00001239,-0.00000231,-0.00000745
 ,-0.00004527,-0.00002199,0.00000005,-0.00000896,0.00000358,-0.00001859
 ,-0.00001649,0.00001032,-0.00000257,-0.00000242,-0.00000727,0.00000640
 ,0.00000261,0.00000685,0.00001210,-0.00000240,0.00000207,-0.00000337,0
 .00001230,-0.00000460,-0.00002339,-0.00000424,0.00000243,0.00001414,-0
 .00000946,-0.00000448,-0.00001037,-0.00002049,-0.00000055,-0.00000263,
 -0.00000254,0.00000318,0.00000439,-0.00000309,0.00000221,0.00000066,0.
 00000319,0.00000060,-0.00000062,-0.00000418,-0.00000071,-0.00000360,0.
 00000169,-0.00000884,0.00000165,-0.00000158,0.00000444,-0.00000780,0.0
 0000229,0.00001144,-0.00000040,-0.00000092,0.00000073,0.00000366,0.000
 00992,0.00000201,0.00000577,-0.00000559,-0.00001163,0.00000135,-0.0000
 0133,0.00000053,-0.00000314,0.00000071,0.00000452,-0.00000241,0.000003
 87,0.00000036,-0.00000489,-0.00000586,0.00000123,0.00000334,0.00000208
 ,0.00000102,-0.00000137,0.00000298,0.00000104,0.00000973,0.00001061,-0
 .00000472,-0.00000570,-0.00000500,0.00000554,-0.00000482,-0.00001151,0
 .00000796,0.00000184,-0.00000580,0.00000458,0.00000372,-0.00000245,-0.
 00000313,0.00000021,-0.00000451,0.00000256,-0.00000130,-0.00000136,-0.
 00000038,-0.00000033,0.00000421,-0.00000116,-0.00000643,0.00000085,0.0
 0000301,-0.00000275,0.00000155,-0.00000054,-0.00000753,-0.00000669,0.0
 0000455,0.00000092,0.00000286,-0.00000434,0.00000481,-0.00000403,0.000
 00637,-0.00000690,-0.00000460,0.00000513,-0.00001657,-0.00000753,-0.00
 001047,-0.00000455,-0.00000396,-0.00000296,0.00000502,0.00000320,0.000
 00095,0.00000438,-0.00000148,-0.00000345,-0.00000881,-0.00000396,0.000
 00257,-0.00000257,0.00000117,-0.00000142,-0.00000503,-0.00000122,-0.00
 000057,-0.00000137,-0.00000327,-0.00000622,-0.00000312,-0.00000185,-0.
 00000120,-0.00001444,0.00000463,-0.00001035,-0.00000354,0.00000456,-0.
 00000162,0.00000168,-0.00000077,-0.00000408,0.,0.00000204,-0.00000347,
 -0.00000182,0.00000083,-0.00000276,-0.00000954,-0.00000022,-0.00000506
 ,-0.00000457,0.00000576,0.00000060,0.00002262,0.00002505,-0.00005171,0
 .00000039,-0.00001422,0.00000110,0.00000929,0.00000014,0.00000766,0.00
 001427,0.00001469,-0.00000134,0.00001071,-0.00001125,-0.00000606,0.000
 00169,-0.00000247,-0.00000126,-0.00000099,-0.00000036,0.00000208,-0.00
 001283,0.00002326,-0.00000918,-0.00001755,-0.00003103,-0.00001882,0.00
 000708,-0.00000292,0.00000824,-0.00000391,0.00000059,0.00000852,-0.000
 00549,-0.00001914,-0.00002218,0.00000050,-0.00000366,0.00000644,-0.000
 00122,0.00000194,0.00000086,-0.00001168,0.00001714,0.00002810,0.000003
 86,0.00001849,0.00000184,-0.00000931,-0.00001541,-0.00001319,-0.000035
 50,0.00000298,0.00003122,-0.00000106,0.00000333,-0.00000355,-0.0000052
 5,-0.00000816,0.00000951,0.00001607,0.00001036,-0.00001153,0.00000289,
 0.00000635,-0.00000691,0.00000552,0.00000248,0.00000117,0.00000041,0.0
 0000066,-0.00000240,-0.00000185,0.00000629,-0.00000372,-0.00000488,0.0
 0000189,-0.00000322,0.00000285,0.00001017,-0.00000006,0.00000204,0.000
 00140,-0.00000076,0.00000083,0.00000381,-0.00000464,0.00000389,-0.0000
 0308,0.00000020,0.00002110,0.00000739,-0.00002527,-0.00000008,0.000001
 66,-0.00000109,0.00000761,-0.00000013,-0.00000916,0.00000596,-0.000002
 31,0.00001067,0.00000214,-0.00000927,0.00000358,0.00000249,-0.00001826
 ,-0.00000623,-0.00000474,0.00000913,0.00001130\\\@
 The archive entry for this job was punched.


 ALL OUR THINKING ABOUT NATURE MUST NECESSARILY MOVE IN CIRCLES OR SPIRALS;
 FOR WE CAN ONLY UNDERSTAND NATURE IF WE THINK ABOUT HER, AND WE CAN ONLY
 THINK BECAUSE OUR BRAIN IS BUILT IN ACCORDANCE WITH NATURE'S LAWS.

                                             -- TIMOTHY FERRIS, "GALAXIES"
 Job cpu time:       2 days  6 hours 51 minutes 33.0 seconds.
 Elapsed time:       0 days  3 hours 29 minutes 42.1 seconds.
 File lengths (MBytes):  RWF=  11754 Int=      0 D2E=      0 Chk=     62 Scr=      1
 Normal termination of Gaussian 16 at Sat Dec  7 22:17:20 2024.
