/mnt/lustre/scratch/nvme/SLURM/9663533/usccqdma.OZ4kTn6Waj
OMP_STACKSIZE=0m
GAUSS_PDEF=16
GAUSS_MDEF=65536MB
GAUSS_RDEF=SCF=Direct
 Entering Gaussian System, Link 0=g16.exe
 Initial command:
 /opt/cesga/2020/software/Core/g16/c1/l1.exe "/mnt/lustre/scratch/nvme/SLURM/9663533/usccqdma.OZ4kTn6Waj/Gau-3955781.inp" -scrdir="/mnt/lustre/scratch/nvme/SLURM/9663533/usccqdma.OZ4kTn6Waj/"
 Default is to use a total of  16 processors:
                               16 via shared-memory
                                1 via Linda
 Entering Link 1 = /opt/cesga/2020/software/Core/g16/c1/l1.exe PID=   3955810.
  
 Copyright (c) 1988-2019, Gaussian, Inc.  All Rights Reserved.
  
 This is part of the Gaussian(R) 16 program.  It is based on
 the Gaussian(R) 09 system (copyright 2009, Gaussian, Inc.),
 the Gaussian(R) 03 system (copyright 2003, Gaussian, Inc.),
 the Gaussian(R) 98 system (copyright 1998, Gaussian, Inc.),
 the Gaussian(R) 94 system (copyright 1995, Gaussian, Inc.),
 the Gaussian 92(TM) system (copyright 1992, Gaussian, Inc.),
 the Gaussian 90(TM) system (copyright 1990, Gaussian, Inc.),
 the Gaussian 88(TM) system (copyright 1988, Gaussian, Inc.),
 the Gaussian 86(TM) system (copyright 1986, Carnegie Mellon
 University), and the Gaussian 82(TM) system (copyright 1983,
 Carnegie Mellon University). Gaussian is a federally registered
 trademark of Gaussian, Inc.
  
 This software contains proprietary and confidential information,
 including trade secrets, belonging to Gaussian, Inc.
  
 This software is provided under written license and may be
 used, copied, transmitted, or stored only in accord with that
 written license.
  
 The following legend is applicable only to US Government
 contracts under FAR:
  
                    RESTRICTED RIGHTS LEGEND
  
 Use, reproduction and disclosure by the US Government is
 subject to restrictions as set forth in subparagraphs (a)
 and (c) of the Commercial Computer Software - Restricted
 Rights clause in FAR 52.227-19.
  
 Gaussian, Inc.
 340 Quinnipiac St., Bldg. 40, Wallingford CT 06492
  
  
 ---------------------------------------------------------------
 Warning -- This program may not be used in any manner that
 competes with the business of Gaussian, Inc. or will provide
 assistance to any competitor of Gaussian, Inc.  The licensee
 of this program is prohibited from giving any competitor of
 Gaussian, Inc. access to this program.  By using this program,
 the user acknowledges that Gaussian, Inc. is engaged in the
 business of creating and licensing software in the field of
 computational chemistry and represents and warrants to the
 licensee that it is not a competitor of Gaussian, Inc. and that
 it will not use this program in any manner prohibited above.
 ---------------------------------------------------------------
  

 Cite this work as:
 Gaussian 16, Revision C.01,
 M. J. Frisch, G. W. Trucks, H. B. Schlegel, G. E. Scuseria, 
 M. A. Robb, J. R. Cheeseman, G. Scalmani, V. Barone, 
 G. A. Petersson, H. Nakatsuji, X. Li, M. Caricato, A. V. Marenich, 
 J. Bloino, B. G. Janesko, R. Gomperts, B. Mennucci, H. P. Hratchian, 
 J. V. Ortiz, A. F. Izmaylov, J. L. Sonnenberg, D. Williams-Young, 
 F. Ding, F. Lipparini, F. Egidi, J. Goings, B. Peng, A. Petrone, 
 T. Henderson, D. Ranasinghe, V. G. Zakrzewski, J. Gao, N. Rega, 
 G. Zheng, W. Liang, M. Hada, M. Ehara, K. Toyota, R. Fukuda, 
 J. Hasegawa, M. Ishida, T. Nakajima, Y. Honda, O. Kitao, H. Nakai, 
 T. Vreven, K. Throssell, J. A. Montgomery, Jr., J. E. Peralta, 
 F. Ogliaro, M. J. Bearpark, J. J. Heyd, E. N. Brothers, K. N. Kudin, 
 V. N. Staroverov, T. A. Keith, R. Kobayashi, J. Normand, 
 K. Raghavachari, A. P. Rendell, J. C. Burant, S. S. Iyengar, 
 J. Tomasi, M. Cossi, J. M. Millam, M. Klene, C. Adamo, R. Cammi, 
 J. W. Ochterski, R. L. Martin, K. Morokuma, O. Farkas, 
 J. B. Foresman, and D. J. Fox, Gaussian, Inc., Wallingford CT, 2019.
 
 ******************************************
 Gaussian 16:  ES64L-G16RevC.01  3-Jul-2019
                 7-Dec-2024 
 ******************************************
 Default route: SCF=Direct
 ----------------------------------------------------
 # m06/genecp scf=tight int=ultrafine 5d freq=noraman
 ----------------------------------------------------
 1/10=4,30=1,38=1/1,3;
 2/12=2,17=6,18=5,40=1/2;
 3/5=7,8=1,11=2,16=1,17=8,25=1,30=1,71=2,74=-54,75=-5,140=1/1,2,3;
 4//1;
 5/5=2,32=2,38=5,98=1/2;
 8/6=4,10=90,11=11/1;
 11/6=1,8=1,9=11,15=111,16=1/1,2,10;
 10/6=1/2;
 6/7=2,8=2,9=2,10=2,28=1/1;
 7/8=1,10=1,25=1/1,2,3,16;
 1/10=4,30=1/3;
 99//99;
 ------
 OPT-TS
 ------
 Symbolic Z-matrix:
 Charge =  0 Multiplicity = 1
 C                    -0.96181   0.40124   2.37169 
 C                     0.86101  -1.0336    2.2596 
 C                     0.87999  -1.1878    3.63705 
 C                    -0.06311  -0.51143   4.40442 
 C                    -0.99942   0.2796    3.76224 
 C                    -1.92981   1.20526   1.60529 
 C                    -2.6136    1.90029  -0.49891 
 C                    -3.67386   2.62431   0.02415 
 C                    -3.85465   2.62601   1.40198 
 C                    -2.97633   1.9088    2.19848 
 H                     1.55583  -1.56531   1.61201 
 H                    -0.07202  -0.61722   5.48686 
 H                    -1.75689   0.79739   4.34359 
 H                    -2.41712   1.85976  -1.56988 
 H                    -4.67667   3.17692   1.85408 
 H                    -3.11521   1.89047   3.27581 
 N                    -0.02313  -0.24365   1.64657 
 N                    -1.76103   1.219     0.26954 
 O                     2.9328    0.17297  -1.56859 
 O                     1.24782   2.82273  -1.62724 
 O                     0.7827   -1.99377  -2.6166 
 B                     0.74283   2.08949  -0.57188 
 B                     2.0298    0.37418  -0.53187 
 B                     0.9375   -1.54052  -1.32299 
 O                     1.64745  -2.46485  -0.56059 
 O                     2.71752   0.63159   0.65604 
 C                     4.11057   0.35093   0.44624 
 C                     4.24826   0.50937  -1.09783 
 C                     1.58302  -3.16924  -2.79914 
 C                     1.82255  -3.6655   -1.33494 
 C                     0.98506   4.21176  -1.36208 
 C                     0.87765   4.24679   0.19144 
 O                     0.42799   2.91815   0.49444 
 C                     4.52184   1.94046  -1.53853 
 H                     4.39295   2.00257  -2.62637 
 H                     3.80064   2.63297  -1.0898 
 H                     5.54088   2.26143  -1.28405 
 C                     5.26824  -0.41439  -1.73338 
 H                     5.04705  -1.46986  -1.53581 
 H                     5.27799  -0.26546  -2.821 
 H                     6.27596  -0.19679  -1.35123 
 C                     4.93843   1.32305   1.26355 
 H                     6.01158   1.17091   1.07858 
 H                     4.69203   2.36651   1.03847 
 H                     4.75183   1.15534   2.3321 
 C                     4.36371  -1.06815   0.93944 
 H                     5.42277  -1.34766   0.85659 
 H                     4.08241  -1.12905   2.00003 
 H                     3.75579  -1.79418   0.38421 
 C                     2.09886   5.05421  -1.95041 
 H                     2.11475   4.93238  -3.04097 
 H                     1.93875   6.11884  -1.72854 
 H                     3.08315   4.76432  -1.56665 
 C                    -0.32832   4.54451  -2.05889 
 H                    -0.23671   4.28847  -3.12153 
 H                    -1.15789   3.9576   -1.64075 
 H                    -0.58034   5.61046  -1.97707 
 C                     2.21557   4.43918   0.88935 
 H                     2.96307   3.72887   0.5149 
 H                     2.60169   5.45988   0.76486 
 H                     2.08521   4.24376   1.96095 
 C                    -0.13204   5.23704   0.73963 
 H                     0.1224    6.26515   0.44484 
 H                    -1.14798   5.0134    0.39286 
 H                    -0.13448   5.19058   1.83635 
 C                     0.78568  -4.66705  -0.8441 
 H                     0.92119  -4.8126    0.23527 
 H                    -0.2387   -4.3083   -1.00468 
 H                     0.89331  -5.64122  -1.33922 
 C                     3.20898  -4.22167  -1.07255 
 H                     3.99442  -3.49055  -1.29744 
 H                     3.29995  -4.50168  -0.01446 
 H                     3.38949  -5.12086  -1.67896 
 C                     2.85233  -2.72574  -3.51051 
 H                     3.37911  -1.96603  -2.92174 
 H                     3.52832  -3.56636  -3.71811 
 H                     2.57208  -2.26216  -4.4645 
 C                     0.81519  -4.14231  -3.6733 
 H                     1.36359  -5.08859  -3.78713 
 H                    -0.17838  -4.35941  -3.26277 
 H                     0.679    -3.70726  -4.67141 
 H                    -0.20511   0.36479  -2.08914 
 C                    -3.92078  -0.83355  -0.81267 
 O                    -4.06215  -0.78312   0.40968 
 C                    -5.06797  -0.47508  -1.75078 
 H                    -4.73762   0.33724  -2.41942 
 H                    -5.28226  -1.32561  -2.41917 
 C                    -1.58282  -1.5058   -0.58675 
 H                    -1.94819  -1.656     0.43476 
 H                    -1.20684  -2.47436  -0.94261 
 N                    -2.74607  -1.18386  -1.40547 
 C                    -2.56716  -1.21492  -2.84392 
 H                    -3.34957  -1.8053   -3.33872 
 H                    -2.55953  -0.20686  -3.28882 
 H                    -1.59458  -1.66828  -3.06207 
 C                    -6.33304  -0.07455  -1.00844 
 H                    -6.075     0.65486  -0.22475 
 H                    -7.01485   0.43475  -1.70914 
 C                    -7.05842  -1.25019  -0.37119 
 H                    -7.32562  -1.98398  -1.15284 
 H                    -6.36959  -1.76117   0.31777 
 C                    -8.31595  -0.83404   0.37605 
 H                    -8.04401  -0.10785   1.15947 
 H                    -8.99091  -0.29706  -0.31153 
 C                    -9.04387  -2.01424   0.99756 
 H                    -9.94572  -1.70439   1.54068 
 H                    -9.35006  -2.73752   0.22863 
 H                    -8.39344  -2.54694   1.70511 
 C                     1.95542  -2.01482   4.26729 
 F                     2.30024  -3.04955   3.4978 
 F                     3.06439  -1.28755   4.46761 
 F                     1.57749  -2.49177   5.45765 
 H                    -4.34395   3.16539  -0.63981 
 Ir                   -0.04903   0.08886  -0.51942 
 

 GradGradGradGradGradGradGradGradGradGradGradGradGradGradGradGradGradGrad
 Berny optimization.
 Initialization pass.
 Trust Radius=3.00D-01 FncErr=1.00D-07 GrdErr=1.00D-07 EigMax=2.50D+02 EigMin=1.00D-04
 Number of steps in this run=      2 maximum allowed number of steps=      2.
 GradGradGradGradGradGradGradGradGradGradGradGradGradGradGradGradGradGrad

 Stoichiometry    C37H60B3F3IrN3O7
 Framework group  C1[X(C37H60B3F3IrN3O7)]
 Deg. of freedom   336
 Full point group                 C1      NOp   1
 Largest Abelian subgroup         C1      NOp   1
 Largest concise Abelian subgroup C1      NOp   1
                         Standard orientation:                         
 ---------------------------------------------------------------------
 Center     Atomic      Atomic             Coordinates (Angstroms)
 Number     Number       Type             X           Y           Z
 ---------------------------------------------------------------------
      1          6           0       -0.961810    0.401241    2.371691
      2          6           0        0.861010   -1.033599    2.259601
      3          6           0        0.879990   -1.187799    3.637051
      4          6           0       -0.063110   -0.511429    4.404421
      5          6           0       -0.999420    0.279601    3.762241
      6          6           0       -1.929810    1.205261    1.605291
      7          6           0       -2.613600    1.900291   -0.498909
      8          6           0       -3.673860    2.624311    0.024151
      9          6           0       -3.854650    2.626011    1.401981
     10          6           0       -2.976330    1.908801    2.198481
     11          1           0        1.555830   -1.565310    1.612011
     12          1           0       -0.072020   -0.617219    5.486861
     13          1           0       -1.756890    0.797391    4.343591
     14          1           0       -2.417120    1.859761   -1.569879
     15          1           0       -4.676670    3.176921    1.854081
     16          1           0       -3.115210    1.890471    3.275811
     17          7           0       -0.023130   -0.243649    1.646571
     18          7           0       -1.761030    1.219001    0.269541
     19          8           0        2.932800    0.172970   -1.568589
     20          8           0        1.247820    2.822730   -1.627239
     21          8           0        0.782700   -1.993769   -2.616599
     22          5           0        0.742830    2.089491   -0.571879
     23          5           0        2.029800    0.374180   -0.531869
     24          5           0        0.937500   -1.540520   -1.322989
     25          8           0        1.647450   -2.464850   -0.560589
     26          8           0        2.717520    0.631590    0.656041
     27          6           0        4.110570    0.350930    0.446241
     28          6           0        4.248260    0.509370   -1.097829
     29          6           0        1.583019   -3.169240   -2.799139
     30          6           0        1.822549   -3.665500   -1.334939
     31          6           0        0.985060    4.211760   -1.362079
     32          6           0        0.877650    4.246791    0.191441
     33          8           0        0.427990    2.918151    0.494441
     34          6           0        4.521840    1.940460   -1.538529
     35          1           0        4.392950    2.002570   -2.626369
     36          1           0        3.800640    2.632970   -1.089799
     37          1           0        5.540880    2.261430   -1.284049
     38          6           0        5.268240   -0.414390   -1.733379
     39          1           0        5.047050   -1.469860   -1.535809
     40          1           0        5.277990   -0.265460   -2.820999
     41          1           0        6.275960   -0.196790   -1.351229
     42          6           0        4.938430    1.323050    1.263551
     43          1           0        6.011580    1.170910    1.078581
     44          1           0        4.692030    2.366510    1.038471
     45          1           0        4.751830    1.155340    2.332101
     46          6           0        4.363710   -1.068150    0.939441
     47          1           0        5.422770   -1.347660    0.856591
     48          1           0        4.082410   -1.129050    2.000031
     49          1           0        3.755790   -1.794180    0.384211
     50          6           0        2.098860    5.054210   -1.950409
     51          1           0        2.114750    4.932380   -3.040969
     52          1           0        1.938750    6.118840   -1.728539
     53          1           0        3.083150    4.764320   -1.566649
     54          6           0       -0.328320    4.544511   -2.058889
     55          1           0       -0.236710    4.288471   -3.121529
     56          1           0       -1.157890    3.957601   -1.640749
     57          1           0       -0.580340    5.610461   -1.977069
     58          6           0        2.215570    4.439180    0.889351
     59          1           0        2.963070    3.728870    0.514901
     60          1           0        2.601690    5.459880    0.764861
     61          1           0        2.085210    4.243760    1.960951
     62          6           0       -0.132040    5.237041    0.739631
     63          1           0        0.122400    6.265151    0.444841
     64          1           0       -1.147980    5.013401    0.392861
     65          1           0       -0.134480    5.190581    1.836351
     66          6           0        0.785679   -4.667049   -0.844099
     67          1           0        0.921189   -4.812600    0.235271
     68          1           0       -0.238701   -4.308299   -1.004679
     69          1           0        0.893309   -5.641220   -1.339219
     70          6           0        3.208979   -4.221670   -1.072549
     71          1           0        3.994419   -3.490550   -1.297439
     72          1           0        3.299949   -4.501680   -0.014459
     73          1           0        3.389489   -5.120860   -1.678959
     74          6           0        2.852330   -2.725740   -3.510509
     75          1           0        3.379110   -1.966030   -2.921739
     76          1           0        3.528319   -3.566360   -3.718109
     77          1           0        2.572080   -2.262160   -4.464499
     78          6           0        0.815189   -4.142309   -3.673299
     79          1           0        1.363589   -5.088590   -3.787129
     80          1           0       -0.178381   -4.359409   -3.262769
     81          1           0        0.678999   -3.707259   -4.671409
     82          1           0       -0.205110    0.364791   -2.089139
     83          6           0       -3.920780   -0.833549   -0.812669
     84          8           0       -4.062150   -0.783119    0.409681
     85          6           0       -5.067970   -0.475079   -1.750779
     86          1           0       -4.737620    0.337241   -2.419419
     87          1           0       -5.282260   -1.325609   -2.419169
     88          6           0       -1.582820   -1.505799   -0.586749
     89          1           0       -1.948190   -1.655999    0.434761
     90          1           0       -1.206840   -2.474359   -0.942609
     91          7           0       -2.746070   -1.183859   -1.405469
     92          6           0       -2.567160   -1.214919   -2.843919
     93          1           0       -3.349570   -1.805299   -3.338719
     94          1           0       -2.559530   -0.206859   -3.288819
     95          1           0       -1.594580   -1.668279   -3.062069
     96          6           0       -6.333040   -0.074549   -1.008439
     97          1           0       -6.075000    0.654861   -0.224749
     98          1           0       -7.014850    0.434751   -1.709139
     99          6           0       -7.058420   -1.250189   -0.371189
    100          1           0       -7.325620   -1.983979   -1.152839
    101          1           0       -6.369590   -1.761169    0.317771
    102          6           0       -8.315950   -0.834039    0.376051
    103          1           0       -8.044010   -0.107849    1.159471
    104          1           0       -8.990910   -0.297059   -0.311529
    105          6           0       -9.043870   -2.014239    0.997561
    106          1           0       -9.945720   -1.704389    1.540681
    107          1           0       -9.350060   -2.737519    0.228631
    108          1           0       -8.393440   -2.546939    1.705111
    109          6           0        1.955420   -2.014820    4.267291
    110          9           0        2.300240   -3.049550    3.497801
    111          9           0        3.064390   -1.287550    4.467611
    112          9           0        1.577490   -2.491770    5.457651
    113          1           0       -4.343950    3.165391   -0.639809
    114         77           0       -0.049030    0.088861   -0.519419
 ---------------------------------------------------------------------
 Rotational constants (GHZ):           0.0601245           0.0417534           0.0386121
 General basis read from cards:  (5D, 7F)
 ======================================================================================================
                                       Pseudopotential Parameters
 ======================================================================================================
  Center     Atomic      Valence      Angular      Power
  Number     Number     Electrons     Momentum     of R      Exponent        Coefficient   SO-Coeffient
 ======================================================================================================
    1          6
                                   No pseudopotential on this center.
    2          6
                                   No pseudopotential on this center.
    3          6
                                   No pseudopotential on this center.
    4          6
                                   No pseudopotential on this center.
    5          6
                                   No pseudopotential on this center.
    6          6
                                   No pseudopotential on this center.
    7          6
                                   No pseudopotential on this center.
    8          6
                                   No pseudopotential on this center.
    9          6
                                   No pseudopotential on this center.
   10          6
                                   No pseudopotential on this center.
   11          1
                                   No pseudopotential on this center.
   12          1
                                   No pseudopotential on this center.
   13          1
                                   No pseudopotential on this center.
   14          1
                                   No pseudopotential on this center.
   15          1
                                   No pseudopotential on this center.
   16          1
                                   No pseudopotential on this center.
   17          7
                                   No pseudopotential on this center.
   18          7
                                   No pseudopotential on this center.
   19          8
                                   No pseudopotential on this center.
   20          8
                                   No pseudopotential on this center.
   21          8
                                   No pseudopotential on this center.
   22          5
                                   No pseudopotential on this center.
   23          5
                                   No pseudopotential on this center.
   24          5
                                   No pseudopotential on this center.
   25          8
                                   No pseudopotential on this center.
   26          8
                                   No pseudopotential on this center.
   27          6
                                   No pseudopotential on this center.
   28          6
                                   No pseudopotential on this center.
   29          6
                                   No pseudopotential on this center.
   30          6
                                   No pseudopotential on this center.
   31          6
                                   No pseudopotential on this center.
   32          6
                                   No pseudopotential on this center.
   33          8
                                   No pseudopotential on this center.
   34          6
                                   No pseudopotential on this center.
   35          1
                                   No pseudopotential on this center.
   36          1
                                   No pseudopotential on this center.
   37          1
                                   No pseudopotential on this center.
   38          6
                                   No pseudopotential on this center.
   39          1
                                   No pseudopotential on this center.
   40          1
                                   No pseudopotential on this center.
   41          1
                                   No pseudopotential on this center.
   42          6
                                   No pseudopotential on this center.
   43          1
                                   No pseudopotential on this center.
   44          1
                                   No pseudopotential on this center.
   45          1
                                   No pseudopotential on this center.
   46          6
                                   No pseudopotential on this center.
   47          1
                                   No pseudopotential on this center.
   48          1
                                   No pseudopotential on this center.
   49          1
                                   No pseudopotential on this center.
   50          6
                                   No pseudopotential on this center.
   51          1
                                   No pseudopotential on this center.
   52          1
                                   No pseudopotential on this center.
   53          1
                                   No pseudopotential on this center.
   54          6
                                   No pseudopotential on this center.
   55          1
                                   No pseudopotential on this center.
   56          1
                                   No pseudopotential on this center.
   57          1
                                   No pseudopotential on this center.
   58          6
                                   No pseudopotential on this center.
   59          1
                                   No pseudopotential on this center.
   60          1
                                   No pseudopotential on this center.
   61          1
                                   No pseudopotential on this center.
   62          6
                                   No pseudopotential on this center.
   63          1
                                   No pseudopotential on this center.
   64          1
                                   No pseudopotential on this center.
   65          1
                                   No pseudopotential on this center.
   66          6
                                   No pseudopotential on this center.
   67          1
                                   No pseudopotential on this center.
   68          1
                                   No pseudopotential on this center.
   69          1
                                   No pseudopotential on this center.
   70          6
                                   No pseudopotential on this center.
   71          1
                                   No pseudopotential on this center.
   72          1
                                   No pseudopotential on this center.
   73          1
                                   No pseudopotential on this center.
   74          6
                                   No pseudopotential on this center.
   75          1
                                   No pseudopotential on this center.
   76          1
                                   No pseudopotential on this center.
   77          1
                                   No pseudopotential on this center.
   78          6
                                   No pseudopotential on this center.
   79          1
                                   No pseudopotential on this center.
   80          1
                                   No pseudopotential on this center.
   81          1
                                   No pseudopotential on this center.
   82          1
                                   No pseudopotential on this center.
   83          6
                                   No pseudopotential on this center.
   84          8
                                   No pseudopotential on this center.
   85          6
                                   No pseudopotential on this center.
   86          1
                                   No pseudopotential on this center.
   87          1
                                   No pseudopotential on this center.
   88          6
                                   No pseudopotential on this center.
   89          1
                                   No pseudopotential on this center.
   90          1
                                   No pseudopotential on this center.
   91          7
                                   No pseudopotential on this center.
   92          6
                                   No pseudopotential on this center.
   93          1
                                   No pseudopotential on this center.
   94          1
                                   No pseudopotential on this center.
   95          1
                                   No pseudopotential on this center.
   96          6
                                   No pseudopotential on this center.
   97          1
                                   No pseudopotential on this center.
   98          1
                                   No pseudopotential on this center.
   99          6
                                   No pseudopotential on this center.
  100          1
                                   No pseudopotential on this center.
  101          1
                                   No pseudopotential on this center.
  102          6
                                   No pseudopotential on this center.
  103          1
                                   No pseudopotential on this center.
  104          1
                                   No pseudopotential on this center.
  105          6
                                   No pseudopotential on this center.
  106          1
                                   No pseudopotential on this center.
  107          1
                                   No pseudopotential on this center.
  108          1
                                   No pseudopotential on this center.
  109          6
                                   No pseudopotential on this center.
  110          9
                                   No pseudopotential on this center.
  111          9
                                   No pseudopotential on this center.
  112          9
                                   No pseudopotential on this center.
  113          1
                                   No pseudopotential on this center.
  114         77           17
                                      G and up 
                                                     1      823.5880147       -0.15780140    0.00000000
                                                     2      364.6613336    -1517.52704460    0.00000000
                                                     2       55.7082801     -316.53065290    0.00000000
                                                     2       12.0464544      -91.88809410    0.00000000
                                                     2        3.5120610       -9.22417730    0.00000000
                                      S - G
                                                     0      188.0490770        3.15780140    0.00000000
                                                     1      340.4194712       26.83225770    0.00000000
                                                     2      128.2373673      800.42500070    0.00000000
                                                     2       33.8644961      369.40506830    0.00000000
                                                     2        4.7560005      242.41718990    0.00000000
                                                     2        3.9649974     -118.21732820    0.00000000
                                      P - G
                                                     0      289.7291139        2.15780140    0.00000000
                                                     1       87.4633789       61.96786100    0.00000000
                                                     2       30.4363766      269.05819860    0.00000000
                                                     2        4.0553412      231.16547930    0.00000000
                                                     2        3.5525341     -133.69526670    0.00000000
                                      D - G
                                                     0      136.4017106        3.15780140    0.00000000
                                                     1       95.0776925       45.93498030    0.00000000
                                                     2       49.2258410      359.03446680    0.00000000
                                                     2       15.0874145      176.47401190    0.00000000
                                                     2        4.0405764       54.51552860    0.00000000
                                      F - G
                                                     0      127.3507908        3.95461970    0.00000000
                                                     1       66.2364374       52.97736550    0.00000000
                                                     2       34.4299229      274.86433830    0.00000000
                                                     2       10.1995721      137.20473380    0.00000000
                                                     2        2.5409702       14.86333050    0.00000000
 ======================================================================================================
 There are   939 symmetry adapted cartesian basis functions of A   symmetry.
 There are   884 symmetry adapted basis functions of A   symmetry.
   884 basis functions,  1767 primitive gaussians,   939 cartesian basis functions
   209 alpha electrons      209 beta electrons
       nuclear repulsion energy      9270.1240372630 Hartrees.
 NAtoms=  114 NActive=  114 NUniq=  114 SFac= 1.00D+00 NAtFMM=   60 NAOKFM=T Big=T
 Integral buffers will be    131072 words long.
 Raffenetti 2 integral format.
 Two-electron integral symmetry is turned on.
 One-electron integrals computed using PRISM.
   1 Symmetry operations used in ECPInt.
 ECPInt:  NShTT=   57970 NPrTT=  353525 LenC2=   42232 LenP2D=  129387.
 LDataN:  DoStor=T MaxTD1= 6 Len=  172
 NBasis=   884 RedAO= T EigKep=  4.80D-04  NBF=   884
 NBsUse=   884 1.00D-06 EigRej= -1.00D+00 NBFU=   884
 Defaulting to unpruned grid for atomic number  77.
 ExpMin= 2.90D-02 ExpMax= 7.00D+03 ExpMxC= 1.05D+03 IAcc=3 IRadAn=         5 AccDes= 0.00D+00
 Harris functional with IExCor= 1009 and IRadAn=       5 diagonalized for initial guess.
 HarFok:  IExCor= 1009 AccDes= 0.00D+00 IRadAn=         5 IDoV= 1 UseB2=F ITyADJ=14
 ICtDFT=  3500011 ScaDFX=  1.000000  1.000000  1.000000  1.000000
 Defaulting to unpruned grid for atomic number  77.
 FoFCou: FMM=F IPFlag=           0 FMFlag=      100000 FMFlg1=        2001
         NFxFlg=           0 DoJE=T BraDBF=F KetDBF=T FulRan=T
         wScrn=  0.000000 ICntrl=       500 IOpCl=  0 I1Cent=   200000004 NGrid=           0
         NMat0=    1 NMatS0=      1 NMatT0=    0 NMatD0=    1 NMtDS0=    0 NMtDT0=    0
 Petite list used in FoFCou.
 Requested convergence on RMS density matrix=1.00D-08 within 128 cycles.
 Requested convergence on MAX density matrix=1.00D-06.
 Requested convergence on             energy=1.00D-06.
 No special actions if energy rises.
 Defaulting to unpruned grid for atomic number  77.
 Defaulting to unpruned grid for atomic number  77.
 Defaulting to unpruned grid for atomic number  77.
 Defaulting to unpruned grid for atomic number  77.
 Defaulting to unpruned grid for atomic number  77.
 Defaulting to unpruned grid for atomic number  77.
 Defaulting to unpruned grid for atomic number  77.
 Defaulting to unpruned grid for atomic number  77.
 Defaulting to unpruned grid for atomic number  77.
 Defaulting to unpruned grid for atomic number  77.
 Defaulting to unpruned grid for atomic number  77.
 Defaulting to unpruned grid for atomic number  77.
 Defaulting to unpruned grid for atomic number  77.
 Defaulting to unpruned grid for atomic number  77.
 Defaulting to unpruned grid for atomic number  77.
 Defaulting to unpruned grid for atomic number  77.
 SCF Done:  E(RM06) =  -2614.45453673     A.U. after   15 cycles
            NFock= 15  Conv=0.92D-08     -V/T= 2.0345
 DoSCS=F DFT=T ScalE2(SS,OS)=  1.000000  1.000000
 Range of M.O.s used for correlation:     1   884
 NBasis=   884 NAE=   209 NBE=   209 NFC=     0 NFV=     0
 NROrb=    884 NOA=   209 NOB=   209 NVA=   675 NVB=   675
   1 Symmetry operations used in ECPInt.
 ECPInt:  NShTT=   57970 NPrTT=  353525 LenC2=   42232 LenP2D=  129387.
 LDataN:  DoStor=T MaxTD1= 7 Len=  274
 Number of processors reduced to   7 by ecpmxn.
 Symmetrizing basis deriv contribution to polar:
 IMax=3 JMax=2 DiffMx= 0.00D+00
 G2DrvN: will do   115 centers at a time, making    1 passes.
 Calling FoFCou, ICntrl=  3107 FMM=T I1Cent=   0 AccDes= 0.00D+00.
 Defaulting to unpruned grid for atomic number  77.
 Defaulting to unpruned grid for atomic number  77.
 Defaulting to unpruned grid for atomic number  77.
 Defaulting to unpruned grid for atomic number  77.
 Defaulting to unpruned grid for atomic number  77.
 Defaulting to unpruned grid for atomic number  77.
 Defaulting to unpruned grid for atomic number  77.
 Defaulting to unpruned grid for atomic number  77.
 Defaulting to unpruned grid for atomic number  77.
 Defaulting to unpruned grid for atomic number  77.
 Defaulting to unpruned grid for atomic number  77.
 Defaulting to unpruned grid for atomic number  77.
 Defaulting to unpruned grid for atomic number  77.
 Defaulting to unpruned grid for atomic number  77.
 Defaulting to unpruned grid for atomic number  77.
 Defaulting to unpruned grid for atomic number  77.
 End of G2Drv F.D. properties file   721 does not exist.
 End of G2Drv F.D. properties file   722 does not exist.
 End of G2Drv F.D. properties file   788 does not exist.
          IDoAtm=11111111111111111111111111111111111111111111111111
          IDoAtm=11111111111111111111111111111111111111111111111111
          IDoAtm=11111111111111
          Differentiating once with respect to electric field.
                with respect to dipole field.
          Differentiating once with respect to nuclear coordinates.
 Defaulting to unpruned grid for atomic number  77.
 CalDSu exits because no D1Ps are significant.
 Defaulting to unpruned grid for atomic number  77.
 Defaulting to unpruned grid for atomic number  77.
 Defaulting to unpruned grid for atomic number  77.
 Defaulting to unpruned grid for atomic number  77.
 Defaulting to unpruned grid for atomic number  77.
 Defaulting to unpruned grid for atomic number  77.
 Defaulting to unpruned grid for atomic number  77.
 Defaulting to unpruned grid for atomic number  77.
 Defaulting to unpruned grid for atomic number  77.
 Defaulting to unpruned grid for atomic number  77.
 Defaulting to unpruned grid for atomic number  77.
 Defaulting to unpruned grid for atomic number  77.
 Defaulting to unpruned grid for atomic number  77.
 Defaulting to unpruned grid for atomic number  77.
 Defaulting to unpruned grid for atomic number  77.
 Defaulting to unpruned grid for atomic number  77.
          There are   345 degrees of freedom in the 1st order CPHF.  IDoFFX=6 NUNeed=     3.
    342 vectors produced by pass  0 Test12= 1.41D-13 1.00D-09 XBig12= 4.92D+02 6.64D+00.
 AX will form    72 AO Fock derivatives at one time.
    342 vectors produced by pass  1 Test12= 1.41D-13 1.00D-09 XBig12= 9.56D+01 1.32D+00.
    342 vectors produced by pass  2 Test12= 1.41D-13 1.00D-09 XBig12= 1.08D+00 9.88D-02.
    342 vectors produced by pass  3 Test12= 1.41D-13 1.00D-09 XBig12= 5.97D-03 7.68D-03.
    342 vectors produced by pass  4 Test12= 1.41D-13 1.00D-09 XBig12= 1.87D-05 2.98D-04.
    295 vectors produced by pass  5 Test12= 1.41D-13 1.00D-09 XBig12= 3.50D-08 9.57D-06.
     77 vectors produced by pass  6 Test12= 1.41D-13 1.00D-09 XBig12= 5.18D-11 4.00D-07.
      3 vectors produced by pass  7 Test12= 1.41D-13 1.00D-09 XBig12= 6.75D-14 1.82D-08.
 InvSVY:  IOpt=1 It=  1 EMax= 1.78D-14
 Solved reduced A of dimension  2085 with   345 vectors.
 Isotropic polarizability for W=    0.000000      509.74 Bohr**3.
 End of Minotr F.D. properties file   721 does not exist.
 End of Minotr F.D. properties file   722 does not exist.
 End of Minotr F.D. properties file   788 does not exist.
 Hyperfine terms turned off by default for NAtoms > 100.

 **********************************************************************

            Population analysis using the SCF Density.

 **********************************************************************

 Orbital symmetries:
       Occupied  (A) (A) (A) (A) (A) (A) (A) (A) (A) (A) (A) (A)
                 (A) (A) (A) (A) (A) (A) (A) (A) (A) (A) (A) (A)
                 (A) (A) (A) (A) (A) (A) (A) (A) (A) (A) (A) (A)
                 (A) (A) (A) (A) (A) (A) (A) (A) (A) (A) (A) (A)
                 (A) (A) (A) (A) (A) (A) (A) (A) (A) (A) (A) (A)
                 (A) (A) (A) (A) (A) (A) (A) (A) (A) (A) (A) (A)
                 (A) (A) (A) (A) (A) (A) (A) (A) (A) (A) (A) (A)
                 (A) (A) (A) (A) (A) (A) (A) (A) (A) (A) (A) (A)
                 (A) (A) (A) (A) (A) (A) (A) (A) (A) (A) (A) (A)
                 (A) (A) (A) (A) (A) (A) (A) (A) (A) (A) (A) (A)
                 (A) (A) (A) (A) (A) (A) (A) (A) (A) (A) (A) (A)
                 (A) (A) (A) (A) (A) (A) (A) (A) (A) (A) (A) (A)
                 (A) (A) (A) (A) (A) (A) (A) (A) (A) (A) (A) (A)
                 (A) (A) (A) (A) (A) (A) (A) (A) (A) (A) (A) (A)
                 (A) (A) (A) (A) (A) (A) (A) (A) (A) (A) (A) (A)
                 (A) (A) (A) (A) (A) (A) (A) (A) (A) (A) (A) (A)
                 (A) (A) (A) (A) (A) (A) (A) (A) (A) (A) (A) (A)
                 (A) (A) (A) (A) (A)
       Virtual   (A) (A) (A) (A) (A) (A) (A) (A) (A) (A) (A) (A)
                 (A) (A) (A) (A) (A) (A) (A) (A) (A) (A) (A) (A)
                 (A) (A) (A) (A) (A) (A) (A) (A) (A) (A) (A) (A)
                 (A) (A) (A) (A) (A) (A) (A) (A) (A) (A) (A) (A)
                 (A) (A) (A) (A) (A) (A) (A) (A) (A) (A) (A) (A)
                 (A) (A) (A) (A) (A) (A) (A) (A) (A) (A) (A) (A)
                 (A) (A) (A) (A) (A) (A) (A) (A) (A) (A) (A) (A)
                 (A) (A) (A) (A) (A) (A) (A) (A) (A) (A) (A) (A)
                 (A) (A) (A) (A) (A) (A) (A) (A) (A) (A) (A) (A)
                 (A) (A) (A) (A) (A) (A) (A) (A) (A) (A) (A) (A)
                 (A) (A) (A) (A) (A) (A) (A) (A) (A) (A) (A) (A)
                 (A) (A) (A) (A) (A) (A) (A) (A) (A) (A) (A) (A)
                 (A) (A) (A) (A) (A) (A) (A) (A) (A) (A) (A) (A)
                 (A) (A) (A) (A) (A) (A) (A) (A) (A) (A) (A) (A)
                 (A) (A) (A) (A) (A) (A) (A) (A) (A) (A) (A) (A)
                 (A) (A) (A) (A) (A) (A) (A) (A) (A) (A) (A) (A)
                 (A) (A) (A) (A) (A) (A) (A) (A) (A) (A) (A) (A)
                 (A) (A) (A) (A) (A) (A) (A) (A) (A) (A) (A) (A)
                 (A) (A) (A) (A) (A) (A) (A) (A) (A) (A) (A) (A)
                 (A) (A) (A) (A) (A) (A) (A) (A) (A) (A) (A) (A)
                 (A) (A) (A) (A) (A) (A) (A) (A) (A) (A) (A) (A)
                 (A) (A) (A) (A) (A) (A) (A) (A) (A) (A) (A) (A)
                 (A) (A) (A) (A) (A) (A) (A) (A) (A) (A) (A) (A)
                 (A) (A) (A) (A) (A) (A) (A) (A) (A) (A) (A) (A)
                 (A) (A) (A) (A) (A) (A) (A) (A) (A) (A) (A) (A)
                 (A) (A) (A) (A) (A) (A) (A) (A) (A) (A) (A) (A)
                 (A) (A) (A) (A) (A) (A) (A) (A) (A) (A) (A) (A)
                 (A) (A) (A) (A) (A) (A) (A) (A) (A) (A) (A) (A)
                 (A) (A) (A) (A) (A) (A) (A) (A) (A) (A) (A) (A)
                 (A) (A) (A) (A) (A) (A) (A) (A) (A) (A) (A) (A)
                 (A) (A) (A) (A) (A) (A) (A) (A) (A) (A) (A) (A)
                 (A) (A) (A) (A) (A) (A) (A) (A) (A) (A) (A) (A)
                 (A) (A) (A) (A) (A) (A) (A) (A) (A) (A) (A) (A)
                 (A) (A) (A) (A) (A) (A) (A) (A) (A) (A) (A) (A)
                 (A) (A) (A) (A) (A) (A) (A) (A) (A) (A) (A) (A)
                 (A) (A) (A) (A) (A) (A) (A) (A) (A) (A) (A) (A)
                 (A) (A) (A) (A) (A) (A) (A) (A) (A) (A) (A) (A)
                 (A) (A) (A) (A) (A) (A) (A) (A) (A) (A) (A) (A)
                 (A) (A) (A) (A) (A) (A) (A) (A) (A) (A) (A) (A)
                 (A) (A) (A) (A) (A) (A) (A) (A) (A) (A) (A) (A)
                 (A) (A) (A) (A) (A) (A) (A) (A) (A) (A) (A) (A)
                 (A) (A) (A) (A) (A) (A) (A) (A) (A) (A) (A) (A)
                 (A) (A) (A) (A) (A) (A) (A) (A) (A) (A) (A) (A)
                 (A) (A) (A) (A) (A) (A) (A) (A) (A) (A) (A) (A)
                 (A) (A) (A) (A) (A) (A) (A) (A) (A) (A) (A) (A)
                 (A) (A) (A) (A) (A) (A) (A) (A) (A) (A) (A) (A)
                 (A) (A) (A) (A) (A) (A) (A) (A) (A) (A) (A) (A)
                 (A) (A) (A) (A) (A) (A) (A) (A) (A) (A) (A) (A)
                 (A) (A) (A) (A) (A) (A) (A) (A) (A) (A) (A) (A)
                 (A) (A) (A) (A) (A) (A) (A) (A) (A) (A) (A) (A)
                 (A) (A) (A) (A) (A) (A) (A) (A) (A) (A) (A) (A)
                 (A) (A) (A) (A) (A) (A) (A) (A) (A) (A) (A) (A)
                 (A) (A) (A) (A) (A) (A) (A) (A) (A) (A) (A) (A)
                 (A) (A) (A) (A) (A) (A) (A) (A) (A) (A) (A) (A)
                 (A) (A) (A) (A) (A) (A) (A) (A) (A) (A) (A) (A)
                 (A) (A) (A) (A) (A) (A) (A) (A) (A) (A) (A) (A)
                 (A) (A) (A)
 The electronic state is 1-A.
 Alpha  occ. eigenvalues --  -24.82999 -24.82800 -24.82383 -19.21220 -19.21120
 Alpha  occ. eigenvalues --  -19.21019 -19.20767 -19.20484 -19.20201 -19.16401
 Alpha  occ. eigenvalues --  -14.45605 -14.45369 -14.40408 -10.51250 -10.32701
 Alpha  occ. eigenvalues --  -10.32210 -10.32102 -10.31045 -10.30888 -10.30194
 Alpha  occ. eigenvalues --  -10.30138 -10.29801 -10.29673 -10.29510 -10.29473
 Alpha  occ. eigenvalues --  -10.29370 -10.29148 -10.28949 -10.28753 -10.28368
 Alpha  occ. eigenvalues --  -10.28087 -10.25372 -10.23868 -10.23639 -10.23359
 Alpha  occ. eigenvalues --  -10.23299 -10.23106 -10.23003 -10.22956 -10.22894
 Alpha  occ. eigenvalues --  -10.22880 -10.22840 -10.22833 -10.22729 -10.22618
 Alpha  occ. eigenvalues --  -10.22218 -10.22145 -10.22077 -10.22065 -10.21708
 Alpha  occ. eigenvalues --   -6.81558  -6.81338  -6.81078  -3.64881  -2.07274
 Alpha  occ. eigenvalues --   -2.06545  -2.06038  -1.35604  -1.27126  -1.26560
 Alpha  occ. eigenvalues --   -1.07170  -1.06614  -1.06302  -1.02223  -1.00676
 Alpha  occ. eigenvalues --   -1.00147  -0.99721  -0.99559  -0.98110  -0.91762
 Alpha  occ. eigenvalues --   -0.86153  -0.84106  -0.83556  -0.81279  -0.80711
 Alpha  occ. eigenvalues --   -0.80518  -0.80414  -0.79241  -0.76156  -0.75697
 Alpha  occ. eigenvalues --   -0.74989  -0.74971  -0.73789  -0.71221  -0.70640
 Alpha  occ. eigenvalues --   -0.70264  -0.69936  -0.69358  -0.68830  -0.68773
 Alpha  occ. eigenvalues --   -0.68379  -0.67687  -0.67417  -0.65554  -0.65086
 Alpha  occ. eigenvalues --   -0.64535  -0.62611  -0.61962  -0.61605  -0.61477
 Alpha  occ. eigenvalues --   -0.61359  -0.60390  -0.59671  -0.57531  -0.57036
 Alpha  occ. eigenvalues --   -0.55630  -0.55186  -0.55063  -0.54833  -0.54027
 Alpha  occ. eigenvalues --   -0.53877  -0.53383  -0.52493  -0.51342  -0.50564
 Alpha  occ. eigenvalues --   -0.49511  -0.49187  -0.49151  -0.48772  -0.48749
 Alpha  occ. eigenvalues --   -0.47926  -0.47780  -0.47391  -0.47117  -0.46873
 Alpha  occ. eigenvalues --   -0.46725  -0.46373  -0.46182  -0.46115  -0.45719
 Alpha  occ. eigenvalues --   -0.45541  -0.45144  -0.45081  -0.44935  -0.44633
 Alpha  occ. eigenvalues --   -0.44498  -0.44422  -0.44232  -0.44004  -0.43524
 Alpha  occ. eigenvalues --   -0.43332  -0.43047  -0.42896  -0.42691  -0.41930
 Alpha  occ. eigenvalues --   -0.41128  -0.40766  -0.40619  -0.40382  -0.40359
 Alpha  occ. eigenvalues --   -0.40251  -0.40142  -0.40114  -0.40008  -0.39914
 Alpha  occ. eigenvalues --   -0.39818  -0.39730  -0.39640  -0.39344  -0.39254
 Alpha  occ. eigenvalues --   -0.39118  -0.38367  -0.38199  -0.37973  -0.37899
 Alpha  occ. eigenvalues --   -0.37541  -0.37345  -0.37318  -0.37307  -0.36760
 Alpha  occ. eigenvalues --   -0.36634  -0.36431  -0.36359  -0.36097  -0.36031
 Alpha  occ. eigenvalues --   -0.35713  -0.35432  -0.35370  -0.35013  -0.34657
 Alpha  occ. eigenvalues --   -0.34368  -0.33792  -0.33621  -0.33438  -0.33025
 Alpha  occ. eigenvalues --   -0.32616  -0.32559  -0.32305  -0.32187  -0.31849
 Alpha  occ. eigenvalues --   -0.31643  -0.31501  -0.31238  -0.31074  -0.30981
 Alpha  occ. eigenvalues --   -0.30547  -0.30069  -0.28409  -0.28275  -0.27318
 Alpha  occ. eigenvalues --   -0.27262  -0.27056  -0.26400  -0.26113  -0.25967
 Alpha  occ. eigenvalues --   -0.23835  -0.23643  -0.22278  -0.18837
 Alpha virt. eigenvalues --   -0.07611  -0.04152  -0.03423   0.00744   0.01907
 Alpha virt. eigenvalues --    0.03494   0.05092   0.06002   0.06431   0.06592
 Alpha virt. eigenvalues --    0.07331   0.08143   0.09259   0.09429   0.10299
 Alpha virt. eigenvalues --    0.10647   0.11015   0.11259   0.11432   0.11627
 Alpha virt. eigenvalues --    0.11789   0.12144   0.12450   0.12935   0.13104
 Alpha virt. eigenvalues --    0.13288   0.13646   0.13707   0.14189   0.14293
 Alpha virt. eigenvalues --    0.14474   0.14861   0.15109   0.15128   0.15200
 Alpha virt. eigenvalues --    0.15514   0.15626   0.15878   0.16066   0.16267
 Alpha virt. eigenvalues --    0.16389   0.16456   0.16642   0.16798   0.16911
 Alpha virt. eigenvalues --    0.17056   0.17281   0.17426   0.17533   0.18199
 Alpha virt. eigenvalues --    0.18363   0.18400   0.18807   0.18845   0.18968
 Alpha virt. eigenvalues --    0.19213   0.19260   0.19445   0.19597   0.20141
 Alpha virt. eigenvalues --    0.20201   0.20291   0.20706   0.20788   0.20891
 Alpha virt. eigenvalues --    0.21145   0.21205   0.21446   0.21770   0.22023
 Alpha virt. eigenvalues --    0.22080   0.22326   0.22416   0.22694   0.22865
 Alpha virt. eigenvalues --    0.23154   0.23262   0.23423   0.23631   0.23859
 Alpha virt. eigenvalues --    0.24019   0.24187   0.24466   0.24644   0.24938
 Alpha virt. eigenvalues --    0.25021   0.25403   0.25636   0.25770   0.25952
 Alpha virt. eigenvalues --    0.26415   0.26594   0.26807   0.27079   0.27306
 Alpha virt. eigenvalues --    0.27641   0.27838   0.28065   0.28178   0.28747
 Alpha virt. eigenvalues --    0.29454   0.29731   0.29980   0.30413   0.30592
 Alpha virt. eigenvalues --    0.30879   0.31560   0.31824   0.32151   0.32688
 Alpha virt. eigenvalues --    0.32993   0.34211   0.34787   0.35368   0.35831
 Alpha virt. eigenvalues --    0.36680   0.36856   0.37314   0.37840   0.37938
 Alpha virt. eigenvalues --    0.38801   0.39047   0.39570   0.41229   0.41876
 Alpha virt. eigenvalues --    0.42715   0.43131   0.44731   0.45835   0.47025
 Alpha virt. eigenvalues --    0.47936   0.48396   0.48661   0.49029   0.49344
 Alpha virt. eigenvalues --    0.49907   0.50345   0.50626   0.50991   0.51217
 Alpha virt. eigenvalues --    0.51255   0.51504   0.51931   0.52599   0.52993
 Alpha virt. eigenvalues --    0.53152   0.53270   0.53785   0.54470   0.54902
 Alpha virt. eigenvalues --    0.55209   0.55646   0.56205   0.56301   0.56627
 Alpha virt. eigenvalues --    0.56870   0.57023   0.57215   0.57299   0.57535
 Alpha virt. eigenvalues --    0.57947   0.58083   0.58381   0.58586   0.58778
 Alpha virt. eigenvalues --    0.58959   0.59420   0.59649   0.59875   0.60092
 Alpha virt. eigenvalues --    0.60221   0.60624   0.60926   0.61476   0.61688
 Alpha virt. eigenvalues --    0.62113   0.62263   0.62429   0.62786   0.63066
 Alpha virt. eigenvalues --    0.63320   0.63400   0.63903   0.64321   0.65037
 Alpha virt. eigenvalues --    0.65335   0.65658   0.65928   0.66472   0.66797
 Alpha virt. eigenvalues --    0.67135   0.67332   0.67741   0.68009   0.68172
 Alpha virt. eigenvalues --    0.68525   0.68803   0.69268   0.69559   0.70140
 Alpha virt. eigenvalues --    0.70641   0.70802   0.71048   0.71202   0.71510
 Alpha virt. eigenvalues --    0.71822   0.72005   0.72483   0.72882   0.73130
 Alpha virt. eigenvalues --    0.73662   0.74003   0.74514   0.75077   0.75245
 Alpha virt. eigenvalues --    0.75495   0.75720   0.75960   0.76236   0.76406
 Alpha virt. eigenvalues --    0.76991   0.77932   0.78189   0.78390   0.78563
 Alpha virt. eigenvalues --    0.78997   0.79114   0.79885   0.80015   0.80489
 Alpha virt. eigenvalues --    0.80864   0.81005   0.81638   0.81976   0.82798
 Alpha virt. eigenvalues --    0.82926   0.83334   0.83538   0.83797   0.83907
 Alpha virt. eigenvalues --    0.84222   0.84496   0.84590   0.84806   0.85051
 Alpha virt. eigenvalues --    0.85480   0.85741   0.85976   0.86230   0.86305
 Alpha virt. eigenvalues --    0.86524   0.86824   0.87339   0.87499   0.87546
 Alpha virt. eigenvalues --    0.87821   0.88003   0.88376   0.88657   0.88761
 Alpha virt. eigenvalues --    0.89040   0.89156   0.89439   0.89605   0.89828
 Alpha virt. eigenvalues --    0.90369   0.90579   0.90623   0.90697   0.91021
 Alpha virt. eigenvalues --    0.91135   0.91528   0.91848   0.91996   0.92350
 Alpha virt. eigenvalues --    0.92551   0.92599   0.92968   0.93334   0.93610
 Alpha virt. eigenvalues --    0.93845   0.94130   0.94561   0.94853   0.95158
 Alpha virt. eigenvalues --    0.95272   0.95436   0.95832   0.95946   0.96330
 Alpha virt. eigenvalues --    0.96637   0.97135   0.97692   0.97748   0.98315
 Alpha virt. eigenvalues --    0.98383   0.98689   0.99613   0.99833   1.00360
 Alpha virt. eigenvalues --    1.00525   1.00580   1.00715   1.01928   1.02035
 Alpha virt. eigenvalues --    1.02147   1.03093   1.03969   1.04213   1.04991
 Alpha virt. eigenvalues --    1.05416   1.05727   1.06827   1.07112   1.07904
 Alpha virt. eigenvalues --    1.08203   1.09279   1.09405   1.10062   1.10352
 Alpha virt. eigenvalues --    1.11293   1.11449   1.11781   1.12416   1.13448
 Alpha virt. eigenvalues --    1.14176   1.14405   1.14719   1.14831   1.15609
 Alpha virt. eigenvalues --    1.16393   1.16666   1.16976   1.17383   1.18079
 Alpha virt. eigenvalues --    1.18355   1.18596   1.19264   1.20015   1.20791
 Alpha virt. eigenvalues --    1.21292   1.21466   1.21917   1.22238   1.22689
 Alpha virt. eigenvalues --    1.23309   1.23523   1.24551   1.24719   1.25129
 Alpha virt. eigenvalues --    1.26027   1.26456   1.27225   1.27643   1.28513
 Alpha virt. eigenvalues --    1.29010   1.29471   1.30544   1.30948   1.31133
 Alpha virt. eigenvalues --    1.32414   1.34086   1.34193   1.34776   1.34977
 Alpha virt. eigenvalues --    1.35687   1.36265   1.36880   1.37276   1.37799
 Alpha virt. eigenvalues --    1.38184   1.38877   1.39077   1.39562   1.40065
 Alpha virt. eigenvalues --    1.40324   1.40857   1.41426   1.41687   1.42299
 Alpha virt. eigenvalues --    1.42704   1.43098   1.43514   1.43988   1.44641
 Alpha virt. eigenvalues --    1.44829   1.44983   1.45718   1.46024   1.46494
 Alpha virt. eigenvalues --    1.46738   1.47238   1.47338   1.47780   1.48254
 Alpha virt. eigenvalues --    1.48859   1.49595   1.50634   1.51367   1.51821
 Alpha virt. eigenvalues --    1.53135   1.54183   1.54569   1.54715   1.55752
 Alpha virt. eigenvalues --    1.56071   1.56887   1.57841   1.58962   1.60506
 Alpha virt. eigenvalues --    1.61403   1.62568   1.63456   1.64073   1.64458
 Alpha virt. eigenvalues --    1.64623   1.64931   1.65905   1.66159   1.66888
 Alpha virt. eigenvalues --    1.67384   1.68001   1.68149   1.68718   1.69428
 Alpha virt. eigenvalues --    1.69491   1.70436   1.70764   1.71674   1.72769
 Alpha virt. eigenvalues --    1.73058   1.73940   1.74816   1.75055   1.75537
 Alpha virt. eigenvalues --    1.75812   1.76149   1.76980   1.77374   1.78021
 Alpha virt. eigenvalues --    1.78317   1.78573   1.78965   1.79386   1.79950
 Alpha virt. eigenvalues --    1.80190   1.80554   1.81161   1.82050   1.82333
 Alpha virt. eigenvalues --    1.82397   1.82604   1.83785   1.83927   1.84473
 Alpha virt. eigenvalues --    1.84833   1.85064   1.85500   1.85955   1.86665
 Alpha virt. eigenvalues --    1.86969   1.87267   1.87909   1.88520   1.88750
 Alpha virt. eigenvalues --    1.89008   1.89289   1.89784   1.89971   1.90469
 Alpha virt. eigenvalues --    1.90796   1.91010   1.91349   1.91580   1.91804
 Alpha virt. eigenvalues --    1.91876   1.92220   1.92659   1.93231   1.93474
 Alpha virt. eigenvalues --    1.93582   1.93732   1.94247   1.94609   1.95092
 Alpha virt. eigenvalues --    1.95354   1.95720   1.96060   1.96701   1.96746
 Alpha virt. eigenvalues --    1.97371   1.98153   1.98380   1.98971   1.99458
 Alpha virt. eigenvalues --    1.99727   2.00471   2.01109   2.01436   2.02258
 Alpha virt. eigenvalues --    2.02423   2.02731   2.03165   2.03535   2.03771
 Alpha virt. eigenvalues --    2.04162   2.04385   2.05493   2.05904   2.06068
 Alpha virt. eigenvalues --    2.06916   2.06967   2.07737   2.07899   2.08275
 Alpha virt. eigenvalues --    2.08577   2.08948   2.09273   2.09621   2.09796
 Alpha virt. eigenvalues --    2.09920   2.10334   2.11041   2.11419   2.11839
 Alpha virt. eigenvalues --    2.11972   2.12431   2.13221   2.13315   2.14076
 Alpha virt. eigenvalues --    2.14207   2.14774   2.14962   2.15186   2.15932
 Alpha virt. eigenvalues --    2.16145   2.16560   2.16694   2.17121   2.17313
 Alpha virt. eigenvalues --    2.18082   2.18778   2.19108   2.19155   2.19797
 Alpha virt. eigenvalues --    2.19918   2.20352   2.20470   2.20563   2.21349
 Alpha virt. eigenvalues --    2.21867   2.22105   2.22695   2.22935   2.23488
 Alpha virt. eigenvalues --    2.23709   2.24229   2.24472   2.24620   2.25116
 Alpha virt. eigenvalues --    2.25475   2.25772   2.26134   2.26474   2.26726
 Alpha virt. eigenvalues --    2.27130   2.27587   2.27765   2.28488   2.28962
 Alpha virt. eigenvalues --    2.29216   2.29743   2.31057   2.31802   2.31865
 Alpha virt. eigenvalues --    2.33054   2.33275   2.33623   2.34012   2.34435
 Alpha virt. eigenvalues --    2.34734   2.35466   2.36176   2.36831   2.37409
 Alpha virt. eigenvalues --    2.38509   2.38928   2.39295   2.39849   2.40304
 Alpha virt. eigenvalues --    2.41232   2.41672   2.41784   2.43709   2.44987
 Alpha virt. eigenvalues --    2.45776   2.46982   2.47198   2.47486   2.48032
 Alpha virt. eigenvalues --    2.48955   2.49835   2.50146   2.50263   2.51555
 Alpha virt. eigenvalues --    2.52273   2.53599   2.54324   2.54865   2.57184
 Alpha virt. eigenvalues --    2.58390   2.58710   2.60304   2.61093   2.61471
 Alpha virt. eigenvalues --    2.61603   2.62329   2.63342   2.64128   2.64705
 Alpha virt. eigenvalues --    2.65136   2.65628   2.66545   2.67049   2.68048
 Alpha virt. eigenvalues --    2.68727   2.69689   2.70401   2.72815   2.76152
 Alpha virt. eigenvalues --    2.76287   2.76985   2.77359   2.77667   2.77952
 Alpha virt. eigenvalues --    2.78150   2.78506   2.79221   2.79899   2.80614
 Alpha virt. eigenvalues --    2.80842   2.81242   2.81832   2.82535   2.82746
 Alpha virt. eigenvalues --    2.83768   2.84989   2.86267   2.89799   2.90221
 Alpha virt. eigenvalues --    2.91367   2.92351   2.93789   2.94472   2.95031
 Alpha virt. eigenvalues --    2.95921   2.96440   2.97398   3.00392   3.03620
 Alpha virt. eigenvalues --    3.04652   3.06790   3.07058   3.08491   3.08885
 Alpha virt. eigenvalues --    3.10030   3.11678   3.12870   3.14023   3.15197
 Alpha virt. eigenvalues --    3.22356   3.26380   3.31597   3.45355  13.10263
          Condensed to atoms (all electrons):
 Mulliken charges:
               1
     1  C    0.329603
     2  C    0.081023
     3  C   -0.087391
     4  C   -0.151278
     5  C   -0.190541
     6  C    0.363522
     7  C    0.036162
     8  C   -0.149429
     9  C   -0.137266
    10  C   -0.157874
    11  H    0.226329
    12  H    0.198751
    13  H    0.178288
    14  H    0.203113
    15  H    0.184267
    16  H    0.172516
    17  N   -0.534606
    18  N   -0.496877
    19  O   -0.515683
    20  O   -0.504040
    21  O   -0.498560
    22  B    0.541224
    23  B    0.423415
    24  B    0.471754
    25  O   -0.531029
    26  O   -0.513582
    27  C    0.296253
    28  C    0.285781
    29  C    0.279482
    30  C    0.289808
    31  C    0.288475
    32  C    0.292604
    33  O   -0.497886
    34  C   -0.494954
    35  H    0.179102
    36  H    0.157897
    37  H    0.144892
    38  C   -0.510047
    39  H    0.160598
    40  H    0.174120
    41  H    0.153417
    42  C   -0.506563
    43  H    0.151054
    44  H    0.165229
    45  H    0.173515
    46  C   -0.520250
    47  H    0.150095
    48  H    0.155945
    49  H    0.183287
    50  C   -0.509994
    51  H    0.177353
    52  H    0.150882
    53  H    0.170008
    54  C   -0.499710
    55  H    0.183683
    56  H    0.147236
    57  H    0.151819
    58  C   -0.500750
    59  H    0.163794
    60  H    0.151191
    61  H    0.176393
    62  C   -0.504380
    63  H    0.152559
    64  H    0.160235
    65  H    0.169018
    66  C   -0.509545
    67  H    0.173561
    68  H    0.177720
    69  H    0.153127
    70  C   -0.504682
    71  H    0.163239
    72  H    0.169652
    73  H    0.154654
    74  C   -0.502518
    75  H    0.179885
    76  H    0.142077
    77  H    0.173972
    78  C   -0.503490
    79  H    0.149776
    80  H    0.161192
    81  H    0.172411
    82  H    0.166721
    83  C    0.571809
    84  O   -0.536703
    85  C   -0.401439
    86  H    0.151698
    87  H    0.166104
    88  C   -0.339073
    89  H    0.182963
    90  H    0.135232
    91  N   -0.358735
    92  C   -0.366699
    93  H    0.159861
    94  H    0.165317
    95  H    0.219822
    96  C   -0.262562
    97  H    0.142464
    98  H    0.131205
    99  C   -0.279026
   100  H    0.127945
   101  H    0.177027
   102  C   -0.281084
   103  H    0.145073
   104  H    0.138314
   105  C   -0.497954
   106  H    0.158598
   107  H    0.156763
   108  H    0.162760
   109  C    0.967517
   110  F   -0.310098
   111  F   -0.305787
   112  F   -0.317247
   113  H    0.183235
   114  Ir  -0.138056
 Sum of Mulliken charges =  -0.00000
 Mulliken charges with hydrogens summed into heavy atoms:
               1
     1  C    0.329603
     2  C    0.307352
     3  C   -0.087391
     4  C    0.047473
     5  C   -0.012252
     6  C    0.363522
     7  C    0.239275
     8  C    0.033807
     9  C    0.047001
    10  C    0.014642
    17  N   -0.534606
    18  N   -0.496877
    19  O   -0.515683
    20  O   -0.504040
    21  O   -0.498560
    22  B    0.541224
    23  B    0.423415
    24  B    0.471754
    25  O   -0.531029
    26  O   -0.513582
    27  C    0.296253
    28  C    0.285781
    29  C    0.279482
    30  C    0.289808
    31  C    0.288475
    32  C    0.292604
    33  O   -0.497886
    34  C   -0.013062
    38  C   -0.021911
    42  C   -0.016766
    46  C   -0.030922
    50  C   -0.011751
    54  C   -0.016972
    58  C   -0.009372
    62  C   -0.022569
    66  C   -0.005138
    70  C   -0.017136
    74  C   -0.006585
    78  C   -0.020111
    83  C    0.571809
    84  O   -0.536703
    85  C   -0.083637
    88  C   -0.020878
    91  N   -0.358735
    92  C    0.178300
    96  C    0.011107
    99  C    0.025946
   102  C    0.002302
   105  C   -0.019833
   109  C    0.967517
   110  F   -0.310098
   111  F   -0.305787
   112  F   -0.317247
   114  Ir   0.028664
 APT charges:
               1
     1  C    0.254381
     2  C    0.073378
     3  C   -0.204527
     4  C    0.102505
     5  C   -0.196288
     6  C    0.153915
     7  C    0.041089
     8  C   -0.058840
     9  C    0.109746
    10  C   -0.131055
    11  H    0.124506
    12  H    0.062067
    13  H    0.045172
    14  H    0.060299
    15  H    0.037100
    16  H    0.041416
    17  N   -0.078893
    18  N   -0.148114
    19  O   -1.001923
    20  O   -0.932265
    21  O   -0.979080
    22  B    1.164614
    23  B    1.314870
    24  B    1.367201
    25  O   -1.013367
    26  O   -0.949624
    27  C    0.497261
    28  C    0.493504
    29  C    0.499374
    30  C    0.500417
    31  C    0.462350
    32  C    0.472080
    33  O   -0.889875
    34  C   -0.027212
    35  H    0.007567
    36  H    0.003559
    37  H   -0.026540
    38  C   -0.006412
    39  H   -0.005712
    40  H    0.005067
    41  H   -0.018693
    42  C   -0.006435
    43  H   -0.016480
    44  H   -0.001373
    45  H    0.004002
    46  C   -0.060287
    47  H   -0.020822
    48  H    0.005380
    49  H    0.041990
    50  C   -0.001985
    51  H    0.003437
    52  H   -0.017487
    53  H    0.006713
    54  C   -0.022249
    55  H    0.009367
    56  H   -0.015263
    57  H   -0.019197
    58  C   -0.025533
    59  H    0.000849
    60  H   -0.023679
    61  H    0.003492
    62  C   -0.010064
    63  H   -0.011562
    64  H   -0.006748
    65  H    0.000949
    66  C   -0.041604
    67  H    0.004346
    68  H    0.012097
    69  H   -0.023042
    70  C   -0.008843
    71  H    0.000178
    72  H    0.003209
    73  H   -0.019563
    74  C   -0.033082
    75  H    0.026163
    76  H   -0.026693
    77  H    0.002056
    78  C   -0.006003
    79  H   -0.017431
    80  H   -0.001924
    81  H    0.001306
    82  H   -0.005988
    83  C    0.913729
    84  O   -0.734695
    85  C   -0.001091
    86  H   -0.039491
    87  H   -0.022258
    88  C    0.356247
    89  H   -0.027695
    90  H   -0.090621
    91  N   -0.811431
    92  C    0.258338
    93  H   -0.038247
    94  H   -0.030201
    95  H    0.069282
    96  C    0.118512
    97  H   -0.012890
    98  H   -0.068506
    99  C    0.067518
   100  H   -0.058544
   101  H    0.014568
   102  C    0.135761
   103  H   -0.049377
   104  H   -0.062697
   105  C    0.059073
   106  H   -0.043745
   107  H   -0.020664
   108  H   -0.014807
   109  C    1.790044
   110  F   -0.522612
   111  F   -0.591284
   112  F   -0.594427
   113  H    0.044487
   114  Ir  -0.899487
 Sum of APT charges =  -0.00000
 APT charges with hydrogens summed into heavy atoms:
               1
     1  C    0.254381
     2  C    0.197884
     3  C   -0.204527
     4  C    0.164572
     5  C   -0.151116
     6  C    0.153915
     7  C    0.101389
     8  C   -0.014353
     9  C    0.146846
    10  C   -0.089639
    17  N   -0.078893
    18  N   -0.148114
    19  O   -1.001923
    20  O   -0.932265
    21  O   -0.979080
    22  B    1.164614
    23  B    1.314870
    24  B    1.367201
    25  O   -1.013367
    26  O   -0.949624
    27  C    0.497261
    28  C    0.493504
    29  C    0.499374
    30  C    0.500417
    31  C    0.462350
    32  C    0.472080
    33  O   -0.889875
    34  C   -0.042626
    38  C   -0.025750
    42  C   -0.020286
    46  C   -0.033740
    50  C   -0.009323
    54  C   -0.047342
    58  C   -0.044871
    62  C   -0.027425
    66  C   -0.048204
    70  C   -0.025019
    74  C   -0.031556
    78  C   -0.024052
    83  C    0.913729
    84  O   -0.734695
    85  C   -0.062840
    88  C    0.237931
    91  N   -0.811431
    92  C    0.259172
    96  C    0.037117
    99  C    0.023541
   102  C    0.023687
   105  C   -0.020143
   109  C    1.790044
   110  F   -0.522612
   111  F   -0.591284
   112  F   -0.594427
   114  Ir  -0.905475
 Electronic spatial extent (au):  <R**2>=          34077.5460
 Charge=             -0.0000 electrons
 Dipole moment (field-independent basis, Debye):
    X=             -0.9483    Y=              3.8104    Z=              1.6915  Tot=              4.2754
 Quadrupole moment (field-independent basis, Debye-Ang):
   XX=           -330.1348   YY=           -315.8970   ZZ=           -325.7498
   XY=            -15.4025   XZ=             -3.4802   YZ=             10.6463
 Traceless Quadrupole moment (field-independent basis, Debye-Ang):
   XX=             -6.2076   YY=              8.0302   ZZ=             -1.8226
   XY=            -15.4025   XZ=             -3.4802   YZ=             10.6463
 Octapole moment (field-independent basis, Debye-Ang**2):
  XXX=            145.4615  YYY=             18.3493  ZZZ=             69.3565  XYY=             16.7492
  XXY=             63.4339  XXZ=            -37.7214  XZZ=            -51.1081  YZZ=              7.7345
  YYZ=            -41.1369  XYZ=             -5.9349
 Hexadecapole moment (field-independent basis, Debye-Ang**3):
 XXXX=         -23263.8346 YYYY=         -12291.7127 ZZZZ=          -8665.2971 XXXY=           -389.9862
 XXXZ=            230.5049 YYYX=           -186.4983 YYYZ=           -121.6867 ZZZX=            -14.7537
 ZZZY=            -37.3219 XXYY=          -5872.8304 XXZZ=          -5308.9094 YYZZ=          -3610.5572
 XXYZ=             82.3686 YYXZ=            -16.0972 ZZXY=            -61.0734
 N-N= 9.270124037263D+03 E-N=-2.461820194560D+04  KE= 2.527200091596D+03
  Exact polarizability:     563.797     -43.755     477.930      -8.744       1.815     487.490
 Approx polarizability:     747.966     -88.373     673.890      -5.541     -10.907     783.817
   1 Symmetry operations used in ECPInt.
 ECPInt:  NShTT=   57970 NPrTT=  353525 LenC2=   42232 LenP2D=  129387.
 LDataN:  DoStor=T MaxTD1= 8 Len=  415
 Calling FoFJK, ICntrl=    100127 FMM=F ISym2X=0 I1Cent= 0 IOpClX= 0 NMat=1 NMatS=1 NMatT=0.
 Defaulting to unpruned grid for atomic number  77.
 Defaulting to unpruned grid for atomic number  77.
 Defaulting to unpruned grid for atomic number  77.
 Defaulting to unpruned grid for atomic number  77.
 Defaulting to unpruned grid for atomic number  77.
 Defaulting to unpruned grid for atomic number  77.
 Defaulting to unpruned grid for atomic number  77.
 Defaulting to unpruned grid for atomic number  77.
 Defaulting to unpruned grid for atomic number  77.
 Defaulting to unpruned grid for atomic number  77.
 Defaulting to unpruned grid for atomic number  77.
 Defaulting to unpruned grid for atomic number  77.
 Defaulting to unpruned grid for atomic number  77.
 Defaulting to unpruned grid for atomic number  77.
 Defaulting to unpruned grid for atomic number  77.
 Defaulting to unpruned grid for atomic number  77.
 Full mass-weighted force constant matrix:
 Low frequencies ---   -6.2604   -5.3106   -1.8593    0.0003    0.0007    0.0008
 Low frequencies ---    5.4753   13.2812   20.9753
 Diagonal vibrational polarizability:
      186.8636525      93.6539207      50.9776129
 Harmonic frequencies (cm**-1), IR intensities (KM/Mole), Raman scattering
 activities (A**4/AMU), depolarization ratios for plane and unpolarized
 incident light, reduced masses (AMU), force constants (mDyne/A),
 and normal coordinates:
                      1                      2                      3
                      A                      A                      A
 Frequencies --      4.0398                12.9791                20.9369
 Red. masses --      4.1049                 5.2012                 5.2390
 Frc consts  --      0.0000                 0.0005                 0.0014
 IR Inten    --      0.0423                 0.1636                 0.2971
  Atom AN      X      Y      Z        X      Y      Z        X      Y      Z
     1   6    -0.01  -0.03  -0.01    -0.02   0.01  -0.02    -0.04   0.01  -0.05
     2   6     0.00  -0.01  -0.00    -0.03  -0.01  -0.01    -0.03   0.03  -0.01
     3   6    -0.00  -0.01  -0.00    -0.06  -0.03  -0.01    -0.04   0.05  -0.01
     4   6    -0.01  -0.03  -0.01    -0.06  -0.03  -0.02    -0.06   0.04  -0.03
     5   6    -0.02  -0.04  -0.01    -0.04  -0.00  -0.02    -0.06   0.02  -0.05
     6   6    -0.02  -0.04  -0.01    -0.00   0.02  -0.03    -0.03   0.00  -0.07
     7   6    -0.02  -0.04  -0.01     0.01   0.02  -0.03     0.01   0.00  -0.08
     8   6    -0.03  -0.06  -0.02     0.01   0.02  -0.04    -0.01  -0.00  -0.10
     9   6    -0.04  -0.07  -0.02     0.01   0.04  -0.04    -0.03  -0.00  -0.11
    10   6    -0.03  -0.06  -0.02     0.00   0.04  -0.03    -0.05  -0.00  -0.09
    11   1     0.01  -0.00  -0.00    -0.03  -0.02  -0.01    -0.01   0.03   0.00
    12   1    -0.02  -0.03  -0.01    -0.08  -0.04  -0.02    -0.07   0.05  -0.03
    13   1    -0.03  -0.05  -0.01    -0.04  -0.00  -0.03    -0.08   0.01  -0.06
    14   1    -0.01  -0.04  -0.01     0.01   0.01  -0.03     0.03   0.00  -0.08
    15   1    -0.05  -0.08  -0.02     0.02   0.05  -0.04    -0.05  -0.01  -0.12
    16   1    -0.04  -0.06  -0.02     0.00   0.05  -0.03    -0.07  -0.00  -0.09
    17   7    -0.00  -0.02  -0.01    -0.01   0.01  -0.02    -0.03   0.01  -0.03
    18   7    -0.01  -0.04  -0.01     0.00   0.01  -0.03    -0.01   0.00  -0.07
    19   8     0.01   0.01   0.01     0.03   0.01   0.04     0.00  -0.01  -0.03
    20   8    -0.03  -0.00   0.00     0.03  -0.01  -0.03     0.01   0.04   0.06
    21   8     0.03  -0.01  -0.01     0.02   0.03  -0.03     0.01  -0.02  -0.01
    22   5    -0.02  -0.01  -0.00     0.01   0.01  -0.03     0.01  -0.00   0.03
    23   5    -0.00   0.00   0.00     0.01   0.01   0.02     0.01  -0.02  -0.03
    24   5     0.02  -0.01  -0.01     0.01   0.02  -0.02     0.00  -0.01  -0.01
    25   8     0.03   0.00  -0.00     0.00   0.01  -0.02    -0.01  -0.01   0.00
    26   8    -0.01   0.01   0.01    -0.02   0.01   0.03     0.01  -0.03  -0.02
    27   6    -0.00   0.02   0.01    -0.02  -0.00   0.06     0.01  -0.03  -0.03
    28   6    -0.00   0.03   0.01     0.02  -0.00   0.06     0.00  -0.01  -0.03
    29   6     0.05   0.00  -0.01     0.03   0.04  -0.03    -0.00  -0.03   0.01
    30   6     0.05   0.00  -0.01     0.01   0.02  -0.04    -0.01  -0.02   0.01
    31   6    -0.04  -0.01   0.00     0.03  -0.01  -0.06     0.02   0.03   0.11
    32   6    -0.05  -0.01   0.00    -0.00   0.02  -0.07     0.03  -0.03   0.12
    33   8    -0.03  -0.02  -0.00    -0.01   0.03  -0.05     0.02  -0.04   0.06
    34   6    -0.01   0.03   0.01     0.04  -0.01   0.07     0.00  -0.01  -0.01
    35   1    -0.01   0.03   0.01     0.06  -0.00   0.07     0.01  -0.00  -0.01
    36   1    -0.02   0.02   0.01     0.04   0.00   0.06    -0.01  -0.01  -0.02
    37   1    -0.02   0.04   0.02     0.04  -0.02   0.09    -0.00  -0.00  -0.00
    38   6     0.01   0.04   0.01     0.03  -0.01   0.09     0.00  -0.01  -0.04
    39   1     0.02   0.04   0.01     0.01  -0.01   0.08     0.01  -0.01  -0.04
    40   1     0.01   0.04   0.01     0.05  -0.01   0.09    -0.00   0.00  -0.03
    41   1     0.01   0.05   0.02     0.02  -0.02   0.11     0.00  -0.01  -0.04
    42   6    -0.02   0.03   0.02    -0.03  -0.00   0.08     0.01  -0.04  -0.02
    43   1    -0.02   0.04   0.02    -0.03  -0.01   0.10     0.01  -0.04  -0.01
    44   1    -0.03   0.03   0.02    -0.02  -0.00   0.07     0.02  -0.03  -0.01
    45   1    -0.02   0.03   0.01    -0.05  -0.00   0.07     0.00  -0.04  -0.02
    46   6     0.01   0.03   0.01    -0.03  -0.00   0.07     0.01  -0.03  -0.04
    47   1     0.01   0.04   0.01    -0.03  -0.01   0.09     0.01  -0.03  -0.05
    48   1     0.00   0.02   0.01    -0.06   0.00   0.07     0.01  -0.04  -0.04
    49   1     0.02   0.02   0.01    -0.03  -0.00   0.06     0.00  -0.02  -0.04
    50   6    -0.05   0.01   0.01     0.04  -0.02  -0.05     0.03   0.05   0.15
    51   1    -0.04   0.01   0.01     0.06  -0.04  -0.05     0.02   0.10   0.14
    52   1    -0.06   0.00   0.01     0.04  -0.01  -0.08     0.04   0.04   0.19
    53   1    -0.05   0.02   0.01     0.03  -0.01  -0.03     0.03   0.02   0.13
    54   6    -0.04  -0.02  -0.00     0.04  -0.02  -0.10     0.02   0.07   0.13
    55   1    -0.04  -0.02  -0.00     0.07  -0.04  -0.09     0.02   0.12   0.12
    56   1    -0.04  -0.03  -0.00     0.04  -0.01  -0.10     0.02   0.06   0.11
    57   1    -0.05  -0.02   0.00     0.04  -0.02  -0.12     0.03   0.07   0.18
    58   6    -0.05   0.00   0.01    -0.02   0.03  -0.04     0.03  -0.07   0.12
    59   1    -0.04   0.01   0.01    -0.01   0.02  -0.01     0.03  -0.05   0.08
    60   1    -0.06   0.01   0.01    -0.01   0.03  -0.05     0.03  -0.06   0.16
    61   1    -0.05   0.00   0.01    -0.04   0.05  -0.04     0.04  -0.12   0.11
    62   6    -0.06  -0.02   0.00    -0.01   0.03  -0.11     0.04  -0.05   0.16
    63   1    -0.07  -0.02   0.00    -0.00   0.03  -0.12     0.04  -0.04   0.20
    64   1    -0.05  -0.03  -0.00    -0.01   0.03  -0.12     0.03  -0.03   0.16
    65   1    -0.06  -0.02   0.00    -0.04   0.05  -0.10     0.04  -0.09   0.16
    66   6     0.06  -0.01  -0.01     0.01   0.01  -0.06    -0.01  -0.01   0.03
    67   1     0.05  -0.01  -0.01    -0.00  -0.00  -0.06    -0.01   0.00   0.03
    68   1     0.05  -0.02  -0.02     0.01   0.01  -0.07    -0.01  -0.00   0.02
    69   1     0.07  -0.01  -0.01     0.02   0.02  -0.07    -0.02  -0.01   0.04
    70   6     0.05   0.02  -0.00     0.01   0.02  -0.02    -0.01  -0.02   0.03
    71   1     0.04   0.03   0.00     0.01   0.03  -0.00    -0.01  -0.03   0.01
    72   1     0.05   0.02  -0.00    -0.00   0.00  -0.03    -0.01  -0.00   0.03
    73   1     0.06   0.02  -0.00     0.02   0.03  -0.04    -0.02  -0.03   0.04
    74   6     0.04   0.02   0.00     0.04   0.05  -0.01     0.00  -0.05   0.00
    75   1     0.03   0.03   0.01     0.03   0.05   0.01     0.01  -0.05  -0.00
    76   1     0.06   0.03   0.00     0.04   0.06  -0.01    -0.00  -0.06   0.02
    77   1     0.04   0.02   0.00     0.05   0.06  -0.01     0.01  -0.06  -0.00
    78   6     0.07  -0.01  -0.01     0.05   0.04  -0.05    -0.01  -0.04   0.02
    79   1     0.08   0.00  -0.01     0.05   0.05  -0.06    -0.02  -0.04   0.03
    80   1     0.07  -0.02  -0.02     0.04   0.03  -0.07    -0.01  -0.02   0.02
    81   1     0.06  -0.00  -0.01     0.06   0.06  -0.05    -0.00  -0.05   0.01
    82   1     0.01  -0.02  -0.01     0.01   0.01  -0.02     0.03   0.00  -0.04
    83   6     0.01  -0.05  -0.01     0.01   0.00   0.04     0.01  -0.01  -0.01
    84   8     0.01  -0.06  -0.01     0.04   0.00   0.05     0.03  -0.02  -0.01
    85   6     0.02  -0.03  -0.00    -0.02  -0.01   0.07    -0.02  -0.02   0.02
    86   1     0.04  -0.07  -0.04    -0.04  -0.00   0.07    -0.04  -0.02   0.01
    87   1    -0.03  -0.05   0.04    -0.02  -0.01   0.08    -0.02  -0.02   0.02
    88   6     0.02  -0.04  -0.01     0.02   0.00  -0.01     0.01  -0.00  -0.05
    89   1     0.02  -0.04  -0.01     0.04  -0.02  -0.01     0.02  -0.03  -0.05
    90   1     0.03  -0.03  -0.02     0.02   0.01  -0.04     0.01   0.00  -0.08
    91   7     0.01  -0.04  -0.01    -0.00   0.01   0.01    -0.00   0.01  -0.03
    92   6     0.02  -0.02  -0.01    -0.03   0.02   0.01    -0.02   0.02  -0.03
    93   1    -0.02   0.04  -0.02    -0.04   0.01   0.02    -0.03   0.03  -0.03
    94   1     0.08  -0.01   0.01    -0.05   0.02   0.01    -0.03   0.03  -0.02
    95   1    -0.01  -0.07  -0.02    -0.03   0.03  -0.01    -0.02   0.02  -0.05
    96   6     0.05   0.07  -0.00    -0.00  -0.03   0.11    -0.00  -0.03   0.04
    97   1     0.10   0.08  -0.03     0.01  -0.02   0.10     0.01  -0.02   0.03
    98   1     0.07   0.08  -0.01    -0.03  -0.04   0.13    -0.03  -0.04   0.06
    99   6    -0.01   0.13   0.05     0.04  -0.04   0.13     0.03  -0.03   0.07
   100   1    -0.07   0.12   0.08     0.02  -0.04   0.14     0.00  -0.03   0.08
   101   1    -0.03   0.11   0.05     0.07  -0.03   0.11     0.05  -0.02   0.05
   102   6     0.03   0.23   0.06     0.06  -0.06   0.18     0.05  -0.03   0.12
   103   1     0.08   0.24   0.03     0.07  -0.05   0.17     0.07  -0.03   0.10
   104   1     0.05   0.25   0.05     0.02  -0.07   0.20     0.02  -0.04   0.14
   105   6    -0.04   0.30   0.11     0.10  -0.07   0.20     0.08  -0.04   0.15
   106   1    -0.01   0.37   0.12     0.11  -0.08   0.23     0.10  -0.04   0.18
   107   1    -0.10   0.29   0.14     0.08  -0.07   0.22     0.06  -0.04   0.17
   108   1    -0.06   0.28   0.11     0.13  -0.06   0.18     0.11  -0.03   0.13
   109   6     0.00  -0.00  -0.00    -0.08  -0.06  -0.01    -0.03   0.08   0.01
   110   9     0.02   0.00   0.00    -0.07  -0.04  -0.02    -0.03   0.05   0.04
   111   9    -0.00   0.01   0.00    -0.08  -0.08   0.05    -0.03   0.09  -0.04
   112   9     0.01  -0.01  -0.00    -0.12  -0.09  -0.03    -0.01   0.12   0.03
   113   1    -0.03  -0.07  -0.02     0.02   0.02  -0.04     0.01  -0.00  -0.12
   114  77     0.00  -0.02  -0.01     0.01   0.01  -0.01     0.00   0.00  -0.03
                      4                      5                      6
[...]
 000664,-0.00004174,0.00007725,0.00000106,0.00006882,-0.00005010,-0.000
 05126,0.00005509,-0.00002468,-0.00003329,-0.00000515,0.00000016,0.0000
 0815,-0.00003643,-0.00000241,0.00000635,0.00001935,0.00000219,-0.00000
 429,0.00001083,0.00000545,-0.00000346,0.00000474,-0.00000821,-0.000004
 40,0.00000212,-0.00001043,-0.00000328,-0.00000447,-0.00000378,0.000023
 73,0.00000637,0.00007554,0.00002420,0.00000598,-0.00006562,-0.00000972
 ,-0.00000073,-0.00000041,0.00000203,0.00000068,-0.00000040,0.00000043,
 0.00000093,0.00000097,-0.00000001,-0.00000139,-0.00000011,-0.00000071,
 -0.00000046,-0.00000058,0.00000206,0.00000051,-0.00000071,-0.00000054,
 0.00000010,0.00000029,0.00000122,-0.00000079,-0.00000011,-0.00000084,-
 0.00000147,0.00000135,-0.00000181,-0.00000195,-0.00000039,0.00000038,0
 .00000005,-0.00000105,0.00000041,0.00000148,0.00000028,0.00000088,-0.0
 0000441,-0.00000030,-0.00000275,-0.00000284,0.00000070,0.00000113,0.00
 000265,0.00000022,0.00000258,0.00000095,-0.00000095,-0.00000165,-0.000
 00488,0.00000306,-0.00000430,0.00000188,0.00000071,-0.00000189,-0.0000
 0101,-0.00000467,0.00000068,-0.00000215,-0.00000066,0.00000059,0.00000
 061,0.00002908,-0.00003856,0.00002092,0.00000021,-0.00001418,-0.000113
 67,0.00001174,0.00005133,-0.00001173,-0.00001812,0.00001041,0.00000990
 ,-0.00001569,-0.00001414,0.00000960,-0.00000129,0.00000185,-0.00000461
 ,-0.00000309,0.00000182,-0.00000115,0.00000403,0.00000002,-0.00002688,
 -0.00003219,-0.00003610,-0.00000168,-0.00000442,0.00000621,-0.00003970
 ,0.00000905,-0.00000528,0.00001184,0.00000948,0.00000373,0.00000205,0.
 00000123,-0.00000143,0.00000032,-0.00000133,0.00000070,-0.00000112,-0.
 00000179,-0.00000115,-0.00000153,0.00000126,0.00000163,-0.00000115,0.0
 0000049,-0.00000118,-0.00000012,-0.00000040,-0.00000033,0.00000031,-0.
 00000105,0.00000005,0.00000016,0.00000092,0.00000115,-0.00000067,-0.00
 000016,0.00000124,0.00000025,0.00000005,-0.00000008,-0.00000097,0.0000
 0115,-0.00000003,0.00000049,-0.00000035,0.00000002,0.00000124,0.000000
 03,0.00000135,-0.00000121,0.00000084,-0.00000050,-0.00000039,-0.000001
 14,-0.00000022,0.00000064,-0.00000070,0.00000005,-0.00001324,0.0000086
 9,0.00000092,-0.00003991,0.00006277,0.00002843,0.00005732,0.00002182,0
 .00000079,-0.00008453,-0.00006614,0.00014476,0.00004687,0.00009667,-0.
 00011282,0.00002819,0.00001014,-0.00004338,-0.00004800,0.00000145,-0.0
 0003501,0.00000138,0.00000783,0.00000164,0.00001228,0.00001068,-0.0000
 0275,0.00002992,-0.00002654,-0.00001672,-0.00000293,-0.00002919,0.0000
 2973,0.00000221,0.00000851,-0.00000012,0.00000367,0.00001196,-0.000010
 33,0.00000339,0.00000417,-0.00000366,0.00001233,0.00006630,0.00013580,
 0.00006374,0.00012108,-0.00006550,0.00000217,0.00002317,-0.00000185,0.
 00000406,-0.00002462,-0.00006576,-0.00001426,-0.00003228,0.00000304,-0
 .00000351,-0.00000911,0.00000848,0.00000592,0.00001797,0.00001727,-0.0
 0000306,-0.00000056,-0.00002373,0.00000855,0.00000045,0.00000730,0.000
 00259,-0.00000042,-0.00001112,0.00000003,0.00000145,0.00000076,-0.0000
 0280,-0.00000709,-0.00000046,0.00000123,-0.00000501,0.00000431,0.00007
 371,-0.00004462,0.00004201,-0.00002286,0.00002476,0.00000108,-0.000033
 40,0.00000200,-0.00001207,-0.00001203,0.00001404,-0.00001864,0.1135811
 8,-0.09456229,0.16802899,-0.00079730,-0.00009123,0.00693962,0.00027219
 ,0.00240960,-0.00754383,0.00125015,0.00232335,-0.00073347,-0.00079752,
 0.00016256,0.00003600,0.00043871,0.00286256,0.00143195,-0.00152732,-0.
 00155015,0.01383992,-0.01306507,0.01094183,-0.00459571,0.00348987,-0.0
 0067743,0.00027110,-0.00120664,0.00050134,0.00216836,0.00096414,0.0018
 8911,-0.00286350,-0.00121826,-0.00078381,-0.00131348,-0.00023231,-0.00
 024488,-0.00003664,-0.00006414,-0.00005580,0.00058574,-0.00040144,-0.0
 0067588,0.00196619,-0.00010921,-0.00026969,0.00004265,0.00049494,-0.00
 025718,-0.00029653,-0.03437560,-0.00052711,-0.00476272,-0.03124269,0.0
 0287813,-0.00209113,-0.02152779,-0.00189026,0.00313235,0.00252397,-0.0
 0273098,-0.00030141,0.00297650,0.00297879,0.00255829,-0.03225723,-0.01
 657860,0.00511135,-0.08749817,0.00539338,0.00129991,-0.04554689,0.0291
 3402,0.02702328,-0.00042619,0.00650731,0.00006567,-0.02204161,-0.00578
 323,-0.00856644,0.00371439,-0.00240959,-0.00148227,0.00498583,0.001504
 18,0.00282981,0.00118794,-0.00097169,-0.00012404,0.00145696,-0.0002952
 1,-0.00191776,-0.00003866,0.00099673,0.00091937,0.00036950,-0.00063471
 ,0.00068542,0.00407247,0.00375843,0.00032182,-0.00127729,0.00005783,-0
 .00038299,0.00005668,0.00009679,0.00008030,0.00007921,0.00015587,-0.00
 018588,-0.00030628,-0.00057818,0.00004607,-0.00087532,-0.00074265,-0.0
 0036009,0.00011136,0.00006577,-0.00006653,0.00003847,0.00000969,0.0001
 5835,-0.00047623,0.00025631,0.00010960,-0.00108368,0.00069269,0.000122
 40,-0.00045434,-0.00027910,-0.00021805,0.00004541,-0.00000891,0.000101
 63,0.00002104,-0.00002828,-0.00021923,-0.00064371,-0.00005837,0.000252
 18,-0.00021901,0.00037579,-0.00011505,0.00000385,-0.00004683,-0.000178
 64,-0.00003646,-0.00025121,0.00016669,-0.00012431,-0.00013967,-0.00011
 630,0.00000734,0.00005816,-0.00007362,0.00005462,-0.00000150,-0.000008
 68,0.00010789,0.00012208,0.00007111,-0.00004279,-0.00035829,-0.0000163
 7,-0.00008063,-0.00004924,-0.00000229,0.00011673,-0.00014094,-0.000044
 48,0.00013124,0.00004924,0.00004679,-0.00005925,0.00074469,-0.00000688
 ,0.00010989,-0.00001314,-0.00009432,0.00030658,0.00003806,0.00011018,-
 0.00003484,0.00000771,0.00001948,0.00020852,0.00004463,-0.00006959,-0.
 00006445,0.00012777,0.00000581,0.00004448,-0.00007010,0.00000542,-0.00
 002335,-0.00002199,0.00001155,-0.00020281,0.00055565,0.00038649,-0.000
 05386,-0.00000151,-0.00002054,0.00009993,-0.00000402,0.00008918,0.0001
 4064,0.00018740,-0.00006766,-0.00011769,-0.00017437,-0.00007458,0.0001
 2654,-0.00001889,-0.00007231,-0.00001312,-0.00002059,0.00000685,0.0000
 9854,0.00002251,0.00005116,-0.00014747,-0.00022863,-0.00021582,0.00021
 292,-0.00015013,-0.00005934,0.00010045,0.00013808,0.00001829,0.0000174
 3,-0.00001517,-0.00001771,-0.00012484,0.00024273,-0.00000261,0.0000222
 7,0.00002645,0.00005788,0.00005244,0.00008669,-0.00005602,-0.00006372,
 -0.00001806,0.00003293,-0.04039386,0.00356206,-0.01673350,0.00352913,-
 0.00349666,-0.00554043,-0.00058107,0.00057353,0.00271997,-0.00024650,0
 .00094677,0.00023173,-0.00010480,0.00008044,-0.00008822,0.00009812,-0.
 00003730,0.00006697,-0.04005662,-0.00017123,-0.00178413,-0.00607200,-0
 .00682951,0.00059833,0.00307119,0.00222342,-0.00071578,-0.02270120,-0.
 00865370,-0.00186893,-0.00057542,-0.00000426,0.00071698,-0.00030819,-0
 .00040725,0.00007330,0.00035684,-0.00025147,-0.00000135,-0.00020868,0.
 00056582,-0.00005435,0.00004535,0.00007733,-0.00022323,0.00000779,-0.0
 0002259,0.00007264,-0.00018816,0.00004024,0.00001748,0.00001039,0.0001
 0375,0.00004294,-0.00002024,-0.00001332,-0.00002987,0.00008084,0.00006
 513,-0.00003639,0.00004173,-0.00007929,-0.00002296,0.00000467,-0.00000
 056,0.00000660,-0.00003483,0.00001474,-0.00000776,-0.00002886,0.000047
 35,0.00002045,-0.00005500,-0.00000865,0.00003494,0.00000632,-0.0000169
 3,-0.00001729,0.00001911,-0.00000317,-0.00000829,-0.00160231,-0.000048
 23,-0.00011890,0.00042444,-0.00020341,-0.00007698,0.00069270,0.0001704
 5,0.00000981,0.00025209,0.00005682,-0.00013948,0.00025535,-0.00026360,
 -0.00013684,0.37466913,0.00142379,0.00043906,-0.00338386,0.00314881,-0
 .00030250,0.00847742,0.00201304,0.00270363,0.00097775,0.00032016,-0.00
 088822,0.00033933,0.00305126,0.00206537,-0.00080050,-0.00271778,0.0010
 7301,-0.01271522,0.01122534,-0.00623917,0.00567585,-0.00101257,0.00277
 656,-0.00011061,0.00128765,-0.00066334,-0.00084558,0.00006502,0.002169
 27,0.00303773,-0.00103594,-0.00154259,0.00036929,-0.00028727,-0.000382
 32,-0.00001393,0.00001035,0.00000086,-0.00042462,-0.00015827,-0.001163
 17,-0.00189460,-0.00023807,-0.00019246,-0.00003363,-0.00060605,0.00024
 593,0.00034993,-0.00156241,-0.03607253,0.00178834,-0.00121491,-0.01741
 937,0.00853918,-0.00359621,0.00169045,-0.00037402,-0.01199821,-0.01660
 270,0.00362997,0.00753479,-0.01417480,-0.01179145,0.01650613,-0.057865
 34,0.01165473,-0.00528173,-0.00321662,0.00869194,0.02259540,-0.0654313
 1,-0.02266679,0.01406539,-0.02032213,-0.00306901,-0.00061982,0.0022607
 7,0.00051173,0.00075135,-0.00025886,0.00011380,-0.00027516,-0.00037167
 ,0.00056754,-0.00216367,0.00369600,0.00006070,0.00196708,0.00371323,0.
 00284592,-0.00360649,0.00586046,-0.00012192,0.00077528,0.00319585,-0.0
 0254636,-0.00635405,-0.02483186,-0.00870807,0.00005354,-0.00009411,-0.
 00035291,0.00008700,-0.00005264,-0.00007170,0.00030456,0.00027184,0.00
 036094,-0.00010473,0.00009979,-0.00001715,-0.00009437,-0.00018887,-0.0
 0010735,-0.00012206,0.00024670,-0.00008670,-0.00003614,-0.00009591,0.0
 0003821,-0.00002570,0.00013437,0.00007935,-0.00002926,-0.00006870,-0.0
 0002270,-0.00001640,0.00005112,0.00003604,0.00012444,0.00017629,0.0000
 0496,0.00003495,-0.00002868,-0.00000246,-0.00012803,-0.00010534,-0.000
 17347,0.00003895,0.00009621,0.00002566,0.00003813,0.00005002,0.0000201
 7,-0.00033602,-0.00005032,-0.00012009,0.00065316,-0.00122672,-0.000135
 50,-0.00002539,0.00007293,0.00017008,-0.00031156,-0.00052092,0.0001534
 0,0.00000804,0.00004744,-0.00010782,0.00025416,-0.00016615,-0.00014136
 ,-0.00005119,0.00013319,0.00006793,-0.00026436,0.00020175,-0.00003193,
 0.00017557,-0.00035298,0.00005539,-0.00001181,-0.00153556,0.00031206,0
 .00012697,0.00005070,0.00017019,-0.00065052,-0.00032742,-0.00021766,0.
 00008651,0.00007157,-0.00012255,-0.00082321,-0.00065951,0.00008896,0.0
 0024636,-0.00046708,-0.00007655,0.00008476,0.00011553,0.00011952,0.000
 05383,0.00000128,-0.00023714,0.00010278,-0.00050491,-0.00043396,-0.000
 00458,0.00003963,0.00015640,0.00013005,0.00021672,-0.00002505,-0.00004
 209,-0.00045559,0.00001454,-0.00020188,-0.00132180,-0.00074440,0.00002
 544,0.00009506,-0.00007954,0.00001952,-0.00002818,0.00019628,0.0005513
 9,-0.00038578,-0.00001134,0.00035213,-0.00099694,-0.00018587,-0.000101
 31,-0.00016333,0.00012735,0.00053350,-0.00003903,-0.00023461,-0.000085
 29,0.00005376,-0.00011333,0.00072074,-0.00045345,-0.00015239,-0.000053
 03,-0.00038119,-0.00019135,-0.00001945,0.00013214,0.00011239,-0.000069
 43,0.00007718,-0.00016025,0.00106875,-0.03829796,0.01981005,0.00212152
 ,-0.00182726,0.00025777,-0.00085230,0.00114042,-0.00054254,-0.00026290
 ,-0.00023577,0.00030527,0.00018039,0.00003310,-0.00001135,0.00020072,0
 .00010609,0.00005451,-0.00384874,-0.04382262,0.00382582,-0.00543474,-0
 .00459707,-0.00006731,-0.00823184,-0.00590985,0.00159348,-0.00281355,0
 .00635624,-0.00266680,-0.00000564,-0.00038215,-0.00038012,-0.00022245,
 -0.00002221,0.00026666,-0.00002762,-0.00000473,-0.00028094,0.00019747,
 0.00014578,0.00021967,-0.00001294,-0.00005985,-0.00001905,-0.00002394,
 0.00001624,0.00005975,-0.00004099,0.00002226,-0.00001609,-0.00000799,-
 0.00000381,0.00002152,0.00001791,0.00001981,0.00002377,0.00000269,0.00
 001031,-0.00003878,0.00001221,-0.00003231,-0.00002065,0.00000352,0.000
 01573,0.00002535,-0.00002073,0.00001154,-0.00001176,-0.00000320,-0.000
 00004,0.00001179,-0.00001968,0.00000295,0.00000877,0.00001323,0.000005
 08,0.00000709,0.00000049,-0.00000007,-0.00001862,-0.00004958,-0.001030
 87,-0.00018064,-0.00014411,0.00043080,0.00027666,-0.00006117,0.0002767
 8,-0.00003227,-0.00001206,0.00002572,0.00016443,-0.00036019,0.00012429
 ,0.00010119,-0.02657346,0.33176983,0.02316343,-0.01370977,-0.01431937,
 -0.01411787,0.01468693,-0.01635018,0.00083348,-0.00112186,0.00972980,0
 .00402814,-0.00314772,-0.00557032,-0.00396265,0.00355571,0.00097063,0.
 00388227,-0.00090886,-0.01696318,0.00026988,-0.00011823,0.00952328,-0.
 00414650,0.00298366,0.00125952,-0.00012219,0.00048228,-0.00373523,0.00
 190840,-0.00100167,-0.00029919,0.00111291,-0.00127132,-0.00005998,0.00
 007987,-0.00007365,0.00027572,-0.00005395,-0.00012573,0.00080144,-0.00
 177225,0.00113634,-0.00037593,-0.00006309,0.00004865,-0.00005558,0.000
 14770,-0.00013334,-0.00011410,-0.00483586,-0.00286431,-0.00962731,-0.0
 0600941,0.00821569,-0.03060238,0.01186024,-0.00013327,0.00476883,0.001
 64105,0.01167738,0.00067721,0.00812005,-0.01998715,-0.00980193,0.00369
 577,0.00463960,-0.02520613,0.00251258,0.01353562,-0.03833066,0.0090034
 4,-0.01891412,-0.05525145,-0.00101298,0.00801962,0.00828468,-0.0190824
 8,-0.00271424,-0.00056253,0.00207330,-0.00174300,-0.00246228,-0.000376
 22,-0.00176878,-0.00206294,-0.00308827,0.00254656,-0.00180201,-0.00168
 435,0.00037084,-0.00156839,0.00182352,-0.00074739,-0.00138742,0.001403
 11,-0.00087136,-0.00112055,-0.00030035,-0.01052134,0.00111992,0.000139
 80,-0.00001613,0.00018002,-0.00006033,-0.00005617,0.00010879,-0.000033
 62,0.00010299,-0.00007386,0.00008082,0.00010723,-0.00001264,0.00079314
 ,0.00022392,0.00070902,-0.00006534,0.00003526,-0.00011356,-0.00015293,
 0.00001812,0.00013112,0.00033742,-0.00013148,-0.00013410,-0.00117122,0
 .00039192,0.00065186,-0.00043029,-0.00024409,-0.00027411,0.00009908,0.
 00001356,-0.00002529,0.00011459,0.00005768,0.00008645,-0.00043355,-0.0
 0001922,0.00028601,-0.00017528,0.00026827,-0.00011147,0.00008330,-0.00
 004381,0.00007317,0.00003867,0.00002218,-0.00008905,-0.00031754,0.0007
 9769,0.00033757,-0.00002675,-0.00006089,0.00005666,0.00019617,0.000265
 90,-0.00012450,-0.00001132,-0.00005044,-0.00002729,-0.00003531,0.00017
 641,0.00006761,0.00001727,0.00001182,0.00001377,-0.00003774,-0.0000187
 7,0.00003071,-0.00010514,0.00006836,-0.00008257,0.00001710,-0.00006509
 ,0.00015335,-0.00006697,0.00004206,-0.00009584,-0.00006538,-0.00007291
 ,-0.00002085,-0.00000230,0.00004503,0.00006736,-0.00028020,-0.00054873
 ,0.00037989,0.00014071,-0.00025345,-0.00009626,0.00003348,0.00004121,0
 .00000158,-0.00005143,0.00007076,0.00004568,-0.00017905,-0.00004535,0.
 00015177,0.00002919,-0.00008690,0.00010272,0.00019946,0.00014094,-0.00
 010280,0.00017550,0.00003192,-0.00002321,0.00007437,0.00051903,0.00075
 537,0.00001442,-0.00001711,-0.00010901,0.00009615,-0.00011247,0.000111
 68,-0.00025923,0.00018051,-0.00005950,0.00034290,-0.00076806,0.0001082
 8,-0.00006225,0.00006244,0.00003019,0.00043165,-0.00007024,-0.00022025
 ,-0.00008554,0.00001860,0.00007758,0.00092896,-0.00111455,0.00026368,-
 0.00013482,-0.00048521,-0.00036756,-0.00005566,0.00014304,0.00004821,0
 .00004672,0.00013209,0.00005598,-0.00611121,0.01718990,-0.15803341,0.0
 0258660,-0.00256711,-0.00448753,-0.00071807,-0.00013580,0.00301306,0.0
 0005202,0.00078424,0.00012377,-0.00025588,0.00017400,-0.00023722,0.000
 03333,0.00003531,0.00004295,0.01136462,0.00291221,-0.03236091,0.007708
 99,0.00949213,0.00139952,-0.00454419,-0.00477980,0.00047896,-0.0152138
 3,-0.00353504,-0.00118475,-0.00029590,-0.00113651,0.00071862,0.0001256
 9,0.00018246,-0.00026578,-0.00033977,0.00045147,-0.00032475,0.00025274
 ,-0.00031200,0.00005192,0.00001619,0.00003843,-0.00019083,-0.00000322,
 -0.00002941,0.00006728,-0.00011315,0.00002136,0.00001990,0.00000520,0.
 00003880,0.00002609,-0.00000295,0.00001189,0.00000044,0.00006242,0.000
 04354,-0.00003520,0.00001055,-0.00005346,-0.00004324,-0.00000039,0.000
 01822,0.00002079,-0.00001611,0.00000731,0.00000449,-0.00002052,0.00002
 566,0.00000869,-0.00002579,-0.00000607,0.00001314,0.00000926,0.0000016
 4,0.00000276,0.00000992,-0.00000981,-0.00000583,-0.00005948,-0.0004090
 2,0.00072193,-0.00028747,0.00042011,0.00007077,0.00013909,0.00006517,-
 0.00013853,-0.00001098,-0.00009508,0.00043695,-0.00060803,0.00025590,0
 .00028887,-0.01081205,-0.00883028,0.38709275\\0.00005506,-0.00005080,0
 .00007258,0.00024742,-0.00020152,0.00007906,-0.00005496,0.00003046,0.0
 0010014,0.00012342,-0.00009175,-0.00004060,-0.00006431,0.00007178,-0.0
 0010353,-0.00002544,0.00002541,0.00003016,-0.00011673,0.00013128,-0.00
 021544,0.00004831,-0.00004241,0.00007703,-0.00001465,0.00002336,-0.000
 08673,0.00006036,-0.00005052,0.00004244,-0.00003850,0.00002929,0.00002
 439,-0.00000425,0.00000318,0.00002158,-0.00000479,-0.00000124,0.000003
 92,-0.00001558,-0.00000732,0.00009233,-0.00002085,0.00001291,0.0000151
 8,0.00000216,0.00000448,-0.00002056,-0.00024475,0.00020783,-0.00012668
 ,0.00010059,-0.00011196,0.00008967,0.00006108,0.00000023,-0.00003328,-
 0.00004579,-0.00006439,0.00011673,0.00000198,0.00002301,0.00004974,0.0
 0002799,0.00008516,-0.00004968,-0.00004185,-0.00000002,0.00005367,0.00
 000361,-0.00002022,-0.00002452,-0.00000279,0.00002450,0.00000566,0.000
 00675,-0.00001700,-0.00005746,-0.00000923,-0.00001550,0.00008716,-0.00
 006772,0.00002248,-0.00002534,-0.00000754,0.00000388,-0.00001336,0.000
 00196,-0.00003409,-0.00000332,0.00002929,-0.00001179,-0.00005670,0.000
 00296,0.00000689,0.00003083,-0.00000031,-0.00004334,-0.00005350,0.0000
 5246,-0.00001730,-0.00004178,-0.00000101,-0.00000349,0.00002702,-0.000
 02545,0.00001782,0.00001444,-0.00001881,-0.00000544,-0.00000345,0.0001
 3116,-0.00000049,0.00003415,-0.00001199,0.00000011,0.00000166,-0.00001
 044,0.00000330,-0.00000997,-0.00007788,-0.00001769,-0.00002995,0.00003
 619,-0.00001756,-0.00006144,-0.00001908,0.00000728,0.00000973,0.000002
 26,0.00000144,0.00000560,-0.00000901,-0.00000566,0.00002729,0.00000295
 ,0.00002830,-0.00001443,0.00000195,-0.00000387,0.00000042,-0.00000190,
 0.00000453,0.00000942,-0.00000628,-0.00000630,-0.00000926,-0.00012629,
 0.00032414,0.00011869,0.00000233,-0.00002395,-0.00007848,0.00003882,-0
 .00024414,-0.00005464,0.00007516,-0.00003442,0.00002265,-0.00003014,-0
 .00013297,0.00002147,0.00000067,0.00000862,0.00000543,0.00004498,0.000
 04377,-0.00002428,-0.00002589,0.00008214,0.00000162,0.00002010,-0.0000
 2778,-0.00003541,-0.00001709,0.00001393,0.00000219,0.00001294,0.000024
 77,-0.00000106,-0.00000292,0.00000071,0.00001162,0.00009010,0.00015382
 ,-0.00002349,-0.00002987,-0.00011810,0.00002527,-0.00004395,-0.0000118
 1,-0.00002066,-0.00000098,-0.00000952,0.00000512,0.00003161,-0.0000346
 5,-0.00001844,-0.00000138,0.00000250,0.00000394,-0.00002579,0.00000954
 ,-0.00000229,-0.00000384,0.00002621,0.00001251,-0.00001123,0.00001836,
 -0.00002038,-0.00000374,-0.00000671,0.00000434,0.00000372,-0.00000516,
 0.00001554,-0.00000213,0.00000086,0.00000204,-0.00000913,0.00007087,0.
 00004920,-0.00001962,-0.00003590,-0.00002732,0.00002676,-0.00003320,-0
 .00000790,-0.00000263,-0.00000058,-0.00000876,0.00005307,0.00002544,-0
 .00007712,-0.00000173,-0.00000552,0.00000189,-0.00005331,-0.00001163,0
 .00003001,0.00000577,-0.00001762,0.00004308,-0.00000427,0.00001220,-0.
 00002057,0.00024068,-0.00008202,-0.00016612,-0.00001411,0.00000724,0.0
 0009517,-0.00006147,0.00004362,-0.00006554,-0.00000018,-0.00003033,0.0
 0003348,0.00000568,0.00000430,0.00000637,0.00004281,-0.00002399,-0.000
 09667,-0.00003562,-0.00000893,0.00007683,0.00001506,0.00000081,0.00001
 214,-0.00024285,0.00012108,0.00019432,0.00005076,0.00000322,-0.0000763
 2,-0.00000368,-0.00000910,-0.00000855,-0.00001020,-0.00002726,0.000014
 23,-0.00001225,0.00000701,-0.00000835,0.00003468,-0.00001058,0.0000274
 7,-0.00000222,0.00000597,0.00000385,-0.00001887,0.00001212,-0.00002255
 ,-0.00001188,-0.00001099,-0.00000721,0.00000485,0.00000031,0.00000959,
 0.00000030,-0.00000095,0.00000324,0.00001256,0.00002082,0.00001904,0.0
 0000063,0.00000148,-0.00000026,-0.00000310,0.00000195,-0.00000429,-0.0
 0000683,-0.00002613,-0.00002679,-0.00000995,0.00001043,0.00001277,0.00
 000683,0.00001167,0.00001916,0.00000791,-0.00000163,0.00000986,-0.0000
 4223,0.00005906,-0.00004370,0.00001535,-0.00002614,-0.00001069,0.00000
 825,-0.00000326,0.00000410,-0.00000174,-0.00000894,0.00001684,-0.00001
 213,0.00001077,-0.00002256,0.00001488,-0.00004308,0.00000433\\\@
 The archive entry for this job was punched.


 LAWS OF PROGRAMMING DEFINITION:  A WORKING PROGRAM
                                  IS ONE THAT HAS
                                  ONLY UNOBSERVED
                                  BUGS.
 Job cpu time:       2 days  0 hours 50 minutes  3.9 seconds.
 Elapsed time:       0 days  3 hours  6 minutes 37.2 seconds.
 File lengths (MBytes):  RWF=  10098 Int=      0 D2E=      0 Chk=     55 Scr=      1
 Normal termination of Gaussian 16 at Sat Dec  7 21:55:40 2024.
