/mnt/lustre/scratch/nvme/SLURM/9663788/usccqdma.nyRlYc94tj
OMP_STACKSIZE=0m
GAUSS_PDEF=16
GAUSS_MDEF=65536MB
GAUSS_RDEF=SCF=Direct
 Entering Gaussian System, Link 0=g16.exe
 Initial command:
 /opt/cesga/2020/software/Core/g16/c1/l1.exe "/mnt/lustre/scratch/nvme/SLURM/9663788/usccqdma.nyRlYc94tj/Gau-217257.inp" -scrdir="/mnt/lustre/scratch/nvme/SLURM/9663788/usccqdma.nyRlYc94tj/"
 Default is to use a total of  16 processors:
                               16 via shared-memory
                                1 via Linda
 Entering Link 1 = /opt/cesga/2020/software/Core/g16/c1/l1.exe PID=    217283.
  
 Copyright (c) 1988-2019, Gaussian, Inc.  All Rights Reserved.
  
 This is part of the Gaussian(R) 16 program.  It is based on
 the Gaussian(R) 09 system (copyright 2009, Gaussian, Inc.),
 the Gaussian(R) 03 system (copyright 2003, Gaussian, Inc.),
 the Gaussian(R) 98 system (copyright 1998, Gaussian, Inc.),
 the Gaussian(R) 94 system (copyright 1995, Gaussian, Inc.),
 the Gaussian 92(TM) system (copyright 1992, Gaussian, Inc.),
 the Gaussian 90(TM) system (copyright 1990, Gaussian, Inc.),
 the Gaussian 88(TM) system (copyright 1988, Gaussian, Inc.),
 the Gaussian 86(TM) system (copyright 1986, Carnegie Mellon
 University), and the Gaussian 82(TM) system (copyright 1983,
 Carnegie Mellon University). Gaussian is a federally registered
 trademark of Gaussian, Inc.
  
 This software contains proprietary and confidential information,
 including trade secrets, belonging to Gaussian, Inc.
  
 This software is provided under written license and may be
 used, copied, transmitted, or stored only in accord with that
 written license.
  
 The following legend is applicable only to US Government
 contracts under FAR:
  
                    RESTRICTED RIGHTS LEGEND
  
 Use, reproduction and disclosure by the US Government is
 subject to restrictions as set forth in subparagraphs (a)
 and (c) of the Commercial Computer Software - Restricted
 Rights clause in FAR 52.227-19.
  
 Gaussian, Inc.
 340 Quinnipiac St., Bldg. 40, Wallingford CT 06492
  
  
 ---------------------------------------------------------------
 Warning -- This program may not be used in any manner that
 competes with the business of Gaussian, Inc. or will provide
 assistance to any competitor of Gaussian, Inc.  The licensee
 of this program is prohibited from giving any competitor of
 Gaussian, Inc. access to this program.  By using this program,
 the user acknowledges that Gaussian, Inc. is engaged in the
 business of creating and licensing software in the field of
 computational chemistry and represents and warrants to the
 licensee that it is not a competitor of Gaussian, Inc. and that
 it will not use this program in any manner prohibited above.
 ---------------------------------------------------------------
  

 Cite this work as:
 Gaussian 16, Revision C.01,
 M. J. Frisch, G. W. Trucks, H. B. Schlegel, G. E. Scuseria, 
 M. A. Robb, J. R. Cheeseman, G. Scalmani, V. Barone, 
 G. A. Petersson, H. Nakatsuji, X. Li, M. Caricato, A. V. Marenich, 
 J. Bloino, B. G. Janesko, R. Gomperts, B. Mennucci, H. P. Hratchian, 
 J. V. Ortiz, A. F. Izmaylov, J. L. Sonnenberg, D. Williams-Young, 
 F. Ding, F. Lipparini, F. Egidi, J. Goings, B. Peng, A. Petrone, 
 T. Henderson, D. Ranasinghe, V. G. Zakrzewski, J. Gao, N. Rega, 
 G. Zheng, W. Liang, M. Hada, M. Ehara, K. Toyota, R. Fukuda, 
 J. Hasegawa, M. Ishida, T. Nakajima, Y. Honda, O. Kitao, H. Nakai, 
 T. Vreven, K. Throssell, J. A. Montgomery, Jr., J. E. Peralta, 
 F. Ogliaro, M. J. Bearpark, J. J. Heyd, E. N. Brothers, K. N. Kudin, 
 V. N. Staroverov, T. A. Keith, R. Kobayashi, J. Normand, 
 K. Raghavachari, A. P. Rendell, J. C. Burant, S. S. Iyengar, 
 J. Tomasi, M. Cossi, J. M. Millam, M. Klene, C. Adamo, R. Cammi, 
 J. W. Ochterski, R. L. Martin, K. Morokuma, O. Farkas, 
 J. B. Foresman, and D. J. Fox, Gaussian, Inc., Wallingford CT, 2019.
 
 ******************************************
 Gaussian 16:  ES64L-G16RevC.01  3-Jul-2019
                 7-Dec-2024 
 ******************************************
 Default route: SCF=Direct
 -
 #
 -
 1/38=1,172=1/1;
 2/12=2,17=6,18=5,40=1/2;
 3/11=9,25=1,30=1/1,2,3;
 4//1;
 5/5=2,38=5/2;
 6/7=2,8=2,9=2,10=2,28=1/1;
 99/5=1,9=1/99;
 ----------------------------------------------------------------------
 /Users/danielmarcosatanes/Desktop/Tesis/sp3/Estructuras_supporting_gjf
 /44f/N-CH3/bis-5-CF3-Bipy/OA/Ir(Bpin)3(R)(H)/L28-Ir(Bpin)3(R)(H).log
 ----------------------------------------------------------------------
 Symbolic Z-matrix:
 Charge =  0 Multiplicity = 1
 C                    -1.71214   1.8176    1.00532 
 C                    -3.15206   0.35019  -0.04893 
 C                    -4.24269   0.83711   0.66128 
 C                    -4.04332   1.85318   1.58708 
 C                    -2.76091   2.34708   1.7609 
 C                    -0.319     2.26928   1.15358 
 C                     1.91652   1.85118   0.68434 
 C                     2.3187    2.9351    1.44943 
 C                     1.35823   3.7345    2.05433 
 C                     0.02635   3.39512   1.89937 
 H                    -3.25495  -0.47866  -0.74783 
 H                    -4.87564   2.24401   2.1672 
 H                    -2.57997   3.128     2.49433 
 H                     2.63267   1.21191   0.16574 
 H                     1.64919   4.60635   2.63513 
 H                    -0.7435    4.01375   2.35183 
 N                    -1.91912   0.82354   0.11959 
 N                     0.62778   1.52706   0.5367 
 Ir                    0.00615  -0.11901  -0.7439 
 O                     1.71352  -1.40013   1.45353 
 O                     2.99295  -0.25105  -1.16689 
 O                    -0.0335   -3.25696  -0.26484 
 B                     1.76691  -0.85913  -1.41045 
 B                     0.41269  -1.09317   1.11696 
 B                    -0.71761  -2.06603  -0.45243 
 O                    -2.08564  -2.3084   -0.56206 
 O                    -0.41264  -1.12728   2.22916 
 C                     0.42986  -1.25377   3.3942 
 C                     1.72546  -1.8877    2.80529 
 C                    -0.9433   -4.32744  -0.57086 
 C                    -2.31993  -3.6875   -0.23629 
 C                     3.99296  -0.93801  -1.93856 
 C                     3.32841  -2.32784  -2.1486 
 O                     1.93501  -1.98868  -2.19223 
 C                     3.01689  -1.44076   3.46041 
 H                     3.8638   -1.94253   2.97387 
 H                     3.17066  -0.35972   3.36047 
 H                     3.03353  -1.70583   4.52739 
 C                     1.67035  -3.40665   2.73195 
 H                     2.51065  -3.76274   2.12193 
 H                     1.74228  -3.86777   3.72618 
 H                     0.74891  -3.74303   2.24136 
 C                     0.6459    0.15288   3.93649 
 H                    -0.33353   0.6141    4.12357 
 H                     1.20906   0.14546   4.87905 
 H                     1.18773   0.7818    3.21676 
 C                    -0.28405  -2.09735   4.43027 
 H                     0.35931  -2.26597   5.30582 
 H                    -1.19023  -1.57948   4.76978 
 H                    -0.58372  -3.07129   4.0276 
 C                     4.16805  -0.15651  -3.23305 
 H                     4.96999  -0.57114  -3.85868 
 H                     3.23662  -0.14504  -3.81458 
 H                     4.42398   0.88203  -2.98747 
 C                     5.28756  -0.95181  -1.15238 
 H                     5.14497  -1.37863  -0.1532 
 H                     6.06032  -1.53163  -1.67736 
 H                     5.65625   0.07542  -1.03018 
 C                     3.70884  -3.03174  -3.4343 
 H                     3.18718  -3.99599  -3.49395 
 H                     3.43062  -2.44391  -4.31593 
 H                     4.79022  -3.22837  -3.46833 
 C                     3.51725  -3.2622   -0.95847 
 H                     4.53932  -3.66274  -0.90864 
 H                     3.28012  -2.74925  -0.01653 
 H                     2.81259  -4.09894  -1.0584 
 C                    -3.48224  -4.19361  -1.0658 
 H                    -3.64639  -5.26718  -0.89491 
 H                    -4.39827  -3.66037  -0.77837 
 H                    -3.31817  -4.03047  -2.13659 
 C                    -2.67305  -3.74002   1.24393 
 H                    -1.84673  -3.36597   1.86286 
 H                    -3.53517  -3.08264   1.41705 
 H                    -2.94016  -4.75476   1.56852 
 C                    -0.58054  -5.54117   0.25841 
 H                    -0.60802  -5.32956   1.33336 
 H                    -1.26914  -6.37295   0.05185 
 H                     0.43654  -5.8682    0.00476 
 C                    -0.76455  -4.63254  -2.05241 
 H                    -1.03119  -3.76568  -2.67146 
 H                     0.29499  -4.84948  -2.23838 
 H                    -1.36366  -5.49586  -2.37184 
 H                    -0.49093  -1.08448  -1.95192 
 C                    -0.62289   3.59666  -1.97156 
 O                     0.36088   3.91975  -1.30419 
 C                    -1.72844   4.62314  -2.22184 
 C                     0.28049   1.34921  -2.3322 
 N                    -0.78324   2.34297  -2.47222 
 C                    -1.95312   1.88446  -3.18837 
 C                    -5.58442   0.22646   0.40338 
 F                    -5.95939   0.40603  -0.86764 
 F                    -5.56444  -1.09438   0.61902 
 F                    -6.52968   0.75331   1.18603 
 C                     3.78208   3.15879   1.671 
 F                     4.03803   4.4161    2.04303 
 F                     4.23467   2.35613   2.64703 
 F                     4.4994    2.8939    0.57976 
 C                    -2.68456   4.60778  -1.03034 
 H                    -2.28777   4.37778  -3.13565 
 C                    -1.11344   6.00494  -2.38933 
 H                    -3.17247   3.63069  -0.89567 
 H                    -3.46946   5.36798  -1.1413 
 H                    -2.12067   4.8322   -0.11222 
 H                     0.37756   0.84514  -3.30455 
 H                     1.21576   1.88809  -2.14201 
 H                    -2.86817   2.39032  -2.86303 
 H                    -2.07629   0.81248  -2.98208 
 H                    -1.8482    2.00896  -4.27801 
 H                    -0.52468   6.26448  -1.50205 
 H                    -1.89803   6.76022  -2.53124 
 H                    -0.43872   6.04321  -3.2534 
 
 Stoichiometry    C36H55B3F6IrN3O7
 Framework group  C1[X(C36H55B3F6IrN3O7)]
 Deg. of freedom   327
 Full point group                 C1      NOp   1
 Largest Abelian subgroup         C1      NOp   1
 Largest concise Abelian subgroup C1      NOp   1
                         Standard orientation:                         
 ---------------------------------------------------------------------
 Center     Atomic      Atomic             Coordinates (Angstroms)
 Number     Number       Type             X           Y           Z
 ---------------------------------------------------------------------
      1          6           0       -1.712136    1.817604    1.005320
      2          6           0       -3.152059    0.350197   -0.048930
      3          6           0       -4.242688    0.837119    0.661280
      4          6           0       -4.043316    1.853189    1.587080
      5          6           0       -2.760905    2.347086    1.760900
      6          6           0       -0.318995    2.269281    1.153580
      7          6           0        1.916524    1.851177    0.684340
      8          6           0        2.318706    2.935096    1.449430
      9          6           0        1.358238    3.734498    2.054330
     10          6           0        0.026357    3.395120    1.899370
     11          1           0       -3.254951   -0.478653   -0.747830
     12          1           0       -4.875635    2.244021    2.167200
     13          1           0       -2.579963    3.128006    2.494330
     14          1           0        2.632673    1.211905    0.165740
     15          1           0        1.649200    4.606347    2.635130
     16          1           0       -0.743491    4.013752    2.351830
     17          7           0       -1.919118    0.823545    0.119590
     18          7           0        0.627783    1.527059    0.536700
     19         77           0        0.006150   -0.119009   -0.743900
     20          8           0        1.713517   -1.400133    1.453530
     21          8           0        2.992950   -0.251056   -1.166890
     22          8           0       -0.033507   -3.256959   -0.264840
     23          5           0        1.766908   -0.859133   -1.410450
     24          5           0        0.412688   -1.093170    1.116960
     25          5           0       -0.717614   -2.066028   -0.452430
     26          8           0       -2.085645   -2.308395   -0.562060
     27          8           0       -0.412642   -1.127279    2.229160
     28          6           0        0.429858   -1.253770    3.394200
     29          6           0        1.725456   -1.887703    2.805290
     30          6           0       -0.943309   -4.327437   -0.570860
     31          6           0       -2.319938   -3.687495   -0.236290
     32          6           0        3.992958   -0.938018   -1.938560
     33          6           0        3.328405   -2.327846   -2.148600
     34          8           0        1.935006   -1.988684   -2.192230
     35          6           0        3.016887   -1.440766    3.460410
     36          1           0        3.863796   -1.942538    2.973870
     37          1           0        3.170659   -0.359726    3.360470
     38          1           0        3.033527   -1.705836    4.527390
     39          6           0        1.670343   -3.406653    2.731950
     40          1           0        2.510642   -3.762745    2.121930
     41          1           0        1.742272   -3.867773    3.726180
     42          1           0        0.748902   -3.743031    2.241360
     43          6           0        0.645901    0.152879    3.936490
     44          1           0       -0.333528    0.614101    4.123570
     45          1           0        1.209061    0.145458    4.879050
     46          1           0        1.187732    0.781798    3.216760
     47          6           0       -0.284054   -2.097349    4.430270
     48          1           0        0.359305   -2.265970    5.305820
     49          1           0       -1.190233   -1.579477    4.769780
     50          1           0       -0.583726   -3.071288    4.027600
     51          6           0        4.168050   -0.156518   -3.233050
     52          1           0        4.969989   -0.571150   -3.858680
     53          1           0        3.236620   -0.145046   -3.814580
     54          1           0        4.423982    0.882021   -2.987470
     55          6           0        5.287558   -0.951821   -1.152380
     56          1           0        5.144967   -1.378640   -0.153200
     57          1           0        6.060317   -1.531642   -1.677360
     58          1           0        5.656250    0.075409   -1.030180
     59          6           0        3.708834   -3.031747   -3.434300
     60          1           0        3.187172   -3.995996   -3.493950
     61          1           0        3.430615   -2.443917   -4.315930
     62          1           0        4.790213   -3.228380   -3.468330
     63          6           0        3.517243   -3.262207   -0.958470
     64          1           0        4.539313   -3.662749   -0.908640
     65          1           0        3.280114   -2.749256   -0.016530
     66          1           0        2.812582   -4.098945   -1.058400
     67          6           0       -3.482249   -4.193602   -1.065800
     68          1           0       -3.646401   -5.267172   -0.894910
     69          1           0       -4.398277   -3.660360   -0.778370
     70          1           0       -3.318178   -4.030463   -2.136590
     71          6           0       -2.673058   -3.740014    1.243930
     72          1           0       -1.846737   -3.365966    1.862860
     73          1           0       -3.535176   -3.082632    1.417050
     74          1           0       -2.940170   -4.754753    1.568520
     75          6           0       -0.580551   -5.541168    0.258410
     76          1           0       -0.608031   -5.329558    1.333360
     77          1           0       -1.269153   -6.372947    0.051850
     78          1           0        0.436528   -5.868200    0.004760
     79          6           0       -0.764559   -4.632538   -2.052410
     80          1           0       -1.031198   -3.765677   -2.671460
     81          1           0        0.294980   -4.849480   -2.238380
     82          1           0       -1.363671   -5.495857   -2.371840
     83          1           0       -0.490932   -1.084478   -1.951920
     84          6           0       -0.622882    3.596662   -1.971560
     85          8           0        0.360888    3.919750   -1.304190
     86          6           0       -1.728430    4.623144   -2.221840
     87          6           0        0.280493    1.349210   -2.332200
     88          7           0       -0.783235    2.342972   -2.472220
     89          6           0       -1.953116    1.884465   -3.188370
     90          6           0       -5.584419    0.226472    0.403380
     91          9           0       -5.959389    0.406043   -0.867640
     92          9           0       -5.564442   -1.094368    0.619020
     93          9           0       -6.529678    0.753324    1.186030
     94          6           0        3.782087    3.158783    1.671000
     95          9           0        4.038040    4.416092    2.043030
     96          9           0        4.234675    2.356122    2.647030
     97          9           0        4.499406    2.893891    0.579760
     98          6           0       -2.684550    4.607786   -1.030340
     99          1           0       -2.287761    4.377785   -3.135650
    100          6           0       -1.113427    6.004943   -2.389330
    101          1           0       -3.172462    3.630697   -0.895670
    102          1           0       -3.469448    5.367988   -1.141300
    103          1           0       -2.120660    4.832205   -0.112220
    104          1           0        0.377562    0.845140   -3.304550
    105          1           0        1.215764    1.888088   -2.142010
    106          1           0       -2.868165    2.390327   -2.863030
    107          1           0       -2.076288    0.812485   -2.982080
    108          1           0       -1.848196    2.008964   -4.278010
    109          1           0       -0.524667    6.264482   -1.502050
    110          1           0       -1.898016    6.760225   -2.531240
    111          1           0       -0.438707    6.043211   -3.253400
 ---------------------------------------------------------------------
 Rotational constants (GHZ):           0.0545135           0.0485910           0.0378836
 Standard basis: STO-3G (5D, 7F)
 IA out of range in STO.
 Error termination via Lnk1e in /opt/cesga/2020/software/Core/g16/c1/l301.exe at Sat Dec  7 22:04:57 2024.
 Job cpu time:       0 days  0 hours  0 minutes  0.4 seconds.
 Elapsed time:       0 days  0 hours  0 minutes  0.1 seconds.
 File lengths (MBytes):  RWF=      6 Int=      0 D2E=      0 Chk=      1 Scr=      1
