/mnt/lustre/scratch/nvme/SLURM/9698479/usccqdma.2DRaFpsNRK
OMP_STACKSIZE=0m
GAUSS_PDEF=16
GAUSS_MDEF=65536MB
GAUSS_RDEF=SCF=Direct
 Entering Gaussian System, Link 0=g16.exe
 Initial command:
 /opt/cesga/2020/software/Core/g16/c1/l1.exe "/mnt/lustre/scratch/nvme/SLURM/9698479/usccqdma.2DRaFpsNRK/Gau-46843.inp" -scrdir="/mnt/lustre/scratch/nvme/SLURM/9698479/usccqdma.2DRaFpsNRK/"
 Default is to use a total of  16 processors:
                               16 via shared-memory
                                1 via Linda
 Entering Link 1 = /opt/cesga/2020/software/Core/g16/c1/l1.exe PID=     46870.
  
 Copyright (c) 1988-2019, Gaussian, Inc.  All Rights Reserved.
  
 This is part of the Gaussian(R) 16 program.  It is based on
 the Gaussian(R) 09 system (copyright 2009, Gaussian, Inc.),
 the Gaussian(R) 03 system (copyright 2003, Gaussian, Inc.),
 the Gaussian(R) 98 system (copyright 1998, Gaussian, Inc.),
 the Gaussian(R) 94 system (copyright 1995, Gaussian, Inc.),
 the Gaussian 92(TM) system (copyright 1992, Gaussian, Inc.),
 the Gaussian 90(TM) system (copyright 1990, Gaussian, Inc.),
 the Gaussian 88(TM) system (copyright 1988, Gaussian, Inc.),
 the Gaussian 86(TM) system (copyright 1986, Carnegie Mellon
 University), and the Gaussian 82(TM) system (copyright 1983,
 Carnegie Mellon University). Gaussian is a federally registered
 trademark of Gaussian, Inc.
  
 This software contains proprietary and confidential information,
 including trade secrets, belonging to Gaussian, Inc.
  
 This software is provided under written license and may be
 used, copied, transmitted, or stored only in accord with that
 written license.
  
 The following legend is applicable only to US Government
 contracts under FAR:
  
                    RESTRICTED RIGHTS LEGEND
  
 Use, reproduction and disclosure by the US Government is
 subject to restrictions as set forth in subparagraphs (a)
 and (c) of the Commercial Computer Software - Restricted
 Rights clause in FAR 52.227-19.
  
 Gaussian, Inc.
 340 Quinnipiac St., Bldg. 40, Wallingford CT 06492
  
  
 ---------------------------------------------------------------
 Warning -- This program may not be used in any manner that
 competes with the business of Gaussian, Inc. or will provide
 assistance to any competitor of Gaussian, Inc.  The licensee
 of this program is prohibited from giving any competitor of
 Gaussian, Inc. access to this program.  By using this program,
 the user acknowledges that Gaussian, Inc. is engaged in the
 business of creating and licensing software in the field of
 computational chemistry and represents and warrants to the
 licensee that it is not a competitor of Gaussian, Inc. and that
 it will not use this program in any manner prohibited above.
 ---------------------------------------------------------------
  

 Cite this work as:
 Gaussian 16, Revision C.01,
 M. J. Frisch, G. W. Trucks, H. B. Schlegel, G. E. Scuseria, 
 M. A. Robb, J. R. Cheeseman, G. Scalmani, V. Barone, 
 G. A. Petersson, H. Nakatsuji, X. Li, M. Caricato, A. V. Marenich, 
 J. Bloino, B. G. Janesko, R. Gomperts, B. Mennucci, H. P. Hratchian, 
 J. V. Ortiz, A. F. Izmaylov, J. L. Sonnenberg, D. Williams-Young, 
 F. Ding, F. Lipparini, F. Egidi, J. Goings, B. Peng, A. Petrone, 
 T. Henderson, D. Ranasinghe, V. G. Zakrzewski, J. Gao, N. Rega, 
 G. Zheng, W. Liang, M. Hada, M. Ehara, K. Toyota, R. Fukuda, 
 J. Hasegawa, M. Ishida, T. Nakajima, Y. Honda, O. Kitao, H. Nakai, 
 T. Vreven, K. Throssell, J. A. Montgomery, Jr., J. E. Peralta, 
 F. Ogliaro, M. J. Bearpark, J. J. Heyd, E. N. Brothers, K. N. Kudin, 
 V. N. Staroverov, T. A. Keith, R. Kobayashi, J. Normand, 
 K. Raghavachari, A. P. Rendell, J. C. Burant, S. S. Iyengar, 
 J. Tomasi, M. Cossi, J. M. Millam, M. Klene, C. Adamo, R. Cammi, 
 J. W. Ochterski, R. L. Martin, K. Morokuma, O. Farkas, 
 J. B. Foresman, and D. J. Fox, Gaussian, Inc., Wallingford CT, 2019.
 
 ******************************************
 Gaussian 16:  ES64L-G16RevC.01  3-Jul-2019
                10-Dec-2024 
 ******************************************
 Default route: SCF=Direct
 ----------------------------------------------------
 # m06/genecp scf=tight int=ultrafine 5d freq=noraman
 ----------------------------------------------------
 1/10=4,30=1,38=1/1,3;
 2/12=2,17=6,18=5,40=1/2;
 3/5=7,8=1,11=2,16=1,17=8,25=1,30=1,71=2,74=-54,75=-5,140=1/1,2,3;
 4//1;
 5/5=2,32=2,38=5,98=1/2;
 8/6=4,10=90,11=11/1;
 11/6=1,8=1,9=11,15=111,16=1/1,2,10;
 10/6=1/2;
 6/7=2,8=2,9=2,10=2,28=1/1;
 7/8=1,10=1,25=1/1,2,3,16;
 1/10=4,30=1/3;
 99//99;
 ------
 OPT-TS
 ------
 Symbolic Z-matrix:
 Charge =  0 Multiplicity = 1
 C                    -2.55302  -0.56758   1.98992 
 C                    -1.97958  -2.39159   0.69584 
 C                    -2.81998  -3.23246   1.41134 
 C                    -3.5658   -2.69426   2.44966 
 C                    -3.42576  -1.34747   2.74859 
 C                    -2.2837    0.84997   2.30576 
 C                    -0.88125   2.67351   1.97761 
 C                    -1.55747   3.42721   2.92697 
 C                    -2.65656   2.86491   3.56229 
 C                    -3.0194    1.56295   3.25304 
 H                    -1.37558  -2.75249  -0.1361 
 H                    -4.24364  -3.31567   3.03164 
 H                    -3.97856  -0.91684   3.57917 
 H                    -0.01736   3.05772   1.435 
 H                    -3.22702   3.43109   4.29616 
 H                    -3.87999   1.10895   3.73658 
 N                    -1.85688  -1.09277   0.96814 
 N                    -1.24476   1.42437   1.66539 
 Ir                   -0.34167   0.30753  -0.08231 
 O                     1.89102   1.45865  -1.84285 
 O                     2.19393  -1.27832  -0.96909 
 O                     2.0291    0.35784   1.96381 
 B                     0.81065  -1.15716  -0.95905 
 B                     1.1057    1.58039  -0.70232 
 B                     1.05163  -0.39944   1.34028 
 O                     0.99037  -1.67156   1.90125 
 O                     1.43516   2.76372  -0.03475 
 C                     2.41029   3.47284  -0.81563 
 C                     3.01371   2.33211  -1.68003 
 C                     2.78602  -0.51264   2.82396 
 C                     1.77303  -1.65853   3.10289 
 C                     2.54634  -2.33231  -1.8715 
 C                     1.28087  -3.23094  -1.82786 
 O                     0.24158  -2.26249  -1.60301 
 C                     3.52128   2.75888  -3.04183 
 H                     4.32672   3.50138  -2.94485 
 H                     3.92717   1.88866  -3.57406 
 H                     2.72212   3.18553  -3.65804 
 C                     4.08846   1.54361  -0.93876 
 H                     4.29189   0.61784  -1.49334 
 H                     5.02391   2.11217  -0.84285 
 H                     3.73613   1.25096   0.05977 
 C                     1.66989   4.5154   -1.64217 
 H                     1.07752   5.1481   -0.96735 
 H                     2.36139   5.16324  -2.19791 
 H                     0.98299   4.04206  -2.35616 
 C                     3.38876   4.15027   0.12282 
 H                     4.22208   4.60004  -0.43639 
 H                     2.88261   4.9526    0.67587 
 H                     3.79402   3.44134   0.85333 
 C                     2.77613  -1.6919   -3.23498 
 H                     3.55778  -0.92737  -3.13828 
 H                     3.09995  -2.42453  -3.98666 
 H                     1.86932  -1.18554  -3.59237 
 C                     3.81954  -2.99573  -1.38737 
 H                     4.09123  -3.84412  -2.03202 
 H                     4.64458  -2.27098  -1.41265 
 H                     3.72258  -3.35835  -0.3569 
 C                     0.99165  -3.98401  -3.11076 
 H                     1.82545  -4.65454  -3.36467 
 H                     0.09145  -4.60188  -2.991 
 H                     0.82431  -3.30256  -3.95286 
 C                     1.26372  -4.18607  -0.64142 
 H                     0.27056  -4.65382  -0.5808 
 H                     2.00675  -4.98815  -0.74757 
 H                     1.44043  -3.64758   0.30087 
 C                     2.38871  -3.02757   3.30711 
 H                     1.5958   -3.76789   3.47667 
 H                     2.96368  -3.34485   2.42884 
 H                     3.05451  -3.03499   4.18225 
 C                     0.80834  -1.34244   4.23973 
 H                    -0.01151  -2.07278   4.21487 
 H                     1.29187  -1.39343   5.22478 
 H                     0.37106  -0.34155   4.11515 
 C                     3.22369   0.26422   4.04905 
 H                     3.74485  -0.39072   4.76255 
 H                     3.91753   1.06071   3.75084 
 H                     2.37492   0.73333   4.55871 
 C                     4.00424  -0.97459   2.03607 
 H                     4.59433  -0.09532   1.74649 
 H                     4.64996  -1.63704   2.6284 
 H                     3.69922  -1.48757   1.11415 
 H                    -1.22747   4.43872   3.14935 
 C                    -3.16028   0.74267  -1.66845 
 C                    -4.23253   1.55051  -2.05921 
 C                    -1.93445   1.30648  -1.27086 
 C                    -4.09865   2.93006  -2.12507 
 C                    -1.82034   2.70225  -1.36996 
 C                    -2.87824   3.50495  -1.78502 
 H                    -4.93566   3.54928  -2.44447 
 H                    -0.68291   0.319    -1.6927 
 H                    -5.1791    1.0739   -2.31596 
 H                    -0.8816    3.18141  -1.08769 
 C                    -3.44454  -0.73044  -1.64807 
 O                    -4.24882  -1.19774  -0.84741 
 N                    -2.8089   -1.50274  -2.58287 
 C                    -2.96486  -2.93806  -2.54625 
 H                    -3.66547  -3.19388  -1.74719 
 H                    -3.35825  -3.30774  -3.50512 
 H                    -1.98747  -3.41346  -2.36165 
 C                    -1.96659  -1.00586  -3.64829 
 H                    -2.01773   0.08438  -3.70522 
 H                    -0.92192  -1.31134  -3.48655 
 H                    -2.31083  -1.41776  -4.60933 
 H                    -2.88816  -4.28501   1.14641 
 H                    -2.7468    4.58582  -1.83896 
 

 GradGradGradGradGradGradGradGradGradGradGradGradGradGradGradGradGradGrad
 Berny optimization.
 Initialization pass.
 Trust Radius=3.00D-01 FncErr=1.00D-07 GrdErr=1.00D-07 EigMax=2.50D+02 EigMin=1.00D-04
 Number of steps in this run=      2 maximum allowed number of steps=      2.
 GradGradGradGradGradGradGradGradGradGradGradGradGradGradGradGradGradGrad

 Stoichiometry    C37H55B3IrN3O7
 Framework group  C1[X(C37H55B3IrN3O7)]
 Deg. of freedom   312
 Full point group                 C1      NOp   1
 Largest Abelian subgroup         C1      NOp   1
 Largest concise Abelian subgroup C1      NOp   1
                         Standard orientation:                         
 ---------------------------------------------------------------------
 Center     Atomic      Atomic             Coordinates (Angstroms)
 Number     Number       Type             X           Y           Z
 ---------------------------------------------------------------------
      1          6           0       -2.553019   -0.567585    1.989920
      2          6           0       -1.979576   -2.391594    0.695840
      3          6           0       -2.819974   -3.232465    1.411340
      4          6           0       -3.565795   -2.694267    2.449660
      5          6           0       -3.425757   -1.347476    2.748590
      6          6           0       -2.283701    0.849966    2.305760
      7          6           0       -0.881255    2.673508    1.977610
      8          6           0       -1.557476    3.427207    2.926970
      9          6           0       -2.656565    2.864905    3.562290
     10          6           0       -3.019403    1.562944    3.253040
     11          1           0       -1.375575   -2.752493   -0.136100
     12          1           0       -4.243634   -3.315678    3.031640
     13          1           0       -3.978558   -0.916847    3.579170
     14          1           0       -0.017365    3.057720    1.435000
     15          1           0       -3.227026    3.431084    4.296160
     16          1           0       -3.879992    1.108943    3.736580
     17          7           0       -1.856878   -1.092774    0.968140
     18          7           0       -1.244762    1.424367    1.665390
     19         77           0       -0.341670    0.307529   -0.082310
     20          8           0        1.891018    1.458653   -1.842850
     21          8           0        2.193932   -1.278317   -0.969090
     22          8           0        2.029100    0.357843    1.963810
     23          5           0        0.810652   -1.157159   -0.959050
     24          5           0        1.105697    1.580392   -0.702320
     25          5           0        1.051631   -0.399439    1.340280
     26          8           0        0.990373   -1.671559    1.901250
     27          8           0        1.435155    2.763722   -0.034750
     28          6           0        2.410284    3.472844   -0.815630
     29          6           0        3.013706    2.332115   -1.680030
     30          6           0        2.786021   -0.512635    2.823960
     31          6           0        1.773033   -1.658527    3.102890
     32          6           0        2.546344   -2.332306   -1.871500
     33          6           0        1.280876   -3.230938   -1.827860
     34          8           0        0.241584   -2.262490   -1.603010
     35          6           0        3.521275    2.758886   -3.041830
     36          1           0        4.326714    3.501387   -2.944850
     37          1           0        3.927167    1.888667   -3.574060
     38          1           0        2.722115    3.185534   -3.658040
     39          6           0        4.088457    1.543617   -0.938760
     40          1           0        4.291889    0.617847   -1.493340
     41          1           0        5.023906    2.112178   -0.842850
     42          1           0        3.736128    1.250966    0.059770
     43          6           0        1.669882    4.515403   -1.642170
     44          1           0        1.077511    5.148102   -0.967350
     45          1           0        2.361381    5.163244   -2.197910
     46          1           0        0.982983    4.042061   -2.356160
     47          6           0        3.388753    4.150276    0.122820
     48          1           0        4.222072    4.600047   -0.436390
     49          1           0        2.882601    4.952605    0.675870
     50          1           0        3.794014    3.441346    0.853330
     51          6           0        2.776133   -1.691895   -3.234980
     52          1           0        3.557782   -0.927364   -3.138280
     53          1           0        3.099954   -2.424525   -3.986660
     54          1           0        1.869322   -1.185537   -3.592370
     55          6           0        3.819545   -2.995724   -1.387370
     56          1           0        4.091237   -3.844113   -2.032020
     57          1           0        4.644584   -2.270972   -1.412650
     58          1           0        3.722586   -3.358344   -0.356900
     59          6           0        0.991657   -3.984009   -3.110760
     60          1           0        1.825458   -4.654537   -3.364670
     61          1           0        0.091458   -4.601880   -2.991000
     62          1           0        0.824316   -3.302559   -3.952860
     63          6           0        1.263728   -4.186068   -0.641420
     64          1           0        0.270568   -4.653820   -0.580800
     65          1           0        2.006759   -4.988147   -0.747570
     66          1           0        1.440437   -3.647578    0.300870
     67          6           0        2.388716   -3.027566    3.307110
     68          1           0        1.595807   -3.767888    3.476670
     69          1           0        2.963686   -3.344845    2.428840
     70          1           0        3.054516   -3.034985    4.182250
     71          6           0        0.808343   -1.342439    4.239730
     72          1           0       -0.011506   -2.072780    4.214870
     73          1           0        1.291873   -1.393428    5.224780
     74          1           0        0.371061   -0.341550    4.115150
     75          6           0        3.223690    0.264225    4.049050
     76          1           0        3.744851   -0.390714    4.762550
     77          1           0        3.917528    1.060717    3.750840
     78          1           0        2.374919    0.733334    4.558710
     79          6           0        4.004242   -0.974583    2.036070
     80          1           0        4.594330   -0.095312    1.746490
     81          1           0        4.649963   -1.637032    2.628400
     82          1           0        3.699223   -1.487564    1.114150
     83          1           0       -1.227478    4.438717    3.149350
     84          6           0       -3.160281    0.742664   -1.668450
     85          6           0       -4.232533    1.550502   -2.059210
     86          6           0       -1.934452    1.306476   -1.270860
     87          6           0       -4.098655    2.930052   -2.125070
     88          6           0       -1.820345    2.702246   -1.369960
     89          6           0       -2.878246    3.504945   -1.785020
     90          1           0       -4.935666    3.549271   -2.444470
     91          1           0       -0.682910    0.318998   -1.692700
     92          1           0       -5.179102    1.073891   -2.315960
     93          1           0       -0.881605    3.181408   -1.087690
     94          6           0       -3.444539   -0.730446   -1.648070
     95          8           0       -4.248818   -1.197748   -0.847410
     96          7           0       -2.808897   -1.502745   -2.582870
     97          6           0       -2.964855   -2.938066   -2.546250
     98          1           0       -3.665464   -3.193887   -1.747190
     99          1           0       -3.358244   -3.307746   -3.505120
    100          1           0       -1.987464   -3.413464   -2.361650
    101          6           0       -1.966588   -1.005864   -3.648290
    102          1           0       -2.017730    0.084376   -3.705220
    103          1           0       -0.921917   -1.311342   -3.486550
    104          1           0       -2.310827   -1.417764   -4.609330
    105          1           0       -2.888152   -4.285015    1.146410
    106          1           0       -2.746808    4.585815   -1.838960
 ---------------------------------------------------------------------
 Rotational constants (GHZ):           0.0689269           0.0616976           0.0586585
 General basis read from cards:  (5D, 7F)
 ======================================================================================================
                                       Pseudopotential Parameters
 ======================================================================================================
  Center     Atomic      Valence      Angular      Power
  Number     Number     Electrons     Momentum     of R      Exponent        Coefficient   SO-Coeffient
 ======================================================================================================
    1          6
                                   No pseudopotential on this center.
    2          6
                                   No pseudopotential on this center.
    3          6
                                   No pseudopotential on this center.
    4          6
                                   No pseudopotential on this center.
    5          6
                                   No pseudopotential on this center.
    6          6
                                   No pseudopotential on this center.
    7          6
                                   No pseudopotential on this center.
    8          6
                                   No pseudopotential on this center.
    9          6
                                   No pseudopotential on this center.
   10          6
                                   No pseudopotential on this center.
   11          1
                                   No pseudopotential on this center.
   12          1
                                   No pseudopotential on this center.
   13          1
                                   No pseudopotential on this center.
   14          1
                                   No pseudopotential on this center.
   15          1
                                   No pseudopotential on this center.
   16          1
                                   No pseudopotential on this center.
   17          7
                                   No pseudopotential on this center.
   18          7
                                   No pseudopotential on this center.
   19         77           17
                                      G and up 
                                                     1      823.5880147       -0.15780140    0.00000000
                                                     2      364.6613336    -1517.52704460    0.00000000
                                                     2       55.7082801     -316.53065290    0.00000000
                                                     2       12.0464544      -91.88809410    0.00000000
                                                     2        3.5120610       -9.22417730    0.00000000
                                      S - G
                                                     0      188.0490770        3.15780140    0.00000000
                                                     1      340.4194712       26.83225770    0.00000000
                                                     2      128.2373673      800.42500070    0.00000000
                                                     2       33.8644961      369.40506830    0.00000000
                                                     2        4.7560005      242.41718990    0.00000000
                                                     2        3.9649974     -118.21732820    0.00000000
                                      P - G
                                                     0      289.7291139        2.15780140    0.00000000
                                                     1       87.4633789       61.96786100    0.00000000
                                                     2       30.4363766      269.05819860    0.00000000
                                                     2        4.0553412      231.16547930    0.00000000
                                                     2        3.5525341     -133.69526670    0.00000000
                                      D - G
                                                     0      136.4017106        3.15780140    0.00000000
                                                     1       95.0776925       45.93498030    0.00000000
                                                     2       49.2258410      359.03446680    0.00000000
                                                     2       15.0874145      176.47401190    0.00000000
                                                     2        4.0405764       54.51552860    0.00000000
                                      F - G
                                                     0      127.3507908        3.95461970    0.00000000
                                                     1       66.2364374       52.97736550    0.00000000
                                                     2       34.4299229      274.86433830    0.00000000
                                                     2       10.1995721      137.20473380    0.00000000
                                                     2        2.5409702       14.86333050    0.00000000
   20          8
                                   No pseudopotential on this center.
   21          8
                                   No pseudopotential on this center.
   22          8
                                   No pseudopotential on this center.
   23          5
                                   No pseudopotential on this center.
   24          5
                                   No pseudopotential on this center.
   25          5
                                   No pseudopotential on this center.
   26          8
                                   No pseudopotential on this center.
   27          8
                                   No pseudopotential on this center.
   28          6
                                   No pseudopotential on this center.
   29          6
                                   No pseudopotential on this center.
   30          6
                                   No pseudopotential on this center.
   31          6
                                   No pseudopotential on this center.
   32          6
                                   No pseudopotential on this center.
   33          6
                                   No pseudopotential on this center.
   34          8
                                   No pseudopotential on this center.
   35          6
                                   No pseudopotential on this center.
   36          1
                                   No pseudopotential on this center.
   37          1
                                   No pseudopotential on this center.
   38          1
                                   No pseudopotential on this center.
   39          6
                                   No pseudopotential on this center.
   40          1
                                   No pseudopotential on this center.
   41          1
                                   No pseudopotential on this center.
   42          1
                                   No pseudopotential on this center.
   43          6
                                   No pseudopotential on this center.
   44          1
                                   No pseudopotential on this center.
   45          1
                                   No pseudopotential on this center.
   46          1
                                   No pseudopotential on this center.
   47          6
                                   No pseudopotential on this center.
   48          1
                                   No pseudopotential on this center.
   49          1
                                   No pseudopotential on this center.
   50          1
                                   No pseudopotential on this center.
   51          6
                                   No pseudopotential on this center.
   52          1
                                   No pseudopotential on this center.
   53          1
                                   No pseudopotential on this center.
   54          1
                                   No pseudopotential on this center.
   55          6
                                   No pseudopotential on this center.
   56          1
                                   No pseudopotential on this center.
   57          1
                                   No pseudopotential on this center.
   58          1
                                   No pseudopotential on this center.
   59          6
                                   No pseudopotential on this center.
   60          1
                                   No pseudopotential on this center.
   61          1
                                   No pseudopotential on this center.
   62          1
                                   No pseudopotential on this center.
   63          6
                                   No pseudopotential on this center.
   64          1
                                   No pseudopotential on this center.
   65          1
                                   No pseudopotential on this center.
   66          1
                                   No pseudopotential on this center.
   67          6
                                   No pseudopotential on this center.
   68          1
                                   No pseudopotential on this center.
   69          1
                                   No pseudopotential on this center.
   70          1
                                   No pseudopotential on this center.
   71          6
                                   No pseudopotential on this center.
   72          1
                                   No pseudopotential on this center.
   73          1
                                   No pseudopotential on this center.
   74          1
                                   No pseudopotential on this center.
   75          6
                                   No pseudopotential on this center.
   76          1
                                   No pseudopotential on this center.
   77          1
                                   No pseudopotential on this center.
   78          1
                                   No pseudopotential on this center.
   79          6
                                   No pseudopotential on this center.
   80          1
                                   No pseudopotential on this center.
   81          1
                                   No pseudopotential on this center.
   82          1
                                   No pseudopotential on this center.
   83          1
                                   No pseudopotential on this center.
   84          6
                                   No pseudopotential on this center.
   85          6
                                   No pseudopotential on this center.
   86          6
                                   No pseudopotential on this center.
   87          6
                                   No pseudopotential on this center.
   88          6
                                   No pseudopotential on this center.
   89          6
                                   No pseudopotential on this center.
   90          1
                                   No pseudopotential on this center.
   91          1
                                   No pseudopotential on this center.
   92          1
                                   No pseudopotential on this center.
   93          1
                                   No pseudopotential on this center.
   94          6
                                   No pseudopotential on this center.
   95          8
                                   No pseudopotential on this center.
   96          7
                                   No pseudopotential on this center.
   97          6
                                   No pseudopotential on this center.
   98          1
                                   No pseudopotential on this center.
   99          1
                                   No pseudopotential on this center.
  100          1
                                   No pseudopotential on this center.
  101          6
                                   No pseudopotential on this center.
  102          1
                                   No pseudopotential on this center.
  103          1
                                   No pseudopotential on this center.
  104          1
                                   No pseudopotential on this center.
  105          1
                                   No pseudopotential on this center.
  106          1
                                   No pseudopotential on this center.
 ======================================================================================================
 There are   884 symmetry adapted cartesian basis functions of A   symmetry.
 There are   832 symmetry adapted basis functions of A   symmetry.
   832 basis functions,  1663 primitive gaussians,   884 cartesian basis functions
   193 alpha electrons      193 beta electrons
       nuclear repulsion energy      8437.4272179457 Hartrees.
 NAtoms=  106 NActive=  106 NUniq=  106 SFac= 1.00D+00 NAtFMM=   60 NAOKFM=T Big=T
 Integral buffers will be    131072 words long.
 Raffenetti 2 integral format.
 Two-electron integral symmetry is turned on.
 One-electron integrals computed using PRISM.
   1 Symmetry operations used in ECPInt.
 ECPInt:  NShTT=   50721 NPrTT=  310367 LenC2=   40416 LenP2D=  126279.
 LDataN:  DoStor=T MaxTD1= 6 Len=  172
 NBasis=   832 RedAO= T EigKep=  4.56D-04  NBF=   832
 NBsUse=   832 1.00D-06 EigRej= -1.00D+00 NBFU=   832
 Defaulting to unpruned grid for atomic number  77.
 ExpMin= 2.90D-02 ExpMax= 5.48D+03 ExpMxC= 8.25D+02 IAcc=3 IRadAn=         5 AccDes= 0.00D+00
 Harris functional with IExCor= 1009 and IRadAn=       5 diagonalized for initial guess.
 HarFok:  IExCor= 1009 AccDes= 0.00D+00 IRadAn=         5 IDoV= 1 UseB2=F ITyADJ=14
 ICtDFT=  3500011 ScaDFX=  1.000000  1.000000  1.000000  1.000000
 Defaulting to unpruned grid for atomic number  77.
 FoFCou: FMM=F IPFlag=           0 FMFlag=      100000 FMFlg1=        2001
         NFxFlg=           0 DoJE=T BraDBF=F KetDBF=T FulRan=T
         wScrn=  0.000000 ICntrl=       500 IOpCl=  0 I1Cent=   200000004 NGrid=           0
         NMat0=    1 NMatS0=      1 NMatT0=    0 NMatD0=    1 NMtDS0=    0 NMtDT0=    0
 Petite list used in FoFCou.
 Requested convergence on RMS density matrix=1.00D-08 within 128 cycles.
 Requested convergence on MAX density matrix=1.00D-06.
 Requested convergence on             energy=1.00D-06.
 No special actions if energy rises.
 Defaulting to unpruned grid for atomic number  77.
 Defaulting to unpruned grid for atomic number  77.
 Defaulting to unpruned grid for atomic number  77.
 Defaulting to unpruned grid for atomic number  77.
 Defaulting to unpruned grid for atomic number  77.
 Defaulting to unpruned grid for atomic number  77.
 Defaulting to unpruned grid for atomic number  77.
 Defaulting to unpruned grid for atomic number  77.
 Defaulting to unpruned grid for atomic number  77.
 Defaulting to unpruned grid for atomic number  77.
 Defaulting to unpruned grid for atomic number  77.
 Defaulting to unpruned grid for atomic number  77.
 Defaulting to unpruned grid for atomic number  77.
 Defaulting to unpruned grid for atomic number  77.
 Defaulting to unpruned grid for atomic number  77.
 Defaulting to unpruned grid for atomic number  77.
 SCF Done:  E(RM06) =  -2311.97391528     A.U. after   15 cycles
            NFock= 15  Conv=0.46D-08     -V/T= 2.0385
 DoSCS=F DFT=T ScalE2(SS,OS)=  1.000000  1.000000
 Range of M.O.s used for correlation:     1   832
 NBasis=   832 NAE=   193 NBE=   193 NFC=     0 NFV=     0
 NROrb=    832 NOA=   193 NOB=   193 NVA=   639 NVB=   639

 **** Warning!!: The largest alpha MO coefficient is  0.14580074D+02

   1 Symmetry operations used in ECPInt.
 ECPInt:  NShTT=   50721 NPrTT=  310367 LenC2=   40416 LenP2D=  126279.
 LDataN:  DoStor=T MaxTD1= 7 Len=  274
 Number of processors reduced to   8 by ecpmxn.
 Symmetrizing basis deriv contribution to polar:
 IMax=3 JMax=2 DiffMx= 0.00D+00
 G2DrvN: will do   107 centers at a time, making    1 passes.
 Calling FoFCou, ICntrl=  3107 FMM=T I1Cent=   0 AccDes= 0.00D+00.
 Defaulting to unpruned grid for atomic number  77.
 Defaulting to unpruned grid for atomic number  77.
 Defaulting to unpruned grid for atomic number  77.
 Defaulting to unpruned grid for atomic number  77.
 Defaulting to unpruned grid for atomic number  77.
 Defaulting to unpruned grid for atomic number  77.
 Defaulting to unpruned grid for atomic number  77.
 Defaulting to unpruned grid for atomic number  77.
 Defaulting to unpruned grid for atomic number  77.
 Defaulting to unpruned grid for atomic number  77.
 Defaulting to unpruned grid for atomic number  77.
 Defaulting to unpruned grid for atomic number  77.
 Defaulting to unpruned grid for atomic number  77.
 Defaulting to unpruned grid for atomic number  77.
 Defaulting to unpruned grid for atomic number  77.
 Defaulting to unpruned grid for atomic number  77.
 End of G2Drv F.D. properties file   721 does not exist.
 End of G2Drv F.D. properties file   722 does not exist.
 End of G2Drv F.D. properties file   788 does not exist.
          IDoAtm=11111111111111111111111111111111111111111111111111
          IDoAtm=11111111111111111111111111111111111111111111111111
          IDoAtm=111111
          Differentiating once with respect to electric field.
                with respect to dipole field.
          Differentiating once with respect to nuclear coordinates.
 Defaulting to unpruned grid for atomic number  77.
 CalDSu exits because no D1Ps are significant.
 Defaulting to unpruned grid for atomic number  77.
 Defaulting to unpruned grid for atomic number  77.
 Defaulting to unpruned grid for atomic number  77.
 Defaulting to unpruned grid for atomic number  77.
 Defaulting to unpruned grid for atomic number  77.
 Defaulting to unpruned grid for atomic number  77.
 Defaulting to unpruned grid for atomic number  77.
 Defaulting to unpruned grid for atomic number  77.
 Defaulting to unpruned grid for atomic number  77.
 Defaulting to unpruned grid for atomic number  77.
 Defaulting to unpruned grid for atomic number  77.
 Defaulting to unpruned grid for atomic number  77.
 Defaulting to unpruned grid for atomic number  77.
 Defaulting to unpruned grid for atomic number  77.
 Defaulting to unpruned grid for atomic number  77.
 Defaulting to unpruned grid for atomic number  77.
          There are   321 degrees of freedom in the 1st order CPHF.  IDoFFX=6 NUNeed=     3.
    318 vectors produced by pass  0 Test12= 1.23D-13 1.00D-09 XBig12= 5.28D+02 7.75D+00.
 AX will form    72 AO Fock derivatives at one time.
    318 vectors produced by pass  1 Test12= 1.23D-13 1.00D-09 XBig12= 6.83D+01 1.26D+00.
    318 vectors produced by pass  2 Test12= 1.23D-13 1.00D-09 XBig12= 8.25D-01 7.28D-02.
    318 vectors produced by pass  3 Test12= 1.23D-13 1.00D-09 XBig12= 6.16D-03 6.23D-03.
    318 vectors produced by pass  4 Test12= 1.23D-13 1.00D-09 XBig12= 1.96D-05 3.70D-04.
    285 vectors produced by pass  5 Test12= 1.23D-13 1.00D-09 XBig12= 3.89D-08 1.20D-05.
     85 vectors produced by pass  6 Test12= 1.23D-13 1.00D-09 XBig12= 5.92D-11 5.51D-07.
      3 vectors produced by pass  7 Test12= 1.23D-13 1.00D-09 XBig12= 8.50D-14 2.21D-08.
 InvSVY:  IOpt=1 It=  1 EMax= 2.13D-14
 Solved reduced A of dimension  1963 with   321 vectors.
 Isotropic polarizability for W=    0.000000      495.47 Bohr**3.
 End of Minotr F.D. properties file   721 does not exist.
 End of Minotr F.D. properties file   722 does not exist.
 End of Minotr F.D. properties file   788 does not exist.
 Hyperfine terms turned off by default for NAtoms > 100.

 **********************************************************************

            Population analysis using the SCF Density.

 **********************************************************************

 Orbital symmetries:
       Occupied  (A) (A) (A) (A) (A) (A) (A) (A) (A) (A) (A) (A)
                 (A) (A) (A) (A) (A) (A) (A) (A) (A) (A) (A) (A)
                 (A) (A) (A) (A) (A) (A) (A) (A) (A) (A) (A) (A)
                 (A) (A) (A) (A) (A) (A) (A) (A) (A) (A) (A) (A)
                 (A) (A) (A) (A) (A) (A) (A) (A) (A) (A) (A) (A)
                 (A) (A) (A) (A) (A) (A) (A) (A) (A) (A) (A) (A)
                 (A) (A) (A) (A) (A) (A) (A) (A) (A) (A) (A) (A)
                 (A) (A) (A) (A) (A) (A) (A) (A) (A) (A) (A) (A)
                 (A) (A) (A) (A) (A) (A) (A) (A) (A) (A) (A) (A)
                 (A) (A) (A) (A) (A) (A) (A) (A) (A) (A) (A) (A)
                 (A) (A) (A) (A) (A) (A) (A) (A) (A) (A) (A) (A)
                 (A) (A) (A) (A) (A) (A) (A) (A) (A) (A) (A) (A)
                 (A) (A) (A) (A) (A) (A) (A) (A) (A) (A) (A) (A)
                 (A) (A) (A) (A) (A) (A) (A) (A) (A) (A) (A) (A)
                 (A) (A) (A) (A) (A) (A) (A) (A) (A) (A) (A) (A)
                 (A) (A) (A) (A) (A) (A) (A) (A) (A) (A) (A) (A)
                 (A)
       Virtual   (A) (A) (A) (A) (A) (A) (A) (A) (A) (A) (A) (A)
                 (A) (A) (A) (A) (A) (A) (A) (A) (A) (A) (A) (A)
                 (A) (A) (A) (A) (A) (A) (A) (A) (A) (A) (A) (A)
                 (A) (A) (A) (A) (A) (A) (A) (A) (A) (A) (A) (A)
                 (A) (A) (A) (A) (A) (A) (A) (A) (A) (A) (A) (A)
                 (A) (A) (A) (A) (A) (A) (A) (A) (A) (A) (A) (A)
                 (A) (A) (A) (A) (A) (A) (A) (A) (A) (A) (A) (A)
                 (A) (A) (A) (A) (A) (A) (A) (A) (A) (A) (A) (A)
                 (A) (A) (A) (A) (A) (A) (A) (A) (A) (A) (A) (A)
                 (A) (A) (A) (A) (A) (A) (A) (A) (A) (A) (A) (A)
                 (A) (A) (A) (A) (A) (A) (A) (A) (A) (A) (A) (A)
                 (A) (A) (A) (A) (A) (A) (A) (A) (A) (A) (A) (A)
                 (A) (A) (A) (A) (A) (A) (A) (A) (A) (A) (A) (A)
                 (A) (A) (A) (A) (A) (A) (A) (A) (A) (A) (A) (A)
                 (A) (A) (A) (A) (A) (A) (A) (A) (A) (A) (A) (A)
                 (A) (A) (A) (A) (A) (A) (A) (A) (A) (A) (A) (A)
                 (A) (A) (A) (A) (A) (A) (A) (A) (A) (A) (A) (A)
                 (A) (A) (A) (A) (A) (A) (A) (A) (A) (A) (A) (A)
                 (A) (A) (A) (A) (A) (A) (A) (A) (A) (A) (A) (A)
                 (A) (A) (A) (A) (A) (A) (A) (A) (A) (A) (A) (A)
                 (A) (A) (A) (A) (A) (A) (A) (A) (A) (A) (A) (A)
                 (A) (A) (A) (A) (A) (A) (A) (A) (A) (A) (A) (A)
                 (A) (A) (A) (A) (A) (A) (A) (A) (A) (A) (A) (A)
                 (A) (A) (A) (A) (A) (A) (A) (A) (A) (A) (A) (A)
                 (A) (A) (A) (A) (A) (A) (A) (A) (A) (A) (A) (A)
                 (A) (A) (A) (A) (A) (A) (A) (A) (A) (A) (A) (A)
                 (A) (A) (A) (A) (A) (A) (A) (A) (A) (A) (A) (A)
                 (A) (A) (A) (A) (A) (A) (A) (A) (A) (A) (A) (A)
                 (A) (A) (A) (A) (A) (A) (A) (A) (A) (A) (A) (A)
                 (A) (A) (A) (A) (A) (A) (A) (A) (A) (A) (A) (A)
                 (A) (A) (A) (A) (A) (A) (A) (A) (A) (A) (A) (A)
                 (A) (A) (A) (A) (A) (A) (A) (A) (A) (A) (A) (A)
                 (A) (A) (A) (A) (A) (A) (A) (A) (A) (A) (A) (A)
                 (A) (A) (A) (A) (A) (A) (A) (A) (A) (A) (A) (A)
                 (A) (A) (A) (A) (A) (A) (A) (A) (A) (A) (A) (A)
                 (A) (A) (A) (A) (A) (A) (A) (A) (A) (A) (A) (A)
                 (A) (A) (A) (A) (A) (A) (A) (A) (A) (A) (A) (A)
                 (A) (A) (A) (A) (A) (A) (A) (A) (A) (A) (A) (A)
                 (A) (A) (A) (A) (A) (A) (A) (A) (A) (A) (A) (A)
                 (A) (A) (A) (A) (A) (A) (A) (A) (A) (A) (A) (A)
                 (A) (A) (A) (A) (A) (A) (A) (A) (A) (A) (A) (A)
                 (A) (A) (A) (A) (A) (A) (A) (A) (A) (A) (A) (A)
                 (A) (A) (A) (A) (A) (A) (A) (A) (A) (A) (A) (A)
                 (A) (A) (A) (A) (A) (A) (A) (A) (A) (A) (A) (A)
                 (A) (A) (A) (A) (A) (A) (A) (A) (A) (A) (A) (A)
                 (A) (A) (A) (A) (A) (A) (A) (A) (A) (A) (A) (A)
                 (A) (A) (A) (A) (A) (A) (A) (A) (A) (A) (A) (A)
                 (A) (A) (A) (A) (A) (A) (A) (A) (A) (A) (A) (A)
                 (A) (A) (A) (A) (A) (A) (A) (A) (A) (A) (A) (A)
                 (A) (A) (A) (A) (A) (A) (A) (A) (A) (A) (A) (A)
                 (A) (A) (A) (A) (A) (A) (A) (A) (A) (A) (A) (A)
                 (A) (A) (A) (A) (A) (A) (A) (A) (A) (A) (A) (A)
                 (A) (A) (A) (A) (A) (A) (A) (A) (A) (A) (A) (A)
                 (A) (A) (A)
 The electronic state is 1-A.
 Alpha  occ. eigenvalues --  -19.20849 -19.20356 -19.20263 -19.20190 -19.19942
 Alpha  occ. eigenvalues --  -19.19098 -19.16886 -14.44460 -14.42905 -14.41083
 Alpha  occ. eigenvalues --  -10.32682 -10.31458 -10.30677 -10.29639 -10.29456
 Alpha  occ. eigenvalues --  -10.29438 -10.29349 -10.29244 -10.28901 -10.28632
 Alpha  occ. eigenvalues --  -10.28576 -10.28389 -10.27552 -10.27542 -10.27026
 Alpha  occ. eigenvalues --  -10.26922 -10.26282 -10.25543 -10.25371 -10.24231
 Alpha  occ. eigenvalues --  -10.23463 -10.23282 -10.23136 -10.23104 -10.23086
 Alpha  occ. eigenvalues --  -10.23046 -10.22978 -10.22812 -10.22784 -10.22541
 Alpha  occ. eigenvalues --  -10.22536 -10.22415 -10.22266 -10.22258 -10.22251
 Alpha  occ. eigenvalues --  -10.21963 -10.21239  -6.80842  -6.79766  -6.78845
 Alpha  occ. eigenvalues --   -3.63146  -2.05667  -2.05442  -2.04006  -1.06593
 Alpha  occ. eigenvalues --   -1.06190  -1.05589  -1.02806  -0.99551  -0.99284
 Alpha  occ. eigenvalues --   -0.99018  -0.98534  -0.96364  -0.92770  -0.84299
 Alpha  occ. eigenvalues --   -0.83502  -0.82356  -0.81767  -0.80683  -0.80452
 Alpha  occ. eigenvalues --   -0.79857  -0.76309  -0.75089  -0.75025  -0.74932
 Alpha  occ. eigenvalues --   -0.74291  -0.73024  -0.70832  -0.70652  -0.70461
 Alpha  occ. eigenvalues --   -0.69897  -0.68183  -0.67915  -0.67892  -0.67680
 Alpha  occ. eigenvalues --   -0.67116  -0.66920  -0.63524  -0.62528  -0.62104
 Alpha  occ. eigenvalues --   -0.61460  -0.60973  -0.60142  -0.58860  -0.56646
 Alpha  occ. eigenvalues --   -0.55035  -0.54704  -0.54064  -0.53985  -0.53574
 Alpha  occ. eigenvalues --   -0.53168  -0.52688  -0.52367  -0.52214  -0.51008
 Alpha  occ. eigenvalues --   -0.49915  -0.48752  -0.47974  -0.47352  -0.47171
 Alpha  occ. eigenvalues --   -0.46895  -0.46784  -0.46540  -0.46437  -0.45894
 Alpha  occ. eigenvalues --   -0.45771  -0.45671  -0.45304  -0.45095  -0.44714
 Alpha  occ. eigenvalues --   -0.44589  -0.44424  -0.43971  -0.43881  -0.43589
 Alpha  occ. eigenvalues --   -0.43563  -0.43128  -0.42884  -0.42636  -0.41522
 Alpha  occ. eigenvalues --   -0.41409  -0.40517  -0.40338  -0.40146  -0.39954
 Alpha  occ. eigenvalues --   -0.39797  -0.39746  -0.39654  -0.39574  -0.39464
 Alpha  occ. eigenvalues --   -0.39387  -0.39275  -0.39125  -0.38965  -0.38712
 Alpha  occ. eigenvalues --   -0.38649  -0.38394  -0.37939  -0.37806  -0.37692
 Alpha  occ. eigenvalues --   -0.37585  -0.37030  -0.36760  -0.36722  -0.36574
 Alpha  occ. eigenvalues --   -0.36229  -0.36051  -0.35970  -0.35678  -0.35426
 Alpha  occ. eigenvalues --   -0.35248  -0.35095  -0.34891  -0.34309  -0.34234
 Alpha  occ. eigenvalues --   -0.33966  -0.33558  -0.33212  -0.32594  -0.32061
 Alpha  occ. eigenvalues --   -0.32001  -0.31656  -0.31411  -0.31089  -0.30984
 Alpha  occ. eigenvalues --   -0.30599  -0.30268  -0.29930  -0.29672  -0.29460
 Alpha  occ. eigenvalues --   -0.27581  -0.26488  -0.26052  -0.25882  -0.25548
 Alpha  occ. eigenvalues --   -0.25194  -0.24853  -0.23321  -0.22970  -0.22807
 Alpha  occ. eigenvalues --   -0.22030  -0.21833  -0.20684
 Alpha virt. eigenvalues --   -0.05967  -0.02919  -0.01741   0.00989   0.01909
 Alpha virt. eigenvalues --    0.02913   0.04413   0.05354   0.06155   0.06609
 Alpha virt. eigenvalues --    0.07029   0.07422   0.07879   0.08904   0.09433
 Alpha virt. eigenvalues --    0.09732   0.10277   0.10410   0.10929   0.11242
 Alpha virt. eigenvalues --    0.11778   0.11923   0.12385   0.12718   0.12977
 Alpha virt. eigenvalues --    0.13357   0.13646   0.13803   0.14378   0.14499
 Alpha virt. eigenvalues --    0.14641   0.14880   0.15126   0.15289   0.15471
 Alpha virt. eigenvalues --    0.15796   0.16016   0.16129   0.16286   0.16665
 Alpha virt. eigenvalues --    0.16735   0.16966   0.17164   0.17401   0.17521
 Alpha virt. eigenvalues --    0.17586   0.17983   0.18136   0.18395   0.18760
 Alpha virt. eigenvalues --    0.18894   0.19119   0.19174   0.19314   0.19433
 Alpha virt. eigenvalues --    0.19734   0.19902   0.20163   0.20268   0.20418
 Alpha virt. eigenvalues --    0.20770   0.20941   0.21020   0.21192   0.21238
 Alpha virt. eigenvalues --    0.21664   0.21891   0.22142   0.22242   0.22476
 Alpha virt. eigenvalues --    0.22771   0.22812   0.23590   0.23972   0.24176
 Alpha virt. eigenvalues --    0.24319   0.24354   0.24583   0.24887   0.25375
 Alpha virt. eigenvalues --    0.25459   0.25959   0.26106   0.26534   0.26731
 Alpha virt. eigenvalues --    0.26839   0.27025   0.27118   0.27505   0.27997
 Alpha virt. eigenvalues --    0.28395   0.28662   0.28929   0.29252   0.29782
 Alpha virt. eigenvalues --    0.30135   0.30631   0.31025   0.31285   0.31482
 Alpha virt. eigenvalues --    0.32245   0.32965   0.32993   0.33765   0.34439
 Alpha virt. eigenvalues --    0.34697   0.35108   0.36071   0.36365   0.36464
 Alpha virt. eigenvalues --    0.36776   0.37962   0.38385   0.38801   0.39628
 Alpha virt. eigenvalues --    0.40313   0.41378   0.41919   0.42582   0.44179
 Alpha virt. eigenvalues --    0.44803   0.46322   0.47361   0.48228   0.48441
 Alpha virt. eigenvalues --    0.48661   0.49143   0.50421   0.50520   0.50791
 Alpha virt. eigenvalues --    0.50976   0.51163   0.51621   0.51865   0.52179
 Alpha virt. eigenvalues --    0.52537   0.52811   0.53409   0.54023   0.54520
 Alpha virt. eigenvalues --    0.54771   0.54877   0.55570   0.55913   0.56097
 Alpha virt. eigenvalues --    0.56425   0.56810   0.57169   0.57410   0.57669
 Alpha virt. eigenvalues --    0.58089   0.58342   0.58559   0.58672   0.58795
 Alpha virt. eigenvalues --    0.59212   0.59337   0.59591   0.59670   0.59817
 Alpha virt. eigenvalues --    0.60073   0.60547   0.60637   0.60922   0.61084
 Alpha virt. eigenvalues --    0.61452   0.61458   0.61859   0.62219   0.62380
 Alpha virt. eigenvalues --    0.62953   0.63209   0.63552   0.63866   0.64019
 Alpha virt. eigenvalues --    0.64138   0.64594   0.65074   0.65527   0.65823
 Alpha virt. eigenvalues --    0.66198   0.66577   0.66719   0.66942   0.67762
 Alpha virt. eigenvalues --    0.67943   0.68322   0.68638   0.68892   0.69299
 Alpha virt. eigenvalues --    0.69559   0.70252   0.70311   0.70507   0.70711
 Alpha virt. eigenvalues --    0.71120   0.71564   0.72192   0.72381   0.72639
 Alpha virt. eigenvalues --    0.73041   0.73323   0.73469   0.73766   0.74396
 Alpha virt. eigenvalues --    0.74993   0.75251   0.75526   0.75880   0.76316
 Alpha virt. eigenvalues --    0.76824   0.77221   0.77852   0.77880   0.78212
 Alpha virt. eigenvalues --    0.78778   0.79134   0.79308   0.79635   0.79938
 Alpha virt. eigenvalues --    0.80233   0.80780   0.81447   0.81551   0.82106
 Alpha virt. eigenvalues --    0.82413   0.82486   0.82727   0.83118   0.83339
 Alpha virt. eigenvalues --    0.83486   0.83773   0.83793   0.84343   0.84519
 Alpha virt. eigenvalues --    0.84606   0.84857   0.85300   0.85341   0.85707
 Alpha virt. eigenvalues --    0.85920   0.86432   0.86629   0.86785   0.87023
 Alpha virt. eigenvalues --    0.87299   0.87381   0.87850   0.88030   0.88473
 Alpha virt. eigenvalues --    0.88586   0.88797   0.89064   0.89343   0.89557
 Alpha virt. eigenvalues --    0.89835   0.90229   0.90353   0.90503   0.90678
 Alpha virt. eigenvalues --    0.90847   0.91023   0.91444   0.91558   0.91722
 Alpha virt. eigenvalues --    0.92199   0.92313   0.92856   0.93099   0.93396
 Alpha virt. eigenvalues --    0.93761   0.93988   0.94441   0.94862   0.95248
 Alpha virt. eigenvalues --    0.95483   0.95935   0.96225   0.96376   0.96627
 Alpha virt. eigenvalues --    0.96877   0.97394   0.97642   0.97915   0.98308
 Alpha virt. eigenvalues --    0.98919   0.99138   1.00078   1.00154   1.00582
 Alpha virt. eigenvalues --    1.01165   1.01699   1.01902   1.02879   1.03079
 Alpha virt. eigenvalues --    1.03313   1.03624   1.04475   1.04902   1.05030
 Alpha virt. eigenvalues --    1.05192   1.06337   1.06910   1.07560   1.08073
 Alpha virt. eigenvalues --    1.08358   1.09024   1.09412   1.10229   1.10488
 Alpha virt. eigenvalues --    1.11208   1.11896   1.12381   1.12601   1.12999
 Alpha virt. eigenvalues --    1.14239   1.14637   1.15389   1.15825   1.16277
 Alpha virt. eigenvalues --    1.16654   1.17910   1.18222   1.18759   1.18927
 Alpha virt. eigenvalues --    1.19664   1.20038   1.20979   1.21138   1.21364
 Alpha virt. eigenvalues --    1.21984   1.22203   1.22811   1.23618   1.24519
 Alpha virt. eigenvalues --    1.24841   1.25263   1.26341   1.26590   1.27468
 Alpha virt. eigenvalues --    1.27718   1.28250   1.28943   1.29080   1.29810
 Alpha virt. eigenvalues --    1.30719   1.31242   1.31942   1.32658   1.33870
 Alpha virt. eigenvalues --    1.34355   1.35059   1.35771   1.36505   1.37371
 Alpha virt. eigenvalues --    1.38339   1.39060   1.39664   1.40129   1.40641
 Alpha virt. eigenvalues --    1.40893   1.41565   1.42147   1.42482   1.43249
 Alpha virt. eigenvalues --    1.44209   1.44331   1.45315   1.45730   1.45808
 Alpha virt. eigenvalues --    1.46297   1.46586   1.47007   1.47158   1.47660
 Alpha virt. eigenvalues --    1.48138   1.48621   1.48708   1.49040   1.49718
 Alpha virt. eigenvalues --    1.50254   1.50970   1.51060   1.51757   1.52380
 Alpha virt. eigenvalues --    1.52967   1.53994   1.55840   1.56270   1.56460
 Alpha virt. eigenvalues --    1.58152   1.58261   1.58871   1.59681   1.60254
 Alpha virt. eigenvalues --    1.60575   1.61845   1.63471   1.63964   1.64827
 Alpha virt. eigenvalues --    1.65456   1.65628   1.66452   1.66953   1.67286
 Alpha virt. eigenvalues --    1.68020   1.68814   1.69564   1.70074   1.70404
 Alpha virt. eigenvalues --    1.71166   1.72003   1.72629   1.73464   1.74759
 Alpha virt. eigenvalues --    1.75778   1.76984   1.77412   1.77948   1.78716
 Alpha virt. eigenvalues --    1.78770   1.78895   1.79681   1.80500   1.81105
 Alpha virt. eigenvalues --    1.81349   1.81706   1.81986   1.82246   1.82762
 Alpha virt. eigenvalues --    1.83468   1.84120   1.84547   1.85199   1.86133
 Alpha virt. eigenvalues --    1.86227   1.86324   1.87042   1.87586   1.87919
 Alpha virt. eigenvalues --    1.88608   1.89006   1.89296   1.89839   1.89943
 Alpha virt. eigenvalues --    1.90646   1.91027   1.91372   1.91665   1.91811
 Alpha virt. eigenvalues --    1.92219   1.92383   1.92487   1.92867   1.93048
 Alpha virt. eigenvalues --    1.93398   1.93675   1.93795   1.94148   1.94392
 Alpha virt. eigenvalues --    1.94882   1.95664   1.96308   1.97213   1.97417
 Alpha virt. eigenvalues --    1.98186   1.98244   1.98392   1.98987   1.99654
 Alpha virt. eigenvalues --    2.00732   2.01037   2.02105   2.02520   2.03090
 Alpha virt. eigenvalues --    2.03268   2.04157   2.04956   2.05672   2.06101
 Alpha virt. eigenvalues --    2.06354   2.06961   2.07109   2.07666   2.07945
 Alpha virt. eigenvalues --    2.08553   2.08911   2.09341   2.09461   2.10265
 Alpha virt. eigenvalues --    2.10481   2.10836   2.11236   2.11645   2.11781
 Alpha virt. eigenvalues --    2.12831   2.13072   2.13962   2.14238   2.14498
 Alpha virt. eigenvalues --    2.14823   2.15104   2.15515   2.15865   2.16047
 Alpha virt. eigenvalues --    2.16304   2.16810   2.17063   2.17398   2.18103
 Alpha virt. eigenvalues --    2.18494   2.18809   2.19117   2.19204   2.19273
 Alpha virt. eigenvalues --    2.19983   2.20178   2.20854   2.20950   2.21394
 Alpha virt. eigenvalues --    2.21807   2.22040   2.22544   2.22750   2.22897
 Alpha virt. eigenvalues --    2.23512   2.23807   2.24423   2.24636   2.25739
 Alpha virt. eigenvalues --    2.26186   2.26427   2.27040   2.27150   2.27876
 Alpha virt. eigenvalues --    2.28094   2.28679   2.29019   2.29593   2.30351
 Alpha virt. eigenvalues --    2.31183   2.31657   2.32331   2.32935   2.33037
 Alpha virt. eigenvalues --    2.33507   2.33860   2.34696   2.35266   2.35661
 Alpha virt. eigenvalues --    2.36310   2.36687   2.37917   2.38253   2.38660
 Alpha virt. eigenvalues --    2.39414   2.39520   2.40782   2.41869   2.42634
 Alpha virt. eigenvalues --    2.44129   2.45765   2.46539   2.47481   2.48079
 Alpha virt. eigenvalues --    2.48428   2.48696   2.49404   2.49791   2.50041
 Alpha virt. eigenvalues --    2.50915   2.51083   2.52697   2.54716   2.56664
 Alpha virt. eigenvalues --    2.58039   2.59340   2.59696   2.60634   2.60868
 Alpha virt. eigenvalues --    2.61521   2.62292   2.62673   2.63038   2.64074
 Alpha virt. eigenvalues --    2.64282   2.65158   2.65347   2.65702   2.68537
 Alpha virt. eigenvalues --    2.69340   2.69976   2.70583   2.71902   2.73191
 Alpha virt. eigenvalues --    2.73973   2.76882   2.78075   2.78281   2.79086
 Alpha virt. eigenvalues --    2.79196   2.79807   2.79868   2.80355   2.80980
 Alpha virt. eigenvalues --    2.81189   2.81505   2.81910   2.82315   2.83492
 Alpha virt. eigenvalues --    2.84422   2.85222   2.86329   2.87307   2.88472
 Alpha virt. eigenvalues --    2.88832   2.91877   2.92926   2.94716   2.95957
 Alpha virt. eigenvalues --    2.96441   2.97139   2.97875   2.99939   3.01008
 Alpha virt. eigenvalues --    3.03973   3.05189   3.08128   3.08307   3.11710
 Alpha virt. eigenvalues --    3.12841   3.13681   3.14839   3.21136   3.26156
 Alpha virt. eigenvalues --    3.32080   3.38261   3.45788  15.15368
          Condensed to atoms (all electrons):
 Mulliken charges:
               1
     1  C    0.301936
     2  C    0.080645
     3  C   -0.155520
     4  C   -0.133568
     5  C   -0.177720
     6  C    0.302106
     7  C    0.050146
     8  C   -0.173654
     9  C   -0.138052
    10  C   -0.184209
    11  H    0.193756
    12  H    0.175770
    13  H    0.163079
    14  H    0.240397
    15  H    0.180346
    16  H    0.173493
    17  N   -0.453739
    18  N   -0.497437
    19  Ir  -0.216763
    20  O   -0.510861
    21  O   -0.524935
    22  O   -0.497123
    23  B    0.506304
    24  B    0.534637
    25  B    0.519043
    26  O   -0.520366
    27  O   -0.543671
    28  C    0.305418
    29  C    0.288175
    30  C    0.290628
    31  C    0.297225
    32  C    0.292557
    33  C    0.295303
    34  O   -0.530374
    35  C   -0.513855
    36  H    0.147285
    37  H    0.165833
    38  H    0.171402
    39  C   -0.492926
    40  H    0.154043
    41  H    0.139135
    42  H    0.183162
    43  C   -0.511909
    44  H    0.159529
    45  H    0.152642
    46  H    0.177747
    47  C   -0.509622
    48  H    0.148347
    49  H    0.160725
    50  H    0.178093
    51  C   -0.495380
    52  H    0.164791
    53  H    0.146362
    54  H    0.177283
    55  C   -0.507161
    56  H    0.152442
    57  H    0.168401
    58  H    0.161604
    59  C   -0.512114
    60  H    0.155488
    61  H    0.162168
    62  H    0.170539
    63  C   -0.508560
    64  H    0.149055
    65  H    0.150833
    66  H    0.188866
    67  C   -0.508347
    68  H    0.167999
    69  H    0.164175
    70  H    0.151939
    71  C   -0.506008
    72  H    0.167974
    73  H    0.151329
    74  H    0.166645
    75  C   -0.510758
    76  H    0.148195
    77  H    0.170346
    78  H    0.169778
    79  C   -0.501013
    80  H    0.162985
    81  H    0.145473
    82  H    0.176782
    83  H    0.180177
    84  C   -0.009121
    85  C   -0.162793
    86  C   -0.122150
    87  C   -0.170523
    88  C   -0.174319
    89  C   -0.141402
    90  H    0.147902
    91  H    0.223472
    92  H    0.158849
    93  H    0.134901
    94  C    0.484500
    95  O   -0.515176
    96  N   -0.362462
    97  C   -0.368783
    98  H    0.202988
    99  H    0.161637
   100  H    0.159913
   101  C   -0.372089
   102  H    0.200302
   103  H    0.184956
   104  H    0.160452
   105  H    0.171419
   106  H    0.142639
 Sum of Mulliken charges =  -0.00000
 Mulliken charges with hydrogens summed into heavy atoms:
               1
     1  C    0.301936
     2  C    0.274400
     3  C    0.015899
     4  C    0.042202
     5  C   -0.014641
     6  C    0.302106
     7  C    0.290543
     8  C    0.006523
     9  C    0.042294
    10  C   -0.010716
    17  N   -0.453739
    18  N   -0.497437
    19  Ir   0.006708
    20  O   -0.510861
    21  O   -0.524935
    22  O   -0.497123
    23  B    0.506304
    24  B    0.534637
    25  B    0.519043
    26  O   -0.520366
    27  O   -0.543671
    28  C    0.305418
    29  C    0.288175
    30  C    0.290628
    31  C    0.297225
    32  C    0.292557
    33  C    0.295303
    34  O   -0.530374
    35  C   -0.029336
    39  C   -0.016586
    43  C   -0.021991
    47  C   -0.022456
    51  C   -0.006944
    55  C   -0.024714
    59  C   -0.023920
    63  C   -0.019806
    67  C   -0.024233
    71  C   -0.020060
    75  C   -0.022439
    79  C   -0.015774
    84  C   -0.009121
    85  C   -0.003944
    86  C   -0.122150
    87  C   -0.022621
    88  C   -0.039419
    89  C    0.001237
    94  C    0.484500
    95  O   -0.515176
    96  N   -0.362462
    97  C    0.155755
   101  C    0.173621
 APT charges:
               1
     1  C    0.177434
     2  C    0.081999
     3  C   -0.077183
     4  C    0.136641
     5  C   -0.156813
     6  C    0.230554
     7  C    0.059643
     8  C   -0.095988
     9  C    0.147360
    10  C   -0.187489
    11  H    0.100919
    12  H    0.022335
    13  H    0.034485
    14  H    0.151143
    15  H    0.026280
    16  H    0.041675
    17  N   -0.252533
    18  N   -0.181833
    19  Ir  -0.984789
    20  O   -0.940251
    21  O   -0.988018
    22  O   -0.932944
    23  B    1.310800
    24  B    1.242537
    25  B    1.224262
    26  O   -0.942148
    27  O   -1.012272
    28  C    0.513468
    29  C    0.474465
    30  C    0.462790
    31  C    0.454417
    32  C    0.486009
    33  C    0.490268
    34  O   -0.986208
    35  C   -0.001085
    36  H   -0.018870
    37  H   -0.006689
    38  H    0.000369
    39  C   -0.031389
    40  H    0.000328
    41  H   -0.031099
    42  H    0.020961
    43  C   -0.038988
    44  H   -0.001070
    45  H   -0.026198
    46  H    0.009780
    47  C   -0.009505
    48  H   -0.020025
    49  H   -0.006287
    50  H    0.004053
    51  C   -0.027439
    52  H    0.000602
    53  H   -0.027611
    54  H    0.011233
    55  C   -0.000416
    56  H   -0.017932
    57  H    0.002042
    58  H   -0.003030
    59  C   -0.016863
    60  H   -0.014831
    61  H    0.000140
    62  H    0.008276
    63  C   -0.029688
    64  H   -0.008042
    65  H   -0.022710
    66  H    0.026335
    67  C    0.000702
    68  H    0.000717
    69  H   -0.005219
    70  H   -0.019082
    71  C   -0.022724
    72  H   -0.006465
    73  H   -0.022946
    74  H   -0.011861
    75  C   -0.002223
    76  H   -0.017628
    77  H    0.001906
    78  H   -0.001157
    79  C   -0.034772
    80  H    0.003554
    81  H   -0.028208
    82  H    0.026987
    83  H    0.035473
    84  C   -0.163278
    85  C   -0.012878
    86  C    0.184800
    87  C   -0.053155
    88  C   -0.138035
    89  C    0.016811
    90  H   -0.004551
    91  H    0.300668
    92  H    0.010330
    93  H    0.041279
    94  C    1.009433
    95  O   -0.746792
    96  N   -0.720450
    97  C    0.265615
    98  H    0.064222
    99  H   -0.049890
   100  H   -0.025664
   101  C    0.264578
   102  H    0.035591
   103  H    0.002494
   104  H   -0.056125
   105  H    0.031417
   106  H   -0.008835
 Sum of APT charges =  -0.00000
 APT charges with hydrogens summed into heavy atoms:
               1
     1  C    0.177434
     2  C    0.182917
     3  C   -0.045766
     4  C    0.158976
     5  C   -0.122328
     6  C    0.230554
     7  C    0.210786
     8  C   -0.060514
     9  C    0.173640
    10  C   -0.145814
    17  N   -0.252533
    18  N   -0.181833
    19  Ir  -0.684121
    20  O   -0.940251
    21  O   -0.988018
    22  O   -0.932944
    23  B    1.310800
    24  B    1.242537
    25  B    1.224262
    26  O   -0.942148
    27  O   -1.012272
    28  C    0.513468
    29  C    0.474465
    30  C    0.462790
    31  C    0.454417
    32  C    0.486009
    33  C    0.490268
    34  O   -0.986208
    35  C   -0.026275
    39  C   -0.041200
    43  C   -0.056476
    47  C   -0.031763
    51  C   -0.043216
    55  C   -0.019336
    59  C   -0.023278
    63  C   -0.034104
    67  C   -0.022883
    71  C   -0.063997
    75  C   -0.019103
    79  C   -0.032439
    84  C   -0.163278
    85  C   -0.002548
    86  C    0.184800
    87  C   -0.057706
    88  C   -0.096756
    89  C    0.007975
    94  C    1.009433
    95  O   -0.746792
    96  N   -0.720450
    97  C    0.254283
   101  C    0.246539
 Electronic spatial extent (au):  <R**2>=          24792.9394
 Charge=             -0.0000 electrons
 Dipole moment (field-independent basis, Debye):
    X=              0.2127    Y=             -0.8114    Z=              3.6867  Tot=              3.7809
 Quadrupole moment (field-independent basis, Debye-Ang):
   XX=           -313.9686   YY=           -290.3205   ZZ=           -293.2975
   XY=             -2.4432   XZ=            -14.9742   YZ=              7.0225
 Traceless Quadrupole moment (field-independent basis, Debye-Ang):
   XX=            -14.7731   YY=              8.8751   ZZ=              5.8980
   XY=             -2.4432   XZ=            -14.9742   YZ=              7.0225
 Octapole moment (field-independent basis, Debye-Ang**2):
  XXX=             28.7245  YYY=             30.0859  ZZZ=             41.0630  XYY=            -33.7996
  XXY=             15.7785  XXZ=             48.2507  XZZ=            -68.2182  YZZ=              1.0730
  YYZ=             13.8602  XYZ=             -8.0470
 Hexadecapole moment (field-independent basis, Debye-Ang**3):
 XXXX=         -13048.2145 YYYY=         -10362.4876 ZZZZ=          -9496.6556 XXXY=            -25.1538
 XXXZ=           -185.4753 YYYX=             95.5152 YYYZ=            134.5244 ZZZX=           -114.2838
 ZZZY=            167.8514 XXYY=          -3719.7364 XXZZ=          -3406.4122 YYZZ=          -3229.5265
 XXYZ=            -61.6951 YYXZ=           -151.3706 ZZXY=            -60.4643
 N-N= 8.437427217946D+03 E-N=-2.223448650591D+04  KE= 2.226168669568D+03
  Exact polarizability:     498.579       2.365     534.606     -22.244      11.865     453.212
 Approx polarizability:     720.557      28.775     816.810     -50.718      28.829     654.963
   1 Symmetry operations used in ECPInt.
 ECPInt:  NShTT=   50721 NPrTT=  310367 LenC2=   40416 LenP2D=  126279.
 LDataN:  DoStor=T MaxTD1= 8 Len=  415
 Calling FoFJK, ICntrl=    100127 FMM=F ISym2X=0 I1Cent= 0 IOpClX= 0 NMat=1 NMatS=1 NMatT=0.
 Defaulting to unpruned grid for atomic number  77.
 Defaulting to unpruned grid for atomic number  77.
 Defaulting to unpruned grid for atomic number  77.
 Defaulting to unpruned grid for atomic number  77.
 Defaulting to unpruned grid for atomic number  77.
 Defaulting to unpruned grid for atomic number  77.
 Defaulting to unpruned grid for atomic number  77.
 Defaulting to unpruned grid for atomic number  77.
 Defaulting to unpruned grid for atomic number  77.
 Defaulting to unpruned grid for atomic number  77.
 Defaulting to unpruned grid for atomic number  77.
 Defaulting to unpruned grid for atomic number  77.
 Defaulting to unpruned grid for atomic number  77.
 Defaulting to unpruned grid for atomic number  77.
 Defaulting to unpruned grid for atomic number  77.
 Defaulting to unpruned grid for atomic number  77.
 Full mass-weighted force constant matrix:
 Low frequencies --- -772.9792   -1.2546   -0.0000    0.0004    0.0007    5.3710
 Low frequencies ---    6.9479   23.1133   33.0546
 ******    1 imaginary frequencies (negative Signs) ****** 
 Diagonal vibrational polarizability:
       98.3685468      67.6082352      75.6609630
 Harmonic frequencies (cm**-1), IR intensities (KM/Mole), Raman scattering
 activities (A**4/AMU), depolarization ratios for plane and unpolarized
 incident light, reduced masses (AMU), force constants (mDyne/A),
 and normal coordinates:
                      1                      2                      3
                      A                      A                      A
 Frequencies --   -772.9792                22.9782                33.0439
 Red. masses --      1.1150                 4.9471                 5.0495
 Frc consts  --      0.3925                 0.0015                 0.0032
 IR Inten    --    563.2131                 0.3596                 0.4951
  Atom AN      X      Y      Z        X      Y      Z        X      Y      Z
     1   6    -0.00  -0.00  -0.00    -0.00  -0.02  -0.00    -0.02   0.02  -0.04
     2   6    -0.00   0.00  -0.00    -0.04   0.01  -0.06     0.00   0.00  -0.01
     3   6    -0.00   0.00  -0.00    -0.06   0.01  -0.09    -0.03   0.02  -0.03
     4   6    -0.00   0.00   0.00    -0.06  -0.00  -0.08    -0.05   0.03  -0.05
     5   6    -0.00  -0.00   0.00    -0.03  -0.02  -0.04    -0.05   0.03  -0.06
     6   6     0.00  -0.00  -0.00     0.05  -0.04   0.06    -0.02   0.02  -0.05
     7   6     0.00  -0.00  -0.00     0.07  -0.05   0.07     0.02  -0.01  -0.00
     8   6     0.00  -0.00  -0.00     0.15  -0.09   0.16    -0.02   0.02  -0.05
     9   6     0.00  -0.00  -0.00     0.18  -0.10   0.20    -0.06   0.05  -0.11
    10   6     0.00  -0.00  -0.00     0.13  -0.07   0.15    -0.07   0.05  -0.10
    11   1    -0.01  -0.00  -0.00    -0.04   0.02  -0.06     0.02  -0.01   0.01
    12   1    -0.00   0.00  -0.00    -0.09  -0.00  -0.11    -0.07   0.04  -0.06
    13   1    -0.00  -0.00  -0.00    -0.04  -0.03  -0.03    -0.07   0.05  -0.08
    14   1     0.00   0.00   0.00     0.04  -0.04   0.03     0.05  -0.03   0.03
    15   1     0.00  -0.00  -0.00     0.25  -0.13   0.28    -0.10   0.07  -0.15
    16   1     0.00  -0.00  -0.01     0.16  -0.08   0.19    -0.10   0.07  -0.15
    17   7    -0.00  -0.00  -0.00    -0.01  -0.00  -0.02     0.00   0.00  -0.02
    18   7     0.01  -0.01  -0.00     0.02  -0.02   0.02     0.02  -0.00  -0.00
    19  77    -0.01   0.00  -0.01    -0.01   0.00  -0.00     0.02  -0.01  -0.01
    20   8    -0.00  -0.00   0.00    -0.01  -0.02  -0.02     0.02  -0.03  -0.02
    21   8     0.00   0.00   0.00    -0.00  -0.01   0.03     0.02  -0.01   0.02
    22   8     0.00  -0.00   0.00    -0.01   0.02  -0.01     0.00  -0.01   0.00
    23   5     0.01  -0.02   0.02    -0.00   0.00   0.00     0.02  -0.01  -0.00
    24   5    -0.00   0.01  -0.00    -0.01  -0.00  -0.02     0.01  -0.01  -0.02
    25   5     0.01  -0.01   0.00    -0.01   0.02   0.01     0.01  -0.01  -0.01
    26   8     0.00  -0.00   0.00    -0.02   0.03   0.04     0.01  -0.01  -0.00
    27   8    -0.00  -0.00   0.00    -0.02   0.02  -0.04     0.01   0.00  -0.04
    28   6    -0.00   0.00  -0.00    -0.03   0.00  -0.06     0.00  -0.01  -0.06
    29   6    -0.00  -0.00   0.00    -0.02  -0.02  -0.03     0.02  -0.02  -0.03
    30   6     0.00  -0.00   0.00    -0.01   0.04   0.01    -0.01  -0.00   0.02
    31   6     0.00  -0.00   0.00    -0.02   0.05   0.04    -0.01   0.00   0.01
    32   6     0.00  -0.00  -0.00     0.01  -0.01   0.05     0.03  -0.01   0.02
    33   6     0.00  -0.00   0.00     0.00  -0.00   0.02     0.02  -0.00  -0.01
    34   8     0.00   0.00   0.00     0.00   0.01  -0.01     0.03   0.00  -0.02
    35   6    -0.00  -0.00   0.00    -0.02  -0.05  -0.04     0.03  -0.05  -0.03
    36   1    -0.00  -0.00   0.00    -0.02  -0.04  -0.06     0.02  -0.04  -0.04
    37   1     0.00   0.00  -0.00    -0.01  -0.06  -0.02     0.04  -0.06  -0.01
    38   1    -0.00  -0.00   0.00    -0.02  -0.07  -0.06     0.03  -0.07  -0.05
    39   6    -0.00  -0.00   0.00    -0.02   0.01  -0.01     0.01  -0.00   0.00
    40   1     0.00   0.00  -0.00    -0.01  -0.00   0.01     0.02  -0.01   0.02
    41   1    -0.00   0.00   0.00    -0.02   0.01  -0.02     0.01   0.00  -0.00
    42   1     0.00  -0.00   0.00    -0.02   0.03  -0.01     0.01   0.02   0.00
    43   6    -0.00  -0.00  -0.00    -0.04  -0.03  -0.09    -0.00  -0.04  -0.09
    44   1    -0.00  -0.00  -0.00    -0.04  -0.01  -0.11    -0.01  -0.02  -0.11
    45   1     0.00  -0.00   0.00    -0.04  -0.04  -0.11    -0.01  -0.05  -0.11
    46   1    -0.00   0.00   0.00    -0.03  -0.05  -0.08    -0.00  -0.06  -0.07
    47   6    -0.00  -0.00   0.00    -0.03   0.04  -0.08    -0.00   0.03  -0.07
    48   1    -0.00  -0.00  -0.00    -0.04   0.03  -0.10    -0.01   0.02  -0.08
    49   1    -0.00  -0.00  -0.00    -0.04   0.04  -0.10    -0.01   0.04  -0.10
    50   1     0.00   0.00   0.00    -0.02   0.06  -0.07     0.00   0.05  -0.06
    51   6    -0.00   0.00  -0.00     0.05  -0.02   0.05     0.07  -0.01   0.03
    52   1     0.00  -0.00  -0.00     0.06  -0.03   0.07     0.08  -0.02   0.05
    53   1    -0.00   0.00   0.00     0.06  -0.03   0.06     0.08  -0.02   0.04
    54   1     0.00   0.00  -0.00     0.06  -0.01   0.03     0.09   0.00   0.01
    55   6     0.00   0.00   0.00    -0.01  -0.02   0.08     0.02  -0.02   0.05
    56   1    -0.00   0.00   0.00     0.00  -0.02   0.09     0.03  -0.02   0.06
    57   1     0.00  -0.00  -0.00    -0.00  -0.03   0.10     0.02  -0.03   0.07
    58   1    -0.00   0.00  -0.00    -0.03  -0.02   0.08    -0.01  -0.03   0.05
    59   6    -0.00   0.00   0.00     0.03  -0.01   0.02     0.04   0.01  -0.02
    60   1     0.00   0.00   0.00     0.03  -0.01   0.04     0.04   0.01  -0.02
    61   1    -0.00   0.00   0.00     0.02  -0.00  -0.00     0.04   0.01  -0.04
    62   1    -0.00   0.00   0.00     0.05  -0.01   0.01     0.05   0.02  -0.01
    63   6    -0.00   0.00   0.00    -0.04   0.00   0.02    -0.00  -0.01  -0.02
    64   1     0.00   0.00  -0.00    -0.04   0.01   0.00    -0.01  -0.01  -0.04
    65   1    -0.00   0.00  -0.00    -0.04  -0.00   0.05    -0.01  -0.02  -0.01
    66   1     0.00  -0.00   0.00    -0.05   0.01   0.03    -0.02  -0.02  -0.01
    67   6     0.00  -0.00   0.00    -0.02   0.05   0.06    -0.02   0.00   0.03
    68   1     0.00  -0.00   0.00    -0.03   0.06   0.09    -0.02   0.01   0.03
    69   1     0.00  -0.00   0.00    -0.03   0.03   0.07    -0.01  -0.01   0.04
    70   1     0.00  -0.00   0.00    -0.02   0.07   0.06    -0.03   0.01   0.04
    71   6     0.00  -0.00   0.00    -0.01   0.08   0.03    -0.03   0.01  -0.01
    72   1     0.00   0.00   0.00    -0.02   0.09   0.04    -0.04   0.02  -0.02
    73   1    -0.00  -0.00   0.00    -0.01   0.08   0.03    -0.05   0.01  -0.00
    74   1     0.00  -0.00   0.00     0.00   0.09   0.03    -0.02   0.02  -0.02
    75   6     0.00   0.00   0.00    -0.01   0.07  -0.01    -0.02   0.00   0.02
    76   1     0.00   0.00   0.00    -0.01   0.08   0.01    -0.03   0.01   0.03
    77   1     0.00   0.00   0.00    -0.00   0.06  -0.03    -0.02   0.00   0.02
    78   1     0.00  -0.00   0.00    -0.00   0.08  -0.02    -0.03   0.01   0.00
    79   6     0.00   0.00   0.00    -0.01   0.02   0.02     0.00  -0.01   0.03
    80   1    -0.00   0.00  -0.00    -0.01   0.01  -0.00     0.01  -0.01   0.03
    81   1     0.00   0.00  -0.00    -0.02   0.03   0.03    -0.01  -0.01   0.04
    82   1     0.00  -0.00   0.00    -0.02  -0.00   0.03     0.01  -0.02   0.03
    83   1     0.00  -0.00  -0.01     0.19  -0.11   0.19    -0.01   0.02  -0.05
    84   6     0.01   0.01   0.01    -0.00   0.00  -0.03    -0.03  -0.01   0.08
    85   6     0.01  -0.00  -0.01    -0.00   0.00  -0.03    -0.07  -0.00   0.20
    86   6    -0.01   0.02   0.07    -0.01   0.00  -0.00    -0.02  -0.00   0.05
    87   6    -0.00   0.00  -0.00    -0.01   0.00  -0.01    -0.10   0.00   0.28
    88   6    -0.01   0.00   0.01    -0.02   0.01   0.02    -0.05   0.01   0.12
    89   6    -0.00   0.00  -0.01    -0.02   0.01   0.02    -0.09   0.01   0.23
    90   1    -0.01   0.00   0.01    -0.01   0.00  -0.01    -0.14   0.01   0.38
    91   1     0.74  -0.67  -0.00    -0.02   0.00  -0.00    -0.01   0.02  -0.00
    92   1     0.01  -0.00  -0.01     0.01   0.00  -0.05    -0.07  -0.01   0.24
    93   1    -0.03   0.02   0.04    -0.02   0.01   0.05    -0.04   0.01   0.09
    94   6     0.00   0.01   0.01     0.01   0.00  -0.06    -0.00  -0.01   0.01
    95   8     0.00  -0.00   0.00     0.00  -0.02  -0.08    -0.02  -0.05  -0.03
    96   7     0.00   0.00   0.00     0.02   0.02  -0.07     0.03   0.03  -0.00
    97   6    -0.00   0.00  -0.00     0.03   0.02  -0.09     0.05   0.03  -0.05
    98   1    -0.00   0.00  -0.00     0.02   0.00  -0.11     0.05  -0.01  -0.07
    99   1    -0.00  -0.00  -0.00     0.05   0.03  -0.11     0.06   0.05  -0.07
   100   1    -0.00  -0.00  -0.00     0.03   0.02  -0.09     0.06   0.04  -0.06
   101   6    -0.00   0.00   0.00     0.04   0.04  -0.05     0.02   0.08   0.02
   102   1     0.01   0.00   0.02     0.04   0.04  -0.02     0.01   0.08   0.05
   103   1    -0.00  -0.01  -0.01     0.04   0.04  -0.04     0.03   0.09   0.01
   104   1    -0.00   0.01  -0.00     0.05   0.06  -0.06     0.03   0.11   0.00
   105   1    -0.00   0.00  -0.00    -0.08   0.02  -0.12    -0.03   0.01  -0.02
   106   1    -0.00   0.00  -0.02    -0.02   0.01   0.05    -0.12   0.01   0.29
                      4                      5                      6
                      A                      A                      A
 Frequencies --     38.0138                38.4455                44.6831
 Red. masses --      4.0416                 4.4585                 5.3685
 Frc consts  --      0.0034                 0.0039                 0.0063
 IR Inten    --      0.0397                 0.3986                 0.4560
  Atom AN      X      Y      Z        X      Y      Z        X      Y      Z
     1   6    -0.00  -0.04  -0.02     0.06  -0.05   0.01    -0.04  -0.04  -0.03
     2   6     0.01  -0.03  -0.04     0.05  -0.02  -0.03    -0.00  -0.04  -0.03
     3   6     0.03  -0.04  -0.04     0.12  -0.05   0.01    -0.04  -0.03  -0.06
     4   6     0.03  -0.06  -0.02     0.16  -0.09   0.05    -0.07  -0.04  -0.08
     5   6     0.02  -0.06  -0.02     0.12  -0.08   0.06    -0.07  -0.04  -0.07
     6   6    -0.02  -0.04  -0.02     0.02  -0.04   0.01    -0.04  -0.04  -0.02
     7   6    -0.04  -0.02  -0.00    -0.04   0.00  -0.03    -0.02  -0.05   0.03
     8   6    -0.06  -0.03  -0.01    -0.04  -0.02  -0.02    -0.06  -0.04   0.00
     9   6    -0.07  -0.04  -0.03    -0.00  -0.05   0.01    -0.09  -0.04  -0.05
    10   6    -0.05  -0.05  -0.03     0.03  -0.06   0.03    -0.08  -0.04  -0.06
    11   1     0.00  -0.01  -0.05     0.01   0.01  -0.07     0.02  -0.04  -0.00
    12   1     0.05  -0.07  -0.02     0.21  -0.11   0.09    -0.09  -0.04  -0.11
    13   1     0.02  -0.07  -0.01     0.16  -0.11   0.09    -0.09  -0.04  -0.08
    14   1    -0.04  -0.01   0.01    -0.06   0.03  -0.05    -0.00  -0.05   0.06
    15   1    -0.09  -0.05  -0.04    -0.00  -0.06   0.03    -0.13  -0.03  -0.08
    16   1    -0.05  -0.06  -0.05     0.05  -0.09   0.05    -0.11  -0.03  -0.10
    17   7    -0.00  -0.03  -0.03     0.02  -0.02  -0.03    -0.00  -0.04  -0.01
    18   7    -0.02  -0.03  -0.01    -0.01  -0.01  -0.02    -0.01  -0.05   0.02
    19  77    -0.00  -0.01  -0.01    -0.00   0.01  -0.03     0.01  -0.03   0.03
    20   8    -0.00   0.01   0.01     0.04  -0.03   0.01    -0.03  -0.02  -0.01
    21   8    -0.01  -0.02  -0.00     0.01  -0.01   0.04     0.02  -0.00   0.01
    22   8     0.06   0.02  -0.08    -0.04   0.01   0.01    -0.00   0.00   0.01
    23   5    -0.01  -0.01  -0.01     0.01   0.01  -0.02     0.02  -0.02   0.02
    24   5     0.00  -0.01   0.01     0.01   0.00  -0.02    -0.00  -0.02   0.01
    25   5     0.01   0.02  -0.01    -0.02   0.01  -0.00     0.02  -0.02   0.01
    26   8    -0.02   0.05   0.06    -0.03   0.01   0.01     0.06  -0.03   0.01
    27   8     0.02  -0.03   0.04    -0.01   0.02  -0.04    -0.01  -0.00  -0.01
    28   6     0.03  -0.02   0.07     0.01  -0.00  -0.03    -0.05   0.01  -0.06
    29   6     0.01  -0.00   0.02     0.03  -0.02   0.02    -0.05   0.01  -0.05
    30   6     0.05   0.05  -0.06    -0.04   0.02   0.02     0.02   0.02   0.01
    31   6     0.02   0.10   0.04    -0.04   0.01   0.01     0.05  -0.00   0.01
    32   6    -0.01  -0.03   0.01     0.03  -0.01   0.04     0.02  -0.00   0.01
    33   6    -0.02  -0.02   0.01     0.00   0.02  -0.04     0.03  -0.02   0.02
    34   8    -0.01  -0.01  -0.01     0.01   0.04  -0.07     0.02  -0.03   0.03
    35   6    -0.01   0.03   0.02     0.08  -0.06   0.02    -0.10  -0.01  -0.08
    36   1     0.01   0.01   0.03     0.07  -0.05   0.03    -0.11   0.01  -0.12
    37   1    -0.04   0.04  -0.01     0.10  -0.07   0.06    -0.09  -0.01  -0.07
    38   1    -0.01   0.07   0.05     0.10  -0.08  -0.02    -0.13  -0.05  -0.07
    39   6     0.01  -0.04  -0.02     0.01  -0.01   0.07    -0.01   0.04  -0.07
    40   1    -0.01  -0.03  -0.05     0.03  -0.02   0.10    -0.00   0.04  -0.06
    41   1     0.02  -0.05  -0.02     0.01  -0.00   0.09    -0.02   0.07  -0.10
[...]
 002443,-0.00000043,0.00001204,0.00000089,0.00000362,0.00000056,-0.0000
 0116,-0.00006652,0.00000515,-0.00002338,0.00001273,-0.00000799,0.00000
 340,0.00000250,0.00001380,-0.00000238,0.00006301,-0.00021529,-0.000206
 59,0.00006823,0.00018704,0.00015940,0.00002083,0.00018080,0.00001608,-
 0.00009871,-0.00013841,0.00004018,0.00010291,-0.00015996,0.00022683,0.
 00001757,0.00004406,-0.00003818,-0.00004142,-0.00003277,0.00009971,-0.
 00004366,0.00005000,0.00004112,0.00001129,0.00001760,-0.00002652,0.000
 00227,-0.00001330,-0.00001006,0.00000616,-0.00000186,0.00001048,0.0235
 4486,0.33904842,0.00082899,0.00001098,-0.00127678,-0.00108583,0.016456
 42,0.00738402,0.00668482,-0.06908212,-0.06472048,-0.00346844,-0.023124
 18,-0.00103387,0.00597764,-0.00195118,-0.00014437,-0.00075003,0.000437
 40,-0.00048634,-0.00003530,0.00000752,0.00000653,-0.00000961,-0.000003
 80,-0.00002607,-0.00006581,0.00001477,0.00003452,0.00012209,0.00001340
 ,-0.00001826,-0.00178215,0.00004771,-0.00101538,-0.00227470,0.00101958
 ,-0.00081409,-0.00009395,-0.00114501,-0.00008569,0.00001008,-0.0000036
 6,-0.00000577,-0.00000230,0.00000179,-0.00000567,-0.00001950,0.0000078
 5,0.00007150,0.00600926,0.00218698,0.00176867,0.00002527,-0.00006002,0
 .00007591,-0.00043409,-0.00017010,0.00011279,0.00002286,0.00001836,-0.
 00001612,-0.00003822,-0.00003332,-0.00003151,-0.00002961,0.00003692,-0
 .00004311,0.00003002,0.00012885,0.00009567,0.00006935,-0.00000096,-0.0
 0001310,0.00000124,-0.00006260,0.00006962,-0.00001262,0.00006278,-0.00
 009536,0.00000597,0.00002215,-0.00000370,0.00000526,0.00000280,0.00000
 368,0.00000300,0.00000308,-0.00000549,-0.00000567,-0.00002560,0.000011
 11,0.00002596,-0.00003244,0.00003749,0.00002186,0.00001486,0.00001372,
 0.00001018,-0.00002797,-0.00000598,-0.00006930,-0.00010952,-0.00001980
 ,0.00000106,0.00000289,0.00000311,0.00000036,-0.00000050,-0.00000201,0
 .00000128,-0.00000031,-0.00000034,-0.00000039,0.00000100,-0.00000094,-
 0.00000221,0.00000424,0.00000170,0.00000191,-0.00000009,-0.00000054,0.
 00000012,-0.00000183,0.,0.00000020,-0.00000052,0.00000028,0.00000221,-
 0.00000029,-0.00000017,0.00000018,0.00000175,0.00000110,-0.00000179,0.
 00000064,-0.00000008,0.00000019,-0.00000148,-0.00000198,0.00000062,-0.
 00000071,-0.00000192,0.00000011,0.00000049,0.00000095,0.00000043,0.000
 00076,0.00000042,-0.00000078,0.00000022,-0.00000039,-0.00000487,-0.000
 00621,-0.00000259,-0.00000520,-0.00000315,0.00000145,0.00000227,0.0000
 0019,-0.00000106,0.00000075,0.00000539,-0.00000200,-0.00000380,-0.0000
 0937,0.00000244,0.00000226,0.00000026,-0.00000048,-0.00000523,-0.00000
 234,0.00000073,0.00000212,0.00000270,-0.00000077,0.00001870,0.00002442
 ,-0.00000236,-0.00001198,-0.00000159,0.00000013,-0.00000611,-0.0000186
 5,-0.00000481,0.00000052,-0.00000150,-0.00000388,0.00010106,0.00008790
 ,-0.00001545,-0.00013973,-0.00006725,0.00007063,-0.00003117,-0.0000132
 5,0.00000716,-0.00003755,-0.00002130,0.00000802,-0.00003310,-0.0000220
 7,0.00001657,0.00000485,0.00001246,-0.00000860,0.00000464,0.00000296,-
 0.00000183,0.00000508,0.00000681,-0.00000256,-0.00003009,-0.00002268,-
 0.00000627,0.00001471,-0.00001698,-0.00000372,-0.00000284,0.00000173,-
 0.00000547,0.00000800,0.00002429,-0.00000035,0.00000297,0.00000139,-0.
 00000308,-0.00000391,0.00000035,-0.00000284,0.00000275,0.00000183,-0.0
 0000038,-0.00000035,-0.00000272,0.00000087,0.00000364,0.00000821,-0.00
 000018,0.00000273,0.00000261,-0.00000086,-0.00000584,0.00000079,-0.000
 00261,0.00000126,-0.00000206,0.00000434,0.00001193,-0.00001301,0.00002
 701,-0.00000666,-0.00002777,0.00000286,-0.00001353,-0.00000027,-0.0000
 0316,0.00006497,0.00001675,0.00001656,-0.00000969,-0.00000140,-0.00000
 277,-0.00002188,0.00001505,-0.00000590,0.00000271,-0.00000497,0.000005
 22,0.00000124,-0.00000352,0.00000054,0.00003087,-0.00000085,0.00000027
 ,-0.00000343,0.00000513,-0.00000304,-0.00000045,-0.00000527,-0.0000036
 2,-0.00009284,0.00010801,0.00014958,0.00001113,-0.00012537,-0.00007661
 ,-0.00000693,-0.00016458,0.00002818,0.00012401,0.00010761,0.00001022,-
 0.00019690,0.00010077,0.00000045,-0.00000690,-0.00005816,0.00005624,0.
 00012494,-0.00005205,-0.00000593,0.00004083,-0.00004552,-0.00005407,-0
 .00001183,-0.00001679,0.00001702,-0.00000307,0.00000863,0.00000785,-0.
 00000144,0.00000720,-0.00000354,-0.00957271,0.07551098,0.05997948,-0.0
 0000661,-0.00003172,-0.00000140,0.00000672,0.00001693,-0.00001037,-0.0
 0000818,-0.00000082,0.00001687,0.00000998,-0.00000974,-0.00001638,0.00
 001056,0.00001978,-0.00000029,0.00000213,-0.00001033,-0.00003588,0.000
 05660,-0.00001000,-0.00004744,-0.00002895,0.00001233,0.00000814,0.0000
 1970,-0.00000350,-0.00002510,-0.00002058,-0.00000139,-0.00001039,-0.00
 000563,-0.00000050,-0.00000364,0.,0.00000102,-0.00000186,0.00000031,-0
 .00000089,-0.00000063,-0.00000223,0.00001663,-0.00002100,0.00000085,-0
 .00000176,0.00000940,0.00000333,-0.00000380,-0.00000370,-0.00005189,-0
 .00002756,0.00000710,0.00010449,-0.00004447,0.00017045,-0.00052476,0.0
 0080433,-0.00006618,-0.00009929,-0.00011663,0.00007485,-0.00005782,0.0
 0003955,0.00003918,-0.00011128,0.00002469,-0.00007859,0.00009866,-0.00
 012279,-0.00006443,0.00022752,0.00032538,-0.00010907,0.00012705,-0.000
 20279,-0.00004681,-0.00004225,0.00004189,-0.00003070,-0.00010081,-0.00
 026036,0.00003740,0.00004156,0.00014258,-0.00013027,0.00002893,0.00006
 171,0.00003745,0.00000756,-0.00001737,0.00001315,0.00000603,0.00000060
 ,0.00002036,0.00000367,-0.00001065,-0.00002364,0.00001130,-0.00000777,
 -0.00000415,-0.00000830,0.00005804,0.00004937,-0.00001216,-0.00000693,
 -0.00001113,-0.00000650,-0.00000113,0.00000541,0.00000821,-0.00000933,
 -0.00000167,0.00000255,0.00000382,0.00001784,-0.00000576,-0.00002599,-
 0.00001578,0.00001083,-0.00000809,-0.00000142,-0.00000495,0.00000112,-
 0.00000009,0.00000407,0.00000583,0.00000392,0.00001616,-0.00006745,0.0
 0005993,0.00000451,-0.00007883,-0.00009928,0.00004218,-0.00001548,0.00
 000686,-0.00000840,0.00008625,0.00008583,0.00000632,-0.00004251,0.0000
 2937,-0.00000538,-0.00000144,-0.00000406,-0.00000477,-0.00000207,-0.00
 001343,0.00001947,-0.00000086,0.00001794,0.00000027,0.00000550,0.00000
 343,-0.00000373,0.00000018,-0.00000039,-0.00000179,-0.00000114,0.00000
 346,0.00000265,0.00000008,-0.00000088,0.00000098,0.00000411,0.00000491
 ,-0.00000269,0.00000180,0.00000027,-0.00000184,-0.00000033,-0.00000089
 ,0.00000084,-0.00000205,0.00000138,-0.00000406,0.00000067,-0.00000210,
 0.00000157,0.00000208,0.00000253,0.00000067,0.00000331,-0.00000035,-0.
 00000120,-0.00000106,0.00000285,-0.00000600,0.00000064,0.00000090,0.00
 000052,-0.00000025,-0.00000074,-0.00000057,0.00000228,-0.00000043,0.00
 000183,-0.00000400,0.00000168,-0.00000077,-0.00000253,-0.00000461,0.00
 000056,0.00000088,-0.00000013,-0.00000062,0.00000036,0.00000133,-0.000
 00200,0.00000243,-0.00000213,-0.00000288,-0.00000380,-0.00000176,0.000
 00014,0.00000026,-0.00000004,-0.00000038,0.00000091,-0.00000358,-0.000
 00085,0.00000213,0.00000265,-0.00000203,0.00000864,-0.00000170,-0.0000
 0242,-0.00000158,-0.00000426,-0.00000306,-0.00000192,-0.00000055,0.000
 00099,0.00000061,0.00000079,-0.00000143,0.00000867,-0.00000742,-0.0000
 0339,-0.00000253,-0.00000171,-0.00000608,0.00000168,0.00000204,0.00000
 518,-0.00000019,-0.00000110,0.00000787,-0.00000717,-0.00000811,-0.0013
 1026,0.00028416,-0.00023305,-0.00420750,-0.00175653,-0.00342759,-0.001
 92373,0.00234472,-0.00316174,0.00202060,-0.02813386,0.00234498,0.00676
 641,0.02453381,-0.00076638,-0.05973367,-0.03335932,-0.00499909,0.00066
 378,0.00072731,0.00132231,0.00031370,-0.00009872,0.00002612,0.00000047
 ,-0.00147750,-0.00005618,0.00047281,-0.00029138,0.00148072,-0.00010914
 ,0.00024496,0.00050420,0.00003346,-0.00018649,-0.00000184,0.00006264,-
 0.00004590,-0.00003868,-0.00001985,0.00003593,-0.00002139,-0.00000791,
 0.00001180,0.00000067,-0.00000150,-0.00000988,-0.00000114,0.00000884,-
 0.00000854,-0.00000417,-0.00002059,0.00000085,0.00001301,-0.00001214,-
 0.00000643,-0.00001570,0.00001137,-0.00000683,-0.00001682,0.00000519,0
 .00000588,-0.00000694,-0.00000074,0.00000381,-0.00000117,0.05724677,0.
 00000055,-0.00000341,-0.00003576,-0.00001025,0.00001708,0.00000261,0.0
 0000453,0.00001312,0.00000331,-0.00000549,0.00000406,0.00001237,-0.000
 00337,-0.00000870,0.00000251,0.00007862,0.00000315,-0.00002671,-0.0000
 6906,-0.00003029,0.00005527,0.00004920,0.00000384,-0.00005508,-0.00007
 544,-0.00004606,0.00002782,-0.00001486,0.00005916,0.00005741,0.0000009
 3,0.00000770,-0.00000349,-0.00000355,-0.00000214,0.00000239,-0.0000063
 5,-0.00000047,0.00000683,0.00002236,-0.00002681,-0.00000432,-0.0000057
 9,0.00000054,0.00001440,-0.00000560,0.00000142,0.00000393,0.00004853,0
 .00004521,0.00000483,-0.00017407,0.00005741,-0.00007830,0.00069003,-0.
 00084483,0.00002520,0.00020749,0.00018034,-0.00013094,0.00017893,-0.00
 010467,-0.00008060,0.00022321,-0.00003496,0.00018841,-0.00026566,0.000
 27673,0.00012120,-0.00043944,-0.00042094,0.00015719,-0.00025907,0.0002
 4924,-0.00007705,0.00011897,-0.00011986,0.00015274,0.00024095,0.000340
 49,-0.00003167,-0.00008412,-0.00016576,0.00013914,-0.00008607,-0.00009
 869,-0.00002498,-0.00003821,0.00004521,-0.00004106,-0.00002688,-0.0000
 0529,-0.00007028,-0.00002460,0.00004248,0.00005514,-0.00006327,0.00005
 319,0.00000841,0.00007512,-0.00015341,-0.00006993,0.00002382,0.0000032
 3,0.00001176,0.00001209,0.00000660,-0.00000687,-0.00000932,0.00000646,
 -0.00000050,-0.00000681,-0.00000357,-0.00001620,0.00001347,0.00002661,
 0.00001218,-0.00001395,0.00000533,0.00000352,0.00001497,0.00000306,0.0
 0000157,-0.00000984,-0.00000550,-0.00000837,0.00004709,0.00004469,-0.0
 0003513,0.00007123,0.00001642,0.00006356,-0.00000677,0.00001684,-0.000
 00832,0.00006980,-0.00008534,-0.00000715,0.00000466,0.00003329,-0.0000
 3531,0.00001393,0.00000730,0.00000310,0.00000063,0.00000615,0.00001796
 ,-0.00001980,-0.00000023,-0.00001579,-0.00000118,-0.00000680,-0.000011
 55,0.00000748,0.00000252,0.00000389,0.00000374,-0.00000351,-0.00000934
 ,-0.00000472,-0.00000359,0.00000759,0.00000207,-0.00000448,-0.00000929
 ,0.00000455,-0.00000687,-0.00000219,0.00000527,0.00000377,0.00000239,-
 0.00000279,0.00000240,0.,0.00000722,-0.00001101,-0.00000109,0.00000715
 ,-0.00000730,-0.00000360,-0.00000327,0.00000557,-0.00000069,-0.0000054
 6,0.00000264,0.00000225,0.00001075,-0.00000800,0.00000019,-0.00000121,
 0.00000473,-0.00000123,0.00000660,-0.00000991,0.00000094,-0.00000265,0
 .00000477,-0.00000277,0.00000405,0.00000200,0.00001251,-0.00000228,-0.
 00000182,-0.00000227,-0.00000171,0.00000077,-0.00000283,0.00000713,-0.
 00000520,0.00000799,0.00000493,0.00000224,0.00001031,-0.00000041,0.000
 00168,-0.00000307,0.00000333,-0.00000117,0.00001256,0.00000025,-0.0000
 0360,-0.00000661,0.00000770,-0.00001244,0.00000419,0.00000544,0.,0.000
 01018,0.00000512,0.00000531,-0.00000162,-0.00000441,-0.00000079,-0.000
 00122,0.00000551,-0.00001507,0.00001304,0.00000306,0.00000556,-0.00000
 020,0.00001215,-0.00000655,0.00000092,-0.00000585,0.00000319,0.0000007
 5,0.00001578,0.00002091,0.00003779,0.00045107,0.00055849,0.00008760,-0
 .00283237,0.00119058,-0.00037161,0.00283608,-0.00005704,0.00139535,0.0
 0186302,-0.00911766,0.00157161,-0.00525594,-0.01400473,-0.00034626,-0.
 03402130,-0.32638849,0.01503820,-0.00007176,0.00064793,-0.00040596,-0.
 00057569,0.00033355,-0.00000859,0.00016383,-0.00054043,0.00010059,0.00
 018240,0.00069727,-0.00043678,0.00000402,0.00026950,-0.00007305,0.0000
 2857,-0.00009298,0.00002843,0.00002265,-0.00014080,-0.00008049,0.00002
 722,0.00005656,-0.00001622,-0.00000455,0.00001085,0.00000707,-0.000004
 77,-0.00001735,-0.00001406,0.00000849,-0.00002049,0.00000213,-0.000034
 81,-0.00001694,0.00004243,-0.00001445,0.00000300,0.00004631,0.00000972
 ,0.00000293,0.00000016,-0.00000795,-0.00002180,-0.00002084,-0.00000223
 ,-0.00000354,-0.00000178,0.03665195,0.34727617,0.00000930,-0.00000378,
 0.00001044,-0.00000171,0.00000847,0.00000421,-0.00000151,-0.00000624,0
 .00000156,0.00000465,-0.00000246,-0.00001049,0.00000308,-0.00000353,-0
 .00000273,-0.00006697,0.00004091,0.00005062,0.00000592,-0.00001324,-0.
 00009858,-0.00006126,0.00000390,0.00007906,0.00009969,0.00006547,-0.00
 003181,0.00001862,-0.00008436,-0.00006623,-0.00000263,-0.00000383,0.00
 000354,-0.00000045,-0.00000072,0.00000028,0.00000328,0.00000331,-0.000
 00403,-0.00003966,0.00001626,0.00001227,0.00000319,0.00000289,-0.00001
 183,-0.00000261,-0.00000012,-0.00000509,-0.00001000,-0.00004913,0.0000
 2828,0.00009159,-0.00003924,0.00001272,-0.00019545,0.00012239,-0.00020
 268,0.00001723,-0.00002271,-0.00003346,-0.00001709,0.00001346,0.000007
 55,-0.00003948,0.00000254,-0.00003928,0.00000955,-0.00002459,-0.000028
 74,0.00001300,0.00011162,-0.00001152,0.00002628,-0.00004364,-0.0000075
 7,-0.00002387,0.00002632,-0.00003987,0.00000789,-0.00006087,-0.0000148
 5,-0.00002123,-0.00002153,-0.00001143,-0.00000776,-0.00000216,0.000020
 68,0.00000019,-0.00000573,0.00000670,-0.00000035,0.00000439,0.00001422
 ,-0.00000218,-0.00000479,0.00000132,0.00000193,-0.00000406,0.00000496,
 0.00000425,0.00001371,-0.00000058,0.00000838,-0.00000908,0.00000330,-0
 .00000235,0.00000055,-0.00000092,0.00000191,-0.00000190,-0.00000234,-0
 .00000081,0.00000388,0.00000069,0.00000413,-0.00000065,-0.00000815,0.0
 0000165,-0.00000305,-0.00000022,-0.00000012,-0.00000064,0.00000184,0.0
 0000034,0.00000269,-0.00000194,-0.00001336,0.00008976,0.00004406,-0.00
 000702,-0.00003052,-0.00002179,0.00002080,-0.00000969,-0.00000660,0.00
 000273,-0.00003316,0.00001263,-0.00000775,0.00001586,0.00000081,0.0000
 0321,-0.00000103,-0.00000218,-0.00000076,-0.00000728,-0.00000389,-0.00
 000191,-0.00000132,-0.00000160,0.00000346,0.00000255,0.00000006,-0.000
 00045,0.00000049,0.00000073,-0.00000052,-0.00000067,0.00000080,-0.0000
 0151,0.00000020,0.00000035,0.00000080,0.00000120,-0.00000005,-0.000000
 66,0.00000017,0.00000011,-0.00000018,-0.00000012,0.00000047,-0.0000002
 2,0.00000060,-0.00000125,-0.00000179,-0.00000085,0.00000091,0.00000009
 ,0.00000054,0.00000050,0.00000029,0.00000141,0.00000018,-0.00000024,0.
 00000029,-0.00000099,-0.00000073,-0.00000078,-0.00000057,0.00000118,0.
 00000170,0.00000113,0.00000015,0.00000087,-0.00000017,-0.00000324,0.00
 000006,0.00000057,-0.00000088,-0.00000072,-0.00000328,0.00000006,0.000
 00107,0.00000002,0.00000111,-0.00000110,-0.00000037,-0.00000122,0.0000
 0156,-0.00000110,-0.00000194,0.00000212,-0.00000305,0.00000114,0.00000
 048,0.00000050,0.00000069,-0.00000033,-0.00000213,0.00000119,-0.000002
 75,0.00000397,-0.00000247,0.00000317,0.00000053,-0.00000061,-0.0000011
 6,-0.00000188,-0.00000134,-0.00000041,0.00000042,0.00000195,-0.0000003
 3,-0.00000150,-0.00000092,0.00000264,-0.00000410,0.00000003,-0.0000002
 3,0.00000055,-0.00000199,0.00000100,0.00000016,0.00000046,-0.00000033,
 -0.00000038,-0.00002108,-0.00001477,-0.00003171,-0.00025367,0.00015541
 ,-0.00060674,-0.00319237,-0.00007026,0.00618303,-0.00376537,0.00091854
 ,0.00625673,-0.00025313,-0.00796070,0.00300004,0.00113545,0.00962508,0
 .00220312,-0.00468892,0.01539871,-0.03813966,0.00140262,-0.00013891,-0
 .00324838,0.00050781,-0.00006757,0.00014574,-0.00008347,-0.00035031,0.
 00030457,0.00156726,-0.00053060,-0.00341748,0.00034601,-0.00022121,-0.
 00104948,0.00022089,0.00030947,-0.00005231,-0.00001072,-0.00018968,-0.
 00001364,0.00005722,-0.00001483,-0.00000752,0.00000306,-0.00000240,-0.
 00000189,-0.00000310,-0.00000301,-0.00000225,-0.00000225,-0.00002100,0
 .00000117,-0.00001078,-0.00003151,0.00009101,-0.00003992,0.00005169,0.
 00003784,0.00000439,-0.00001696,-0.00000500,0.00001118,0.00001332,-0.0
 0000333,0.00000023,-0.00000104,-0.00000050,0.00724249,-0.01690310,0.02
 871417\\-0.00000457,-0.00000309,0.00000379,0.00000295,0.00000355,-0.00
 000002,-0.00000241,0.00000044,0.00000474,0.00000524,0.00000002,-0.0000
 0557,0.00000339,0.00000156,-0.00000261,0.00000224,-0.00000297,-0.00000
 219,0.00000132,0.00000559,0.00000250,0.00000026,0.00000204,0.00000009,
 0.00000093,-0.00000049,0.00000089,-0.00000032,-0.00000266,0.00000029,-
 0.00000054,-0.00000015,-0.00000025,-0.00000086,-0.00000307,0.00000174,
 -0.00000105,-0.00000031,0.00000224,-0.00000060,0.00000019,0.00000051,-
 0.00000115,-0.00000008,0.00000123,-0.00000129,-0.00000153,0.00000103,0
 .00000172,-0.00000482,-0.00000250,-0.00000413,-0.00000604,-0.00000057,
 -0.00000210,0.00000306,-0.00000166,0.00000228,0.00000227,0.00000134,0.
 00000067,-0.00000226,-0.00000348,-0.00000316,-0.00000167,-0.00000173,-
 0.00000050,0.00000039,0.00000096,0.00000050,0.00000052,0.00000086,0.00
 000379,0.00000136,0.00000172,0.00000376,0.00000093,0.00000219,-0.00000
 096,-0.00000194,-0.00000031,-0.00000290,-0.00000113,-0.00000284,-0.000
 00452,-0.00000111,0.00000384,-0.00000379,0.00000035,-0.00000339,-0.000
 00379,-0.00000417,0.00000115,-0.00000003,-0.00000244,0.00000568,-0.000
 00405,0.00000276,-0.00000026,0.00000474,-0.00000264,-0.00000159,0.0000
 0068,0.00000201,-0.00000307,-0.00000218,0.00000066,0.00000020,-0.00000
 062,0.00000088,0.00000008,-0.00000030,0.00000082,0.00000056,-0.0000007
 7,-0.00000405,-0.00000060,-0.00000126,0.00000444,0.00000205,0.00000012
 ,0.00000177,0.00000012,0.,0.00000230,-0.00000279,0.00000168,0.00000347
 ,0.00000275,-0.00000026,0.00000025,0.00000038,-0.00000241,0.00000010,0
 .00000121,-0.00000276,-0.00000169,-0.00000203,-0.00000278,0.00000436,0
 .00000120,-0.00000016,0.00000142,-0.00000031,0.00000024,-0.00000153,-0
 .00000060,0.00000011,-0.00000077,0.00000185,-0.00000145,-0.00000107,-0
 .00000550,0.00000199,0.00000351,0.00000039,-0.00000007,0.00000213,0.00
 000113,0.00000020,0.00000110,-0.00000037,0.00000478,0.00000762,-0.0000
 0042,0.00000054,-0.00000079,-0.00000205,-0.00000299,-0.00000203,-0.000
 00028,-0.00000014,0.00000023,0.00000074,-0.00000199,0.00000280,0.00000
 200,0.00000208,-0.00000041,-0.00000158,0.00000172,-0.00000026,-0.00000
 004,0.00000084,0.00000089,-0.00000159,0.00000343,0.00000120,-0.0000018
 7,-0.00000167,-0.00000069,-0.00000090,0.00000148,0.00000080,0.,0.00000
 076,0.00000017,-0.00000081,0.00000470,0.00000261,0.00000061,-0.0000010
 3,-0.00000131,0.00000002,0.00000184,-0.00000012,0.,-0.00000095,0.00000
 014,-0.00000250,0.00000165,0.00000241,0.00000180,0.00000076,-0.0000016
 0,-0.00000089,-0.00000015,0.00000012,-0.00000269,0.00000135,-0.0000015
 0,0.00000056,0.00000428,0.00000593,-0.00000038,0.00000099,-0.00000101,
 0.00000114,-0.00000319,-0.00000301,0.00000132,-0.00000031,0.00000043,0
 .00000030,0.00000134,-0.00000518,-0.00000591,0.00000043,0.00000117,0.0
 0000008,0.00000096,0.00000169,-0.00000025,0.00000141,0.00000316,0.0000
 0349,-0.00000105,-0.00000343,-0.00000013,-0.00000351,0.00000548,-0.000
 00043,0.00000938,0.00000214,0.00000433,0.00000189,0.00000337,-0.000000
 12,-0.00000084,-0.00000278,0.00000007,-0.00000234,-0.00000300,-0.00000
 010,-0.00000033,-0.00000701,0.00000179,-0.00000164,0.00000026,0.000000
 47,0.00000078,-0.00000008,0.00000100,-0.00000567,-0.00000352,-0.000001
 29,-0.00000184,-0.00000107,0.00000041,-0.00000504,-0.00000660,0.000005
 21,0.00000117,0.00000186,-0.00000122,0.00000740,-0.00000092,-0.0000062
 5,-0.00000240,-0.00000272,0.00000577,0.00000185,0.00000008,-0.00000225
 ,-0.00000080,-0.00000023,-0.00000221,0.00000137,0.00000081,-0.00000005
 ,0.00000219,0.00000341,0.00000520,-0.00000035,-0.00000162,-0.00000039,
 -0.00000302,0.00000039,0.00000018,-0.00000131,-0.00000179,-0.00000312,
 0.00000111,-0.00000243,-0.00000142,-0.00000098,0.00000342,0.00000010\\
 \@
 The archive entry for this job was punched.


      TO SUSPECT YOUR OWN MORTALITY IS TO KNOW THE BEGINNING OF TERROR.
      TO LEARN IRREFUTABLY THAT YOU ARE MORTAL IS TO KNOW THE END
      OF TERROR.

                                                  -- JESSICA
                                                     CHILDREN OF DUNE
                                                     BY FRANK HERBERT
 Job cpu time:       2 days  2 hours 24 minutes  8.5 seconds.
 Elapsed time:       0 days  3 hours 12 minutes 20.4 seconds.
 File lengths (MBytes):  RWF=   8256 Int=      0 D2E=      0 Chk=     49 Scr=      1
 Normal termination of Gaussian 16 at Tue Dec 10 04:07:49 2024.
