/mnt/lustre/scratch/nvme/SLURM/9663719/usccqdma.PWNEbBuogX
OMP_STACKSIZE=0m
GAUSS_PDEF=16
GAUSS_MDEF=65536MB
GAUSS_RDEF=SCF=Direct
 Entering Gaussian System, Link 0=g16.exe
 Initial command:
 /opt/cesga/2020/software/Core/g16/c1/l1.exe "/mnt/lustre/scratch/nvme/SLURM/9663719/usccqdma.PWNEbBuogX/Gau-3448242.inp" -scrdir="/mnt/lustre/scratch/nvme/SLURM/9663719/usccqdma.PWNEbBuogX/"
 Default is to use a total of  16 processors:
                               16 via shared-memory
                                1 via Linda
 Entering Link 1 = /opt/cesga/2020/software/Core/g16/c1/l1.exe PID=   3448268.
  
 Copyright (c) 1988-2019, Gaussian, Inc.  All Rights Reserved.
  
 This is part of the Gaussian(R) 16 program.  It is based on
 the Gaussian(R) 09 system (copyright 2009, Gaussian, Inc.),
 the Gaussian(R) 03 system (copyright 2003, Gaussian, Inc.),
 the Gaussian(R) 98 system (copyright 1998, Gaussian, Inc.),
 the Gaussian(R) 94 system (copyright 1995, Gaussian, Inc.),
 the Gaussian 92(TM) system (copyright 1992, Gaussian, Inc.),
 the Gaussian 90(TM) system (copyright 1990, Gaussian, Inc.),
 the Gaussian 88(TM) system (copyright 1988, Gaussian, Inc.),
 the Gaussian 86(TM) system (copyright 1986, Carnegie Mellon
 University), and the Gaussian 82(TM) system (copyright 1983,
 Carnegie Mellon University). Gaussian is a federally registered
 trademark of Gaussian, Inc.
  
 This software contains proprietary and confidential information,
 including trade secrets, belonging to Gaussian, Inc.
  
 This software is provided under written license and may be
 used, copied, transmitted, or stored only in accord with that
 written license.
  
 The following legend is applicable only to US Government
 contracts under FAR:
  
                    RESTRICTED RIGHTS LEGEND
  
 Use, reproduction and disclosure by the US Government is
 subject to restrictions as set forth in subparagraphs (a)
 and (c) of the Commercial Computer Software - Restricted
 Rights clause in FAR 52.227-19.
  
 Gaussian, Inc.
 340 Quinnipiac St., Bldg. 40, Wallingford CT 06492
  
  
 ---------------------------------------------------------------
 Warning -- This program may not be used in any manner that
 competes with the business of Gaussian, Inc. or will provide
 assistance to any competitor of Gaussian, Inc.  The licensee
 of this program is prohibited from giving any competitor of
 Gaussian, Inc. access to this program.  By using this program,
 the user acknowledges that Gaussian, Inc. is engaged in the
 business of creating and licensing software in the field of
 computational chemistry and represents and warrants to the
 licensee that it is not a competitor of Gaussian, Inc. and that
 it will not use this program in any manner prohibited above.
 ---------------------------------------------------------------
  

 Cite this work as:
 Gaussian 16, Revision C.01,
 M. J. Frisch, G. W. Trucks, H. B. Schlegel, G. E. Scuseria, 
 M. A. Robb, J. R. Cheeseman, G. Scalmani, V. Barone, 
 G. A. Petersson, H. Nakatsuji, X. Li, M. Caricato, A. V. Marenich, 
 J. Bloino, B. G. Janesko, R. Gomperts, B. Mennucci, H. P. Hratchian, 
 J. V. Ortiz, A. F. Izmaylov, J. L. Sonnenberg, D. Williams-Young, 
 F. Ding, F. Lipparini, F. Egidi, J. Goings, B. Peng, A. Petrone, 
 T. Henderson, D. Ranasinghe, V. G. Zakrzewski, J. Gao, N. Rega, 
 G. Zheng, W. Liang, M. Hada, M. Ehara, K. Toyota, R. Fukuda, 
 J. Hasegawa, M. Ishida, T. Nakajima, Y. Honda, O. Kitao, H. Nakai, 
 T. Vreven, K. Throssell, J. A. Montgomery, Jr., J. E. Peralta, 
 F. Ogliaro, M. J. Bearpark, J. J. Heyd, E. N. Brothers, K. N. Kudin, 
 V. N. Staroverov, T. A. Keith, R. Kobayashi, J. Normand, 
 K. Raghavachari, A. P. Rendell, J. C. Burant, S. S. Iyengar, 
 J. Tomasi, M. Cossi, J. M. Millam, M. Klene, C. Adamo, R. Cammi, 
 J. W. Ochterski, R. L. Martin, K. Morokuma, O. Farkas, 
 J. B. Foresman, and D. J. Fox, Gaussian, Inc., Wallingford CT, 2019.
 
 ******************************************
 Gaussian 16:  ES64L-G16RevC.01  3-Jul-2019
                 7-Dec-2024 
 ******************************************
 Default route: SCF=Direct
 ----------------------------------------------------
 # m06/genecp scf=tight int=ultrafine 5d freq=noraman
 ----------------------------------------------------
 1/10=4,30=1,38=1/1,3;
 2/12=2,17=6,18=5,40=1/2;
 3/5=7,8=1,11=2,16=1,17=8,25=1,30=1,71=2,74=-54,75=-5,140=1/1,2,3;
 4//1;
 5/5=2,32=2,38=5,98=1/2;
 8/6=4,10=90,11=11/1;
 11/6=1,8=1,9=11,15=111,16=1/1,2,10;
 10/6=1/2;
 6/7=2,8=2,9=2,10=2,28=1/1;
 7/8=1,10=1,25=1/1,2,3,16;
 1/10=4,30=1/3;
 99//99;
 ------
 OPT-TS
 ------
 Symbolic Z-matrix:
 Charge =  0 Multiplicity = 1
 C                     2.46193   1.31741   0.04598 
 C                     0.32617   2.28622   0.03343 
 C                     0.87029   3.5529    0.07869 
 C                     2.25309   3.72118   0.11006 
 C                     3.03906   2.58386   0.09218 
 C                     3.24838   0.08699   0.01969 
 C                     3.13742  -2.22537  -0.06521 
 C                     4.51765  -2.3498   -0.04599 
 C                     5.28323  -1.18833   0.01043 
 C                     4.64374   0.04096   0.04342 
 H                    -0.74749   2.12211   0.01055 
 H                     2.70326   4.71      0.14674 
 H                     4.12257   2.67094   0.1136 
 H                     2.48858  -3.10005  -0.10806 
 H                     6.36995  -1.23945   0.02846 
 H                     5.22957   0.95572   0.08759 
 N                     1.09186   1.15894   0.0187 
 N                     2.51289  -1.04375  -0.03288 
 Ir                    0.3242   -0.6143   -0.03664 
 O                    -2.40644   0.95376   0.10059 
 B                    -1.6623   -0.22643  -0.02288 
 O                    -2.54253  -1.31363  -0.12787 
 C                    -3.78142   0.65066  -0.1713 
 C                    -3.86152  -0.85741   0.19559 
 C                    -4.073    -1.09468   1.68611 
 H                    -3.9008   -2.15699   1.8999 
 H                    -3.36067  -0.51153   2.28395 
 H                    -5.09346  -0.84      2.0039 
 C                    -4.87615  -1.6542   -0.60042 
 H                    -4.86346  -2.70146  -0.27203 
 H                    -5.8924   -1.26299  -0.4454 
 H                    -4.65268  -1.63634  -1.67261 
 C                    -4.01978   0.91348  -1.65319 
 H                    -3.40339   0.25162  -2.27486 
 H                    -5.07401   0.7786   -1.93094 
 H                    -3.73586   1.94933  -1.87843 
 C                    -4.66563   1.55778   0.66127 
 H                    -5.72464   1.28395   0.54755 
 H                    -4.40419   1.51248   1.72404 
 H                    -4.54929   2.59779   0.32926 
 H                     4.9789   -3.33365  -0.07422 
 H                     0.19567   4.40556   0.08976 
 

 GradGradGradGradGradGradGradGradGradGradGradGradGradGradGradGradGradGrad
 Berny optimization.
 Initialization pass.
 Trust Radius=3.00D-01 FncErr=1.00D-07 GrdErr=1.00D-07 EigMax=2.50D+02 EigMin=1.00D-04
 Number of steps in this run=      2 maximum allowed number of steps=      2.
 GradGradGradGradGradGradGradGradGradGradGradGradGradGradGradGradGradGrad

                          Input orientation:                          
 ---------------------------------------------------------------------
 Center     Atomic      Atomic             Coordinates (Angstroms)
 Number     Number       Type             X           Y           Z
 ---------------------------------------------------------------------
      1          6           0        2.461930    1.317410    0.045980
      2          6           0        0.326170    2.286220    0.033430
      3          6           0        0.870290    3.552900    0.078690
      4          6           0        2.253090    3.721180    0.110060
      5          6           0        3.039060    2.583860    0.092180
      6          6           0        3.248380    0.086990    0.019690
      7          6           0        3.137420   -2.225370   -0.065210
      8          6           0        4.517650   -2.349800   -0.045990
      9          6           0        5.283230   -1.188330    0.010430
     10          6           0        4.643740    0.040960    0.043420
     11          1           0       -0.747490    2.122110    0.010550
     12          1           0        2.703260    4.710000    0.146740
     13          1           0        4.122570    2.670940    0.113600
     14          1           0        2.488580   -3.100050   -0.108060
     15          1           0        6.369950   -1.239450    0.028460
     16          1           0        5.229570    0.955720    0.087590
     17          7           0        1.091860    1.158940    0.018700
     18          7           0        2.512890   -1.043750   -0.032880
     19         77           0        0.324200   -0.614300   -0.036640
     20          8           0       -2.406440    0.953760    0.100590
     21          5           0       -1.662300   -0.226430   -0.022880
     22          8           0       -2.542530   -1.313630   -0.127870
     23          6           0       -3.781420    0.650660   -0.171300
     24          6           0       -3.861520   -0.857410    0.195590
     25          6           0       -4.073000   -1.094680    1.686110
     26          1           0       -3.900800   -2.156990    1.899900
     27          1           0       -3.360670   -0.511530    2.283950
     28          1           0       -5.093460   -0.840000    2.003900
     29          6           0       -4.876150   -1.654200   -0.600420
     30          1           0       -4.863460   -2.701460   -0.272030
     31          1           0       -5.892400   -1.262990   -0.445400
     32          1           0       -4.652680   -1.636340   -1.672610
     33          6           0       -4.019780    0.913480   -1.653190
     34          1           0       -3.403390    0.251620   -2.274860
     35          1           0       -5.074010    0.778600   -1.930940
     36          1           0       -3.735860    1.949330   -1.878430
     37          6           0       -4.665630    1.557780    0.661270
     38          1           0       -5.724640    1.283950    0.547550
     39          1           0       -4.404190    1.512480    1.724040
     40          1           0       -4.549290    2.597790    0.329260
     41          1           0        4.978900   -3.333650   -0.074220
     42          1           0        0.195670    4.405560    0.089760
 ---------------------------------------------------------------------
                    Distance matrix (angstroms):
                    1          2          3          4          5
     1  C    0.000000
     2  C    2.345255   0.000000
     3  C    2.744413   1.379345   0.000000
     4  C    2.413676   2.403748   1.393355   0.000000
     5  C    1.392519   2.729801   2.375454   1.382594   0.000000
     6  C    1.460523   3.657337   4.203728   3.769099   2.506677
     7  C    3.608315   5.316700   6.208783   6.014500   4.812810
     8  C    4.205101   6.250399   6.939787   6.481464   5.152312
     9  C    3.773557   6.053550   6.477496   5.770179   4.390034
    10  C    2.527771   4.866488   5.154987   4.389039   3.007277
    11  H    3.308954   1.086371   2.160790   3.401530   3.815473
    12  H    3.402655   3.396779   2.168707   1.087089   2.153186
    13  H    2.143441   3.816686   3.369925   2.144288   1.087215
    14  H    4.420225   5.805854   6.849488   6.828778   5.714014
    15  H    4.670167   6.996974   7.294889   6.446941   5.071153
    16  H    2.791484   5.080994   5.074322   4.062968   2.729321
    17  N    1.379474   1.362813   2.404940   2.814583   2.413998
    18  N    2.363026   3.984324   4.882599   4.774148   3.667704
    19  Ir   2.882398   2.901367   4.204411   4.747476   4.197057
    20  O    4.882238   3.040907   4.182460   5.419402   5.684256
    21  B    4.404254   3.204777   4.550567   5.561616   5.478481
    22  O    5.656608   4.605907   5.947531   6.957291   6.811241
    23  C    6.282610   4.425976   5.488524   6.776619   7.094056
    24  C    6.688665   5.238841   6.469507   7.639323   7.711747
    25  C    7.156362   5.789174   6.972798   8.105298   8.164170
    26  H    7.482834   6.410390   7.660480   8.696365   8.596811
    27  H    6.500477   5.146361   6.267678   7.359071   7.439210
    28  H    8.097641   6.559603   7.653125   8.852276   9.028586
    29  C    7.943281   6.556890   7.784385   8.956872   9.005076
    30  H    8.361446   7.204340   8.492109   9.593830   9.514046
    31  H    8.757554   7.176126   8.318740   9.565537   9.739519
    32  H    7.892773   6.563992   7.778076   8.920235   8.949158
    33  C    6.712891   4.859669   5.820544   7.095148   7.460811
    34  H    6.397201   4.835020   5.890839   7.051344   7.248957
    35  H    7.809540   5.940843   6.860762   8.155419   8.554173
    36  H    6.520374   4.502087   5.255319   6.554469   7.084171
    37  C    7.158105   5.083589   5.913232   7.269994   7.793520
    38  H    8.201989   6.154768   6.990069   8.353183   8.871278
    39  H    7.070894   5.082631   5.889875   7.197407   7.694985
    40  H    7.132799   4.894354   5.508799   6.898002   7.592065
    41  H    5.289796   7.296741   8.020513   7.565357   6.229574
    42  H    3.830734   2.124101   1.087320   2.168355   3.376901
                    6          7          8          9         10
     6  C    0.000000
     7  C    2.316577   0.000000
     8  C    2.748328   1.385961   0.000000
     9  C    2.401487   2.384465   1.392231   0.000000
    10  C    1.396321   2.723427   2.395752   1.386070   0.000000
    11  H    4.484281   5.830853   6.908175   6.879578   5.779068
    12  H    4.656771   6.952178   7.291772   6.439342   5.057279
    13  H    2.729437   4.997634   5.038788   4.031345   2.682040
    14  H    3.278847   1.089906   2.164221   3.388035   3.812297
    15  H    3.391713   3.380838   2.160888   1.088071   2.149296
    16  H    2.164351   3.810482   3.383953   2.146109   1.087168
    17  N    2.408248   3.955365   4.904231   4.803887   3.723754
    18  N    1.349919   1.336903   2.392697   2.774448   2.392267
    19  Ir   3.007625   3.242001   4.538400   4.992365   4.369691
    20  O    5.721436   6.392866   7.673201   7.982963   7.109255
    21  B    4.920856   5.199506   6.534601   7.011900   6.312055
    22  O    5.959710   5.753002   7.136280   7.827985   7.314830
    23  C    7.054948   7.493541   8.825703   9.251097   8.449921
    24  C    7.174504   7.136140   8.514463   9.152609   8.553927
    25  C    7.601046   7.505714   8.852952   9.505562   8.942576
    26  H    7.725374   7.307727   8.642567   9.426283   9.015912
    27  H    7.011750   7.119057   8.418776   8.963479   8.330414
    28  H    8.624540   8.599294   9.942584  10.572178   9.971591
    29  C    8.332123   8.051707   9.435822  10.188384   9.691048
    30  H    8.582686   8.017700   9.390420  10.262781   9.899860
    31  H    9.251628   9.088915  10.474246  11.185171  10.627769
    32  H    8.261991   7.975986   9.340764  10.087400   9.601121
    33  C    7.503850   7.974934   9.280075   9.681489   8.871097
    34  H    7.038331   7.334864   8.630071   9.096888   8.377058
    35  H    8.575865   8.940490  10.263521  10.719615   9.943685
    36  H    7.473338   8.243656   9.484766   9.734305   8.806423
    37  C    8.075048   8.702160  10.005100  10.341399   9.452346
    38  H    9.067879   9.551278  10.883976  11.294860  10.454782
    39  H    7.968605   8.605162   9.881773  10.201811   9.319597
    40  H    8.197781   9.083171  10.335805  10.541101   9.546250
    41  H    3.834618   2.149282   1.086973   2.168451   3.393253
    42  H    5.289045   7.255835   8.020775   7.561823   6.231951
                   11         12         13         14         15
    11  H    0.000000
    12  H    4.315484   0.000000
    13  H    4.901971   2.484614   0.000000
    14  H    6.144687   7.817154   6.001948   0.000000
    15  H    7.871363   6.989604   4.510999   4.306449   0.000000
    16  H    6.090291   4.525523   2.041594   4.899038   2.474416
    17  N    2.076288   3.901670   3.388267   4.483959   5.797465
    18  N    4.544737   5.759700   4.051105   2.057817   3.862509
    19  Ir   2.939164   5.834529   5.024240   3.296755   6.078334
    20  O    2.031075   6.341964   6.751063   6.359098   9.046568
    21  B    2.520642   6.592058   6.471329   5.049233   8.096041
    22  O    3.878871   7.992361   7.769084   5.338891   8.914160
    23  C    3.376828   7.657053   8.163073   7.306485  10.327765
    24  C    4.313811   8.607832   8.729357   6.741321  10.239964
    25  C    4.920798   9.054373   9.155329   7.091889  10.574685
    26  H    5.641250   9.687246   9.532798   6.763538  10.480099
    27  H    4.351220   8.282710   8.416497   6.829046  10.015092
    28  H    5.624500   9.748866  10.041670   8.188744  11.639231
    29  C    5.628466   9.925157  10.009676   7.521446  11.271303
    30  H    6.347274  10.600017  10.476647   7.364662  11.332134
    31  H    6.175507  10.483922  10.774410   8.586583  12.271525
    32  H    5.675340   9.884125   9.937214   7.455727  11.160176
    33  C    3.864803   7.927962   8.515167   7.800936  10.742883
    34  H    3.971856   7.939299   8.258203   7.116462  10.151194
    35  H    4.928811   8.958716   9.609276   8.692502  11.784566
    36  H    3.539556   7.292796   8.139031   8.208173  10.767170
    37  C    4.011699   8.031300   8.875332   8.571463  11.402148
    38  H    5.075717   9.106479   9.953874   9.333074  12.365925
    39  H    4.084012   7.951594   8.754495   8.493662  11.248564
    40  H    3.844676   7.556072   8.674850   9.065773  11.577767
    41  H    7.909744   8.362276   6.068252   2.501481   2.516195
    42  H    2.471835   2.526646   4.293020   7.850525   8.366100
                   16         17         18         19         20
    16  H    0.000000
    17  N    4.143270   0.000000
    18  N    3.375314   2.621799   0.000000
    19  Ir   5.151995   1.933066   2.230427   0.000000
    20  O    7.636021   3.505269   5.311089   3.151831   0.000000
    21  B    6.993394   3.083241   4.254447   2.024059   1.400656
    22  O    8.099501   4.398167   5.063510   2.952207   2.282931
    23  C    9.019868   4.903397   6.519856   4.298182   1.434003
    24  C    9.270762   5.350975   6.381224   4.199201   2.325214
    25  C    9.659048   5.876635   6.806722   4.746999   3.080163
    26  H    9.815146   6.281796   6.790461   4.897010   3.891965
    27  H    8.987160   5.267528   6.336376   4.355912   2.797265
    28  H   10.651845   6.796688   7.876963   5.793599   3.749699
    29  C   10.459953   6.626780   7.435904   5.333187   3.659554
    30  H   10.741208   7.103031   7.564108   5.596737   4.420003
    31  H   11.353632   7.406823   8.418262   6.263705   4.167014
    32  H   10.367061   6.608620   7.374637   5.337630   3.859851
    33  C    9.411832   5.383710   7.009417   4.880318   2.383324
    34  H    8.978025   5.127467   6.458082   4.433325   2.670145
    35  H   10.500933   6.477940   8.030233   5.888057   3.357637
    36  H    9.232087   5.246970   7.170178   5.142808   2.583609
    37  C    9.930084   5.806949   7.666874   5.486658   2.404816
    38  H   10.968775   6.838127   8.579743   6.366561   3.364409
    39  H    9.787609   5.765392   7.580704   5.475478   2.634153
    40  H    9.918715   5.830035   7.954014   5.848274   2.710522
    41  H    4.299734   5.941471   3.365495   5.390965   8.541410
    42  H    6.102586   3.368790   5.922797   5.023096   4.322733
                   21         22         23         24         25
    21  B    0.000000
    22  O    1.402794   0.000000
    23  C    2.298257   2.322750   0.000000
    24  C    2.298355   1.432654   1.554123   0.000000
    25  C    3.079932   2.383443   2.565385   1.524031   0.000000
    26  H    3.526333   2.582248   3.490991   2.143624   1.097206
    27  H    2.878751   2.670130   2.748812   2.175254   1.097675
    28  H    4.032017   3.357977   2.945337   2.188142   1.098722
    29  C    3.563834   2.405218   2.587462   1.515909   2.487234
    30  H    4.054044   2.708057   3.523871   2.150133   2.653466
    31  H    4.375697   3.365267   2.862416   2.167911   2.807469
    32  H    3.694838   2.634976   2.871131   2.173209   3.451148
    33  C    3.084642   3.077156   1.523774   2.564973   3.896981
    34  H    2.886406   2.792965   2.174190   2.746444   4.236766
    35  H    4.036155   3.746582   2.187119   2.944281   4.194550
    36  H    3.532230   3.890425   2.145440   3.492154   4.699532
    37  C    3.559699   3.657224   1.515872   2.587778   2.904660
    38  H    4.371412   4.162864   2.166542   2.860160   3.111610
    39  H    3.686936   3.857751   2.173221   2.871764   2.628385
    40  H    4.054002   4.419871   2.152092   3.525522   3.962604
    41  H    7.332325   7.788149   9.624311   9.184639   9.489396
    42  H    4.992001   6.344623   5.475826   6.646115   7.143005
                   26         27         28         29         30
    26  H    0.000000
    27  H    1.773915   0.000000
    28  H    1.779808   1.785744   0.000000
    29  C    2.730514   3.452820   2.737267   0.000000
    30  H    2.437302   3.686083   2.949202   1.097613   0.000000
    31  H    3.204082   3.797855   2.610804   1.099928   1.777068
    32  H    3.687713   4.311479   3.787502   1.095376   1.772155
    33  C    4.697488   4.238650   4.195449   2.904251   3.960706
    34  H    4.845352   4.622442   4.728188   2.933415   3.855362
    35  H    4.966835   4.729193   4.254787   2.779919   3.860975
    36  H    5.582548   4.849949   4.969500   3.989862   5.047955
    37  C    3.989823   2.935652   2.781194   3.457310   4.364781
    38  H    4.122537   3.439068   2.651510   3.266572   4.158946
    39  H    3.708010   2.345005   2.467302   3.956479   4.685351
    40  H    5.049295   3.860246   3.862504   4.364695   5.342500
    41  H    9.172282   9.114481  10.582500  10.010966   9.864626
    42  H    7.945108   6.452891   7.691211   7.932238   8.731290
                   31         32         33         34         35
    31  H    0.000000
    32  H    1.783912   0.000000
    33  C    3.114881   2.627265   0.000000
    34  H    3.440369   2.342610   1.097483   0.000000
    35  H    2.654182   2.464993   1.098517   1.785206   0.000000
    36  H    4.125923   3.706744   1.097419   1.774799   1.778767
    37  C    3.269010   3.955953   2.487764   3.452559   2.737416
    38  H    2.738795   3.821819   2.808390   3.797355   2.611821
    39  H    3.824196   4.638324   3.451413   4.310750   3.787627
    40  H    4.160489   4.684659   2.654692   3.687688   2.948438
    41  H   11.072966   9.909745  10.075093   9.378687  11.019029
    42  H    8.335673   7.944621   5.744782   5.983300   6.708770
                   36         37         38         39         40
    36  H    0.000000
    37  C    2.732739   0.000000
    38  H    3.206767   1.099735   0.000000
    39  H    3.689891   1.095392   1.783239   0.000000
    40  H    2.440505   1.097901   1.776309   1.773235   0.000000
    41  H   10.349497  10.839003  11.673671  10.712660  11.230814
    42  H    5.036245   5.662924   6.708509   5.674460   5.083310
                   41         42
    41  H    0.000000
    42  H    9.099536   0.000000
 Stoichiometry    C16H20BIrN2O2
 Framework group  C1[X(C16H20BIrN2O2)]
 Deg. of freedom   120
 Full point group                 C1      NOp   1
 Largest Abelian subgroup         C1      NOp   1
 Largest concise Abelian subgroup C1      NOp   1
                         Standard orientation:                         
 ---------------------------------------------------------------------
 Center     Atomic      Atomic             Coordinates (Angstroms)
 Number     Number       Type             X           Y           Z
 ---------------------------------------------------------------------
      1          6           0        2.461928    1.317412    0.045980
      2          6           0        0.326168    2.286222    0.033430
      3          6           0        0.870288    3.552902    0.078690
      4          6           0        2.253087    3.721182    0.110060
      5          6           0        3.039058    2.583862    0.092180
      6          6           0        3.248379    0.086992    0.019690
      7          6           0        3.137419   -2.225368   -0.065210
      8          6           0        4.517649   -2.349797   -0.045990
      9          6           0        5.283229   -1.188327    0.010430
     10          6           0        4.643739    0.040963    0.043420
     11          1           0       -0.747492    2.122111    0.010550
     12          1           0        2.703257    4.710002    0.146740
     13          1           0        4.122568    2.670943    0.113600
     14          1           0        2.488580   -3.100048   -0.108060
     15          1           0        6.369949   -1.239447    0.028460
     16          1           0        5.229568    0.955723    0.087590
     17          7           0        1.091858    1.158942    0.018700
     18          7           0        2.512889   -1.043748   -0.032880
     19         77           0        0.324199   -0.614298   -0.036640
     20          8           0       -2.406442    0.953761    0.100590
     21          5           0       -1.662301   -0.226429   -0.022880
     22          8           0       -2.542531   -1.313629   -0.127870
     23          6           0       -3.781422    0.650660   -0.171300
     24          6           0       -3.861521   -0.857410    0.195590
     25          6           0       -4.073001   -1.094680    1.686110
     26          1           0       -3.900801   -2.156990    1.899900
     27          1           0       -3.360671   -0.511530    2.283950
     28          1           0       -5.093461   -0.840000    2.003900
     29          6           0       -4.876151   -1.654200   -0.600420
     30          1           0       -4.863461   -2.701460   -0.272030
     31          1           0       -5.892401   -1.262990   -0.445400
     32          1           0       -4.652681   -1.636340   -1.672610
     33          6           0       -4.019782    0.913480   -1.653190
     34          1           0       -3.403391    0.251620   -2.274860
     35          1           0       -5.074012    0.778600   -1.930940
     36          1           0       -3.735862    1.949330   -1.878430
     37          6           0       -4.665632    1.557780    0.661270
     38          1           0       -5.724642    1.283950    0.547550
     39          1           0       -4.404192    1.512480    1.724040
     40          1           0       -4.549292    2.597790    0.329260
     41          1           0        4.978900   -3.333647   -0.074220
     42          1           0        0.195667    4.405562    0.089760
 ---------------------------------------------------------------------
 Rotational constants (GHZ):           0.4627903           0.1456152           0.1164014
 General basis read from cards:  (5D, 7F)
 ======================================================================================================
                                       Pseudopotential Parameters
 ======================================================================================================
  Center     Atomic      Valence      Angular      Power
  Number     Number     Electrons     Momentum     of R      Exponent        Coefficient   SO-Coeffient
 ======================================================================================================
    1          6
                                   No pseudopotential on this center.
    2          6
                                   No pseudopotential on this center.
    3          6
                                   No pseudopotential on this center.
    4          6
                                   No pseudopotential on this center.
    5          6
                                   No pseudopotential on this center.
    6          6
                                   No pseudopotential on this center.
    7          6
                                   No pseudopotential on this center.
    8          6
                                   No pseudopotential on this center.
    9          6
                                   No pseudopotential on this center.
   10          6
                                   No pseudopotential on this center.
   11          1
                                   No pseudopotential on this center.
   12          1
                                   No pseudopotential on this center.
   13          1
                                   No pseudopotential on this center.
   14          1
                                   No pseudopotential on this center.
   15          1
                                   No pseudopotential on this center.
   16          1
                                   No pseudopotential on this center.
   17          7
                                   No pseudopotential on this center.
   18          7
                                   No pseudopotential on this center.
   19         77           17
                                      G and up 
                                                     1      823.5880147       -0.15780140    0.00000000
                                                     2      364.6613336    -1517.52704460    0.00000000
                                                     2       55.7082801     -316.53065290    0.00000000
                                                     2       12.0464544      -91.88809410    0.00000000
                                                     2        3.5120610       -9.22417730    0.00000000
                                      S - G
                                                     0      188.0490770        3.15780140    0.00000000
                                                     1      340.4194712       26.83225770    0.00000000
                                                     2      128.2373673      800.42500070    0.00000000
                                                     2       33.8644961      369.40506830    0.00000000
                                                     2        4.7560005      242.41718990    0.00000000
                                                     2        3.9649974     -118.21732820    0.00000000
                                      P - G
                                                     0      289.7291139        2.15780140    0.00000000
                                                     1       87.4633789       61.96786100    0.00000000
                                                     2       30.4363766      269.05819860    0.00000000
                                                     2        4.0553412      231.16547930    0.00000000
                                                     2        3.5525341     -133.69526670    0.00000000
                                      D - G
                                                     0      136.4017106        3.15780140    0.00000000
                                                     1       95.0776925       45.93498030    0.00000000
                                                     2       49.2258410      359.03446680    0.00000000
                                                     2       15.0874145      176.47401190    0.00000000
                                                     2        4.0405764       54.51552860    0.00000000
                                      F - G
                                                     0      127.3507908        3.95461970    0.00000000
                                                     1       66.2364374       52.97736550    0.00000000
                                                     2       34.4299229      274.86433830    0.00000000
                                                     2       10.1995721      137.20473380    0.00000000
                                                     2        2.5409702       14.86333050    0.00000000
   20          8
                                   No pseudopotential on this center.
   21          5
                                   No pseudopotential on this center.
   22          8
                                   No pseudopotential on this center.
   23          6
                                   No pseudopotential on this center.
   24          6
                                   No pseudopotential on this center.
   25          6
                                   No pseudopotential on this center.
   26          1
                                   No pseudopotential on this center.
   27          1
                                   No pseudopotential on this center.
   28          1
                                   No pseudopotential on this center.
   29          6
                                   No pseudopotential on this center.
   30          1
                                   No pseudopotential on this center.
   31          1
                                   No pseudopotential on this center.
   32          1
                                   No pseudopotential on this center.
   33          6
                                   No pseudopotential on this center.
   34          1
                                   No pseudopotential on this center.
   35          1
                                   No pseudopotential on this center.
   36          1
                                   No pseudopotential on this center.
   37          6
                                   No pseudopotential on this center.
   38          1
                                   No pseudopotential on this center.
   39          1
                                   No pseudopotential on this center.
   40          1
                                   No pseudopotential on this center.
   41          1
                                   No pseudopotential on this center.
   42          1
                                   No pseudopotential on this center.
 ======================================================================================================
 There are   379 symmetry adapted cartesian basis functions of A   symmetry.
 There are   356 symmetry adapted basis functions of A   symmetry.
   356 basis functions,   711 primitive gaussians,   379 cartesian basis functions
    84 alpha electrons       84 beta electrons
       nuclear repulsion energy      1933.2482515379 Hartrees.
 NAtoms=   42 NActive=   42 NUniq=   42 SFac= 1.00D+00 NAtFMM=   60 NAOKFM=F Big=F
 Integral buffers will be    131072 words long.
 Raffenetti 2 integral format.
 Two-electron integral symmetry is turned on.
 One-electron integrals computed using PRISM.
   1 Symmetry operations used in ECPInt.
 ECPInt:  NShTT=    8778 NPrTT=   54077 LenC2=    7320 LenP2D=   26583.
 LDataN:  DoStor=T MaxTD1= 6 Len=  172
 NBasis=   356 RedAO= T EigKep=  5.66D-04  NBF=   356
 NBsUse=   356 1.00D-06 EigRej= -1.00D+00 NBFU=   356
 Defaulting to unpruned grid for atomic number  77.
 ExpMin= 2.90D-02 ExpMax= 5.48D+03 ExpMxC= 8.25D+02 IAcc=3 IRadAn=         5 AccDes= 0.00D+00
 Harris functional with IExCor= 1009 and IRadAn=       5 diagonalized for initial guess.
 HarFok:  IExCor= 1009 AccDes= 0.00D+00 IRadAn=         5 IDoV= 1 UseB2=F ITyADJ=14
 ICtDFT=  3500011 ScaDFX=  1.000000  1.000000  1.000000  1.000000
 Defaulting to unpruned grid for atomic number  77.
 FoFCou: FMM=F IPFlag=           0 FMFlag=      100000 FMFlg1=           0
         NFxFlg=           0 DoJE=T BraDBF=F KetDBF=T FulRan=T
         wScrn=  0.000000 ICntrl=       500 IOpCl=  0 I1Cent=   200000004 NGrid=           0
         NMat0=    1 NMatS0=      1 NMatT0=    0 NMatD0=    1 NMtDS0=    0 NMtDT0=    0
 Petite list used in FoFCou.
 Requested convergence on RMS density matrix=1.00D-08 within 128 cycles.
 Requested convergence on MAX density matrix=1.00D-06.
 Requested convergence on             energy=1.00D-06.
 No special actions if energy rises.
 Defaulting to unpruned grid for atomic number  77.
 Defaulting to unpruned grid for atomic number  77.
 Defaulting to unpruned grid for atomic number  77.
 Defaulting to unpruned grid for atomic number  77.
 Defaulting to unpruned grid for atomic number  77.
 Defaulting to unpruned grid for atomic number  77.
 Defaulting to unpruned grid for atomic number  77.
 Defaulting to unpruned grid for atomic number  77.
 Defaulting to unpruned grid for atomic number  77.
 Defaulting to unpruned grid for atomic number  77.
 Defaulting to unpruned grid for atomic number  77.
 Defaulting to unpruned grid for atomic number  77.
 Defaulting to unpruned grid for atomic number  77.
 Defaulting to unpruned grid for atomic number  77.
 Defaulting to unpruned grid for atomic number  77.
 Defaulting to unpruned grid for atomic number  77.
 SCF Done:  E(RM06) =  -1010.65333708     A.U. after   20 cycles
            NFock= 20  Conv=0.61D-08     -V/T= 2.0829
 DoSCS=F DFT=T ScalE2(SS,OS)=  1.000000  1.000000
 Range of M.O.s used for correlation:     1   356
 NBasis=   356 NAE=    84 NBE=    84 NFC=     0 NFV=     0
 NROrb=    356 NOA=    84 NOB=    84 NVA=   272 NVB=   272

 **** Warning!!: The smallest alpha delta epsilon is  0.90136629D-01

   1 Symmetry operations used in ECPInt.
 ECPInt:  NShTT=    8778 NPrTT=   54077 LenC2=    7320 LenP2D=   26583.
 LDataN:  DoStor=T MaxTD1= 7 Len=  274
 Symmetrizing basis deriv contribution to polar:
 IMax=3 JMax=2 DiffMx= 0.00D+00
 G2DrvN: will do    43 centers at a time, making    1 passes.
 Calling FoFCou, ICntrl=  3107 FMM=F I1Cent=   0 AccDes= 0.00D+00.
 Defaulting to unpruned grid for atomic number  77.
 Defaulting to unpruned grid for atomic number  77.
 Defaulting to unpruned grid for atomic number  77.
 Defaulting to unpruned grid for atomic number  77.
 Defaulting to unpruned grid for atomic number  77.
 Defaulting to unpruned grid for atomic number  77.
 Defaulting to unpruned grid for atomic number  77.
 Defaulting to unpruned grid for atomic number  77.
 Defaulting to unpruned grid for atomic number  77.
 Defaulting to unpruned grid for atomic number  77.
 Defaulting to unpruned grid for atomic number  77.
 Defaulting to unpruned grid for atomic number  77.
 Defaulting to unpruned grid for atomic number  77.
 Defaulting to unpruned grid for atomic number  77.
 Defaulting to unpruned grid for atomic number  77.
 Defaulting to unpruned grid for atomic number  77.
 End of G2Drv F.D. properties file   721 does not exist.
 End of G2Drv F.D. properties file   722 does not exist.
 End of G2Drv F.D. properties file   788 does not exist.
          IDoAtm=111111111111111111111111111111111111111111
          Differentiating once with respect to electric field.
                with respect to dipole field.
          Differentiating once with respect to nuclear coordinates.
 Defaulting to unpruned grid for atomic number  77.
 Keep R1 ints in memory in canonical form, NReq=2046535931.
 Defaulting to unpruned grid for atomic number  77.
 Defaulting to unpruned grid for atomic number  77.
 Defaulting to unpruned grid for atomic number  77.
 Defaulting to unpruned grid for atomic number  77.
 Defaulting to unpruned grid for atomic number  77.
 Defaulting to unpruned grid for atomic number  77.
 Defaulting to unpruned grid for atomic number  77.
 Defaulting to unpruned grid for atomic number  77.
 Defaulting to unpruned grid for atomic number  77.
 Defaulting to unpruned grid for atomic number  77.
 Defaulting to unpruned grid for atomic number  77.
 Defaulting to unpruned grid for atomic number  77.
 Defaulting to unpruned grid for atomic number  77.
 Defaulting to unpruned grid for atomic number  77.
 Defaulting to unpruned grid for atomic number  77.
 Defaulting to unpruned grid for atomic number  77.
          There are   129 degrees of freedom in the 1st order CPHF.  IDoFFX=6 NUNeed=     3.
    126 vectors produced by pass  0 Test12= 2.28D-14 1.00D-09 XBig12= 5.61D+02 1.50D+01.
 AX will form   126 AO Fock derivatives at one time.
    126 vectors produced by pass  1 Test12= 2.28D-14 1.00D-09 XBig12= 1.63D+02 2.67D+00.
    126 vectors produced by pass  2 Test12= 2.28D-14 1.00D-09 XBig12= 6.43D+00 3.51D-01.
    126 vectors produced by pass  3 Test12= 2.28D-14 1.00D-09 XBig12= 9.01D-02 4.40D-02.
    126 vectors produced by pass  4 Test12= 2.28D-14 1.00D-09 XBig12= 4.01D-04 2.63D-03.
    124 vectors produced by pass  5 Test12= 2.28D-14 1.00D-09 XBig12= 8.49D-07 8.06D-05.
     62 vectors produced by pass  6 Test12= 2.28D-14 1.00D-09 XBig12= 1.30D-09 2.85D-06.
      3 vectors produced by pass  7 Test12= 2.28D-14 1.00D-09 XBig12= 1.67D-12 9.51D-08.
      3 vectors produced by pass  8 Test12= 2.28D-14 1.00D-09 XBig12= 2.40D-15 3.97D-09.
 InvSVY:  IOpt=1 It=  1 EMax= 7.11D-15
 Solved reduced A of dimension   822 with   129 vectors.
 Isotropic polarizability for W=    0.000000      268.84 Bohr**3.
 End of Minotr F.D. properties file   721 does not exist.
 End of Minotr F.D. properties file   722 does not exist.
 End of Minotr F.D. properties file   788 does not exist.

 **********************************************************************

            Population analysis using the SCF Density.

 **********************************************************************

 Orbital symmetries:
       Occupied  (A) (A) (A) (A) (A) (A) (A) (A) (A) (A) (A) (A)
                 (A) (A) (A) (A) (A) (A) (A) (A) (A) (A) (A) (A)
                 (A) (A) (A) (A) (A) (A) (A) (A) (A) (A) (A) (A)
                 (A) (A) (A) (A) (A) (A) (A) (A) (A) (A) (A) (A)
                 (A) (A) (A) (A) (A) (A) (A) (A) (A) (A) (A) (A)
                 (A) (A) (A) (A) (A) (A) (A) (A) (A) (A) (A) (A)
                 (A) (A) (A) (A) (A) (A) (A) (A) (A) (A) (A) (A)
       Virtual   (A) (A) (A) (A) (A) (A) (A) (A) (A) (A) (A) (A)
                 (A) (A) (A) (A) (A) (A) (A) (A) (A) (A) (A) (A)
                 (A) (A) (A) (A) (A) (A) (A) (A) (A) (A) (A) (A)
                 (A) (A) (A) (A) (A) (A) (A) (A) (A) (A) (A) (A)
                 (A) (A) (A) (A) (A) (A) (A) (A) (A) (A) (A) (A)
                 (A) (A) (A) (A) (A) (A) (A) (A) (A) (A) (A) (A)
                 (A) (A) (A) (A) (A) (A) (A) (A) (A) (A) (A) (A)
                 (A) (A) (A) (A) (A) (A) (A) (A) (A) (A) (A) (A)
                 (A) (A) (A) (A) (A) (A) (A) (A) (A) (A) (A) (A)
                 (A) (A) (A) (A) (A) (A) (A) (A) (A) (A) (A) (A)
                 (A) (A) (A) (A) (A) (A) (A) (A) (A) (A) (A) (A)
                 (A) (A) (A) (A) (A) (A) (A) (A) (A) (A) (A) (A)
                 (A) (A) (A) (A) (A) (A) (A) (A) (A) (A) (A) (A)
                 (A) (A) (A) (A) (A) (A) (A) (A) (A) (A) (A) (A)
                 (A) (A) (A) (A) (A) (A) (A) (A) (A) (A) (A) (A)
                 (A) (A) (A) (A) (A) (A) (A) (A) (A) (A) (A) (A)
                 (A) (A) (A) (A) (A) (A) (A) (A) (A) (A) (A) (A)
                 (A) (A) (A) (A) (A) (A) (A) (A) (A) (A) (A) (A)
                 (A) (A) (A) (A) (A) (A) (A) (A) (A) (A) (A) (A)
                 (A) (A) (A) (A) (A) (A) (A) (A) (A) (A) (A) (A)
                 (A) (A) (A) (A) (A) (A) (A) (A) (A) (A) (A) (A)
                 (A) (A) (A) (A) (A) (A) (A) (A) (A) (A) (A) (A)
                 (A) (A) (A) (A) (A) (A) (A) (A)
 The electronic state is 1-A.
 Alpha  occ. eigenvalues --  -19.19308 -19.18922 -14.47620 -14.44153 -10.31532
 Alpha  occ. eigenvalues --  -10.30825 -10.30464 -10.28652 -10.28592 -10.28588
 Alpha  occ. eigenvalues --  -10.28404 -10.28045 -10.27631 -10.27619 -10.27227
 Alpha  occ. eigenvalues --  -10.26798 -10.22264 -10.22028 -10.21762 -10.21586
 Alpha  occ. eigenvalues --   -6.76544  -3.58884  -2.03371  -2.00656  -1.98384
 Alpha  occ. eigenvalues --   -1.04949  -0.99746  -0.98042  -0.97055  -0.83947
 Alpha  occ. eigenvalues --   -0.83083  -0.82381  -0.79601  -0.76849  -0.74104
 Alpha  occ. eigenvalues --   -0.69703  -0.68620  -0.67675  -0.66990  -0.64151
 Alpha  occ. eigenvalues --   -0.63114  -0.60781  -0.57260  -0.53670  -0.53065
 Alpha  occ. eigenvalues --   -0.52869  -0.52275  -0.50610  -0.49176  -0.47054
 Alpha  occ. eigenvalues --   -0.46541  -0.45883  -0.45585  -0.45458  -0.45208
 Alpha  occ. eigenvalues --   -0.44114  -0.43550  -0.42734  -0.42174  -0.40216
 Alpha  occ. eigenvalues --   -0.39405  -0.39225  -0.38983  -0.38691  -0.38103
 Alpha  occ. eigenvalues --   -0.37043  -0.36426  -0.35950  -0.35246  -0.34978
 Alpha  occ. eigenvalues --   -0.34129  -0.33086  -0.32273  -0.31532  -0.31163
 Alpha  occ. eigenvalues --   -0.30666  -0.29380  -0.26240  -0.25493  -0.23184
 Alpha  occ. eigenvalues --   -0.19958  -0.18163  -0.16976  -0.15917
 Alpha virt. eigenvalues --   -0.06903  -0.03796  -0.03386  -0.02478   0.01265
 Alpha virt. eigenvalues --    0.02480   0.02613   0.04094   0.08131   0.09569
 Alpha virt. eigenvalues --    0.10147   0.10813   0.12247   0.12448   0.12790
 Alpha virt. eigenvalues --    0.14766   0.15078   0.15573   0.15908   0.16053
 Alpha virt. eigenvalues --    0.16635   0.17147   0.17290   0.17855   0.18223
 Alpha virt. eigenvalues --    0.18434   0.19115   0.19891   0.20315   0.21095
 Alpha virt. eigenvalues --    0.21422   0.21645   0.21856   0.23222   0.23486
 Alpha virt. eigenvalues --    0.23904   0.25114   0.26189   0.26236   0.26842
 Alpha virt. eigenvalues --    0.27522   0.27846   0.29328   0.29678   0.30130
 Alpha virt. eigenvalues --    0.30880   0.32624   0.34369   0.35621   0.36844
 Alpha virt. eigenvalues --    0.38626   0.39534   0.40283   0.45967   0.46185
 Alpha virt. eigenvalues --    0.46419   0.48287   0.48549   0.48922   0.51118
 Alpha virt. eigenvalues --    0.51592   0.52140   0.52285   0.52578   0.53484
 Alpha virt. eigenvalues --    0.53793   0.55103   0.55588   0.57315   0.58000
 Alpha virt. eigenvalues --    0.58066   0.58841   0.59022   0.59228   0.59678
 Alpha virt. eigenvalues --    0.59944   0.60052   0.60605   0.60900   0.61220
 Alpha virt. eigenvalues --    0.61888   0.63159   0.63445   0.64305   0.64424
 Alpha virt. eigenvalues --    0.65725   0.66100   0.66819   0.67933   0.70130
 Alpha virt. eigenvalues --    0.70858   0.71519   0.73228   0.73504   0.73858
 Alpha virt. eigenvalues --    0.74586   0.76009   0.76888   0.77910   0.78422
 Alpha virt. eigenvalues --    0.79193   0.79870   0.81625   0.82113   0.82482
 Alpha virt. eigenvalues --    0.83959   0.84078   0.84783   0.85386   0.85820
 Alpha virt. eigenvalues --    0.86240   0.86650   0.87562   0.88877   0.89145
 Alpha virt. eigenvalues --    0.89586   0.90147   0.91151   0.91524   0.91823
 Alpha virt. eigenvalues --    0.92661   0.93148   0.93507   0.94588   0.95388
 Alpha virt. eigenvalues --    0.95779   0.96134   0.96756   0.97697   0.98564
 Alpha virt. eigenvalues --    0.99660   1.00558   1.00621   1.03032   1.05309
 Alpha virt. eigenvalues --    1.06468   1.08619   1.09561   1.10782   1.11561
 Alpha virt. eigenvalues --    1.13934   1.15109   1.16681   1.18916   1.20369
 Alpha virt. eigenvalues --    1.21234   1.21721   1.23807   1.24536   1.25148
 Alpha virt. eigenvalues --    1.26646   1.27993   1.29040   1.32356   1.34221
 Alpha virt. eigenvalues --    1.35769   1.38570   1.39295   1.40318   1.41013
 Alpha virt. eigenvalues --    1.42346   1.44772   1.45044   1.46005   1.46059
 Alpha virt. eigenvalues --    1.47095   1.47404   1.48790   1.50632   1.51481
 Alpha virt. eigenvalues --    1.51790   1.53652   1.55894   1.56887   1.59821
 Alpha virt. eigenvalues --    1.64875   1.65965   1.67524   1.68754   1.69635
 Alpha virt. eigenvalues --    1.71214   1.74037   1.75511   1.77004   1.78042
 Alpha virt. eigenvalues --    1.78118   1.78627   1.80524   1.81830   1.82608
 Alpha virt. eigenvalues --    1.84495   1.85336   1.86367   1.86715   1.87707
 Alpha virt. eigenvalues --    1.89667   1.91962   1.92650   1.93253   1.93798
 Alpha virt. eigenvalues --    1.94862   1.96861   1.98091   1.98471   2.02852
 Alpha virt. eigenvalues --    2.03011   2.06184   2.06998   2.07263   2.07757
 Alpha virt. eigenvalues --    2.10335   2.10642   2.11993   2.12236   2.13715
 Alpha virt. eigenvalues --    2.14089   2.14835   2.15425   2.16584   2.17250
 Alpha virt. eigenvalues --    2.17931   2.19216   2.21169   2.21192   2.23010
 Alpha virt. eigenvalues --    2.25547   2.25642   2.26196   2.26328   2.28140
 Alpha virt. eigenvalues --    2.29591   2.30624   2.32157   2.32308   2.33540
 Alpha virt. eigenvalues --    2.38306   2.39280   2.44106   2.46074   2.46899
 Alpha virt. eigenvalues --    2.48019   2.49228   2.51810   2.55549   2.58593
 Alpha virt. eigenvalues --    2.59465   2.60277   2.60841   2.62766   2.65020
 Alpha virt. eigenvalues --    2.65450   2.66334   2.68220   2.71270   2.73776
 Alpha virt. eigenvalues --    2.77840   2.78310   2.78870   2.80407   2.82165
 Alpha virt. eigenvalues --    2.83777   2.86269   2.88728   2.92783   2.94595
 Alpha virt. eigenvalues --    2.97901   3.02992   3.09730   3.24442   3.28050
 Alpha virt. eigenvalues --    3.43032   7.47157
          Condensed to atoms (all electrons):
               1          2          3          4          5          6
     1  C    4.809792  -0.038667  -0.026481  -0.009473   0.538097   0.354432
     2  C   -0.038667   4.877907   0.523387  -0.022074  -0.040908   0.004113
     3  C   -0.026481   0.523387   4.921437   0.519077  -0.032880   0.000912
     4  C   -0.009473  -0.022074   0.519077   4.880357   0.518485   0.006284
     5  C    0.538097  -0.040908  -0.032880   0.518485   5.004039  -0.064565
     6  C    0.354432   0.004113   0.000912   0.006284  -0.064565   4.680250
     7  C    0.005332   0.000012  -0.000001   0.000003  -0.000178  -0.051821
     8  C    0.001104  -0.000001   0.000000   0.000000  -0.000026  -0.028967
     9  C    0.005402   0.000003   0.000000  -0.000010   0.000702  -0.003949
    10  C   -0.078421  -0.000089  -0.000041   0.000716  -0.015123   0.533538
    11  H    0.002948   0.342124  -0.042257   0.003415   0.000750  -0.000281
    12  H    0.002796   0.004008  -0.036099   0.362951  -0.035338  -0.000142
    13  H   -0.034714   0.000215   0.004373  -0.037395   0.354413  -0.012564
    14  H   -0.000209  -0.000000   0.000000  -0.000000   0.000002   0.004228
    15  H   -0.000165  -0.000000  -0.000000  -0.000000   0.000006   0.002367
    16  H   -0.009638  -0.000006   0.000001   0.000325   0.002984  -0.033164
    17  N    0.262100   0.405568  -0.032811  -0.033417  -0.074119   0.014374
    18  N   -0.032493   0.000679  -0.000082  -0.000133   0.007007   0.335044
    19  Ir  -0.062826  -0.042276   0.008302  -0.001836   0.007869  -0.042436
    20  O   -0.000023  -0.021182   0.000111  -0.000002  -0.000001   0.000001
    21  B    0.001822   0.001273   0.000970  -0.000033   0.000064  -0.000184
    22  O    0.000001  -0.000154  -0.000001   0.000000  -0.000000   0.000000
    23  C    0.000001   0.000715  -0.000006   0.000000   0.000000  -0.000000
    24  C    0.000000  -0.000085  -0.000000   0.000000   0.000000  -0.000000
    25  C   -0.000000   0.000002  -0.000000  -0.000000  -0.000000   0.000000
    26  H   -0.000000  -0.000000   0.000000  -0.000000   0.000000   0.000000
    27  H    0.000000   0.000006  -0.000000  -0.000000   0.000000   0.000000
    28  H   -0.000000  -0.000000   0.000000   0.000000   0.000000  -0.000000
    29  C    0.000000   0.000001  -0.000000   0.000000   0.000000   0.000000
    30  H    0.000000  -0.000000   0.000000  -0.000000  -0.000000   0.000000
    31  H   -0.000000   0.000000   0.000000  -0.000000   0.000000  -0.000000
    32  H   -0.000000   0.000000  -0.000000   0.000000  -0.000000   0.000000
    33  C   -0.000000   0.000002  -0.000000  -0.000000  -0.000000   0.000000
    34  H   -0.000000   0.000017  -0.000000  -0.000000   0.000000   0.000000
    35  H    0.000000  -0.000000   0.000000   0.000000   0.000000  -0.000000
    36  H   -0.000000  -0.000089   0.000001  -0.000000   0.000000  -0.000000
    37  C   -0.000000   0.000001  -0.000000  -0.000000  -0.000000   0.000000
    38  H    0.000000  -0.000000  -0.000000  -0.000000   0.000000  -0.000000
    39  H    0.000000   0.000004  -0.000000  -0.000000  -0.000000   0.000000
    40  H   -0.000000  -0.000036   0.000001  -0.000000   0.000000  -0.000000
    41  H    0.000016  -0.000000   0.000000  -0.000000  -0.000000   0.000600
    42  H    0.000373  -0.035049   0.365902  -0.036983   0.004463   0.000005
               7          8          9         10         11         12
     1  C    0.005332   0.001104   0.005402  -0.078421   0.002948   0.002796
     2  C    0.000012  -0.000001   0.000003  -0.000089   0.342124   0.004008
     3  C   -0.000001   0.000000   0.000000  -0.000041  -0.042257  -0.036099
     4  C    0.000003   0.000000  -0.000010   0.000716   0.003415   0.362951
     5  C   -0.000178  -0.000026   0.000702  -0.015123   0.000750  -0.035338
     6  C   -0.051821  -0.028967  -0.003949   0.533538  -0.000281  -0.000142
     7  C    4.753449   0.546977  -0.022230  -0.041590   0.000001  -0.000000
     8  C    0.546977   4.895326   0.535197  -0.034169  -0.000000  -0.000000
     9  C   -0.022230   0.535197   4.861941   0.513341   0.000000  -0.000000
    10  C   -0.041590  -0.034169   0.513341   5.036523   0.000001   0.000004
    11  H    0.000001  -0.000000   0.000000   0.000001   0.465724  -0.000116
    12  H   -0.000000  -0.000000  -0.000000   0.000004  -0.000116   0.535532
    13  H   -0.000000  -0.000006   0.000379   0.003670   0.000015  -0.004715
    14  H    0.369936  -0.046720   0.002668   0.001016   0.000000   0.000000
    15  H    0.004183  -0.037795   0.364474  -0.035427   0.000000   0.000000
    16  H    0.000163   0.004590  -0.039638   0.352700  -0.000000   0.000002
    17  N   -0.000500   0.000026  -0.000179   0.008396  -0.036454   0.000073
    18  N    0.469706  -0.032272  -0.038540  -0.074138   0.000077   0.000001
    19  Ir  -0.027947   0.005192  -0.001387   0.005821  -0.013513   0.000198
    20  O    0.000000  -0.000000   0.000000   0.000000   0.042982   0.000000
    21  B   -0.000007  -0.000001  -0.000001  -0.000010  -0.012309   0.000000
    22  O   -0.000000   0.000000   0.000000   0.000000   0.000187   0.000000
    23  C   -0.000000  -0.000000  -0.000000  -0.000000  -0.002120  -0.000000
    24  C   -0.000000  -0.000000  -0.000000  -0.000000   0.000368   0.000000
    25  C    0.000000   0.000000   0.000000   0.000000  -0.000017   0.000000
    26  H   -0.000000   0.000000   0.000000  -0.000000   0.000001   0.000000
    27  H   -0.000000   0.000000  -0.000000   0.000000  -0.000042  -0.000000
    28  H   -0.000000  -0.000000  -0.000000  -0.000000   0.000000  -0.000000
    29  C    0.000000   0.000000  -0.000000  -0.000000  -0.000005  -0.000000
    30  H   -0.000000   0.000000   0.000000  -0.000000   0.000000   0.000000
    31  H   -0.000000  -0.000000  -0.000000   0.000000  -0.000000  -0.000000
    32  H   -0.000000   0.000000   0.000000   0.000000  -0.000000  -0.000000
    33  C    0.000000   0.000000   0.000000   0.000000  -0.000157  -0.000000
    34  H    0.000000  -0.000000  -0.000000   0.000000  -0.000105  -0.000000
    35  H   -0.000000  -0.000000  -0.000000  -0.000000   0.000003  -0.000000
    36  H    0.000000  -0.000000   0.000000   0.000000   0.000385   0.000000
    37  C    0.000000  -0.000000  -0.000000   0.000000  -0.000112   0.000000
    38  H   -0.000000   0.000000  -0.000000  -0.000000  -0.000000  -0.000000
    39  H    0.000000  -0.000000   0.000000   0.000000  -0.000032   0.000000
    40  H    0.000000  -0.000000   0.000000   0.000000   0.000203   0.000000
    41  H   -0.036005   0.361743  -0.036206   0.004355  -0.000000  -0.000000
    42  H    0.000000   0.000000  -0.000000  -0.000000  -0.003529  -0.004224
              13         14         15         16         17         18
     1  C   -0.034714  -0.000209  -0.000165  -0.009638   0.262100  -0.032493
     2  C    0.000215  -0.000000  -0.000000  -0.000006   0.405568   0.000679
     3  C    0.004373   0.000000  -0.000000   0.000001  -0.032811  -0.000082
     4  C   -0.037395  -0.000000  -0.000000   0.000325  -0.033417  -0.000133
     5  C    0.354413   0.000002   0.000006   0.002984  -0.074119   0.007007
     6  C   -0.012564   0.004228   0.002367  -0.033164   0.014374   0.335044
     7  C   -0.000000   0.369936   0.004183   0.000163  -0.000500   0.469706
     8  C   -0.000006  -0.046720  -0.037795   0.004590   0.000026  -0.032272
     9  C    0.000379   0.002668   0.364474  -0.039638  -0.000179  -0.038540
    10  C    0.003670   0.001016  -0.035427   0.352700   0.008396  -0.074138
    11  H    0.000015   0.000000   0.000000  -0.000000  -0.036454   0.000077
    12  H   -0.004715   0.000000   0.000000   0.000002   0.000073   0.000001
    13  H    0.553945   0.000000   0.000001   0.004367   0.003919   0.000044
    14  H    0.000000   0.531384  -0.000154   0.000026  -0.000017  -0.043291
    15  H    0.000001  -0.000154   0.532110  -0.004983   0.000001   0.000082
    16  H    0.004367   0.000026  -0.004983   0.548857   0.000018   0.004083
    17  N    0.003919  -0.000017   0.000001   0.000018   7.051164  -0.034624
    18  N    0.000044  -0.043291   0.000082   0.004083  -0.034624   6.871673
    19  Ir  -0.000495  -0.003078   0.000202  -0.000485   0.116938   0.095104
    20  O   -0.000000  -0.000000  -0.000000  -0.000000  -0.000050   0.000002
    21  B   -0.000000   0.000132  -0.000000   0.000000  -0.013069  -0.007083
    22  O    0.000000  -0.000001   0.000000  -0.000000   0.000045   0.000009
    23  C    0.000000   0.000000  -0.000000   0.000000  -0.000011  -0.000000
    24  C   -0.000000   0.000000  -0.000000   0.000000   0.000010  -0.000001
    25  C    0.000000  -0.000000  -0.000000  -0.000000   0.000000   0.000000
    26  H    0.000000  -0.000000   0.000000  -0.000000  -0.000000   0.000000
    27  H    0.000000   0.000000  -0.000000   0.000000   0.000000  -0.000000
    28  H   -0.000000   0.000000  -0.000000   0.000000   0.000000  -0.000000
    29  C    0.000000  -0.000000  -0.000000   0.000000  -0.000000  -0.000000
    30  H    0.000000  -0.000000   0.000000  -0.000000   0.000000   0.000000
    31  H   -0.000000   0.000000  -0.000000   0.000000  -0.000000  -0.000000
    32  H    0.000000  -0.000000   0.000000  -0.000000   0.000000   0.000000
    33  C    0.000000   0.000000   0.000000  -0.000000  -0.000002   0.000000
    34  H   -0.000000   0.000000  -0.000000   0.000000  -0.000000  -0.000000
    35  H    0.000000   0.000000  -0.000000   0.000000  -0.000000  -0.000000
    36  H    0.000000   0.000000   0.000000  -0.000000   0.000001   0.000000
    37  C   -0.000000  -0.000000  -0.000000  -0.000000  -0.000001   0.000000
    38  H    0.000000   0.000000  -0.000000   0.000000   0.000000  -0.000000
    39  H   -0.000000   0.000000   0.000000  -0.000000   0.000000   0.000000
    40  H    0.000000  -0.000000   0.000000  -0.000000   0.000000   0.000000
    41  H   -0.000000  -0.001918  -0.004623  -0.000124   0.000000   0.003987
    42  H   -0.000163  -0.000000  -0.000000  -0.000000   0.003757   0.000000
              19         20         21         22         23         24
     1  C   -0.062826  -0.000023   0.001822   0.000001   0.000001   0.000000
     2  C   -0.042276  -0.021182   0.001273  -0.000154   0.000715  -0.000085
     3  C    0.008302   0.000111   0.000970  -0.000001  -0.000006  -0.000000
     4  C   -0.001836  -0.000002  -0.000033   0.000000   0.000000   0.000000
     5  C    0.007869  -0.000001   0.000064  -0.000000   0.000000   0.000000
     6  C   -0.042436   0.000001  -0.000184   0.000000  -0.000000  -0.000000
     7  C   -0.027947   0.000000  -0.000007  -0.000000  -0.000000  -0.000000
     8  C    0.005192  -0.000000  -0.000001   0.000000  -0.000000  -0.000000
     9  C   -0.001387   0.000000  -0.000001   0.000000  -0.000000  -0.000000
    10  C    0.005821   0.000000  -0.000010   0.000000  -0.000000  -0.000000
    11  H   -0.013513   0.042982  -0.012309   0.000187  -0.002120   0.000368
    12  H    0.000198   0.000000   0.000000   0.000000  -0.000000   0.000000
    13  H   -0.000495  -0.000000  -0.000000   0.000000   0.000000  -0.000000
    14  H   -0.003078  -0.000000   0.000132  -0.000001   0.000000   0.000000
    15  H    0.000202  -0.000000  -0.000000   0.000000  -0.000000  -0.000000
    16  H   -0.000485  -0.000000   0.000000  -0.000000   0.000000   0.000000
    17  N    0.116938  -0.000050  -0.013069   0.000045  -0.000011   0.000010
    18  N    0.095104   0.000002  -0.007083   0.000009  -0.000000  -0.000001
    19  Ir  16.525417  -0.016651   0.267979  -0.008221   0.007268   0.001876
    20  O   -0.016651   8.183121   0.332773  -0.045961   0.227016  -0.056781
    21  B    0.267979   0.332773   3.803448   0.333718  -0.047157  -0.047366
    22  O   -0.008221  -0.045961   0.333718   8.175084  -0.059660   0.238221
    23  C    0.007268   0.227016  -0.047157  -0.059660   4.730673   0.374248
    24  C    0.001876  -0.056781  -0.047366   0.238221   0.374248   4.731556
    25  C    0.001723  -0.003107   0.003795  -0.060133  -0.051486   0.352806
    26  H    0.001940  -0.000051  -0.000879  -0.000283   0.004934  -0.022747
    27  H    0.001182   0.003516   0.005114  -0.002441  -0.005552  -0.027105
    28  H   -0.000550   0.000128  -0.000196   0.003777  -0.004710  -0.021815
    29  C   -0.002076   0.003441   0.000943  -0.049615  -0.051336   0.361144
    30  H    0.000933  -0.000073  -0.000299  -0.001115   0.004707  -0.023252
    31  H   -0.000009   0.000038   0.000016   0.003230  -0.001847  -0.028250
    32  H    0.000191   0.000001   0.000665  -0.000639  -0.009062  -0.020670
    33  C    0.001691  -0.059998   0.003535  -0.003189   0.357173  -0.053953
    34  H    0.001151  -0.003050   0.005357   0.004352  -0.027159  -0.005531
    35  H   -0.000484   0.003802  -0.000220   0.000116  -0.022079  -0.004349
    36  H    0.000999   0.000163  -0.000938  -0.000071  -0.023410   0.005206
    37  C   -0.001831  -0.048818   0.001747   0.003703   0.361432  -0.050371
    38  H   -0.000045   0.003231  -0.000041   0.000047  -0.028717  -0.001849
    39  H    0.000196  -0.000605   0.000749   0.000015  -0.020867  -0.009000
    40  H    0.000457  -0.000872  -0.000379  -0.000080  -0.023364   0.004890
    41  H   -0.000173  -0.000000   0.000000  -0.000000   0.000000   0.000000
    42  H   -0.000045   0.000007  -0.000016  -0.000000  -0.000001  -0.000000
              25         26         27         28         29         30
     1  C   -0.000000  -0.000000   0.000000  -0.000000   0.000000   0.000000
     2  C    0.000002  -0.000000   0.000006  -0.000000   0.000001  -0.000000
     3  C   -0.000000   0.000000  -0.000000   0.000000  -0.000000   0.000000
     4  C   -0.000000  -0.000000  -0.000000   0.000000   0.000000  -0.000000
     5  C   -0.000000   0.000000   0.000000   0.000000   0.000000  -0.000000
     6  C    0.000000   0.000000   0.000000  -0.000000   0.000000   0.000000
     7  C    0.000000  -0.000000  -0.000000  -0.000000   0.000000  -0.000000
     8  C    0.000000   0.000000   0.000000  -0.000000   0.000000   0.000000
     9  C    0.000000   0.000000  -0.000000  -0.000000  -0.000000   0.000000
    10  C    0.000000  -0.000000   0.000000  -0.000000  -0.000000  -0.000000
    11  H   -0.000017   0.000001  -0.000042   0.000000  -0.000005   0.000000
    12  H    0.000000   0.000000  -0.000000  -0.000000  -0.000000   0.000000
    13  H    0.000000   0.000000   0.000000  -0.000000   0.000000   0.000000
    14  H   -0.000000  -0.000000   0.000000   0.000000  -0.000000  -0.000000
    15  H   -0.000000   0.000000  -0.000000  -0.000000  -0.000000   0.000000
    16  H   -0.000000  -0.000000   0.000000   0.000000   0.000000  -0.000000
    17  N    0.000000  -0.000000   0.000000   0.000000  -0.000000   0.000000
    18  N    0.000000   0.000000  -0.000000  -0.000000  -0.000000   0.000000
    19  Ir   0.001723   0.001940   0.001182  -0.000550  -0.002076   0.000933
    20  O   -0.003107  -0.000051   0.003516   0.000128   0.003441  -0.000073
    21  B    0.003795  -0.000879   0.005114  -0.000196   0.000943  -0.000299
    22  O   -0.060133  -0.000283  -0.002441   0.003777  -0.049615  -0.001115
    23  C   -0.051486   0.004934  -0.005552  -0.004710  -0.051336   0.004707
    24  C    0.352806  -0.022747  -0.027105  -0.021815   0.361144  -0.023252
    25  C    5.266181   0.367174   0.370477   0.347534  -0.081008  -0.007445
    26  H    0.367174   0.538996  -0.028057  -0.028413  -0.007013   0.004083
    27  H    0.370477  -0.028057   0.526832  -0.027521   0.005816  -0.000014
    28  H    0.347534  -0.028413  -0.027521   0.585288  -0.000669   0.000152
    29  C   -0.081008  -0.007013   0.005816  -0.000669   5.246938   0.369972
    30  H   -0.007445   0.004083  -0.000014   0.000152   0.369972   0.542987
    31  H   -0.000443   0.000109  -0.000053   0.000854   0.355378  -0.029994
    32  H    0.005865  -0.000082  -0.000172  -0.000034   0.365832  -0.028635
    33  C    0.006663  -0.000145   0.000155  -0.000158  -0.010230   0.000165
    34  H    0.000181  -0.000007   0.000007  -0.000009  -0.002201  -0.000110
    35  H   -0.000152   0.000000  -0.000008  -0.000013   0.000935   0.000099
    36  H   -0.000150   0.000002  -0.000006   0.000000   0.000389  -0.000004
    37  C   -0.010437   0.000386  -0.002159   0.001053   0.002159  -0.000169
    38  H   -0.001123  -0.000044   0.000245   0.000787   0.000580  -0.000036
    39  H    0.004537   0.000017   0.002001  -0.000969   0.000184  -0.000005
    40  H    0.000160  -0.000004  -0.000108   0.000099  -0.000178   0.000004
    41  H   -0.000000  -0.000000   0.000000   0.000000  -0.000000  -0.000000
    42  H    0.000000   0.000000  -0.000000  -0.000000  -0.000000   0.000000
              31         32         33         34         35         36
     1  C   -0.000000  -0.000000  -0.000000  -0.000000   0.000000  -0.000000
     2  C    0.000000   0.000000   0.000002   0.000017  -0.000000  -0.000089
     3  C    0.000000  -0.000000  -0.000000  -0.000000   0.000000   0.000001
     4  C   -0.000000   0.000000  -0.000000  -0.000000   0.000000  -0.000000
     5  C    0.000000  -0.000000  -0.000000   0.000000   0.000000   0.000000
     6  C   -0.000000   0.000000   0.000000   0.000000  -0.000000  -0.000000
     7  C   -0.000000  -0.000000   0.000000   0.000000  -0.000000   0.000000
     8  C   -0.000000   0.000000   0.000000  -0.000000  -0.000000  -0.000000
     9  C   -0.000000   0.000000   0.000000  -0.000000  -0.000000   0.000000
    10  C    0.000000   0.000000   0.000000   0.000000  -0.000000   0.000000
    11  H   -0.000000  -0.000000  -0.000157  -0.000105   0.000003   0.000385
    12  H   -0.000000  -0.000000  -0.000000  -0.000000  -0.000000   0.000000
    13  H   -0.000000   0.000000   0.000000  -0.000000   0.000000   0.000000
    14  H    0.000000  -0.000000   0.000000   0.000000   0.000000   0.000000
    15  H   -0.000000   0.000000   0.000000  -0.000000  -0.000000   0.000000
    16  H    0.000000  -0.000000  -0.000000   0.000000   0.000000  -0.000000
    17  N   -0.000000   0.000000  -0.000002  -0.000000  -0.000000   0.000001
    18  N   -0.000000   0.000000   0.000000  -0.000000  -0.000000   0.000000
    19  Ir  -0.000009   0.000191   0.001691   0.001151  -0.000484   0.000999
    20  O    0.000038   0.000001  -0.059998  -0.003050   0.003802   0.000163
    21  B    0.000016   0.000665   0.003535   0.005357  -0.000220  -0.000938
    22  O    0.003230  -0.000639  -0.003189   0.004352   0.000116  -0.000071
    23  C   -0.001847  -0.009062   0.357173  -0.027159  -0.022079  -0.023410
    24  C   -0.028250  -0.020670  -0.053953  -0.005531  -0.004349   0.005206
    25  C   -0.000443   0.005865   0.006663   0.000181  -0.000152  -0.000150
    26  H    0.000109  -0.000082  -0.000145  -0.000007   0.000000   0.000002
    27  H   -0.000053  -0.000172   0.000155   0.000007  -0.000008  -0.000006
    28  H    0.000854  -0.000034  -0.000158  -0.000009  -0.000013   0.000000
    29  C    0.355378   0.365832  -0.010230  -0.002201   0.000935   0.000389
    30  H   -0.029994  -0.028635   0.000165  -0.000110   0.000099  -0.000004
    31  H    0.579789  -0.026774  -0.001153   0.000251   0.000830  -0.000047
    32  H   -0.026774   0.536775   0.004530   0.001972  -0.000961   0.000024
    33  C   -0.001153   0.004530   5.262983   0.370816   0.349070   0.365679
    34  H    0.000251   0.001972   0.370816   0.523952  -0.027294  -0.028448
    35  H    0.000830  -0.000961   0.349070  -0.027294   0.581509  -0.028544
    36  H   -0.000047   0.000024   0.365679  -0.028448  -0.028544   0.548343
    37  C    0.000527   0.000185  -0.080213   0.005819  -0.000791  -0.007243
    38  H    0.001577  -0.000040  -0.000408  -0.000044   0.000852   0.000108
    39  H   -0.000039  -0.000006   0.005877  -0.000170  -0.000033  -0.000086
    40  H   -0.000037  -0.000005  -0.007740  -0.000031   0.000168   0.004367
    41  H    0.000000  -0.000000  -0.000000   0.000000   0.000000  -0.000000
    42  H   -0.000000  -0.000000   0.000000   0.000000  -0.000000   0.000000
              37         38         39         40         41         42
     1  C   -0.000000   0.000000   0.000000  -0.000000   0.000016   0.000373
     2  C    0.000001  -0.000000   0.000004  -0.000036  -0.000000  -0.035049
     3  C   -0.000000  -0.000000  -0.000000   0.000001   0.000000   0.365902
     4  C   -0.000000  -0.000000  -0.000000  -0.000000  -0.000000  -0.036983
     5  C   -0.000000   0.000000  -0.000000   0.000000  -0.000000   0.004463
     6  C    0.000000  -0.000000   0.000000  -0.000000   0.000600   0.000005
     7  C    0.000000  -0.000000   0.000000   0.000000  -0.036005   0.000000
     8  C   -0.000000   0.000000  -0.000000  -0.000000   0.361743   0.000000
     9  C   -0.000000  -0.000000   0.000000   0.000000  -0.036206  -0.000000
    10  C    0.000000  -0.000000   0.000000   0.000000   0.004355  -0.000000
    11  H   -0.000112  -0.000000  -0.000032   0.000203  -0.000000  -0.003529
    12  H    0.000000  -0.000000   0.000000   0.000000  -0.000000  -0.004224
    13  H   -0.000000   0.000000  -0.000000   0.000000  -0.000000  -0.000163
    14  H   -0.000000   0.000000   0.000000  -0.000000  -0.001918  -0.000000
    15  H   -0.000000  -0.000000   0.000000   0.000000  -0.004623  -0.000000
    16  H   -0.000000   0.000000  -0.000000  -0.000000  -0.000124  -0.000000
    17  N   -0.000001   0.000000   0.000000   0.000000   0.000000   0.003757
    18  N    0.000000  -0.000000   0.000000   0.000000   0.003987   0.000000
    19  Ir  -0.001831  -0.000045   0.000196   0.000457  -0.000173  -0.000045
    20  O   -0.048818   0.003231  -0.000605  -0.000872  -0.000000   0.000007
    21  B    0.001747  -0.000041   0.000749  -0.000379   0.000000  -0.000016
    22  O    0.003703   0.000047   0.000015  -0.000080  -0.000000  -0.000000
    23  C    0.361432  -0.028717  -0.020867  -0.023364   0.000000  -0.000001
    24  C   -0.050371  -0.001849  -0.009000   0.004890   0.000000  -0.000000
    25  C   -0.010437  -0.001123   0.004537   0.000160  -0.000000   0.000000
    26  H    0.000386  -0.000044   0.000017  -0.000004  -0.000000   0.000000
    27  H   -0.002159   0.000245   0.002001  -0.000108   0.000000  -0.000000
    28  H    0.001053   0.000787  -0.000969   0.000099   0.000000  -0.000000
    29  C    0.002159   0.000580   0.000184  -0.000178  -0.000000  -0.000000
    30  H   -0.000169  -0.000036  -0.000005   0.000004  -0.000000   0.000000
    31  H    0.000527   0.001577  -0.000039  -0.000037   0.000000  -0.000000
    32  H    0.000185  -0.000040  -0.000006  -0.000005  -0.000000  -0.000000
    33  C   -0.080213  -0.000408   0.005877  -0.007740  -0.000000   0.000000
    34  H    0.005819  -0.000044  -0.000170  -0.000031   0.000000   0.000000
    35  H   -0.000791   0.000852  -0.000033   0.000168   0.000000  -0.000000
    36  H   -0.007243   0.000108  -0.000086   0.004367  -0.000000   0.000000
    37  C    5.243194   0.357532   0.365860   0.368089  -0.000000   0.000000
    38  H    0.357532   0.574856  -0.026263  -0.030078   0.000000  -0.000000
    39  H    0.365860  -0.026263   0.536540  -0.029130  -0.000000   0.000000
    40  H    0.368089  -0.030078  -0.029130   0.551051  -0.000000   0.000000
    41  H   -0.000000   0.000000  -0.000000  -0.000000   0.528775  -0.000000
    42  H    0.000000  -0.000000   0.000000   0.000000  -0.000000   0.525022
 Mulliken charges:
               1
     1  C    0.308895
     2  C    0.040577
     3  C   -0.173814
     4  C   -0.150256
     5  C   -0.175741
     6  C    0.301926
     7  C    0.030516
     8  C   -0.170199
     9  C   -0.141968
    10  C   -0.181074
    11  H    0.251867
    12  H    0.175070
    13  H    0.164708
    14  H    0.185996
    15  H    0.179722
    16  H    0.169922
    17  N   -0.641133
    18  N   -0.524840
    19  Ir   0.173731
    20  O   -0.543106
    21  B    0.366088
    22  O   -0.530941
    23  C    0.310377
    24  C    0.302800
    25  C   -0.511598
    26  H    0.170082
    27  H    0.177889
    28  H    0.145381
    29  C   -0.509381
    30  H    0.168048
    31  H    0.146046
    32  H    0.171043
    33  C   -0.510992
    34  H    0.180285
    35  H    0.147545
    36  H    0.163369
    37  C   -0.509543
    38  H    0.148873
    39  H    0.171228
    40  H    0.162552
    41  H    0.179571
    42  H    0.180481
 Sum of Mulliken charges =  -0.00000
 Mulliken charges with hydrogens summed into heavy atoms:
               1
     1  C    0.308895
     2  C    0.292444
     3  C    0.006668
     4  C    0.024813
     5  C   -0.011033
     6  C    0.301926
     7  C    0.216512
     8  C    0.009372
     9  C    0.037754
    10  C   -0.011152
    17  N   -0.641133
    18  N   -0.524840
    19  Ir   0.173731
    20  O   -0.543106
    21  B    0.366088
    22  O   -0.530941
    23  C    0.310377
    24  C    0.302800
    25  C   -0.018247
    29  C   -0.024243
    33  C   -0.019793
    37  C   -0.026890
 APT charges:
               1
     1  C   -0.092904
     2  C   -0.139599
     3  C    0.156798
     4  C   -0.150431
     5  C   -0.013174
     6  C    0.216322
     7  C    0.006936
     8  C   -0.007073
     9  C    0.053723
    10  C   -0.153117
    11  H    0.147383
    12  H    0.028882
    13  H    0.040259
    14  H    0.036654
    15  H    0.030699
    16  H    0.041245
    17  N    0.211771
    18  N   -0.066111
    19  Ir  -0.339635
    20  O   -1.080071
    21  B    1.286599
    22  O   -1.174104
    23  C    0.550668
    24  C    0.562224
    25  C   -0.047783
    26  H    0.000439
    27  H    0.006883
    28  H   -0.029347
    29  C   -0.013281
    30  H   -0.006337
    31  H   -0.030313
    32  H    0.002688
    33  C   -0.050240
    34  H    0.011656
    35  H   -0.028274
    36  H   -0.001583
    37  C   -0.011553
    38  H   -0.023120
    39  H    0.000917
    40  H   -0.005904
    41  H    0.031649
    42  H    0.039556
 Sum of APT charges =  -0.00000
 APT charges with hydrogens summed into heavy atoms:
               1
     1  C   -0.092904
     2  C    0.007784
     3  C    0.196354
     4  C   -0.121549
     5  C    0.027086
     6  C    0.216322
     7  C    0.043591
     8  C    0.024576
     9  C    0.084422
    10  C   -0.111872
    17  N    0.211771
    18  N   -0.066111
    19  Ir  -0.339635
    20  O   -1.080071
    21  B    1.286599
    22  O   -1.174104
    23  C    0.550668
    24  C    0.562224
    25  C   -0.069809
    29  C   -0.047242
    33  C   -0.068441
    37  C   -0.039660
 Electronic spatial extent (au):  <R**2>=           9030.2553
 Charge=             -0.0000 electrons
 Dipole moment (field-independent basis, Debye):
    X=              4.9780    Y=              1.5033    Z=              0.1199  Tot=              5.2015
 Quadrupole moment (field-independent basis, Debye-Ang):
   XX=           -110.8549   YY=           -127.1513   ZZ=           -152.8307
   XY=             -2.3919   XZ=              0.1602   YZ=             -0.0377
 Traceless Quadrupole moment (field-independent basis, Debye-Ang):
   XX=             19.4241   YY=              3.1277   ZZ=            -22.5518
   XY=             -2.3919   XZ=              0.1602   YZ=             -0.0377
 Octapole moment (field-independent basis, Debye-Ang**2):
  XXX=            143.3384  YYY=            -45.8397  ZZZ=             -4.7372  XYY=             59.6480
  XXY=            -34.7730  XXZ=              0.7810  XZZ=             -7.1401  YZZ=            -27.2576
  YYZ=             -0.3332  XYZ=              4.5232
 Hexadecapole moment (field-independent basis, Debye-Ang**3):
 XXXX=          -8123.0223 YYYY=          -2305.7019 ZZZZ=           -518.6995 XXXY=           -111.6808
 XXXZ=              5.7648 YYYX=            -36.9565 YYYZ=              8.6269 ZZZX=             -1.1233
 ZZZY=              7.6908 XXYY=          -1799.1463 XXZZ=          -1686.3390 YYZZ=           -562.6192
 XXYZ=              1.5908 YYXZ=             -0.9544 ZZXY=             -7.0237
 N-N= 1.933248251538D+03 E-N=-6.190354838539D+03  KE= 9.332644119868D+02
  Exact polarizability:     377.035      -4.501     291.890       1.236       1.699     137.581
 Approx polarizability:     528.353      20.421     509.970       4.183       7.986     225.798
   1 Symmetry operations used in ECPInt.
 ECPInt:  NShTT=    8778 NPrTT=   54077 LenC2=    7320 LenP2D=   26583.
 LDataN:  DoStor=T MaxTD1= 8 Len=  415
 Calling FoFJK, ICntrl=    100127 FMM=F ISym2X=0 I1Cent= 0 IOpClX= 0 NMat=1 NMatS=1 NMatT=0.
 Defaulting to unpruned grid for atomic number  77.
 Defaulting to unpruned grid for atomic number  77.
 Defaulting to unpruned grid for atomic number  77.
 Defaulting to unpruned grid for atomic number  77.
 Defaulting to unpruned grid for atomic number  77.
 Defaulting to unpruned grid for atomic number  77.
 Defaulting to unpruned grid for atomic number  77.
 Defaulting to unpruned grid for atomic number  77.
 Defaulting to unpruned grid for atomic number  77.
 Defaulting to unpruned grid for atomic number  77.
 Defaulting to unpruned grid for atomic number  77.
 Defaulting to unpruned grid for atomic number  77.
 Defaulting to unpruned grid for atomic number  77.
 Defaulting to unpruned grid for atomic number  77.
 Defaulting to unpruned grid for atomic number  77.
 Defaulting to unpruned grid for atomic number  77.
 Full mass-weighted force constant matrix:
 Low frequencies ---   -5.9946   -0.0004    0.0001    0.0004    2.7784    8.1743
 Low frequencies ---   18.6100   20.2317   50.8808
 Diagonal vibrational polarizability:
       45.2649732      17.5193771     120.3888457
 Harmonic frequencies (cm**-1), IR intensities (KM/Mole), Raman scattering
 activities (A**4/AMU), depolarization ratios for plane and unpolarized
 incident light, reduced masses (AMU), force constants (mDyne/A),
 and normal coordinates:
                      1                      2                      3
                      A                      A                      A
 Frequencies --     18.3151                19.4830                50.8575
 Red. masses --      5.4041                 3.9457                 4.7134
 Frc consts  --      0.0011                 0.0009                 0.0072
 IR Inten    --      1.1878                 0.0615                 0.8693
  Atom AN      X      Y      Z        X      Y      Z        X      Y      Z
     1   6     0.00   0.00  -0.07    -0.00   0.00  -0.04     0.04  -0.01  -0.02
     2   6    -0.00  -0.00   0.06    -0.00   0.00  -0.06     0.06   0.04   0.06
     3   6    -0.00  -0.00   0.01    -0.00   0.00  -0.12     0.09   0.03   0.07
     4   6    -0.00   0.00  -0.08    -0.00   0.00  -0.14     0.10  -0.01   0.03
     5   6    -0.00   0.01  -0.12     0.00   0.00  -0.10     0.07  -0.03  -0.01
     6   6     0.00   0.01  -0.09    -0.00  -0.00   0.02     0.00  -0.03  -0.02
     7   6     0.00   0.00   0.02     0.00  -0.00   0.08    -0.07  -0.04   0.15
     8   6     0.00   0.01  -0.10    -0.00  -0.00   0.14    -0.07  -0.08   0.07
     9   6     0.01   0.01  -0.22    -0.00  -0.00   0.12    -0.03  -0.09  -0.08
    10   6     0.00   0.01  -0.22    -0.00  -0.00   0.06     0.01  -0.07  -0.12
    11   1    -0.00  -0.01   0.12    -0.00  -0.00  -0.04     0.05   0.06   0.08
[...]
 ,0.00000174,-0.00004833,-0.00004887,-0.00004192,0.00000239,0.00000127,
 -0.00000067,0.00000085,0.00000008,0.00000019,-0.00000511,-0.00000169,-
 0.00000004,0.00000097,-0.00000003,0.00000008,0.00000390,0.00000145,0.0
 0000015,-0.00003362,-0.00006625,-0.00000497,0.00006374,0.00002415,-0.0
 0001024,0.00005470,-0.00015383,0.00002965,0.00373204,-0.00291517,-0.00
 053237,0.00034058,0.00085504,0.00007083,-0.00026833,0.00008837,-0.0002
 5642,0.01410000,0.00772790,0.00213142,-0.00041707,-0.00002339,0.000788
 35,-0.00074996,-0.00031937,-0.00011757,0.00026161,0.00001397,-0.000034
 57,0.00009194,0.00010811,0.00011381,0.00020174,0.00023516,-0.00012355,
 0.00011181,-0.00002637,-0.00008384,-0.00007231,0.00003523,-0.00000271,
 -0.00007105,-0.00021238,0.00007562,0.00002897,-0.00004587,-0.00002894,
 -0.00024427,0.00049814,0.00019600,-0.00025079,-0.00001810,0.00019890,0
 .00023016,-0.00029916,-0.00083482,0.00012919,-0.00009937,-0.00004837,-
 0.02661693,-0.00820168,-0.05084892,0.02834647,0.00934778,0.04963804,0.
 00001040,-0.00001279,0.00000565,-0.00003692,-0.00001132,-0.00001103,0.
 00001392,-0.00000229,-0.00000425,0.00000157,-0.00000482,-0.00000057,0.
 00000526,0.00000554,0.00000122,0.00000268,0.00002137,0.00000443,0.0000
 1824,0.00000899,0.00000212,-0.00001122,-0.00000712,-0.00000149,0.00000
 764,0.00000968,-0.00000074,0.00000757,-0.00000906,-0.00000194,-0.00005
 998,-0.00002004,0.00005110,0.00000384,0.00000303,0.00000077,0.00000372
 ,-0.00000094,0.00000019,-0.00000508,-0.00000148,-0.00000014,0.00000262
 ,-0.00000018,0.00000036,0.00000032,0.00000256,0.00000051,0.00000161,-0
 .00000690,-0.00000874,-0.00000112,0.00000662,0.00000965,0.00009362,-0.
 00008341,-0.00006274,0.00246361,-0.00137053,-0.00088207,-0.00011139,0.
 00079656,0.00026401,-0.00022465,-0.00031815,0.00002450,0.00372304,-0.0
 0212755,0.01949973,0.00018241,-0.00054192,-0.00069166,0.00065374,0.000
 84875,-0.00001889,-0.00030438,0.00006337,0.00014325,-0.00006826,0.0009
 4333,-0.00047321,-0.00049484,-0.00043574,-0.00010706,-0.00010457,-0.00
 015520,0.00000506,0.00006487,-0.00003976,-0.00005580,0.00010736,0.0000
 3352,-0.00003958,-0.00001100,-0.00005830,-0.00002157,-0.00233538,0.002
 60566,0.00175888,0.00039208,0.00003391,0.00129151,0.00027439,0.0000841
 8,0.00011823,-0.00005641,0.00009747,-0.00024830,-0.06308469,0.00283232
 ,-0.06594581,-0.00522338,0.00266185,-0.02925891,0.06385782,-0.00003597
 ,-0.00000055,-0.00000175,-0.00000408,-0.00006784,-0.00002133,0.0000285
 7,0.00004069,-0.00000818,-0.00003569,-0.00001708,-0.00000271,0.0000119
 6,-0.00001014,-0.00000112,0.00000191,-0.00000983,-0.00000146,-0.000007
 43,0.00000680,-0.00000069,0.00000490,0.00000081,0.00000009,-0.00000572
 ,-0.00000567,-0.00000010,-0.00000270,0.00000162,-0.00000080,-0.0000130
 8,0.00001380,0.00004309,-0.00000157,-0.00000076,0.00000248,-0.00000009
 ,-0.00000087,-0.00000001,0.00000028,-0.00000081,-0.00000116,-0.0000006
 1,-0.00000018,-0.00000009,-0.00000238,-0.00000107,0.00000030,0.0000252
 2,0.00011774,0.00002725,0.00000564,0.00000450,0.00000934,-0.00003972,-
 0.00006082,-0.00002664,-0.00124146,0.00052670,0.00148073,0.00015999,0.
 00031799,-0.00017025,-0.00049435,-0.00017528,0.00055036,-0.00712714,0.
 00131637,-0.01972590,-0.00019462,0.00103171,-0.00077860,0.00010514,-0.
 00216197,0.00007753,0.00003164,0.00015203,0.00004988,0.00068988,-0.001
 41813,0.00056574,-0.00024912,-0.00091660,0.00021946,-0.00013736,-0.000
 02595,0.00014961,0.00003198,-0.00004950,-0.00003556,0.00006686,0.00002
 414,-0.00004508,0.00007228,0.00006565,0.00009889,0.00243475,-0.0022432
 1,-0.00133172,0.00015087,0.00056988,-0.00121089,0.00003947,-0.00018211
 ,0.00025851,0.00022922,0.00026107,-0.00025958,0.00429053,-0.04778594,0
 .01379966,-0.00143660,-0.00080233,-0.00837636,-0.00572292,0.05144832,0
 .00001305,0.00000283,-0.00001036,0.00002056,0.00003786,0.00001371,-0.0
 0001216,-0.00002270,0.00000772,0.00001735,0.00001068,0.00000481,-0.000
 00714,0.00000454,-0.00000186,-0.00000017,-0.00000300,-0.00000619,0.000
 00350,0.00000030,-0.00000137,-0.00000097,-0.00000079,0.00000159,0.0000
 0193,0.00000132,0.00000132,0.00000002,0.00000136,0.00000240,0.00000296
 ,-0.00002498,-0.00007249,0.00000039,-0.00000014,-0.00000312,-0.0000005
 9,0.00000080,-0.00000176,0.00000029,0.00000028,-0.00000210,-0.00000002
 ,0.00000015,-0.00000112,0.00000151,0.00000017,-0.00000164,-0.00001609,
 -0.00004674,0.00003255,0.00001469,-0.00000372,0.00000553,-0.00003808,0
 .00001995,0.00001438,-0.00062603,0.00082070,0.00252277,-0.00002181,-0.
 00019479,-0.00018970,0.00024660,-0.00011407,0.00044198,-0.00620374,0.0
 0168137,-0.01806268,-0.00004897,0.00116545,-0.00092170,-0.00018038,0.0
 0149375,-0.00016261,-0.00008307,0.00038733,0.00049136,0.00020944,0.000
 62665,0.00021840,-0.00042348,0.00018709,0.00003391,0.00002324,0.000033
 95,0.00009618,-0.00001000,-0.00009518,0.00004173,0.00002018,0.00003126
 ,-0.00002684,0.00003588,0.00009795,0.00008002,0.00328324,-0.00345362,-
 0.00113732,-0.00010938,0.00021171,-0.00126063,-0.00009774,0.00007648,0
 .00039967,-0.00007339,0.00002844,0.00031762,-0.06462903,0.01160234,-0.
 30226067,0.00085227,0.00031912,-0.00044449,0.06998644,-0.01419767,0.32
 725125,-0.00001518,-0.00001929,-0.00000055,-0.00006031,-0.00006967,-0.
 00000043,0.00003936,0.00005140,-0.00000083,-0.00002889,-0.00002460,-0.
 00000200,0.00001868,-0.00000341,0.00000025,0.00000586,0.00001232,0.000
 00099,0.00000509,0.00001173,0.00000077,-0.00000389,-0.00000505,0.00000
 117,0.00000050,0.00000308,0.00000043,0.00000506,-0.00000755,0.00000026
 ,-0.00014682,0.00001986,0.00001062,0.00000467,0.00000364,0.00000061,0.
 00000466,-0.00000322,-0.00000003,-0.00000404,-0.00000229,-0.00000083,0
 .00000216,-0.00000055,-0.00000006,-0.00000157,0.00000194,0.00000025,0.
 00002854,0.00009577,0.00000458,0.00000855,0.00001660,-0.00000950,0.000
 09724,-0.00013757,0.00001937,0.00248914,-0.00167117,-0.00044079,0.0003
 7101,0.00100360,0.00006332,-0.00146304,0.00114673,-0.00006277,0.001399
 45,0.02052638,-0.00604369,-0.00170427,0.00007294,0.00232704,-0.0005037
 0,-0.00006499,0.00043058,0.00015274,0.00004775,-0.00003481,0.00015750,
 -0.00006939,0.00006163,0.00026502,-0.00002871,-0.00016261,-0.00024758,
 0.00038302,-0.00014710,0.00015841,0.00010782,0.00005864,0.00018490,0.0
 0004642,0.00006877,0.00006616,-0.00004681,-0.00000316,0.00047535,0.000
 02830,-0.00099065,-0.00016009,-0.00002621,-0.00025356,-0.00006165,-0.0
 0022189,0.00005349,0.00011373,-0.00024980,0.00034463,-0.04938174,-0.02
 961858,0.00871172,-0.00179796,-0.02915245,0.01027475,0.00024340,0.0083
 7376,-0.00215530,0.04929914,0.00007588,0.00000629,0.00000423,0.0000528
 2,0.00016615,0.00000508,-0.00005981,-0.00010217,-0.00000344,0.00008205
 ,0.00003936,0.00000201,-0.00002660,0.00002568,0.00000112,-0.00001158,0
 .00002493,0.00000111,0.00003601,-0.00000793,-0.00000056,-0.00001553,-0
 .00000912,-0.00000239,0.00001518,0.00001864,0.00000057,0.00001124,-0.0
 0000767,-0.00000068,0.00005124,-0.00008744,-0.00000198,0.00000345,0.00
 000192,0.00000043,0.00000148,0.00000302,0.00000085,-0.00000157,0.00000
 108,0.00000169,0.00000277,0.00000056,0.00000054,0.00000540,0.00000336,
 0.00000056,-0.00004988,-0.00025743,-0.00002235,0.00001674,-0.00004216,
 0.00000417,-0.00012817,0.00019619,-0.00000579,-0.00061400,0.00229972,0
 .00002098,-0.00076455,-0.00110262,-0.00007549,0.00224743,-0.00097978,-
 0.00005915,-0.00333617,-0.02215264,0.00657758,0.00170651,0.00165133,-0
 .00249697,-0.00009138,0.00009870,-0.00041473,0.00002239,-0.00001568,0.
 00005826,0.00002456,0.00007341,0.00003376,0.00009959,0.00002663,-0.000
 07218,0.00016464,-0.00017866,0.00025895,-0.00014687,-0.00012570,-0.000
 09130,-0.00002367,0.00004535,0.00002848,0.00002175,-0.00004747,-0.0000
 9782,-0.00072026,0.00070052,0.00149761,0.00010463,0.00049561,0.0001306
 8,0.00004125,-0.00011646,-0.00017379,0.00020316,0.00054990,-0.00087415
 ,-0.02876287,-0.28354121,0.07774516,0.00036179,-0.00571341,0.00182057,
 -0.00011738,0.00004946,-0.00069657,0.02950277,0.30798058,-0.00001714,0
 .00000005,0.00000308,-0.00001366,-0.00004457,-0.00001201,0.00000974,0.
 00004361,-0.00000936,-0.00001979,-0.00001815,-0.00000393,0.00001161,-0
 .00000495,0.00000017,-0.00000555,0.00000625,0.00000045,0.00000763,0.00
 000125,-0.00000045,-0.00000145,-0.00000379,-0.00000115,-0.00000148,0.0
 0000196,-0.00000020,0.00000343,-0.00000457,-0.00000111,-0.00001927,0.0
 0003685,0.00004858,-0.00000208,0.00000044,0.00000275,0.00000214,-0.000
 00060,0.00000066,-0.00000015,-0.00000024,0.00000033,0.00000052,-0.0000
 0001,0.00000033,-0.00000209,0.,0.00000063,0.00005164,0.00005398,0.0000
 0195,-0.00000451,-0.00001884,0.00000478,-0.00011949,0.00003005,-0.0000
 1497,-0.00151232,0.00122580,0.00006629,-0.00023069,-0.00044363,-0.0001
 2906,0.00098095,-0.00131709,0.00040942,-0.00233411,-0.01941080,0.00441
 891,0.00228408,0.00006790,-0.00270798,0.00014738,0.00075539,-0.0002444
 4,-0.00011502,0.00017154,0.00029620,0.00036990,-0.00010485,0.00013695,
 -0.00049444,-0.00009893,0.00003103,-0.00003560,-0.00004334,0.00024971,
 -0.00007473,-0.00008742,-0.00002526,-0.00001507,0.00000911,-0.00000619
 ,0.00005048,-0.00003815,0.00004006,-0.00016148,-0.00128251,0.00081162,
 -0.00013323,0.00016058,0.00022399,-0.00020177,0.00000715,-0.00004091,0
 .00059700,-0.00013954,-0.00055892,0.00892781,0.07921632,-0.07267566,-0
 .00045087,-0.00445388,0.00015767,0.00466024,0.02885078,-0.00739168,-0.
 01212932,-0.08310633,0.07689914,0.00025726,0.00008800,0.00003229,0.000
 00446,0.00001721,-0.00000023,-0.00001475,-0.00002816,-0.00000108,0.000
 06884,0.00005267,0.00000328,-0.00007045,0.00001439,-0.00000078,-0.0015
 1236,-0.00150431,-0.00007393,-0.00488481,0.02986378,0.00100405,-0.1101
 3126,0.10937415,0.00276868,0.01205838,-0.01695620,-0.00044891,-0.00154
 852,-0.00331729,-0.00027720,-0.00000315,-0.00001357,-0.00000032,-0.000
 00022,0.00000651,-0.00000010,0.00002296,0.00003445,-0.00000019,0.00075
 318,-0.00043848,0.00005219,0.00073783,0.00067502,0.00010290,0.00047891
 ,-0.00093196,-0.00002535,-0.00002995,-0.00020380,-0.00000553,-0.006870
 44,0.00087744,-0.00022521,0.00083297,0.00034741,0.00001739,-0.00019055
 ,0.00004217,-0.00000173,0.00003595,-0.00008463,-0.00001355,-0.00027904
 ,-0.00004292,0.00001599,0.00005056,0.00000885,0.00002573,0.00003980,-0
 .00001804,-0.00003634,-0.00001260,0.00000821,0.00000284,0.00000037,-0.
 00000500,-0.00000004,0.00000208,0.00000064,-0.00000603,-0.00000748,-0.
 00000071,0.00000751,-0.00001381,0.00000999,0.00000943,-0.00000107,-0.0
 0000635,0.00000197,-0.00001025,-0.00000363,-0.00000386,0.00000175,0.00
 000255,-0.00000143,-0.00001240,-0.00000336,-0.00000194,0.00000370,0.00
 000045,0.00000488,-0.00000840,0.00000137,-0.00000577,0.00000212,0.0000
 0070,0.00000079,-0.00000999,-0.00000351,-0.00000695,-0.00000896,0.0000
 0226,0.00000212,0.00000235,-0.00000018,0.00000049,0.00000121,0.0000028
 1,0.00000078,0.11026335,0.00002087,0.00006721,0.00005592,0.00002390,0.
 00000164,0.00000156,0.00001197,-0.00000463,0.00000069,0.00001839,0.000
 02764,0.00000263,-0.00003687,-0.00005936,-0.00000352,-0.00088550,0.000
 32480,0.00001019,-0.00204396,0.00130591,0.00000568,0.10994282,-0.29034
 944,-0.00758692,0.01366479,-0.01680551,-0.00046154,-0.00380155,-0.0022
 0877,-0.00041615,-0.00000811,-0.00000128,-0.00000006,-0.00000146,-0.00
 000857,-0.00000057,0.00003190,0.00005841,-0.00000144,0.00029527,0.0002
 1472,0.00013100,0.00005966,0.00100403,0.00017613,0.00073583,-0.0008102
 5,-0.00002170,0.00004752,0.00002449,0.00000074,-0.00021302,0.00176731,
 -0.00025542,-0.00000475,-0.00014940,0.00000553,0.00016285,-0.00004664,
 -0.00000082,-0.00028586,0.00006233,-0.00000587,0.00020399,0.00004347,-
 0.00000025,-0.00006481,-0.00000711,-0.00001859,-0.00006567,0.00001843,
 0.00002422,0.00001161,-0.00000618,-0.00000413,-0.00000225,0.00000282,0
 .00000136,-0.00000226,0.00000060,0.00000574,0.00000831,-0.00000070,-0.
 00000638,0.00000959,-0.00000407,-0.00000618,-0.00000075,0.00000459,-0.
 00000071,0.00000874,0.00000075,0.00000187,-0.00000261,-0.00000148,0.00
 000063,0.00001125,0.00000219,0.00000347,-0.00000315,-0.00000034,-0.000
 00533,0.00000887,-0.00000016,0.00000503,-0.00000317,-0.00000058,-0.000
 00150,0.00000764,0.00000029,0.00000505,0.00000818,-0.00000050,-0.00000
 115,-0.00000281,0.00000050,0.00000008,-0.00000200,-0.00000286,-0.00000
 070,-0.11787335,0.30553896,0.00003570,0.00004486,-0.00141101,0.0000006
 1,0.00000721,-0.00002588,-0.00000343,-0.00000327,-0.00001840,0.0000071
 2,0.00000121,-0.00004255,-0.00000534,0.00000134,0.00003452,-0.00006242
 ,0.00000708,-0.00037153,-0.00015141,0.00055333,0.00030191,0.00278614,-
 0.00761383,-0.03448947,0.00066093,-0.00097779,0.00222586,-0.00029020,-
 0.00039732,0.00699514,-0.00000002,-0.00000025,0.00000424,-0.00000029,-
 0.00000029,0.00001043,0.00000046,0.00000041,0.00008985,0.00006995,0.00
 011637,-0.00317688,0.00008379,0.00018311,-0.00362598,0.00003156,-0.000
 05438,0.00026171,0.00000367,-0.00001153,0.00003797,-0.00025141,-0.0002
 3468,0.00846469,0.00001509,0.00003850,-0.00039183,0.00000073,0.0000010
 4,-0.00001740,-0.00001650,-0.00002898,0.00031854,0.00000449,0.00000180
 ,-0.00004121,-0.00000016,-0.00000111,-0.00000471,-0.00000464,0.0000024
 8,-0.00002297,0.00000846,-0.00000154,-0.00000043,0.00000101,0.00000226
 ,0.00000105,-0.00000037,-0.00000316,-0.00000047,-0.00000025,0.00000044
 ,-0.00000288,-0.00000395,0.00000280,0.00000153,0.00000016,0.00000059,0
 .00000108,-0.00000093,-0.00000132,-0.00000066,-0.00000040,0.00000076,-
 0.00000179,-0.00000331,0.00000186,0.00000011,0.00000009,-0.00000138,-0
 .00000051,0.00000009,0.00000007,-0.00000097,-0.00000011,0.00000098,-0.
 00000003,0.00000161,0.00000117,0.00000028,0.00000039,-0.00000061,-0.00
 000010,0.00000005,-0.00000026,-0.00000140,-0.00000007,0.00000055,0.000
 00025,-0.00291666,0.00836243,0.02486860,-0.00057392,-0.00123670,-0.000
 03881,0.01066207,-0.01046613,-0.00009495,-0.16659803,0.13830513,0.0013
 7003,-0.01177507,0.02593763,0.00044686,-0.00546305,-0.00186523,-0.0002
 7856,0.00005032,0.00013641,0.00002511,-0.00001012,0.00003451,-0.000000
 30,0.00000701,-0.00000508,-0.00000029,0.00003783,0.00002431,0.00000283
 ,-0.00004493,-0.00003732,-0.00000346,0.00035498,0.00022151,0.00007958,
 0.00125978,-0.00023242,0.00008337,-0.00069006,0.00132116,0.00002533,0.
 00000017,0.00000717,0.00000069,-0.00000298,0.00000157,0.00000014,0.000
 07630,0.00000288,0.00000031,-0.00006384,-0.00441200,-0.00027891,0.0000
 2843,0.00000615,0.00000169,0.00036541,0.00039490,0.00001662,0.00004284
 ,0.00008513,0.00001213,-0.00005156,-0.00000836,-0.00000423,0.00008063,
 0.00004977,0.00000120,-0.00006619,-0.00000853,-0.00002686,-0.00002847,
 0.00000143,0.00001799,0.00000448,0.00000316,-0.00000218,-0.00000150,0.
 00000506,-0.00000044,-0.00000011,-0.00000210,0.00000580,0.00000369,-0.
 00000243,-0.00000220,0.00000291,0.00000494,-0.00000693,0.00000108,0.00
 000639,-0.00000009,0.00000374,-0.00000150,0.00000079,-0.00000178,-0.00
 000229,0.00000029,0.00000125,-0.00001573,0.00001049,-0.00000164,0.0000
 0726,-0.00000141,0.00000880,0.00000569,0.00000192,-0.00000433,0.000004
 15,-0.00001439,0.00001223,-0.00002516,0.00001398,0.00001024,0.00001304
 ,-0.00000059,-0.00000483,-0.00000207,0.00000351,-0.00001680,0.00001277
 ,-0.00001001,0.00000243,0.00000997,-0.00000028,0.17238258,-0.00134883,
 -0.00035868,-0.00002590,0.02046110,-0.01657638,-0.00009502,0.13713675,
 -0.23246660,-0.00295457,-0.00432745,0.00748923,0.00004311,-0.00144426,
 0.00130867,-0.00016706,0.00003407,0.00018563,0.00003756,-0.00003918,0.
 00005505,-0.00000129,0.00002400,-0.00001267,-0.00000089,0.00001715,0.0
 0001332,0.00000293,0.00002260,-0.00005673,-0.00000331,0.00007806,0.000
 64966,0.00011677,0.00046311,0.00042962,0.00011559,-0.00032584,0.000296
 18,0.00000005,-0.00001282,0.00000763,0.00000089,0.00000869,-0.00000182
 ,0.00000051,0.00000205,0.00001309,-0.00000170,-0.00276055,-0.00437825,
 -0.00041581,-0.00005046,-0.00006922,-0.00000178,0.00048511,0.00020311,
 0.00001399,-0.00037281,0.00031326,0.00001378,0.00046164,-0.00020595,-0
 .00001541,-0.00024236,0.00006635,0.00001170,0.00002180,-0.00005837,0.0
 0002706,0.00007635,-0.00004608,-0.00002967,-0.00001974,0.00001348,0.00
 000078,0.00000550,0.00001117,-0.00000317,0.00000903,-0.00000979,0.0000
 0143,-0.00001214,-0.00000286,0.00000811,-0.00001476,0.00001348,0.00000
 416,0.00000434,0.00000668,-0.00000345,-0.00001280,-0.00000408,-0.00000
 117,0.00000331,-0.00000543,-0.00000009,-0.00001508,-0.00004156,0.00000
 907,0.00000159,0.00000359,0.00001019,0.00000369,0.00001432,-0.00001001
 ,-0.00001518,0.00002290,-0.00001978,0.00000344,-0.00003294,-0.00000212
 ,0.00000419,0.00002399,0.00000752,-0.00000812,-0.00001314,0.00001008,-
 0.00003059,0.00003204,-0.00001613,0.00000443,-0.00000330,-0.00000094,-
 0.14827904,0.24317141,-0.00005613,-0.00003636,-0.00038084,0.00077411,-
 0.00064609,0.00092859,0.00134790,-0.00298327,-0.03551536,-0.00038583,0
 .00064042,0.00283394,-0.00027287,-0.00017703,0.00625159,0.00002139,0.0
 0003522,-0.00104319,-0.00001085,0.00000481,0.00008814,0.00000916,0.000
 00267,0.00001845,0.00000138,-0.00000561,-0.00007247,-0.00000733,0.0000
 0219,0.00004222,0.00005750,0.00013083,-0.00388714,0.00009966,0.0001016
 2,-0.00329060,-0.00002469,0.00003569,0.00010978,-0.00000056,0.00000122
 ,-0.00001508,0.00000041,0.00000027,-0.00001159,0.00000007,-0.00000203,
 0.00007760,-0.00022220,-0.00044131,0.00893069,0.00001325,0.00000187,-0
 .00005456,0.00001049,0.00000382,-0.00026609,-0.00000398,-0.00001772,-0
 .00003983,0.00000478,0.00000923,-0.00000457,-0.00000021,-0.00000364,-0
 .00001025,0.00000681,0.00001895,0.00007849,-0.00000361,-0.00000649,-0.
 00000046,0.00000264,0.00001210,0.00000154,-0.00000108,-0.00000077,-0.0
 0000338,-0.00000415,0.00000162,-0.00000160,0.00000247,0.00000015,0.,0.
 00000064,0.00000035,-0.00000079,-0.00000035,0.00000148,-0.00000171,-0.
 00000039,-0.00000053,0.00000157,0.00000027,-0.00000367,-0.00000455,0.0
 0000704,-0.00002917,-0.00000608,0.00000138,-0.00000614,-0.00000340,0.0
 0000228,0.00000746,-0.00000300,-0.00001139,0.00001501,0.00000302,-0.00
 000888,-0.00001149,0.00000133,-0.00000397,-0.00000360,-0.00000465,0.00
 000660,0.00001421,-0.00001718,0.00000418,0.00000072,0.00001834,-0.0000
 0019,-0.00000097,0.00003128,-0.00135575,0.00333397,0.02522180\\0.00001
 374,0.00000187,0.00000047,0.00000763,-0.00000729,0.00000115,-0.0000056
 8,0.00000092,0.00000222,-0.00000369,0.00001261,0.00000103,-0.00000284,
 -0.00001053,0.00000066,-0.00000285,0.00001597,-0.00000305,-0.00000227,
 0.00001206,-0.00000128,0.00001027,-0.00000026,-0.00000120,0.00000555,0
 .00001147,-0.00000316,-0.00000607,0.00000459,0.00000013,-0.00000437,-0
 .00000073,0.00000040,-0.00000379,0.00000442,0.00000325,-0.00000103,0.0
 0000708,0.00000097,0.00000520,0.00000319,-0.00000355,0.00000222,0.0000
 0854,-0.00000121,0.00000238,0.00001095,0.00000123,-0.00002391,0.000003
 92,-0.00000054,-0.00002374,-0.00002739,-0.00000691,0.00002310,0.000043
 69,0.00000798,0.00000489,-0.00000484,0.00000499,0.00000233,-0.00001145
 ,-0.00000388,-0.00000880,-0.00000311,0.00000441,-0.00000795,-0.0000083
 0,-0.00000930,0.00001595,-0.00000364,-0.00000520,-0.00000320,-0.000010
 84,-0.00000231,0.00000334,-0.00000609,-0.00000046,0.00000563,0.0000013
 3,0.00000288,-0.00000101,-0.00000489,0.00000081,-0.00000768,-0.0000016
 7,-0.00000192,0.00000421,-0.00000755,-0.00000051,0.00000630,-0.0000066
 9,-0.00000023,0.00000244,-0.00000520,-0.00000111,-0.00000394,-0.000000
 13,0.00000261,0.00000003,-0.00000244,-0.00000003,0.00000304,-0.0000016
 6,0.00000021,-0.00000170,-0.00000126,0.00000055,-0.00000259,-0.0000062
 6,0.00000657,0.00000135,-0.00000662,0.00000166,-0.00000128,-0.00000485
 ,0.00000131,-0.00000110,-0.00000360,0.00000232,0.00000422,0.00000401,-
 0.00000404,-0.00000435,0.00000072,0.00000208\\\@
 The archive entry for this job was punched.


 IF IT'S NOT TRUE, IT'S WELL INVENTED -- DANTE
 Job cpu time:       0 days  1 hours 56 minutes 47.1 seconds.
 Elapsed time:       0 days  0 hours  7 minutes 27.0 seconds.
 File lengths (MBytes):  RWF=    650 Int=      0 D2E=      0 Chk=     10 Scr=      1
 Normal termination of Gaussian 16 at Sat Dec  7 21:51:28 2024.
