/mnt/lustre/scratch/nvme/SLURM/9698482/usccqdma.XCXJ0Xo8ve
OMP_STACKSIZE=0m
GAUSS_PDEF=16
GAUSS_MDEF=65536MB
GAUSS_RDEF=SCF=Direct
 Entering Gaussian System, Link 0=g16.exe
 Initial command:
 /opt/cesga/2020/software/Core/g16/c1/l1.exe "/mnt/lustre/scratch/nvme/SLURM/9698482/usccqdma.XCXJ0Xo8ve/Gau-3494416.inp" -scrdir="/mnt/lustre/scratch/nvme/SLURM/9698482/usccqdma.XCXJ0Xo8ve/"
 Default is to use a total of  16 processors:
                               16 via shared-memory
                                1 via Linda
 Entering Link 1 = /opt/cesga/2020/software/Core/g16/c1/l1.exe PID=   3494442.
  
 Copyright (c) 1988-2019, Gaussian, Inc.  All Rights Reserved.
  
 This is part of the Gaussian(R) 16 program.  It is based on
 the Gaussian(R) 09 system (copyright 2009, Gaussian, Inc.),
 the Gaussian(R) 03 system (copyright 2003, Gaussian, Inc.),
 the Gaussian(R) 98 system (copyright 1998, Gaussian, Inc.),
 the Gaussian(R) 94 system (copyright 1995, Gaussian, Inc.),
 the Gaussian 92(TM) system (copyright 1992, Gaussian, Inc.),
 the Gaussian 90(TM) system (copyright 1990, Gaussian, Inc.),
 the Gaussian 88(TM) system (copyright 1988, Gaussian, Inc.),
 the Gaussian 86(TM) system (copyright 1986, Carnegie Mellon
 University), and the Gaussian 82(TM) system (copyright 1983,
 Carnegie Mellon University). Gaussian is a federally registered
 trademark of Gaussian, Inc.
  
 This software contains proprietary and confidential information,
 including trade secrets, belonging to Gaussian, Inc.
  
 This software is provided under written license and may be
 used, copied, transmitted, or stored only in accord with that
 written license.
  
 The following legend is applicable only to US Government
 contracts under FAR:
  
                    RESTRICTED RIGHTS LEGEND
  
 Use, reproduction and disclosure by the US Government is
 subject to restrictions as set forth in subparagraphs (a)
 and (c) of the Commercial Computer Software - Restricted
 Rights clause in FAR 52.227-19.
  
 Gaussian, Inc.
 340 Quinnipiac St., Bldg. 40, Wallingford CT 06492
  
  
 ---------------------------------------------------------------
 Warning -- This program may not be used in any manner that
 competes with the business of Gaussian, Inc. or will provide
 assistance to any competitor of Gaussian, Inc.  The licensee
 of this program is prohibited from giving any competitor of
 Gaussian, Inc. access to this program.  By using this program,
 the user acknowledges that Gaussian, Inc. is engaged in the
 business of creating and licensing software in the field of
 computational chemistry and represents and warrants to the
 licensee that it is not a competitor of Gaussian, Inc. and that
 it will not use this program in any manner prohibited above.
 ---------------------------------------------------------------
  

 Cite this work as:
 Gaussian 16, Revision C.01,
 M. J. Frisch, G. W. Trucks, H. B. Schlegel, G. E. Scuseria, 
 M. A. Robb, J. R. Cheeseman, G. Scalmani, V. Barone, 
 G. A. Petersson, H. Nakatsuji, X. Li, M. Caricato, A. V. Marenich, 
 J. Bloino, B. G. Janesko, R. Gomperts, B. Mennucci, H. P. Hratchian, 
 J. V. Ortiz, A. F. Izmaylov, J. L. Sonnenberg, D. Williams-Young, 
 F. Ding, F. Lipparini, F. Egidi, J. Goings, B. Peng, A. Petrone, 
 T. Henderson, D. Ranasinghe, V. G. Zakrzewski, J. Gao, N. Rega, 
 G. Zheng, W. Liang, M. Hada, M. Ehara, K. Toyota, R. Fukuda, 
 J. Hasegawa, M. Ishida, T. Nakajima, Y. Honda, O. Kitao, H. Nakai, 
 T. Vreven, K. Throssell, J. A. Montgomery, Jr., J. E. Peralta, 
 F. Ogliaro, M. J. Bearpark, J. J. Heyd, E. N. Brothers, K. N. Kudin, 
 V. N. Staroverov, T. A. Keith, R. Kobayashi, J. Normand, 
 K. Raghavachari, A. P. Rendell, J. C. Burant, S. S. Iyengar, 
 J. Tomasi, M. Cossi, J. M. Millam, M. Klene, C. Adamo, R. Cammi, 
 J. W. Ochterski, R. L. Martin, K. Morokuma, O. Farkas, 
 J. B. Foresman, and D. J. Fox, Gaussian, Inc., Wallingford CT, 2019.
 
 ******************************************
 Gaussian 16:  ES64L-G16RevC.01  3-Jul-2019
                10-Dec-2024 
 ******************************************
 Default route: SCF=Direct
 ----------------------------------------------------
 # m06/genecp scf=tight int=ultrafine 5d freq=noraman
 ----------------------------------------------------
 1/10=4,30=1,38=1/1,3;
 2/12=2,17=6,18=5,40=1/2;
 3/5=7,8=1,11=2,16=1,17=8,25=1,30=1,71=2,74=-54,75=-5,140=1/1,2,3;
 4//1;
 5/5=2,32=2,38=5,98=1/2;
 8/6=4,10=90,11=11/1;
 11/6=1,8=1,9=11,15=111,16=1/1,2,10;
 10/6=1/2;
 6/7=2,8=2,9=2,10=2,28=1/1;
 7/8=1,10=1,25=1/1,2,3,16;
 1/10=4,30=1/3;
 99//99;
 ------
 OPT-TS
 ------
 Symbolic Z-matrix:
 Charge =  0 Multiplicity = 1
 C                     2.83093  -0.19961  -0.01776 
 C                     1.88191  -0.88713   1.98304 
 C                     2.9627   -1.6961    2.29105 
 C                     3.9749   -1.81027   1.35571 
 C                     3.91509  -1.07634   0.17223 
 C                     2.64681   0.69886  -1.18409 
 C                     1.11605   1.64403  -2.64839 
 C                     2.12449   2.2648   -3.37431 
 C                     3.43382   2.13549  -2.93531 
 C                     3.70124   1.3353   -1.83289 
 H                     4.8056   -2.49123   1.52105 
 H                     0.06326   1.73153  -2.91672 
 H                     4.24701   2.64703  -3.44624 
 H                     4.71641   1.21874  -1.46936 
 N                     1.8215   -0.16775   0.86484 
 N                     1.36961   0.90839  -1.5618 
 Ir                   -0.23256   0.56934   0.01557 
 O                    -3.22127   0.99343  -0.52693 
 O                    -2.482    -1.38767   0.93911 
 O                    -0.88524  -1.80377  -1.94452 
 B                    -1.42275  -0.55391   1.26543 
 B                    -1.92767   0.91425  -1.02334 
 B                    -0.34068  -1.41099  -0.73634 
 O                     0.29849  -2.48264  -0.11867 
 O                    -1.93228   1.14441  -2.39949 
 C                    -3.2763    1.4548   -2.80284 
 C                    -4.10916   0.84265  -1.64139 
 C                    -0.78834  -3.23697  -2.0372 
 C                     0.39025  -3.55255  -1.07121 
 C                    -3.13401  -1.7773    2.15424 
 C                    -1.97571  -1.68779   3.18427 
 O                    -1.18831  -0.612     2.64453 
 C                    -5.41363   1.55235  -1.34331 
 H                    -6.08242   1.52556  -2.21585 
 H                    -5.92421   1.05001  -0.51127 
 H                    -5.2527    2.59721  -1.05575 
 C                    -4.35058  -0.65273  -1.8179 
 H                    -4.71532  -1.0655   -0.86752 
 H                    -5.09271  -0.85969  -2.60134 
 H                    -3.41298  -1.17209  -2.05756 
 C                    -3.39266   2.97067  -2.88254 
 H                    -2.60747   3.35196  -3.54967 
 H                    -4.36491   3.28648  -3.28457 
 H                    -3.25658   3.43273  -1.89576 
 C                    -3.52851   0.83889  -4.16436 
 H                    -4.58391   0.94474  -4.45474 
 H                    -2.91745   1.34591  -4.92273 
 H                    -3.26172  -0.22383  -4.17345 
 C                    -4.23773  -0.75873   2.41041 
 H                    -4.90436  -0.7357    1.53886 
 H                    -4.83379  -1.01029   3.29808 
 H                    -3.82343   0.25169   2.52985 
 C                    -3.73     -3.15883   1.97813 
 H                    -4.20216  -3.50468   2.90896 
 H                    -4.50048  -3.1295    1.1958 
 H                    -2.97404  -3.8944    1.67746 
 C                    -2.40353  -1.333     4.59385 
 H                    -3.09103  -2.09195   4.99447 
 H                    -1.52747  -1.29403   5.25544 
 H                    -2.90098  -0.35721   4.63423 
 C                    -1.08883  -2.92623   3.1985 
 H                    -0.20125  -2.71836   3.81376 
 H                    -1.60193  -3.79469   3.6332 
 H                    -0.74584  -3.1772    2.18432 
 C                     0.28629  -4.8721   -0.33405 
 H                     1.14079  -4.97876   0.34766 
 H                    -0.63118  -4.92918   0.26404 
 H                     0.30057  -5.71963  -1.03439 
 C                     1.7587   -3.43059  -1.73065 
 H                     2.53056  -3.46624  -0.94864 
 H                     1.95239  -4.24491  -2.4416 
 H                     1.85936  -2.47222  -2.2596 
 C                    -0.54681  -3.61829  -3.48359 
 H                    -0.40279  -4.70403  -3.58369 
 H                    -1.41805  -3.33471  -4.08802 
 H                     0.32893  -3.10771  -3.89865 
 C                    -2.11775  -3.80787  -1.56289 
 H                    -2.91879  -3.43036  -2.21158 
 H                    -2.13275  -4.90519  -1.60893 
 H                    -2.33978  -3.48     -0.53862 
 H                     1.87345   2.85999  -4.24858 
 C                     1.04103   3.16046   1.47612 
 C                     1.54553   4.46337   1.44106 
 C                     0.15605   2.69843   0.48458 
 C                     1.1347    5.36013   0.46387 
 C                    -0.26825   3.6362   -0.46879 
 C                     0.2105    4.9429   -0.48797 
 H                     1.5235    6.37732   0.45314 
 H                    -0.93847   1.59726   1.08728 
 H                     2.26648   4.76594   2.20114 
 H                    -0.97717   3.32913  -1.23961 
 C                     1.54358   2.30576   2.6022 
 O                     2.72148   1.96591   2.65729 
 N                     0.63839   1.97033   3.57438 
 C                     1.03706   1.09199   4.64919 
 H                     2.08266   0.80844   4.50269 
 H                     0.93378   1.59736   5.62139 
 H                     0.39495   0.1958    4.65362 
 C                    -0.72003   2.46049   3.66174 
 H                    -0.89982   3.23876   2.91612 
 H                    -1.43528   1.63889   3.5058 
 H                    -0.89019   2.89281   4.65965 
 H                    -0.14047   5.63606  -1.25259 
 H                     2.98461  -2.25652   3.22223 
 H                     1.01083  -0.81477   2.63259 
 C                     4.98534  -1.35034  -0.85023 
 F                     4.51133  -1.36433  -2.09934 
 F                     5.55099  -2.54427  -0.6397 
 F                     5.98066  -0.44801  -0.8084 
 

 GradGradGradGradGradGradGradGradGradGradGradGradGradGradGradGradGradGrad
 Berny optimization.
 Initialization pass.
 Trust Radius=3.00D-01 FncErr=1.00D-07 GrdErr=1.00D-07 EigMax=2.50D+02 EigMin=1.00D-04
 Number of steps in this run=      2 maximum allowed number of steps=      2.
 GradGradGradGradGradGradGradGradGradGradGradGradGradGradGradGradGradGrad

 Stoichiometry    C38H54B3F3IrN3O7
 Framework group  C1[X(C38H54B3F3IrN3O7)]
 Deg. of freedom   321
 Full point group                 C1      NOp   1
 Largest Abelian subgroup         C1      NOp   1
 Largest concise Abelian subgroup C1      NOp   1
                         Standard orientation:                         
 ---------------------------------------------------------------------
 Center     Atomic      Atomic             Coordinates (Angstroms)
 Number     Number       Type             X           Y           Z
 ---------------------------------------------------------------------
      1          6           0        2.830931   -0.199610   -0.017760
      2          6           0        1.881911   -0.887130    1.983040
      3          6           0        2.962701   -1.696100    2.291050
      4          6           0        3.974901   -1.810270    1.355710
      5          6           0        3.915091   -1.076340    0.172230
      6          6           0        2.646810    0.698860   -1.184090
      7          6           0        1.116050    1.644030   -2.648390
      8          6           0        2.124490    2.264800   -3.374310
      9          6           0        3.433820    2.135490   -2.935310
     10          6           0        3.701240    1.335300   -1.832890
     11          1           0        4.805601   -2.491230    1.521050
     12          1           0        0.063260    1.731530   -2.916720
     13          1           0        4.247010    2.647030   -3.446240
     14          1           0        4.716410    1.218740   -1.469360
     15          7           0        1.821501   -0.167750    0.864840
     16          7           0        1.369610    0.908390   -1.561800
     17         77           0       -0.232560    0.569340    0.015570
     18          8           0       -3.221270    0.993429   -0.526930
     19          8           0       -2.481999   -1.387671    0.939110
     20          8           0       -0.885239   -1.803770   -1.944520
     21          5           0       -1.422749   -0.553911    1.265430
     22          5           0       -1.927670    0.914249   -1.023340
     23          5           0       -0.340679   -1.410990   -0.736340
     24          8           0        0.298491   -2.482640   -0.118670
     25          8           0       -1.932280    1.144409   -2.399490
     26          6           0       -3.276300    1.454799   -2.802840
     27          6           0       -4.109160    0.842649   -1.641390
     28          6           0       -0.788339   -3.236970   -2.037200
     29          6           0        0.390251   -3.552550   -1.071210
     30          6           0       -3.134009   -1.777301    2.154240
     31          6           0       -1.975709   -1.687791    3.184270
     32          8           0       -1.188309   -0.612000    2.644530
     33          6           0       -5.413630    1.552349   -1.343310
     34          1           0       -6.082420    1.525559   -2.215850
     35          1           0       -5.924210    1.050009   -0.511270
     36          1           0       -5.252700    2.597209   -1.055750
     37          6           0       -4.350579   -0.652731   -1.817900
     38          1           0       -4.715319   -1.065501   -0.867520
     39          1           0       -5.092709   -0.859691   -2.601340
     40          1           0       -3.412979   -1.172091   -2.057560
     41          6           0       -3.392660    2.970669   -2.882540
     42          1           0       -2.607470    3.351959   -3.549670
     43          1           0       -4.364910    3.286479   -3.284570
     44          1           0       -3.256580    3.432729   -1.895760
     45          6           0       -3.528510    0.838889   -4.164360
     46          1           0       -4.583910    0.944739   -4.454740
     47          1           0       -2.917450    1.345909   -4.922730
     48          1           0       -3.261719   -0.223831   -4.173450
     49          6           0       -4.237729   -0.758731    2.410410
     50          1           0       -4.904359   -0.735701    1.538860
     51          1           0       -4.833789   -1.010291    3.298080
     52          1           0       -3.823430    0.251689    2.529850
     53          6           0       -3.729999   -3.158831    1.978130
     54          1           0       -4.202159   -3.504681    2.908960
     55          1           0       -4.500479   -3.129501    1.195800
     56          1           0       -2.974039   -3.894401    1.677460
     57          6           0       -2.403529   -1.333001    4.593850
     58          1           0       -3.091029   -2.091951    4.994470
     59          1           0       -1.527469   -1.294031    5.255440
     60          1           0       -2.900979   -0.357211    4.634230
     61          6           0       -1.088829   -2.926230    3.198500
     62          1           0       -0.201249   -2.718360    3.813760
     63          1           0       -1.601929   -3.794691    3.633200
     64          1           0       -0.745839   -3.177200    2.184320
     65          6           0        0.286291   -4.872100   -0.334050
     66          1           0        1.140791   -4.978760    0.347660
     67          1           0       -0.631179   -4.929180    0.264040
     68          1           0        0.300571   -5.719630   -1.034390
     69          6           0        1.758701   -3.430590   -1.730650
     70          1           0        2.530561   -3.466240   -0.948640
     71          1           0        1.952391   -4.244910   -2.441600
     72          1           0        1.859361   -2.472220   -2.259600
     73          6           0       -0.546809   -3.618290   -3.483590
     74          1           0       -0.402789   -4.704030   -3.583690
     75          1           0       -1.418049   -3.334711   -4.088020
     76          1           0        0.328931   -3.107710   -3.898650
     77          6           0       -2.117749   -3.807871   -1.562890
     78          1           0       -2.918789   -3.430361   -2.211580
     79          1           0       -2.132749   -4.905191   -1.608930
     80          1           0       -2.339779   -3.480001   -0.538620
     81          1           0        1.873450    2.859990   -4.248580
     82          6           0        1.041030    3.160460    1.476120
     83          6           0        1.545530    4.463370    1.441060
     84          6           0        0.156050    2.698430    0.484580
     85          6           0        1.134700    5.360130    0.463870
     86          6           0       -0.268250    3.636200   -0.468790
     87          6           0        0.210500    4.942900   -0.487970
     88          1           0        1.523500    6.377320    0.453140
     89          1           0       -0.938470    1.597260    1.087280
     90          1           0        2.266480    4.765940    2.201140
     91          1           0       -0.977170    3.329130   -1.239610
     92          6           0        1.543580    2.305760    2.602200
     93          8           0        2.721480    1.965910    2.657290
     94          7           0        0.638390    1.970330    3.574380
     95          6           0        1.037060    1.091990    4.649190
     96          1           0        2.082660    0.808440    4.502690
     97          1           0        0.933780    1.597360    5.621390
     98          1           0        0.394950    0.195800    4.653620
     99          6           0       -0.720030    2.460490    3.661740
    100          1           0       -0.899820    3.238760    2.916120
    101          1           0       -1.435280    1.638889    3.505800
    102          1           0       -0.890190    2.892810    4.659650
    103          1           0       -0.140470    5.636060   -1.252590
    104          1           0        2.984611   -2.256520    3.222230
    105          1           0        1.010831   -0.814770    2.632590
    106          6           0        4.985341   -1.350340   -0.850230
    107          9           0        4.511331   -1.364330   -2.099340
    108          9           0        5.550991   -2.544270   -0.639700
    109          9           0        5.980661   -0.448010   -0.808400
 ---------------------------------------------------------------------
 Rotational constants (GHZ):           0.0621841           0.0506149           0.0479339
 General basis read from cards:  (5D, 7F)
 ======================================================================================================
                                       Pseudopotential Parameters
 ======================================================================================================
  Center     Atomic      Valence      Angular      Power
  Number     Number     Electrons     Momentum     of R      Exponent        Coefficient   SO-Coeffient
 ======================================================================================================
    1          6
                                   No pseudopotential on this center.
    2          6
                                   No pseudopotential on this center.
    3          6
                                   No pseudopotential on this center.
    4          6
                                   No pseudopotential on this center.
    5          6
                                   No pseudopotential on this center.
    6          6
                                   No pseudopotential on this center.
    7          6
                                   No pseudopotential on this center.
    8          6
                                   No pseudopotential on this center.
    9          6
                                   No pseudopotential on this center.
   10          6
                                   No pseudopotential on this center.
   11          1
                                   No pseudopotential on this center.
   12          1
                                   No pseudopotential on this center.
   13          1
                                   No pseudopotential on this center.
   14          1
                                   No pseudopotential on this center.
   15          7
                                   No pseudopotential on this center.
   16          7
                                   No pseudopotential on this center.
   17         77           17
                                      G and up 
                                                     1      823.5880147       -0.15780140    0.00000000
                                                     2      364.6613336    -1517.52704460    0.00000000
                                                     2       55.7082801     -316.53065290    0.00000000
                                                     2       12.0464544      -91.88809410    0.00000000
                                                     2        3.5120610       -9.22417730    0.00000000
                                      S - G
                                                     0      188.0490770        3.15780140    0.00000000
                                                     1      340.4194712       26.83225770    0.00000000
                                                     2      128.2373673      800.42500070    0.00000000
                                                     2       33.8644961      369.40506830    0.00000000
                                                     2        4.7560005      242.41718990    0.00000000
                                                     2        3.9649974     -118.21732820    0.00000000
                                      P - G
                                                     0      289.7291139        2.15780140    0.00000000
                                                     1       87.4633789       61.96786100    0.00000000
                                                     2       30.4363766      269.05819860    0.00000000
                                                     2        4.0553412      231.16547930    0.00000000
                                                     2        3.5525341     -133.69526670    0.00000000
                                      D - G
                                                     0      136.4017106        3.15780140    0.00000000
                                                     1       95.0776925       45.93498030    0.00000000
                                                     2       49.2258410      359.03446680    0.00000000
                                                     2       15.0874145      176.47401190    0.00000000
                                                     2        4.0405764       54.51552860    0.00000000
                                      F - G
                                                     0      127.3507908        3.95461970    0.00000000
                                                     1       66.2364374       52.97736550    0.00000000
                                                     2       34.4299229      274.86433830    0.00000000
                                                     2       10.1995721      137.20473380    0.00000000
                                                     2        2.5409702       14.86333050    0.00000000
   18          8
                                   No pseudopotential on this center.
   19          8
                                   No pseudopotential on this center.
   20          8
                                   No pseudopotential on this center.
   21          5
                                   No pseudopotential on this center.
   22          5
                                   No pseudopotential on this center.
   23          5
                                   No pseudopotential on this center.
   24          8
                                   No pseudopotential on this center.
   25          8
                                   No pseudopotential on this center.
   26          6
                                   No pseudopotential on this center.
   27          6
                                   No pseudopotential on this center.
   28          6
                                   No pseudopotential on this center.
   29          6
                                   No pseudopotential on this center.
   30          6
                                   No pseudopotential on this center.
   31          6
                                   No pseudopotential on this center.
   32          8
                                   No pseudopotential on this center.
   33          6
                                   No pseudopotential on this center.
   34          1
                                   No pseudopotential on this center.
   35          1
                                   No pseudopotential on this center.
   36          1
                                   No pseudopotential on this center.
   37          6
                                   No pseudopotential on this center.
   38          1
                                   No pseudopotential on this center.
   39          1
                                   No pseudopotential on this center.
   40          1
                                   No pseudopotential on this center.
   41          6
                                   No pseudopotential on this center.
   42          1
                                   No pseudopotential on this center.
   43          1
                                   No pseudopotential on this center.
   44          1
                                   No pseudopotential on this center.
   45          6
                                   No pseudopotential on this center.
   46          1
                                   No pseudopotential on this center.
   47          1
                                   No pseudopotential on this center.
   48          1
                                   No pseudopotential on this center.
   49          6
                                   No pseudopotential on this center.
   50          1
                                   No pseudopotential on this center.
   51          1
                                   No pseudopotential on this center.
   52          1
                                   No pseudopotential on this center.
   53          6
                                   No pseudopotential on this center.
   54          1
                                   No pseudopotential on this center.
   55          1
                                   No pseudopotential on this center.
   56          1
                                   No pseudopotential on this center.
   57          6
                                   No pseudopotential on this center.
   58          1
                                   No pseudopotential on this center.
   59          1
                                   No pseudopotential on this center.
   60          1
                                   No pseudopotential on this center.
   61          6
                                   No pseudopotential on this center.
   62          1
                                   No pseudopotential on this center.
   63          1
                                   No pseudopotential on this center.
   64          1
                                   No pseudopotential on this center.
   65          6
                                   No pseudopotential on this center.
   66          1
                                   No pseudopotential on this center.
   67          1
                                   No pseudopotential on this center.
   68          1
                                   No pseudopotential on this center.
   69          6
                                   No pseudopotential on this center.
   70          1
                                   No pseudopotential on this center.
   71          1
                                   No pseudopotential on this center.
   72          1
                                   No pseudopotential on this center.
   73          6
                                   No pseudopotential on this center.
   74          1
                                   No pseudopotential on this center.
   75          1
                                   No pseudopotential on this center.
   76          1
                                   No pseudopotential on this center.
   77          6
                                   No pseudopotential on this center.
   78          1
                                   No pseudopotential on this center.
   79          1
                                   No pseudopotential on this center.
   80          1
                                   No pseudopotential on this center.
   81          1
                                   No pseudopotential on this center.
   82          6
                                   No pseudopotential on this center.
   83          6
                                   No pseudopotential on this center.
   84          6
                                   No pseudopotential on this center.
   85          6
                                   No pseudopotential on this center.
   86          6
                                   No pseudopotential on this center.
   87          6
                                   No pseudopotential on this center.
   88          1
                                   No pseudopotential on this center.
   89          1
                                   No pseudopotential on this center.
   90          1
                                   No pseudopotential on this center.
   91          1
                                   No pseudopotential on this center.
   92          6
                                   No pseudopotential on this center.
   93          8
                                   No pseudopotential on this center.
   94          7
                                   No pseudopotential on this center.
   95          6
                                   No pseudopotential on this center.
   96          1
                                   No pseudopotential on this center.
   97          1
                                   No pseudopotential on this center.
   98          1
                                   No pseudopotential on this center.
   99          6
                                   No pseudopotential on this center.
  100          1
                                   No pseudopotential on this center.
  101          1
                                   No pseudopotential on this center.
  102          1
                                   No pseudopotential on this center.
  103          1
                                   No pseudopotential on this center.
  104          1
                                   No pseudopotential on this center.
  105          1
                                   No pseudopotential on this center.
  106          6
                                   No pseudopotential on this center.
  107          9
                                   No pseudopotential on this center.
  108          9
                                   No pseudopotential on this center.
  109          9
                                   No pseudopotential on this center.
 ======================================================================================================
 There are   942 symmetry adapted cartesian basis functions of A   symmetry.
 There are   886 symmetry adapted basis functions of A   symmetry.
   886 basis functions,  1771 primitive gaussians,   942 cartesian basis functions
   209 alpha electrons      209 beta electrons
       nuclear repulsion energy      9635.3744689017 Hartrees.
 NAtoms=  109 NActive=  109 NUniq=  109 SFac= 1.00D+00 NAtFMM=   60 NAOKFM=T Big=T
 Integral buffers will be    131072 words long.
 Raffenetti 2 integral format.
 Two-electron integral symmetry is turned on.
 One-electron integrals computed using PRISM.
   1 Symmetry operations used in ECPInt.
 ECPInt:  NShTT=   55278 NPrTT=  342696 LenC2=   42924 LenP2D=  133776.
 LDataN:  DoStor=T MaxTD1= 6 Len=  172
 NBasis=   886 RedAO= T EigKep=  4.56D-04  NBF=   886
 NBsUse=   886 1.00D-06 EigRej= -1.00D+00 NBFU=   886
 Defaulting to unpruned grid for atomic number  77.
 ExpMin= 2.90D-02 ExpMax= 7.00D+03 ExpMxC= 1.05D+03 IAcc=3 IRadAn=         5 AccDes= 0.00D+00
 Harris functional with IExCor= 1009 and IRadAn=       5 diagonalized for initial guess.
 HarFok:  IExCor= 1009 AccDes= 0.00D+00 IRadAn=         5 IDoV= 1 UseB2=F ITyADJ=14
 ICtDFT=  3500011 ScaDFX=  1.000000  1.000000  1.000000  1.000000
 Defaulting to unpruned grid for atomic number  77.
 FoFCou: FMM=F IPFlag=           0 FMFlag=      100000 FMFlg1=        2001
         NFxFlg=           0 DoJE=T BraDBF=F KetDBF=T FulRan=T
         wScrn=  0.000000 ICntrl=       500 IOpCl=  0 I1Cent=   200000004 NGrid=           0
         NMat0=    1 NMatS0=      1 NMatT0=    0 NMatD0=    1 NMtDS0=    0 NMtDT0=    0
 Petite list used in FoFCou.
 Requested convergence on RMS density matrix=1.00D-08 within 128 cycles.
 Requested convergence on MAX density matrix=1.00D-06.
 Requested convergence on             energy=1.00D-06.
 No special actions if energy rises.
 Defaulting to unpruned grid for atomic number  77.
 Defaulting to unpruned grid for atomic number  77.
 Defaulting to unpruned grid for atomic number  77.
 Defaulting to unpruned grid for atomic number  77.
 Defaulting to unpruned grid for atomic number  77.
 Defaulting to unpruned grid for atomic number  77.
 Defaulting to unpruned grid for atomic number  77.
 Defaulting to unpruned grid for atomic number  77.
 Defaulting to unpruned grid for atomic number  77.
 Defaulting to unpruned grid for atomic number  77.
 Defaulting to unpruned grid for atomic number  77.
 Defaulting to unpruned grid for atomic number  77.
 Defaulting to unpruned grid for atomic number  77.
 Defaulting to unpruned grid for atomic number  77.
 Defaulting to unpruned grid for atomic number  77.
 Defaulting to unpruned grid for atomic number  77.
 SCF Done:  E(RM06) =  -2648.90327907     A.U. after   15 cycles
            NFock= 15  Conv=0.64D-08     -V/T= 2.0341
 DoSCS=F DFT=T ScalE2(SS,OS)=  1.000000  1.000000
 Range of M.O.s used for correlation:     1   886
 NBasis=   886 NAE=   209 NBE=   209 NFC=     0 NFV=     0
 NROrb=    886 NOA=   209 NOB=   209 NVA=   677 NVB=   677

 **** Warning!!: The largest alpha MO coefficient is  0.14346453D+02

   1 Symmetry operations used in ECPInt.
 ECPInt:  NShTT=   55278 NPrTT=  342696 LenC2=   42924 LenP2D=  133776.
 LDataN:  DoStor=T MaxTD1= 7 Len=  274
 Number of processors reduced to   7 by ecpmxn.
 Symmetrizing basis deriv contribution to polar:
 IMax=3 JMax=2 DiffMx= 0.00D+00
 G2DrvN: will do   110 centers at a time, making    1 passes.
 Calling FoFCou, ICntrl=  3107 FMM=T I1Cent=   0 AccDes= 0.00D+00.
 Defaulting to unpruned grid for atomic number  77.
 Defaulting to unpruned grid for atomic number  77.
 Defaulting to unpruned grid for atomic number  77.
 Defaulting to unpruned grid for atomic number  77.
 Defaulting to unpruned grid for atomic number  77.
 Defaulting to unpruned grid for atomic number  77.
 Defaulting to unpruned grid for atomic number  77.
 Defaulting to unpruned grid for atomic number  77.
 Defaulting to unpruned grid for atomic number  77.
 Defaulting to unpruned grid for atomic number  77.
 Defaulting to unpruned grid for atomic number  77.
 Defaulting to unpruned grid for atomic number  77.
 Defaulting to unpruned grid for atomic number  77.
 Defaulting to unpruned grid for atomic number  77.
 Defaulting to unpruned grid for atomic number  77.
 Defaulting to unpruned grid for atomic number  77.
 End of G2Drv F.D. properties file   721 does not exist.
 End of G2Drv F.D. properties file   722 does not exist.
 End of G2Drv F.D. properties file   788 does not exist.
          IDoAtm=11111111111111111111111111111111111111111111111111
          IDoAtm=11111111111111111111111111111111111111111111111111
          IDoAtm=111111111
          Differentiating once with respect to electric field.
                with respect to dipole field.
          Differentiating once with respect to nuclear coordinates.
 Defaulting to unpruned grid for atomic number  77.
 CalDSu exits because no D1Ps are significant.
 Defaulting to unpruned grid for atomic number  77.
 Defaulting to unpruned grid for atomic number  77.
 Defaulting to unpruned grid for atomic number  77.
 Defaulting to unpruned grid for atomic number  77.
 Defaulting to unpruned grid for atomic number  77.
 Defaulting to unpruned grid for atomic number  77.
 Defaulting to unpruned grid for atomic number  77.
 Defaulting to unpruned grid for atomic number  77.
 Defaulting to unpruned grid for atomic number  77.
 Defaulting to unpruned grid for atomic number  77.
 Defaulting to unpruned grid for atomic number  77.
 Defaulting to unpruned grid for atomic number  77.
 Defaulting to unpruned grid for atomic number  77.
 Defaulting to unpruned grid for atomic number  77.
 Defaulting to unpruned grid for atomic number  77.
 Defaulting to unpruned grid for atomic number  77.
          There are   330 degrees of freedom in the 1st order CPHF.  IDoFFX=6 NUNeed=     3.
    327 vectors produced by pass  0 Test12= 1.41D-13 1.00D-09 XBig12= 4.46D+02 6.06D+00.
 AX will form    72 AO Fock derivatives at one time.
    327 vectors produced by pass  1 Test12= 1.41D-13 1.00D-09 XBig12= 9.23D+01 1.56D+00.
    327 vectors produced by pass  2 Test12= 1.41D-13 1.00D-09 XBig12= 1.05D+00 9.18D-02.
    327 vectors produced by pass  3 Test12= 1.41D-13 1.00D-09 XBig12= 7.86D-03 7.31D-03.
    327 vectors produced by pass  4 Test12= 1.41D-13 1.00D-09 XBig12= 2.75D-05 3.50D-04.
    301 vectors produced by pass  5 Test12= 1.41D-13 1.00D-09 XBig12= 5.93D-08 1.31D-05.
     96 vectors produced by pass  6 Test12= 1.41D-13 1.00D-09 XBig12= 9.40D-11 5.70D-07.
      3 vectors produced by pass  7 Test12= 1.41D-13 1.00D-09 XBig12= 1.32D-13 2.24D-08.
 InvSVY:  IOpt=1 It=  1 EMax= 2.84D-14
 Solved reduced A of dimension  2035 with   330 vectors.
 Isotropic polarizability for W=    0.000000      504.14 Bohr**3.
 End of Minotr F.D. properties file   721 does not exist.
 End of Minotr F.D. properties file   722 does not exist.
 End of Minotr F.D. properties file   788 does not exist.
 Hyperfine terms turned off by default for NAtoms > 100.

 **********************************************************************

            Population analysis using the SCF Density.

 **********************************************************************

 Orbital symmetries:
       Occupied  (A) (A) (A) (A) (A) (A) (A) (A) (A) (A) (A) (A)
                 (A) (A) (A) (A) (A) (A) (A) (A) (A) (A) (A) (A)
                 (A) (A) (A) (A) (A) (A) (A) (A) (A) (A) (A) (A)
                 (A) (A) (A) (A) (A) (A) (A) (A) (A) (A) (A) (A)
                 (A) (A) (A) (A) (A) (A) (A) (A) (A) (A) (A) (A)
                 (A) (A) (A) (A) (A) (A) (A) (A) (A) (A) (A) (A)
                 (A) (A) (A) (A) (A) (A) (A) (A) (A) (A) (A) (A)
                 (A) (A) (A) (A) (A) (A) (A) (A) (A) (A) (A) (A)
                 (A) (A) (A) (A) (A) (A) (A) (A) (A) (A) (A) (A)
                 (A) (A) (A) (A) (A) (A) (A) (A) (A) (A) (A) (A)
                 (A) (A) (A) (A) (A) (A) (A) (A) (A) (A) (A) (A)
                 (A) (A) (A) (A) (A) (A) (A) (A) (A) (A) (A) (A)
                 (A) (A) (A) (A) (A) (A) (A) (A) (A) (A) (A) (A)
                 (A) (A) (A) (A) (A) (A) (A) (A) (A) (A) (A) (A)
                 (A) (A) (A) (A) (A) (A) (A) (A) (A) (A) (A) (A)
                 (A) (A) (A) (A) (A) (A) (A) (A) (A) (A) (A) (A)
                 (A) (A) (A) (A) (A) (A) (A) (A) (A) (A) (A) (A)
                 (A) (A) (A) (A) (A)
       Virtual   (A) (A) (A) (A) (A) (A) (A) (A) (A) (A) (A) (A)
                 (A) (A) (A) (A) (A) (A) (A) (A) (A) (A) (A) (A)
                 (A) (A) (A) (A) (A) (A) (A) (A) (A) (A) (A) (A)
                 (A) (A) (A) (A) (A) (A) (A) (A) (A) (A) (A) (A)
                 (A) (A) (A) (A) (A) (A) (A) (A) (A) (A) (A) (A)
                 (A) (A) (A) (A) (A) (A) (A) (A) (A) (A) (A) (A)
                 (A) (A) (A) (A) (A) (A) (A) (A) (A) (A) (A) (A)
                 (A) (A) (A) (A) (A) (A) (A) (A) (A) (A) (A) (A)
                 (A) (A) (A) (A) (A) (A) (A) (A) (A) (A) (A) (A)
                 (A) (A) (A) (A) (A) (A) (A) (A) (A) (A) (A) (A)
                 (A) (A) (A) (A) (A) (A) (A) (A) (A) (A) (A) (A)
                 (A) (A) (A) (A) (A) (A) (A) (A) (A) (A) (A) (A)
                 (A) (A) (A) (A) (A) (A) (A) (A) (A) (A) (A) (A)
                 (A) (A) (A) (A) (A) (A) (A) (A) (A) (A) (A) (A)
                 (A) (A) (A) (A) (A) (A) (A) (A) (A) (A) (A) (A)
                 (A) (A) (A) (A) (A) (A) (A) (A) (A) (A) (A) (A)
                 (A) (A) (A) (A) (A) (A) (A) (A) (A) (A) (A) (A)
                 (A) (A) (A) (A) (A) (A) (A) (A) (A) (A) (A) (A)
                 (A) (A) (A) (A) (A) (A) (A) (A) (A) (A) (A) (A)
                 (A) (A) (A) (A) (A) (A) (A) (A) (A) (A) (A) (A)
                 (A) (A) (A) (A) (A) (A) (A) (A) (A) (A) (A) (A)
                 (A) (A) (A) (A) (A) (A) (A) (A) (A) (A) (A) (A)
                 (A) (A) (A) (A) (A) (A) (A) (A) (A) (A) (A) (A)
                 (A) (A) (A) (A) (A) (A) (A) (A) (A) (A) (A) (A)
                 (A) (A) (A) (A) (A) (A) (A) (A) (A) (A) (A) (A)
                 (A) (A) (A) (A) (A) (A) (A) (A) (A) (A) (A) (A)
                 (A) (A) (A) (A) (A) (A) (A) (A) (A) (A) (A) (A)
                 (A) (A) (A) (A) (A) (A) (A) (A) (A) (A) (A) (A)
                 (A) (A) (A) (A) (A) (A) (A) (A) (A) (A) (A) (A)
                 (A) (A) (A) (A) (A) (A) (A) (A) (A) (A) (A) (A)
                 (A) (A) (A) (A) (A) (A) (A) (A) (A) (A) (A) (A)
                 (A) (A) (A) (A) (A) (A) (A) (A) (A) (A) (A) (A)
                 (A) (A) (A) (A) (A) (A) (A) (A) (A) (A) (A) (A)
                 (A) (A) (A) (A) (A) (A) (A) (A) (A) (A) (A) (A)
                 (A) (A) (A) (A) (A) (A) (A) (A) (A) (A) (A) (A)
                 (A) (A) (A) (A) (A) (A) (A) (A) (A) (A) (A) (A)
                 (A) (A) (A) (A) (A) (A) (A) (A) (A) (A) (A) (A)
                 (A) (A) (A) (A) (A) (A) (A) (A) (A) (A) (A) (A)
                 (A) (A) (A) (A) (A) (A) (A) (A) (A) (A) (A) (A)
                 (A) (A) (A) (A) (A) (A) (A) (A) (A) (A) (A) (A)
                 (A) (A) (A) (A) (A) (A) (A) (A) (A) (A) (A) (A)
                 (A) (A) (A) (A) (A) (A) (A) (A) (A) (A) (A) (A)
                 (A) (A) (A) (A) (A) (A) (A) (A) (A) (A) (A) (A)
                 (A) (A) (A) (A) (A) (A) (A) (A) (A) (A) (A) (A)
                 (A) (A) (A) (A) (A) (A) (A) (A) (A) (A) (A) (A)
                 (A) (A) (A) (A) (A) (A) (A) (A) (A) (A) (A) (A)
                 (A) (A) (A) (A) (A) (A) (A) (A) (A) (A) (A) (A)
                 (A) (A) (A) (A) (A) (A) (A) (A) (A) (A) (A) (A)
                 (A) (A) (A) (A) (A) (A) (A) (A) (A) (A) (A) (A)
                 (A) (A) (A) (A) (A) (A) (A) (A) (A) (A) (A) (A)
                 (A) (A) (A) (A) (A) (A) (A) (A) (A) (A) (A) (A)
                 (A) (A) (A) (A) (A) (A) (A) (A) (A) (A) (A) (A)
                 (A) (A) (A) (A) (A) (A) (A) (A) (A) (A) (A) (A)
                 (A) (A) (A) (A) (A) (A) (A) (A) (A) (A) (A) (A)
                 (A) (A) (A) (A) (A) (A) (A) (A) (A) (A) (A) (A)
                 (A) (A) (A) (A) (A) (A) (A) (A) (A) (A) (A) (A)
                 (A) (A) (A) (A) (A)
 The electronic state is 1-A.
 Alpha  occ. eigenvalues --  -24.83285 -24.83201 -24.83031 -19.21369 -19.20833
 Alpha  occ. eigenvalues --  -19.20719 -19.20608 -19.20245 -19.19514 -19.17356
 Alpha  occ. eigenvalues --  -14.44672 -14.43800 -14.41531 -10.51764 -10.33125
 Alpha  occ. eigenvalues --  -10.32566 -10.31710 -10.30115 -10.29878 -10.29867
 Alpha  occ. eigenvalues --  -10.29782 -10.29610 -10.29545 -10.29439 -10.29191
 Alpha  occ. eigenvalues --  -10.29017 -10.28901 -10.28359 -10.27419 -10.27328
 Alpha  occ. eigenvalues --  -10.27247 -10.25929 -10.25885 -10.24529 -10.23856
 Alpha  occ. eigenvalues --  -10.23684 -10.23524 -10.23492 -10.23416 -10.23363
 Alpha  occ. eigenvalues --  -10.23363 -10.23094 -10.23010 -10.22982 -10.22913
 Alpha  occ. eigenvalues --  -10.22610 -10.22596 -10.22570 -10.22510 -10.22221
 Alpha  occ. eigenvalues --  -10.21442  -6.81431  -6.80200  -6.79362  -3.63666
 Alpha  occ. eigenvalues --   -2.06180  -2.05965  -2.04585  -1.36096  -1.27379
 Alpha  occ. eigenvalues --   -1.27149  -1.07098  -1.06561  -1.05926  -1.03239
 Alpha  occ. eigenvalues --   -1.00071  -0.99830  -0.99598  -0.98922  -0.97226
 Alpha  occ. eigenvalues --   -0.93203  -0.85528  -0.84693  -0.83363  -0.82731
 Alpha  occ. eigenvalues --   -0.81123  -0.80746  -0.80130  -0.78264  -0.75527
 Alpha  occ. eigenvalues --   -0.75447  -0.75194  -0.74567  -0.73590  -0.73417
 Alpha  occ. eigenvalues --   -0.71241  -0.71046  -0.70722  -0.70149  -0.68712
 Alpha  occ. eigenvalues --   -0.68604  -0.68292  -0.67902  -0.67586  -0.67351
 Alpha  occ. eigenvalues --   -0.65111  -0.63981  -0.62509  -0.62112  -0.61791
 Alpha  occ. eigenvalues --   -0.61622  -0.61267  -0.60546  -0.59989  -0.59227
 Alpha  occ. eigenvalues --   -0.56084  -0.55448  -0.55074  -0.54479  -0.54283
 Alpha  occ. eigenvalues --   -0.53995  -0.53546  -0.53081  -0.52957  -0.52170
 Alpha  occ. eigenvalues --   -0.51415  -0.50522  -0.49699  -0.49564  -0.48607
 Alpha  occ. eigenvalues --   -0.48196  -0.47715  -0.47485  -0.47189  -0.47154
 Alpha  occ. eigenvalues --   -0.46872  -0.46762  -0.46336  -0.46283  -0.46163
 Alpha  occ. eigenvalues --   -0.45950  -0.45543  -0.45199  -0.44876  -0.44784
 Alpha  occ. eigenvalues --   -0.44662  -0.44282  -0.44219  -0.44069  -0.43807
 Alpha  occ. eigenvalues --   -0.43781  -0.43481  -0.43238  -0.42954  -0.42921
 Alpha  occ. eigenvalues --   -0.42180  -0.41821  -0.40892  -0.40667  -0.40434
 Alpha  occ. eigenvalues --   -0.40366  -0.40315  -0.40100  -0.39986  -0.39953
 Alpha  occ. eigenvalues --   -0.39734  -0.39711  -0.39548  -0.39457  -0.39307
 Alpha  occ. eigenvalues --   -0.39145  -0.39021  -0.38758  -0.38247  -0.38138
 Alpha  occ. eigenvalues --   -0.38024  -0.37857  -0.37312  -0.37178  -0.37007
 Alpha  occ. eigenvalues --   -0.36954  -0.36653  -0.36365  -0.36242  -0.35949
 Alpha  occ. eigenvalues --   -0.35749  -0.35633  -0.35567  -0.35122  -0.34838
 Alpha  occ. eigenvalues --   -0.34620  -0.34440  -0.33962  -0.33614  -0.33144
 Alpha  occ. eigenvalues --   -0.32512  -0.32454  -0.31987  -0.31804  -0.31454
 Alpha  occ. eigenvalues --   -0.31393  -0.31007  -0.30603  -0.30279  -0.30003
 Alpha  occ. eigenvalues --   -0.29832  -0.28089  -0.26901  -0.26885  -0.26471
 Alpha  occ. eigenvalues --   -0.26224  -0.25919  -0.25450  -0.23769  -0.23405
 Alpha  occ. eigenvalues --   -0.23255  -0.22599  -0.22395  -0.21117
 Alpha virt. eigenvalues --   -0.06508  -0.03882  -0.02967   0.00494   0.00830
 Alpha virt. eigenvalues --    0.02106   0.03921   0.04840   0.05676   0.06424
 Alpha virt. eigenvalues --    0.06554   0.07057   0.07853   0.08442   0.09274
 Alpha virt. eigenvalues --    0.09779   0.09892   0.10595   0.10825   0.11002
 Alpha virt. eigenvalues --    0.11435   0.11563   0.11733   0.12211   0.12488
 Alpha virt. eigenvalues --    0.13027   0.13218   0.13538   0.13786   0.13993
 Alpha virt. eigenvalues --    0.14220   0.14324   0.14577   0.14856   0.15005
 Alpha virt. eigenvalues --    0.15230   0.15521   0.15629   0.15940   0.16105
 Alpha virt. eigenvalues --    0.16315   0.16436   0.16803   0.16975   0.17168
 Alpha virt. eigenvalues --    0.17282   0.17623   0.17766   0.18090   0.18243
 Alpha virt. eigenvalues --    0.18361   0.18535   0.18720   0.18846   0.18887
 Alpha virt. eigenvalues --    0.19051   0.19311   0.19554   0.19804   0.19936
 Alpha virt. eigenvalues --    0.20159   0.20376   0.20571   0.20655   0.20771
 Alpha virt. eigenvalues --    0.20966   0.21134   0.21495   0.21796   0.21938
 Alpha virt. eigenvalues --    0.22058   0.22505   0.22730   0.23292   0.23408
 Alpha virt. eigenvalues --    0.23730   0.23916   0.24103   0.24122   0.24466
 Alpha virt. eigenvalues --    0.24760   0.24898   0.25025   0.25331   0.25680
 Alpha virt. eigenvalues --    0.26163   0.26214   0.26371   0.26688   0.26817
 Alpha virt. eigenvalues --    0.27305   0.27470   0.27566   0.28016   0.28332
 Alpha virt. eigenvalues --    0.28703   0.29287   0.29729   0.30332   0.30605
 Alpha virt. eigenvalues --    0.31098   0.31151   0.31829   0.32219   0.32669
 Alpha virt. eigenvalues --    0.33218   0.33412   0.34089   0.34592   0.34774
 Alpha virt. eigenvalues --    0.35268   0.36074   0.36341   0.36418   0.37149
 Alpha virt. eigenvalues --    0.38030   0.38873   0.39360   0.39919   0.40888
 Alpha virt. eigenvalues --    0.41478   0.42510   0.43509   0.43953   0.44863
 Alpha virt. eigenvalues --    0.46129   0.46504   0.47594   0.47879   0.48205
 Alpha virt. eigenvalues --    0.48731   0.49248   0.50007   0.50051   0.50526
 Alpha virt. eigenvalues --    0.51132   0.51186   0.51587   0.51843   0.52102
 Alpha virt. eigenvalues --    0.52429   0.52774   0.53200   0.53786   0.54215
 Alpha virt. eigenvalues --    0.54651   0.54783   0.55214   0.55806   0.55878
 Alpha virt. eigenvalues --    0.56209   0.56366   0.57177   0.57251   0.57480
 Alpha virt. eigenvalues --    0.57829   0.57914   0.58052   0.58228   0.58252
 Alpha virt. eigenvalues --    0.58644   0.58900   0.59021   0.59321   0.59411
 Alpha virt. eigenvalues --    0.59844   0.60139   0.60346   0.60793   0.60840
 Alpha virt. eigenvalues --    0.61208   0.61421   0.61641   0.61767   0.62474
 Alpha virt. eigenvalues --    0.62657   0.62966   0.63185   0.63471   0.63831
 Alpha virt. eigenvalues --    0.64091   0.64417   0.64844   0.64967   0.65663
 Alpha virt. eigenvalues --    0.65736   0.66016   0.66617   0.67051   0.67650
 Alpha virt. eigenvalues --    0.67722   0.67843   0.68200   0.68448   0.68537
 Alpha virt. eigenvalues --    0.68925   0.69478   0.69594   0.70010   0.70443
 Alpha virt. eigenvalues --    0.70689   0.71012   0.71733   0.72301   0.72365
 Alpha virt. eigenvalues --    0.72662   0.72752   0.73292   0.73637   0.73835
 Alpha virt. eigenvalues --    0.74703   0.75080   0.75464   0.75505   0.76149
 Alpha virt. eigenvalues --    0.76702   0.76890   0.77350   0.77757   0.77906
 Alpha virt. eigenvalues --    0.78157   0.78793   0.78859   0.79301   0.79476
 Alpha virt. eigenvalues --    0.79495   0.80120   0.80410   0.80611   0.81146
 Alpha virt. eigenvalues --    0.81354   0.81739   0.82236   0.82505   0.82837
 Alpha virt. eigenvalues --    0.83038   0.83268   0.83500   0.83689   0.83871
 Alpha virt. eigenvalues --    0.84177   0.84434   0.84771   0.85027   0.85141
 Alpha virt. eigenvalues --    0.85408   0.85751   0.85993   0.86273   0.86433
 Alpha virt. eigenvalues --    0.86683   0.87176   0.87547   0.87651   0.87942
 Alpha virt. eigenvalues --    0.88368   0.88612   0.88684   0.89048   0.89230
 Alpha virt. eigenvalues --    0.89326   0.89726   0.90109   0.90142   0.90370
 Alpha virt. eigenvalues --    0.90602   0.90721   0.90839   0.91260   0.91537
 Alpha virt. eigenvalues --    0.91894   0.92061   0.92169   0.92492   0.92676
 Alpha virt. eigenvalues --    0.93158   0.93650   0.93748   0.94066   0.94575
 Alpha virt. eigenvalues --    0.94813   0.95341   0.95988   0.96064   0.96461
 Alpha virt. eigenvalues --    0.96514   0.96834   0.97375   0.97582   0.98314
 Alpha virt. eigenvalues --    0.98543   0.98682   0.99196   0.99510   1.00364
 Alpha virt. eigenvalues --    1.00833   1.00886   1.01423   1.01832   1.02229
 Alpha virt. eigenvalues --    1.02669   1.02804   1.03092   1.03422   1.04124
 Alpha virt. eigenvalues --    1.04767   1.04955   1.05801   1.06481   1.07218
 Alpha virt. eigenvalues --    1.07537   1.07867   1.08716   1.08900   1.09159
 Alpha virt. eigenvalues --    1.10115   1.10684   1.11113   1.11448   1.11530
 Alpha virt. eigenvalues --    1.12465   1.12656   1.13270   1.14239   1.15061
 Alpha virt. eigenvalues --    1.15540   1.16012   1.16761   1.17217   1.17460
 Alpha virt. eigenvalues --    1.18310   1.19045   1.19215   1.19328   1.19773
 Alpha virt. eigenvalues --    1.20259   1.20480   1.21291   1.21556   1.21683
 Alpha virt. eigenvalues --    1.22065   1.22665   1.23345   1.23917   1.24112
 Alpha virt. eigenvalues --    1.24226   1.24800   1.26231   1.26618   1.27126
 Alpha virt. eigenvalues --    1.27551   1.28197   1.28616   1.29462   1.29815
 Alpha virt. eigenvalues --    1.30494   1.30811   1.31157   1.32171   1.32917
 Alpha virt. eigenvalues --    1.33358   1.34061   1.35002   1.35217   1.35654
 Alpha virt. eigenvalues --    1.36580   1.37278   1.38100   1.38293   1.38753
 Alpha virt. eigenvalues --    1.39316   1.39566   1.39802   1.40670   1.41277
 Alpha virt. eigenvalues --    1.41479   1.41811   1.42315   1.42724   1.43368
 Alpha virt. eigenvalues --    1.43683   1.44576   1.45222   1.45552   1.45894
 Alpha virt. eigenvalues --    1.46389   1.46572   1.47082   1.47303   1.47923
 Alpha virt. eigenvalues --    1.48237   1.48444   1.48582   1.49288   1.49705
 Alpha virt. eigenvalues --    1.50229   1.50726   1.50949   1.51328   1.51897
 Alpha virt. eigenvalues --    1.52691   1.53743   1.53936   1.55209   1.56255
 Alpha virt. eigenvalues --    1.56653   1.57878   1.58190   1.58191   1.59299
 Alpha virt. eigenvalues --    1.60073   1.60551   1.61821   1.62739   1.63531
 Alpha virt. eigenvalues --    1.64273   1.64490   1.64886   1.65408   1.66167
 Alpha virt. eigenvalues --    1.66504   1.67213   1.67582   1.68076   1.68747
 Alpha virt. eigenvalues --    1.69349   1.69863   1.70391   1.70881   1.71921
 Alpha virt. eigenvalues --    1.72907   1.73472   1.73864   1.75188   1.75814
 Alpha virt. eigenvalues --    1.76203   1.76903   1.77387   1.77682   1.78397
 Alpha virt. eigenvalues --    1.78592   1.78957   1.79565   1.80157   1.80974
 Alpha virt. eigenvalues --    1.81205   1.81864   1.82025   1.82393   1.83031
 Alpha virt. eigenvalues --    1.83640   1.84150   1.84683   1.84970   1.85322
 Alpha virt. eigenvalues --    1.85913   1.86114   1.86607   1.87203   1.87397
 Alpha virt. eigenvalues --    1.87942   1.88314   1.88572   1.88714   1.89339
 Alpha virt. eigenvalues --    1.89557   1.89966   1.90473   1.90601   1.90923
 Alpha virt. eigenvalues --    1.91442   1.91608   1.91952   1.92072   1.92422
 Alpha virt. eigenvalues --    1.92655   1.92850   1.93172   1.93641   1.93802
 Alpha virt. eigenvalues --    1.93966   1.94710   1.95398   1.95540   1.96144
 Alpha virt. eigenvalues --    1.96799   1.97379   1.97683   1.97943   1.98333
 Alpha virt. eigenvalues --    1.98754   1.99521   2.00062   2.00647   2.00978
 Alpha virt. eigenvalues --    2.01671   2.02044   2.02312   2.02404   2.03024
 Alpha virt. eigenvalues --    2.03576   2.04332   2.04888   2.04907   2.05405
 Alpha virt. eigenvalues --    2.06004   2.06255   2.06379   2.07028   2.07128
 Alpha virt. eigenvalues --    2.08041   2.08256   2.08447   2.09010   2.09599
 Alpha virt. eigenvalues --    2.09949   2.10101   2.10225   2.10659   2.10777
 Alpha virt. eigenvalues --    2.11332   2.11384   2.12030   2.12165   2.12892
 Alpha virt. eigenvalues --    2.13559   2.13803   2.13887   2.14489   2.14776
 Alpha virt. eigenvalues --    2.15089   2.15571   2.15998   2.16238   2.16617
 Alpha virt. eigenvalues --    2.17201   2.17544   2.17735   2.18318   2.18405
 Alpha virt. eigenvalues --    2.18726   2.19005   2.19274   2.19774   2.20045
 Alpha virt. eigenvalues --    2.20486   2.20798   2.21248   2.21737   2.21907
 Alpha virt. eigenvalues --    2.22294   2.22388   2.22678   2.23166   2.23662
 Alpha virt. eigenvalues --    2.24060   2.24462   2.24937   2.25452   2.25929
 Alpha virt. eigenvalues --    2.26350   2.26824   2.27640   2.27749   2.28169
 Alpha virt. eigenvalues --    2.29082   2.29457   2.29843   2.30302   2.30527
 Alpha virt. eigenvalues --    2.31205   2.31499   2.32114   2.32481   2.33055
 Alpha virt. eigenvalues --    2.33513   2.33684   2.34427   2.34994   2.35218
 Alpha virt. eigenvalues --    2.36246   2.36612   2.37512   2.37966   2.38217
 Alpha virt. eigenvalues --    2.39182   2.39437   2.40529   2.41993   2.42343
 Alpha virt. eigenvalues --    2.44005   2.44727   2.45089   2.45662   2.46048
 Alpha virt. eigenvalues --    2.47595   2.47831   2.48620   2.49140   2.49561
 Alpha virt. eigenvalues --    2.49925   2.50835   2.52233   2.53354   2.54411
 Alpha virt. eigenvalues --    2.55256   2.56438   2.57727   2.58820   2.59394
 Alpha virt. eigenvalues --    2.60140   2.60875   2.61479   2.62529   2.63191
 Alpha virt. eigenvalues --    2.63582   2.64010   2.64234   2.64951   2.65443
 Alpha virt. eigenvalues --    2.66820   2.68247   2.69019   2.69431   2.70752
 Alpha virt. eigenvalues --    2.72379   2.73196   2.74029   2.75787   2.76535
 Alpha virt. eigenvalues --    2.77775   2.77870   2.78536   2.78878   2.79520
 Alpha virt. eigenvalues --    2.79569   2.80032   2.80474   2.80890   2.81189
 Alpha virt. eigenvalues --    2.81622   2.81934   2.82565   2.83126   2.84617
 Alpha virt. eigenvalues --    2.85229   2.86280   2.86396   2.87654   2.89257
 Alpha virt. eigenvalues --    2.91169   2.92025   2.94380   2.95340   2.95718
 Alpha virt. eigenvalues --    2.96247   2.97358   2.98140   2.99645   3.02391
 Alpha virt. eigenvalues --    3.04311   3.04921   3.07795   3.08201   3.08650
 Alpha virt. eigenvalues --    3.09059   3.11331   3.12545   3.13515   3.14673
 Alpha virt. eigenvalues --    3.18817   3.20529   3.26386   3.33808   3.37878
 Alpha virt. eigenvalues --    3.44461  15.15534
          Condensed to atoms (all electrons):
 Mulliken charges:
               1
     1  C    0.247745
     2  C    0.115272
     3  C   -0.170831
     4  C   -0.153577
     5  C   -0.092533
     6  C    0.283136
     7  C    0.060186
     8  C   -0.167712
     9  C   -0.141104
    10  C   -0.169547
    11  H    0.196146
    12  H    0.227823
    13  H    0.184950
    14  H    0.192557
    15  N   -0.436844
    16  N   -0.474459
    17  Ir  -0.247539
    18  O   -0.509766
    19  O   -0.523025
    20  O   -0.494667
    21  B    0.499808
    22  B    0.534800
    23  B    0.538162
    24  O   -0.527440
    25  O   -0.536468
    26  C    0.301317
    27  C    0.286670
    28  C    0.288127
    29  C    0.294424
    30  C    0.290966
    31  C    0.296924
    32  O   -0.531723
    33  C   -0.513527
    34  H    0.148308
    35  H    0.166525
    36  H    0.171162
    37  C   -0.495468
    38  H    0.153675
    39  H    0.140012
    40  H    0.186192
    41  C   -0.511091
    42  H    0.158805
    43  H    0.154165
    44  H    0.176603
    45  C   -0.508663
    46  H    0.148151
    47  H    0.162307
    48  H    0.180132
    49  C   -0.494846
    50  H    0.167318
    51  H    0.147191
    52  H    0.176831
    53  C   -0.507603
    54  H    0.153708
    55  H    0.170139
    56  H    0.161506
    57  C   -0.512971
    58  H    0.156911
    59  H    0.162579
    60  H    0.171955
    61  C   -0.507843
    62  H    0.145513
    63  H    0.153676
    64  H    0.187059
    65  C   -0.504168
    66  H    0.165194
    67  H    0.162946
    68  H    0.153875
    69  C   -0.496810
    70  H    0.146196
    71  H    0.156005
    72  H    0.169856
    73  C   -0.509904
    74  H    0.148675
    75  H    0.169456
    76  H    0.173814
    77  C   -0.500667
    78  H    0.163595
    79  H    0.146492
    80  H    0.175282
    81  H    0.181458
    82  C   -0.004004
    83  C   -0.163050
    84  C   -0.131082
    85  C   -0.170174
    86  C   -0.174621
    87  C   -0.142394
    88  H    0.149544
    89  H    0.226963
    90  H    0.160575
    91  H    0.130430
    92  C    0.488073
    93  O   -0.513767
    94  N   -0.364171
    95  C   -0.371728
    96  H    0.204243
    97  H    0.165374
    98  H    0.158484
    99  C   -0.371402
   100  H    0.201022
   101  H    0.183906
   102  H    0.161524
   103  H    0.143660
   104  H    0.179634
   105  H    0.200258
   106  C    0.973895
   107  F   -0.307307
   108  F   -0.316120
   109  F   -0.309250
 Sum of Mulliken charges =  -0.00000
 Mulliken charges with hydrogens summed into heavy atoms:
               1
     1  C    0.247745
     2  C    0.315530
     3  C    0.008802
     4  C    0.042570
     5  C   -0.092533
     6  C    0.283136
     7  C    0.288009
     8  C    0.013746
     9  C    0.043846
    10  C    0.023011
    15  N   -0.436844
    16  N   -0.474459
    17  Ir  -0.020576
    18  O   -0.509766
    19  O   -0.523025
    20  O   -0.494667
    21  B    0.499808
    22  B    0.534800
    23  B    0.538162
    24  O   -0.527440
    25  O   -0.536468
    26  C    0.301317
    27  C    0.286670
    28  C    0.288127
    29  C    0.294424
    30  C    0.290966
    31  C    0.296924
    32  O   -0.531723
    33  C   -0.027533
    37  C   -0.015588
    41  C   -0.021518
    45  C   -0.018073
    49  C   -0.003506
    53  C   -0.022251
    57  C   -0.021525
    61  C   -0.021596
    65  C   -0.022153
    69  C   -0.024754
    73  C   -0.017959
    77  C   -0.015299
    82  C   -0.004004
    83  C   -0.002475
    84  C   -0.131082
    85  C   -0.020630
    86  C   -0.044190
    87  C    0.001267
    92  C    0.488073
    93  O   -0.513767
    94  N   -0.364171
    95  C    0.156372
    99  C    0.175049
   106  C    0.973895
   107  F   -0.307307
   108  F   -0.316120
   109  F   -0.309250
 APT charges:
               1
     1  C    0.274184
     2  C    0.165306
     3  C   -0.104815
     4  C    0.086553
     5  C   -0.278552
     6  C    0.169400
     7  C    0.056733
     8  C   -0.075872
     9  C    0.130635
    10  C   -0.151838
    11  H    0.065095
    12  H    0.134455
    13  H    0.030036
    14  H    0.083101
    15  N   -0.326273
    16  N   -0.193973
    17  Ir  -0.937137
    18  O   -0.948873
    19  O   -0.981624
    20  O   -0.930167
    21  B    1.304684
    22  B    1.259741
    23  B    1.199822
    24  O   -0.923825
    25  O   -1.013237
    26  C    0.516078
    27  C    0.476990
    28  C    0.463721
    29  C    0.442924
    30  C    0.486575
    31  C    0.485184
    32  O   -0.985569
    33  C   -0.001986
    34  H   -0.018068
    35  H   -0.004116
    36  H   -0.000547
    37  C   -0.029939
    38  H   -0.005215
    39  H   -0.029471
    40  H    0.031495
    41  C   -0.039485
    42  H   -0.000023
    43  H   -0.023834
    44  H    0.007950
    45  C   -0.005748
    46  H   -0.021253
    47  H   -0.005543
    48  H    0.004877
    49  C   -0.023737
    50  H    0.002798
    51  H   -0.026620
    52  H    0.006828
    53  C    0.001717
    54  H   -0.017261
    55  H    0.003423
    56  H   -0.002330
    57  C   -0.013315
    58  H   -0.014500
    59  H    0.000491
    60  H    0.010000
    61  C   -0.024307
    62  H   -0.009853
    63  H   -0.020107
    64  H    0.023429
    65  C    0.010087
    66  H   -0.000287
    67  H   -0.011426
    68  H   -0.018459
    69  C   -0.025529
    70  H   -0.004915
    71  H   -0.016686
    72  H   -0.008822
    73  C   -0.002008
    74  H   -0.016624
    75  H   -0.001921
    76  H    0.001116
    77  C   -0.039737
    78  H    0.004896
    79  H   -0.025998
    80  H    0.022995
    81  H    0.036468
    82  C   -0.160819
    83  C   -0.013621
    84  C    0.167818
    85  C   -0.048810
    86  C   -0.132241
    87  C    0.011803
    88  H   -0.004231
    89  H    0.288956
    90  H    0.012054
    91  H    0.039720
    92  C    1.014162
    93  O   -0.761395
    94  N   -0.722793
    95  C    0.269814
    96  H    0.063572
    97  H   -0.052533
    98  H   -0.028652
    99  C    0.270907
   100  H    0.036009
   101  H   -0.001382
   102  H   -0.056533
   103  H   -0.006575
   104  H    0.038503
   105  H    0.109154
   106  C    1.643520
   107  F   -0.504422
   108  F   -0.542726
   109  F   -0.567617
 Sum of APT charges =  -0.00000
 APT charges with hydrogens summed into heavy atoms:
               1
     1  C    0.274184
     2  C    0.274459
     3  C   -0.066312
     4  C    0.151648
     5  C   -0.278552
     6  C    0.169400
     7  C    0.191188
     8  C   -0.039404
     9  C    0.160670
    10  C   -0.068737
    15  N   -0.326273
    16  N   -0.193973
    17  Ir  -0.648182
    18  O   -0.948873
    19  O   -0.981624
    20  O   -0.930167
    21  B    1.304684
    22  B    1.259741
    23  B    1.199822
    24  O   -0.923825
    25  O   -1.013237
    26  C    0.516078
    27  C    0.476990
    28  C    0.463721
    29  C    0.442924
    30  C    0.486575
    31  C    0.485184
    32  O   -0.985569
    33  C   -0.024717
    37  C   -0.033131
    41  C   -0.055392
    45  C   -0.027667
    49  C   -0.040731
    53  C   -0.014451
    57  C   -0.017324
    61  C   -0.030838
    65  C   -0.020086
    69  C   -0.055952
    73  C   -0.019437
    77  C   -0.037844
    82  C   -0.160819
    83  C   -0.001567
    84  C    0.167818
    85  C   -0.053041
    86  C   -0.092522
    87  C    0.005228
    92  C    1.014162
    93  O   -0.761395
    94  N   -0.722793
    95  C    0.252201
    99  C    0.249001
   106  C    1.643520
   107  F   -0.504422
   108  F   -0.542726
   109  F   -0.567617
 Electronic spatial extent (au):  <R**2>=          28659.6668
 Charge=             -0.0000 electrons
 Dipole moment (field-independent basis, Debye):
    X=             -0.2169    Y=             -1.9620    Z=             -0.4019  Tot=              2.0144
 Quadrupole moment (field-independent basis, Debye-Ang):
   XX=           -331.9817   YY=           -322.4827   ZZ=           -314.6909
   XY=             -0.7227   XZ=             -7.1051   YZ=            -16.6125
 Traceless Quadrupole moment (field-independent basis, Debye-Ang):
   XX=             -8.9299   YY=              0.5690   ZZ=              8.3609
   XY=             -0.7227   XZ=             -7.1051   YZ=            -16.6125
 Octapole moment (field-independent basis, Debye-Ang**2):
  XXX=              4.2559  YYY=             21.5688  ZZZ=             13.1027  XYY=             29.1804
  XXY=             -2.5165  XXZ=            -29.4233  XZZ=              8.6127  YZZ=             23.9110
  YYZ=            -29.6547  XYZ=            -37.0885
 Hexadecapole moment (field-independent basis, Debye-Ang**3):
 XXXX=         -15103.9029 YYYY=         -11474.2745 ZZZZ=         -10059.9215 XXXY=           -123.2530
 XXXZ=            -74.2741 YYYX=            -60.8792 YYYZ=             31.5741 ZZZX=           -187.1585
 ZZZY=           -114.9896 XXYY=          -4441.9366 XXZZ=          -4091.1827 YYZZ=          -3507.8736
 XXYZ=           -281.3863 YYXZ=            -58.5659 ZZXY=            -24.0865
 N-N= 9.635374468902D+03 E-N=-2.543076192403D+04  KE= 2.561534797365D+03
  Exact polarizability:     511.320       6.699     509.548       5.050     -45.636     491.539
 Approx polarizability:     757.932      -3.847     730.056      19.264     -92.497     749.843
   1 Symmetry operations used in ECPInt.
 ECPInt:  NShTT=   55278 NPrTT=  342696 LenC2=   42924 LenP2D=  133776.
 LDataN:  DoStor=T MaxTD1= 8 Len=  415
 Calling FoFJK, ICntrl=    100127 FMM=F ISym2X=0 I1Cent= 0 IOpClX= 0 NMat=1 NMatS=1 NMatT=0.
 Defaulting to unpruned grid for atomic number  77.
 Defaulting to unpruned grid for atomic number  77.
 Defaulting to unpruned grid for atomic number  77.
 Defaulting to unpruned grid for atomic number  77.
 Defaulting to unpruned grid for atomic number  77.
 Defaulting to unpruned grid for atomic number  77.
 Defaulting to unpruned grid for atomic number  77.
 Defaulting to unpruned grid for atomic number  77.
 Defaulting to unpruned grid for atomic number  77.
 Defaulting to unpruned grid for atomic number  77.
 Defaulting to unpruned grid for atomic number  77.
 Defaulting to unpruned grid for atomic number  77.
 Defaulting to unpruned grid for atomic number  77.
 Defaulting to unpruned grid for atomic number  77.
 Defaulting to unpruned grid for atomic number  77.
 Defaulting to unpruned grid for atomic number  77.
 Full mass-weighted force constant matrix:
 Low frequencies --- -758.3125   -8.7513   -2.1865   -0.0007   -0.0004   -0.0002
 Low frequencies ---    7.3943   20.4231   26.2784
 ******    1 imaginary frequencies (negative Signs) ****** 
 Diagonal vibrational polarizability:
       64.6485298     110.8115983      88.4781095
 Harmonic frequencies (cm**-1), IR intensities (KM/Mole), Raman scattering
 activities (A**4/AMU), depolarization ratios for plane and unpolarized
 incident light, reduced masses (AMU), force constants (mDyne/A),
 and normal coordinates:
                      1                      2                      3
                      A                      A                      A
 Frequencies --   -758.3124                19.4454                26.1136
 Red. masses --      1.1157                 5.7142                 6.1539
 Frc consts  --      0.3780                 0.0013                 0.0025
 IR Inten    --    543.4999                 0.1444                 0.1342
  Atom AN      X      Y      Z        X      Y      Z        X      Y      Z
     1   6    -0.00   0.00  -0.00     0.01   0.02   0.00    -0.02   0.02   0.03
     2   6    -0.00  -0.00  -0.00    -0.00   0.02   0.00    -0.04  -0.07  -0.01
     3   6    -0.00  -0.00  -0.00     0.03   0.07   0.03    -0.02  -0.05  -0.01
     4   6    -0.00   0.00   0.00     0.05   0.09   0.05    -0.00   0.00   0.01
     5   6    -0.00   0.00  -0.00     0.04   0.06   0.04     0.00   0.04   0.03
     6   6     0.00   0.00  -0.00    -0.01  -0.02  -0.02    -0.01   0.04   0.05
     7   6     0.00   0.00  -0.00    -0.04  -0.11  -0.06    -0.00   0.02   0.03
     8   6     0.00   0.00  -0.00    -0.05  -0.12  -0.09    -0.00   0.09   0.09
     9   6     0.00   0.00  -0.00    -0.05  -0.06  -0.07    -0.02   0.15   0.14
    10   6     0.00   0.00  -0.00    -0.03  -0.01  -0.04    -0.02   0.12   0.12
    11   1    -0.00   0.00   0.00     0.07   0.13   0.08     0.01   0.02   0.00
    12   1     0.00  -0.00  -0.00    -0.04  -0.15  -0.07     0.00  -0.02  -0.01
    13   1     0.00   0.00  -0.00    -0.06  -0.05  -0.09    -0.02   0.21   0.19
    14   1     0.00   0.00  -0.00    -0.03   0.04  -0.03    -0.03   0.16   0.16
    15   7    -0.00   0.00  -0.00    -0.01  -0.00  -0.01    -0.03  -0.03   0.01
    16   7     0.01   0.01  -0.01    -0.02  -0.06  -0.03    -0.01  -0.00   0.01
    17  77    -0.00  -0.01  -0.00    -0.00  -0.02  -0.01    -0.02  -0.01   0.01
    18   8    -0.00   0.00  -0.00    -0.00   0.05   0.04    -0.02  -0.00  -0.02
    19   8     0.00   0.00   0.00    -0.02  -0.00  -0.01    -0.04   0.01   0.01
    20   8     0.00   0.00  -0.00     0.03  -0.01  -0.03    -0.05  -0.01   0.01
    21   5    -0.01   0.03   0.00    -0.01  -0.01  -0.01    -0.03  -0.01   0.00
    22   5     0.00  -0.01   0.01    -0.02   0.00   0.01    -0.02  -0.01  -0.01
    23   5     0.01   0.01  -0.00    -0.00  -0.02  -0.01    -0.04  -0.01   0.01
    24   8    -0.00   0.00   0.00    -0.03  -0.02   0.01    -0.03  -0.01   0.00
    25   8    -0.00   0.00   0.00    -0.05   0.00   0.01    -0.00  -0.03  -0.01
    26   6     0.00  -0.00   0.00    -0.05   0.07   0.05     0.00  -0.04  -0.03
    27   6    -0.00   0.00  -0.00    -0.04   0.09   0.07    -0.01  -0.02  -0.03
    28   6    -0.00   0.00   0.00     0.02  -0.01  -0.02    -0.04  -0.01   0.01
    29   6    -0.00   0.00   0.00    -0.00  -0.02   0.00    -0.02  -0.00  -0.00
    30   6     0.00  -0.00  -0.00    -0.01  -0.02  -0.01    -0.05   0.02   0.01
    31   6    -0.00   0.00   0.00    -0.01  -0.03  -0.02    -0.04   0.00   0.01
    32   8    -0.00   0.00   0.01    -0.01  -0.02  -0.01    -0.02  -0.01   0.00
    33   6    -0.00   0.00  -0.00    -0.01   0.12   0.11    -0.01  -0.01  -0.05
    34   1    -0.00   0.00   0.00    -0.03   0.15   0.13    -0.00  -0.02  -0.06
    35   1     0.00   0.00   0.00     0.00   0.13   0.12    -0.02   0.01  -0.05
    36   1    -0.00   0.00  -0.00     0.03   0.11   0.11    -0.01  -0.00  -0.07
    37   6    -0.00   0.00  -0.00    -0.08   0.10   0.05    -0.02  -0.02  -0.00
    38   1     0.00   0.00   0.00    -0.06   0.08   0.05    -0.03   0.00   0.00
    39   1    -0.00  -0.00  -0.00    -0.10   0.13   0.06    -0.01  -0.03  -0.01
    40   1     0.00   0.00   0.00    -0.09   0.09   0.01    -0.02  -0.03   0.01
    41   6    -0.00  -0.00  -0.00     0.02   0.08   0.09     0.00  -0.04  -0.06
    42   1     0.00   0.00  -0.00     0.02   0.06   0.08     0.01  -0.05  -0.06
    43   1     0.00   0.00  -0.00     0.02   0.13   0.12     0.01  -0.05  -0.08
    44   1    -0.00  -0.00   0.00     0.06   0.05   0.09    -0.01  -0.02  -0.07
    45   6    -0.00   0.00  -0.00    -0.11   0.11   0.05     0.02  -0.07  -0.02
    46   1    -0.00  -0.00  -0.00    -0.12   0.17   0.08     0.02  -0.07  -0.03
    47   1     0.00  -0.00  -0.00    -0.11   0.10   0.04     0.03  -0.08  -0.02
    48   1     0.00   0.00   0.00    -0.16   0.10   0.01     0.02  -0.06   0.00
    49   6    -0.00  -0.00   0.00    -0.02  -0.03   0.01    -0.02   0.05   0.01
    50   1     0.00  -0.00  -0.00    -0.03  -0.04   0.02    -0.02   0.06   0.00
    51   1    -0.00  -0.00  -0.00     0.00  -0.04   0.02    -0.03   0.06   0.00
    52   1     0.00  -0.00   0.00    -0.02  -0.03   0.00    -0.00   0.04   0.01
    53   6     0.00  -0.00   0.00    -0.00  -0.02  -0.03    -0.07   0.03   0.01
    54   1    -0.00  -0.00   0.00     0.00  -0.04  -0.03    -0.08   0.04   0.01
    55   1     0.00   0.00  -0.00    -0.00  -0.02  -0.03    -0.07   0.04   0.01
    56   1    -0.00  -0.00   0.00     0.00  -0.01  -0.04    -0.09   0.02   0.01
    57   6    -0.00  -0.00   0.00    -0.00  -0.04  -0.01    -0.03   0.02   0.01
    58   1    -0.00   0.00   0.00    -0.01  -0.04  -0.02    -0.03   0.03   0.02
    59   1    -0.00  -0.00   0.00    -0.00  -0.05  -0.01    -0.02   0.01  -0.00
    60   1    -0.00  -0.00   0.00     0.00  -0.03  -0.00    -0.02   0.02   0.00
    61   6    -0.00   0.00   0.00    -0.00  -0.02  -0.03    -0.07  -0.02   0.01
    62   1     0.00  -0.00   0.00    -0.00  -0.03  -0.03    -0.06  -0.04   0.01
    63   1     0.00  -0.00  -0.00    -0.00  -0.03  -0.03    -0.08  -0.01   0.01
    64   1    -0.00   0.00  -0.00    -0.01  -0.02  -0.03    -0.07  -0.02   0.01
    65   6    -0.00   0.00   0.00    -0.02  -0.02  -0.01     0.00  -0.01  -0.01
    66   1    -0.00   0.00   0.00    -0.04  -0.03   0.01     0.01  -0.00  -0.02
    67   1     0.00   0.00   0.00    -0.04  -0.03  -0.03     0.01  -0.02  -0.00
    68   1    -0.00   0.00  -0.00    -0.01  -0.02  -0.01     0.00  -0.00  -0.02
    69   6    -0.00   0.00   0.00     0.01  -0.01   0.04    -0.03   0.02  -0.01
    70   1    -0.00   0.00   0.00    -0.00   0.00   0.06    -0.02   0.03  -0.02
    71   1    -0.00  -0.00   0.00     0.04  -0.02   0.05    -0.02   0.03  -0.02
    72   1    -0.00   0.00   0.00     0.02  -0.02   0.03    -0.05   0.03  -0.01
    73   6    -0.00   0.00   0.00     0.05  -0.02  -0.02    -0.05  -0.01   0.01
    74   1    -0.00   0.00   0.00     0.04  -0.02  -0.01    -0.04  -0.01   0.01
    75   1    -0.00   0.00   0.00     0.07  -0.01  -0.04    -0.06  -0.02   0.02
    76   1    -0.00   0.00   0.00     0.07  -0.03   0.00    -0.06  -0.00  -0.00
    77   6    -0.00   0.00   0.00     0.00   0.01  -0.05    -0.03  -0.02   0.02
    78   1    -0.00   0.00   0.00     0.02   0.02  -0.06    -0.04  -0.03   0.03
    79   1     0.00   0.00   0.00    -0.01   0.01  -0.05    -0.02  -0.02   0.03
    80   1     0.00   0.00  -0.00    -0.01   0.01  -0.05    -0.02  -0.02   0.03
    81   1     0.01   0.00  -0.01    -0.07  -0.16  -0.11    -0.00   0.11   0.10
    82   6     0.00   0.00   0.01     0.02  -0.03  -0.01     0.08  -0.04  -0.06
    83   6     0.01  -0.00  -0.00     0.06  -0.04  -0.03     0.13  -0.06  -0.10
    84   6    -0.05   0.02   0.05     0.03  -0.03  -0.03     0.02  -0.02  -0.01
    85   6     0.00  -0.00  -0.00     0.10  -0.05  -0.05     0.12  -0.06  -0.09
    86   6    -0.01   0.00   0.01     0.08  -0.03  -0.05     0.01  -0.02  -0.00
    87   6     0.00  -0.01  -0.01     0.11  -0.05  -0.07     0.06  -0.04  -0.04
    88   1    -0.01   0.00   0.00     0.13  -0.06  -0.06     0.16  -0.07  -0.13
    89   1     0.50   0.83  -0.24     0.02   0.00  -0.02    -0.01  -0.00   0.00
    90   1     0.01  -0.01  -0.01     0.05  -0.05  -0.02     0.18  -0.08  -0.14
    91   1    -0.04  -0.00   0.04     0.09  -0.03  -0.06    -0.04  -0.00   0.04
    92   6    -0.00  -0.00   0.01    -0.01  -0.02   0.01     0.11  -0.04  -0.07
    93   8    -0.00   0.00  -0.00    -0.02  -0.03   0.04     0.11  -0.03  -0.09
    94   7    -0.00   0.00   0.00    -0.04  -0.01  -0.01     0.13  -0.05  -0.05
    95   6    -0.00  -0.00   0.00    -0.07   0.00   0.01     0.15  -0.06  -0.07
    96   1    -0.00  -0.00   0.00    -0.07  -0.00   0.04     0.14  -0.08  -0.11
    97   1    -0.00   0.00  -0.00    -0.10   0.01   0.00     0.20  -0.06  -0.06
    98   1    -0.00   0.00  -0.00    -0.07   0.00  -0.00     0.13  -0.05  -0.04
    99   6    -0.00  -0.00   0.00    -0.04   0.00  -0.05     0.14  -0.04  -0.00
   100   1    -0.00   0.01   0.01    -0.02  -0.00  -0.06     0.12  -0.04   0.01
   101   1     0.00   0.00  -0.01    -0.04   0.01  -0.06     0.12  -0.04   0.02
   102   1     0.00  -0.01   0.00    -0.06   0.01  -0.05     0.18  -0.04   0.00
   103   1     0.01  -0.01  -0.01     0.15  -0.05  -0.09     0.05  -0.03  -0.03
   104   1    -0.00  -0.00  -0.00     0.03   0.09   0.05    -0.03  -0.08  -0.03
   105   1    -0.00  -0.00  -0.00    -0.01  -0.00  -0.02    -0.05  -0.10  -0.02
   106   6    -0.00  -0.00  -0.00     0.06   0.08   0.06     0.02   0.09   0.03
   107   9     0.00  -0.00  -0.00     0.07   0.01   0.06     0.03   0.10   0.03
   108   9     0.00   0.00   0.00     0.11   0.11   0.10     0.06   0.11   0.02
   109   9     0.00  -0.00   0.00     0.02   0.12   0.03    -0.01   0.13   0.06
                      4                      5                      6
                      A                      A                      A
 Frequencies --     32.1620                34.0353                39.2552
 Red. masses --      4.6448                 5.4210                 3.9573
 Frc consts  --      0.0028                 0.0037                 0.0036
 IR Inten    --      0.3710                 0.3025                 0.3378
  Atom AN      X      Y      Z        X      Y      Z        X      Y      Z
     1   6     0.01   0.01  -0.02    -0.00   0.02  -0.01    -0.00  -0.00  -0.00
     2   6     0.03  -0.02  -0.02     0.02  -0.00  -0.01    -0.00  -0.01  -0.01
     3   6     0.04  -0.01  -0.04     0.02  -0.02  -0.04     0.00  -0.01  -0.01
     4   6     0.04   0.01  -0.05     0.00  -0.02  -0.06     0.00  -0.01  -0.01
     5   6     0.02   0.02  -0.04    -0.01   0.00  -0.05    -0.00  -0.00  -0.01
     6   6     0.00   0.03  -0.01    -0.01   0.04   0.00     0.00   0.01   0.00
     7   6    -0.01   0.03   0.00    -0.01   0.02  -0.00     0.01   0.02   0.01
     8   6    -0.02   0.06   0.02    -0.01   0.06   0.03     0.01   0.04   0.03
     9   6    -0.02   0.07   0.02    -0.02   0.10   0.05     0.01   0.04   0.03
    10   6    -0.01   0.06   0.01    -0.01   0.08   0.04     0.00   0.02   0.02
    11   1     0.04   0.02  -0.06    -0.00  -0.04  -0.09     0.00  -0.01  -0.01
    12   1    -0.01   0.02  -0.00    -0.01  -0.01  -0.02     0.01   0.03   0.01
[...]
 0002651,0.00000333,0.00000932,0.00001650,-0.00001757,-0.00004003,-0.00
 000778,-0.00000396,0.00001988,0.00013110,-0.00002736,-0.00020122,-0.00
 026258,0.00006010,-0.00017128,0.09447752,-0.24295004,0.01067493,0.0240
 0053,-0.01189272,0.03558586,-0.12756988,0.35906769,-0.00003280,0.00143
 933,-0.00330250,0.00045802,-0.00022548,0.00006367,0.00052341,-0.001343
 60,0.00140260,0.00169617,-0.00062766,-0.00600114,0.01368101,-0.0178243
 9,0.00715316,0.00023329,0.00035584,-0.00064957,-0.00006982,-0.00009531
 ,-0.00002509,0.00005481,-0.00007879,0.00013522,-0.00007538,0.00003617,
 0.00014891,0.00014203,-0.00011147,0.00018367,0.00368806,-0.00295318,-0
 .00156317,0.00005332,-0.00000935,0.00000694,-0.00000561,-0.00007784,0.
 00002588,-0.00002091,-0.00019211,-0.00016957,0.00194470,-0.00080822,-0
 .00009417,0.00006055,-0.00015556,0.00033528,0.00000873,0.00027836,-0.0
 0008503,0.00021386,-0.00000818,0.00013504,0.00010725,0.00009978,0.0000
 5142,-0.00001660,0.00021912,0.00025877,-0.00020380,-0.00008573,-0.0001
 5476,-0.00030533,-0.00007689,-0.00026049,-0.00005795,-0.00031545,-0.00
 038554,-0.00002627,0.00032976,0.00033252,0.00015160,-0.00003785,0.0002
 6548,-0.00006022,0.00001911,-0.00001883,-0.00005433,-0.00001650,-0.000
 07828,0.00002011,-0.00012254,-0.00000014,0.00026370,-0.00029064,-0.000
 32448,-0.00003388,-0.00001097,-0.00000914,-0.00006579,-0.00005751,0.00
 005053,0.00021556,0.00001723,0.00006044,0.00000889,0.00000629,0.000011
 63,0.00001109,-0.00000247,0.00000586,-0.00000321,-0.00000116,-0.000001
 94,-0.00000314,0.00000195,-0.00000203,0.00001482,0.00000603,0.00000775
 ,-0.00000684,-0.00000279,0.00000076,0.00001092,0.00000616,0.00000930,-
 0.00000145,-0.00000778,-0.00000575,0.00001940,0.00000063,0.00000067,-0
 .00000609,-0.00000387,0.00000116,0.00000742,-0.00000651,0.00000384,-0.
 00000526,0.00000865,0.00000447,0.00001619,-0.00000875,0.00000051,0.000
 00368,0.00000392,0.00000994,-0.00000387,-0.00000975,0.00000939,0.00000
 371,0.00000753,-0.00000623,0.00000691,0.00000074,0.00000721,0.00000860
 ,-0.00000098,0.00000623,0.00000156,0.00000090,-0.00000494,-0.00000589,
 0.00000968,-0.00000240,0.00001264,-0.00000913,0.00000782,-0.00000288,0
 .00000430,-0.00000060,0.00001299,0.00000027,0.00000688,-0.00000757,0.0
 0000075,-0.00001023,0.00000180,0.00000406,-0.00000902,0.00000738,0.000
 00754,-0.00000463,0.00000144,-0.00000253,0.00001385,-0.00000155,-0.000
 00569,0.00000008,-0.00001538,-0.00000258,-0.00004243,0.00000803,0.0000
 0165,0.00005171,0.00002221,0.00000921,-0.00000500,-0.00002126,-0.00001
 622,-0.00001668,-0.00012057,0.00004820,0.00003012,0.00002335,-0.000017
 07,-0.00001250,-0.00003273,-0.00003940,0.00003286,0.00001534,0.0000274
 5,0.00001220,-0.00033928,0.00018775,0.00000281,-0.00007184,-0.00001779
 ,-0.00015095,0.00006488,0.00005994,0.00006088,0.00029412,-0.00009713,0
 .00005362,0.00004665,0.00003300,-0.00001083,0.00000223,0.00001335,0.00
 000877,-0.00001799,-0.00000411,0.00000709,-0.00000460,-0.00002049,0.00
 002681,-0.00001937,0.00003767,-0.00000100,-0.00000908,-0.00000974,-0.0
 0000246,0.00000489,0.00000835,-0.00000240,-0.00001076,-0.00001213,0.00
 001178,-0.00001007,-0.00001839,-0.00000644,-0.00000820,-0.00002135,0.0
 0000131,0.00002034,0.00001725,0.00000355,-0.00004821,0.00009286,-0.000
 03870,0.00000112,-0.00000796,0.00001522,-0.00000812,-0.00000128,-0.000
 00117,-0.00001411,-0.00001690,0.00000871,-0.00000066,-0.00001423,0.000
 00027,0.00000181,0.00000976,0.00003004,-0.00000094,0.00000615,-0.00000
 512,0.00001569,0.00000603,-0.00000465,-0.00029484,0.00019954,-0.000029
 18,0.00018716,-0.00028391,-0.00002289,0.00009662,-0.00005561,-0.000052
 01,-0.00001156,0.00001458,0.00000793,0.00001701,0.00003228,0.00002744,
 0.00001177,-0.00002921,-0.00001433,-0.00003010,-0.00000134,0.00001681,
 -0.00007593,0.00003334,0.00001689,0.00000828,-0.00000835,0.00000560,0.
 00001185,0.00000737,-0.00000087,0.00001078,-0.00000732,-0.00001371,0.0
 0000691,-0.00001300,0.00000793,-0.00009454,0.00003803,-0.00002798,-0.0
 0001348,-0.00006782,0.00007974,-0.00526251,0.01557281,-0.08175608,-0.0
 3924934,0.05130740,-0.02898227,0.02140698,-0.05257162,0.10070334,0.001
 78732,-0.00259647,0.00117579,-0.00045758,-0.00016721,0.00006369,-0.000
 17511,0.00163461,0.00191400,-0.00402111,0.00229843,-0.00198761,-0.0305
 8639,-0.02847259,0.00919627,-0.00078744,-0.00156223,0.00097489,0.00032
 010,0.00040638,-0.00029131,-0.00043469,0.00004282,-0.00026330,-0.00007
 289,-0.00020830,0.00056861,-0.00055319,0.00211337,-0.00189027,-0.00045
 227,-0.00116350,-0.00030338,0.00001520,0.00003656,-0.00003188,-0.00002
 480,0.00017888,-0.00018013,-0.00544846,0.00443320,-0.00228272,-0.00055
 094,0.00117456,0.00245199,0.00044436,0.00023140,-0.00044609,0.00015504
 ,0.00004656,0.00014305,-0.00046848,0.00006069,-0.00017227,-0.00033190,
 -0.00016819,0.00010234,-0.00024299,-0.00008738,-0.00028826,0.00047188,
 0.00006970,0.00001013,0.00062447,-0.00005994,0.00031502,0.00056264,-0.
 00027779,0.00042082,-0.00046935,0.00001175,-0.00024994,-0.00040789,0.0
 0013073,-0.00035798,0.00021032,-0.00009126,0.00007455,0.00011891,0.000
 00180,0.00013448,0.00009533,0.00006480,0.00011662,0.00022901,0.0001525
 3,-0.00002498,0.00012790,0.00003599,-0.00010795,0.00018383,0.00012700,
 -0.00014635,-0.00048024,-0.00003842,0.00012666,-0.00001568,-0.00000339
 ,-0.00000735,-0.00001988,0.00000285,-0.00001759,0.00000217,-0.00000481
 ,0.00001085,0.00000598,0.00001000,0.00000460,-0.00000300,-0.00000199,-
 0.00002008,0.00001524,0.00000062,0.00000614,-0.00002356,-0.00000823,-0
 .00002342,0.00001236,0.00000310,0.00001954,-0.00002819,0.00001616,-0.0
 0001180,0.00001704,-0.00000438,0.00000274,-0.00003044,0.00001530,-0.00
 001087,0.00001018,-0.00001423,0.00000205,-0.00002471,-0.00000117,-0.00
 001013,-0.00002812,-0.00000035,-0.00001348,0.00001756,0.00000377,-0.00
 000553,0.00001119,0.00000698,0.00001285,-0.00002135,0.00000296,-0.0000
 0182,-0.00000673,0.00000334,-0.00001585,-0.00001838,-0.00000472,0.0000
 2621,0.00001469,-0.00000967,-0.00000526,-0.00000984,-0.00001138,-0.000
 00942,-0.00000785,-0.00000590,0.00002390,-0.00000981,-0.00000052,-0.00
 001954,0.00000495,0.00002131,0.00000017,-0.00001675,0.00000357,0.00000
 965,-0.00001985,-0.00001829,0.00001340,0.00001464,0.00000181,-0.000014
 12,-0.00000805,0.00001965,0.00000249,0.00001538,-0.00002427,0.00003408
 ,0.00000075,0.00001658,-0.00009528,-0.00006128,-0.00002624,0.00001740,
 0.00005576,0.00004897,0.00002488,-0.00005070,0.00000244,0.00005551,-0.
 00000657,0.00005827,-0.00001848,-0.00003893,-0.00002565,0.00004238,-0.
 00000791,-0.00002610,-0.00003817,-0.00013928,0.00009077,0.00001949,-0.
 00009893,0.00014782,-0.00004346,-0.00004535,-0.00007257,-0.00004871,0.
 00024576,-0.00011014,0.00014922,-0.00002006,0.00002975,-0.00003744,0.0
 0001164,-0.00001764,0.00000966,-0.00004990,0.00000671,-0.00002423,0.00
 001204,-0.00000859,0.00005433,-0.00004028,0.00002688,-0.00003399,-0.00
 003955,0.00000570,-0.00001637,0.00000342,-0.00002687,0.00000600,0.0000
 2027,0.00000224,-0.00000121,-0.00000231,-0.00001725,-0.00003233,0.0000
 1020,0.00008471,-0.00002747,-0.00003519,-0.00003796,-0.00002187,0.0001
 3107,-0.00019864,-0.00003685,0.00002861,0.00003192,-0.00001369,0.00005
 789,0.00011301,0.00004657,-0.00001643,-0.00000172,0.00000220,0.0000044
 0,0.00005343,-0.00000197,-0.00007538,-0.00020392,-0.00001198,0.0000113
 3,0.00002461,0.00004931,0.00001316,-0.00002412,0.00000246,0.00010180,-
 0.00028790,-0.00005195,0.00018578,0.00055159,0.00017633,0.00004736,0.0
 0014245,0.00009121,-0.00002391,-0.00004401,-0.00003105,-0.00006311,-0.
 00008097,-0.00008168,-0.00003931,0.00008159,0.00004719,0.00008051,0.00
 001656,-0.00005058,0.00007897,-0.00007687,-0.00005375,-0.00000400,-0.0
 0000279,-0.00002206,0.00000852,-0.00001627,-0.00001735,-0.00000435,0.0
 0001596,0.00004390,-0.00000450,0.00002786,-0.00002225,-0.00024657,0.00
 011828,0.00043264,0.00016375,-0.00037035,-0.00026778,-0.20659863,-0.10
 086135,0.00982977,-0.02998899,-0.02693108,-0.03529821,0.01905523,-0.01
 222308,0.00091826,0.25814340,0.00005057,-0.00321516,0.00187006,-0.0003
 2639,0.00032777,-0.00045911,0.00009466,0.00050924,-0.00009228,0.000312
 21,0.00059385,0.00017429,-0.01224949,0.00399600,0.00077291,-0.00051262
 ,-0.00075609,0.00122844,0.00028401,0.00019042,-0.00024478,-0.00029781,
 -0.00008698,0.00034702,0.00196026,0.00002093,0.00000424,-0.00202096,-0
 .00244802,-0.00025086,-0.00002763,-0.00023824,-0.00082871,-0.00011068,
 -0.00004857,-0.00003031,-0.00008127,0.00000226,-0.00014029,0.00334170,
 -0.00049123,0.00132896,-0.00122493,0.00095305,0.00090425,0.00116201,0.
 00029460,-0.00015676,0.00004340,0.00022827,0.00031953,-0.00002564,0.00
 004886,-0.00006456,-0.00000379,0.00011679,-0.00000276,-0.00015416,0.00
 038271,0.00000249,-0.00001867,-0.00027515,0.00007922,0.00003379,-0.000
 09201,0.00018573,0.00028649,-0.00089784,0.00010866,-0.00044010,0.00062
 397,0.00008356,0.00005723,0.00011708,-0.00015644,-0.00002997,-0.000020
 19,-0.00003206,-0.00000620,-0.00004226,0.00001851,0.00008861,-0.000213
 67,0.00012078,0.00033037,-0.00018828,-0.00040459,0.00001901,-0.0000125
 1,-0.00000093,0.00002782,-0.00006640,-0.00001939,-0.00007345,0.0001601
 9,-0.00008788,0.00000235,0.00001086,-0.00000654,-0.00000365,-0.0000014
 4,-0.00000124,0.00000709,-0.00000099,-0.00000431,-0.00000419,0.0000096
 9,0.00000484,0.00001415,0.00001142,-0.00001180,0.00000927,0.00000231,-
 0.00000588,-0.00000276,0.00000032,-0.00000114,0.00000364,-0.00001731,0
 .00001154,-0.00000598,-0.00000094,0.00001016,0.00000329,0.00000765,-0.
 00001873,0.00000369,0.00000460,-0.00000085,-0.00000559,-0.00000070,0.0
 0000810,-0.00000297,-0.00001477,0.00000864,0.00000156,0.00000141,-0.00
 000074,0.00000183,0.00000488,-0.00001247,0.00000054,0.00000892,0.00000
 450,-0.00000487,0.00000193,-0.00000917,-0.00000542,-0.00000142,-0.0000
 0257,-0.00000229,-0.00000039,0.00000336,0.00000199,0.00000693,0.000004
 06,0.00001638,-0.00001602,-0.00000824,-0.00000086,0.00000530,0.0000072
 5,0.00000010,-0.00000053,-0.00000439,-0.00000766,0.00001783,-0.0000015
 8,-0.00000392,0.00002325,-0.00000677,0.00000323,-0.00000072,-0.0000017
 7,0.00000396,-0.00000999,-0.00000121,-0.00001420,0.00001089,0.00000711
 ,0.00000254,0.00001205,-0.00001287,-0.00000219,-0.00000329,-0.00002866
 ,-0.00001379,0.00000403,0.00000046,0.00002393,0.00000454,0.00001288,-0
 .00005470,0.00003503,0.00008142,0.00000320,0.00002196,-0.00007210,-0.0
 0006577,-0.00003451,0.00004159,0.00001568,0.00001956,-0.00000454,-0.00
 023140,0.00001189,0.00029612,0.00011142,0.00003333,-0.00024917,0.00002
 170,0.00002907,0.00003783,0.00020693,-0.00005359,0.00005151,-0.0000117
 5,0.00004470,-0.00002081,0.00001894,0.00002605,0.00001636,-0.00005796,
 -0.00000354,-0.00001667,0.00001790,-0.00004206,0.00005289,-0.00005585,
 0.00007338,-0.00004680,-0.00004600,-0.00000889,-0.00001720,0.00001720,
 0.00001236,0.00000632,0.00000893,-0.00001932,0.00000683,0.00020980,0.0
 0000226,0.00009380,0.00003077,0.00004973,-0.00000021,0.00000799,-0.000
 02578,-0.00001071,0.00003041,-0.00012625,0.00001658,0.00002825,0.00003
 981,-0.00002345,0.00005151,0.00003484,-0.00001811,0.00001300,0.0000263
 1,-0.00003157,-0.00000947,0.00002336,0.00000415,-0.00003929,-0.0000850
 5,-0.00004713,-0.00000517,0.00002084,0.00003410,-0.00003331,-0.0000054
 4,0.00001423,-0.00029392,-0.00014721,0.00017664,0.00032904,0.00019951,
 -0.00004195,0.00016984,0.00012121,-0.00013437,0.00001396,-0.00006523,0
 .00003669,-0.00003405,-0.00004314,-0.00001061,-0.00001075,0.00002861,-
 0.00000278,0.00003994,0.00002709,-0.00003000,-0.00002341,-0.00000963,-
 0.00002720,-0.00001245,0.00000559,0.00000033,0.00002130,-0.00000707,-0
 .00000536,0.00000754,-0.00000109,-0.00000147,-0.00000935,0.00001664,0.
 00000064,-0.00007500,-0.00005424,0.00006165,0.00001256,-0.00010553,-0.
 00011012,-0.09542036,-0.15055938,0.00385344,-0.02556030,-0.00317387,-0
 .02294618,-0.03148250,-0.08359489,0.00831350,0.16163740,0.23770888,-0.
 00097538,0.00278753,-0.00130484,0.00068996,-0.00054120,0.00020552,-0.0
 0026057,-0.00116256,-0.00010688,-0.00031035,-0.00123145,0.00106688,0.0
 2288667,0.01224072,0.00590686,0.00033516,0.00087727,-0.00085377,-0.000
 19223,-0.00024697,0.00006087,0.00018577,-0.00010911,0.00005040,-0.0004
 7171,0.00005722,0.00009634,0.00031741,0.00102484,0.00080467,-0.0000286
 1,0.00035967,0.00026033,0.00005673,0.00000400,0.00002115,0.00000596,-0
 .00006795,0.00005814,-0.00186057,0.00050456,-0.00110418,0.00057163,-0.
 00079861,-0.00201842,-0.00018722,-0.00028786,0.00033837,-0.00009371,0.
 00018523,-0.00003174,0.00018656,-0.00001328,0.00012875,0.00012008,0.00
 009779,0.00006401,0.00000555,0.00020062,0.00027401,-0.00021948,-0.0000
 5462,-0.00022236,-0.00026268,-0.00001895,-0.00027122,-0.00014052,-0.00
 021283,-0.00041641,0.00003748,0.00032483,0.00036227,0.00011868,-0.0000
 3885,0.00024557,-0.00005209,0.00001289,-0.00001969,-0.00005207,-0.0000
 1244,-0.00007526,0.00001493,-0.00011414,-0.00000308,0.00025143,-0.0003
 6213,-0.00032220,-0.00003993,-0.00001095,-0.00001008,-0.00008575,-0.00
 007466,0.00006403,0.00026250,0.00000467,0.00009060,0.00000824,0.000004
 25,0.00001005,0.00001032,-0.00000194,0.00000622,-0.00000435,-0.0000012
 4,-0.00000159,-0.00000300,0.00000181,-0.00000256,0.00001252,0.00000628
 ,0.00000611,-0.00000844,-0.00000311,0.00000117,0.00001084,0.00000485,0
 .00000945,-0.00000210,-0.00000595,-0.00000668,0.00001800,0.00000011,-0
 .00000091,-0.00000623,-0.00000428,0.00000092,0.00000734,-0.00000538,0.
 00000380,-0.00000569,0.00000795,0.00000500,0.00001275,-0.00000579,0.00
 000015,0.00000329,0.00000321,0.00000835,-0.00000397,-0.00000989,0.0000
 0946,0.00000324,0.00000702,-0.00000634,0.00000694,-0.00000011,0.000007
 97,0.00001000,-0.00000057,0.00000724,0.00000198,0.00000076,-0.00000552
 ,-0.00000656,0.00000992,-0.00000267,0.00001328,-0.00000893,0.00001019,
 -0.00000271,0.00000372,-0.00000172,0.00001386,0.00000108,0.00000803,-0
 .00000800,-0.00000041,-0.00000994,0.00000286,0.00000400,-0.00001024,0.
 00000952,0.00000939,-0.00000469,0.00000122,-0.00000495,0.00001656,-0.0
 0000291,-0.00000656,-0.00000047,-0.00001823,0.00000819,-0.00004325,0.0
 0000899,-0.00000470,0.00006055,0.00003060,0.00001024,-0.00000768,-0.00
 002721,-0.00002387,-0.00001724,-0.00011052,0.00004837,0.00003743,0.000
 02258,-0.00001952,-0.00001338,-0.00003167,-0.00003858,0.00002841,0.000
 01377,0.00002951,0.00001321,-0.00034089,0.00021978,-0.00002030,0.00006
 924,-0.00004100,-0.00008472,0.00004450,0.00005453,0.00004718,0.0003441
 1,-0.00009649,0.00007131,0.00004928,0.00002847,-0.00000776,0.00000109,
 0.00001284,0.00000836,-0.00001367,-0.00000397,0.00000894,-0.00000426,-
 0.00001692,0.00002506,-0.00001614,0.00003308,-0.00000069,-0.00000600,-
 0.00000857,-0.00000099,0.00000496,0.00000987,-0.00000167,-0.00001165,-
 0.00001199,0.00001127,-0.00005012,-0.00001138,-0.00001905,0.00000456,-
 0.00000293,0.00000435,0.00002592,0.00001764,0.00001165,-0.00003376,0.0
 0004768,-0.00003587,0.00000386,-0.00000254,0.00001595,-0.00000755,0.00
 000799,0.00000470,-0.00001558,-0.00002087,0.00001298,-0.00000064,-0.00
 001587,0.00000072,-0.00000845,-0.00000010,0.00002035,-0.00000042,0.000
 01423,-0.00000272,0.00001925,0.00000100,-0.00000159,-0.00049736,0.0002
 6359,-0.00005293,0.00033346,-0.00041639,-0.00002277,0.00015435,-0.0000
 5795,-0.00008824,-0.00001012,0.00000857,0.00001450,0.00002043,0.000028
 32,0.00004134,0.00001599,-0.00003768,-0.00001971,-0.00003297,0.0000004
 3,0.00002019,-0.00010230,0.00004554,0.00001574,0.00001043,-0.00001187,
 0.00000590,0.00001968,0.00000859,-0.00000209,0.00001691,-0.00001074,-0
 .00001698,0.00000866,-0.00001373,0.00000937,0.00003815,0.00001529,-0.0
 0009162,-0.00009004,0.00023154,0.00018968,0.01079520,0.00571716,-0.075
 67272,-0.05006153,-0.03325102,-0.01558243,0.00289466,0.00777471,0.0124
 2904,0.01563458,0.00615298,0.07530221\\-0.00000140,0.00000609,0.000003
 99,-0.00000089,-0.00000053,0.00000030,-0.00000014,-0.00000396,0.000006
 83,0.00000175,0.00000342,-0.00000055,-0.00000242,-0.00000118,0.0000041
 3,-0.00000237,-0.00000083,0.00000064,0.00000188,-0.00000473,0.00000746
 ,-0.00000221,0.00000632,-0.00000439,0.00000494,0.00000042,0.00000531,-
 0.00000334,-0.00000018,-0.00000089,0.00000128,0.00000013,-0.00000039,-
 0.00000324,0.00000150,-0.00000020,0.00000035,0.00000310,-0.00000008,0.
 00000243,0.00000344,0.00000212,0.00000255,0.00000202,-0.00000325,-0.00
 000038,0.00000474,0.00000146,0.00000135,0.00000332,-0.00000345,-0.0000
 0035,0.00000640,0.00000173,-0.00000312,-0.00000141,-0.00000720,0.00000
 025,0.00000604,-0.00000335,0.00000314,0.00000221,0.00000151,0.00000129
 ,-0.00000517,0.00000258,0.00000143,0.00000236,0.00000127,-0.00000117,0
 .00000211,-0.00000130,0.00000183,-0.00000561,-0.00000058,0.00000261,0.
 00000568,0.00000065,-0.00000248,0.00000592,-0.00000042,0.00000505,0.00
 000189,0.,0.00000698,-0.00000322,0.00000124,0.00000215,-0.00000240,0.0
 0000100,0.00000036,-0.00000046,0.00000628,-0.00000176,-0.00000597,-0.0
 0000368,-0.00000457,-0.00000412,-0.00000257,0.00000163,-0.00000116,0.0
 0000299,0.00000137,0.00000058,-0.00000193,0.00000045,0.00000219,0.0000
 0031,-0.00000713,-0.00000218,-0.00000418,0.00000142,-0.00000159,0.0000
 0226,0.00000346,0.00000112,0.00000202,0.00000689,-0.00001248,-0.000003
 89,-0.00000742,-0.00000241,-0.00000055,0.00000065,0.00000145,-0.000000
 64,0.00000345,-0.00000071,0.00000078,0.00000023,0.00000049,0.00000374,
 -0.00000216,0.00000351,0.00000141,0.00000146,-0.00000027,0.,0.00000041
 ,0.00000039,0.00000042,0.00000114,-0.00000021,-0.00000150,-0.00000034,
 0.00000219,-0.00000246,0.00000070,-0.00000133,0.00000092,-0.00000085,-
 0.00000297,-0.00000004,-0.00000043,-0.00000232,-0.00000062,0.00000399,
 -0.00000301,-0.00000349,0.00000035,-0.00000131,-0.00000163,-0.00000089
 ,-0.00000114,-0.00000200,-0.00000199,0.00000048,-0.00000110,0.00000457
 ,0.00000098,-0.00000421,-0.00000206,-0.00000324,0.00000086,-0.00000354
 ,-0.00000272,-0.00000256,0.00000024,-0.00000338,0.00000015,-0.00000109
 ,0.00000095,-0.00000421,0.00000038,-0.00000118,0.00000070,0.00000041,-
 0.00000113,-0.00000033,0.00000035,-0.00000188,-0.00000058,-0.00000519,
 0.00000062,-0.00000703,0.00000462,0.00000015,0.00000087,0.00000294,-0.
 00000035,-0.00000253,0.00000098,0.00000268,0.00000106,-0.00000207,-0.0
 0000201,0.00000206,-0.00000510,-0.00000127,-0.00000195,0.00000172,0.00
 000201,-0.00000097,0.00000105,0.00000174,-0.00000343,0.00000408,0.0000
 0569,-0.00000629,0.00000117,-0.00000204,-0.00000118,0.00000212,0.00000
 080,0.,-0.00000296,-0.00000079,0.00000188,-0.00000548,-0.00000131,-0.0
 0000115,0.00000274,0.00000059,0.00000147,0.00000118,0.00000199,-0.0000
 0166,-0.00000117,-0.00000041,0.00000170,0.00000030,0.00000107,0.000001
 91,-0.00000148,0.00000006,-0.00000002,0.00000430,-0.00000159,0.0000009
 1,-0.00000425,-0.00000021,0.00000538,-0.00000763,-0.00000416,-0.000001
 75,-0.00000341,0.00000375,0.00000001,0.00000441,0.00000235,0.00000278,
 -0.00000076,0.00000158,0.00000215,-0.00000292,-0.00000315,-0.00000073,
 -0.00000233,-0.00000062,0.00000092,0.00000074,-0.00000082,0.00000073,-
 0.00000554,-0.00000246,0.00000032,0.00000245,0.00000057,0.00000258,-0.
 00000060,0.00000187,0.00000341,-0.00000270,-0.00000269,0.00000495,0.,-
 0.00000072,0.00000066,-0.00000083,-0.00000310,-0.00000163,0.00000151,0
 .00000181,0.00000105,-0.00000108,0.00000357,0.00000378,-0.00000069,-0.
 00000258,0.00000310,0.00000081,0.00000267,-0.00000125,-0.00000098,-0.0
 0000463,-0.00000416,-0.00000096,-0.00000163,0.00000361,0.00000073,0.00
 000177,-0.00000407,0.00000044,-0.00000182,-0.00000326,0.00000729,-0.00
 000385,-0.00000072,-0.00000371,0.00000055,-0.00000186,-0.00000215,0.00
 000585,0.00000066,0.00000095,0.00000345,0.00000081\\\@
 The archive entry for this job was punched.


 THE PROGRESS OF RIVERS TO THE SEA IS NOT AS RAPID
 AS THAT OF MAN TO ERROR.
                                              -- VOLTAIRE
 Job cpu time:       2 days 11 hours 51 minutes 56.3 seconds.
 Elapsed time:       0 days  3 hours 48 minutes 28.9 seconds.
 File lengths (MBytes):  RWF=   9709 Int=      0 D2E=      0 Chk=     55 Scr=      1
 Normal termination of Gaussian 16 at Tue Dec 10 04:43:57 2024.
