/mnt/lustre/scratch/nvme/SLURM/9663517/usccqdma.Ih4ArxiwaA
OMP_STACKSIZE=0m
GAUSS_PDEF=16
GAUSS_MDEF=65536MB
GAUSS_RDEF=SCF=Direct
 Entering Gaussian System, Link 0=g16.exe
 Initial command:
 /opt/cesga/2020/software/Core/g16/c1/l1.exe "/mnt/lustre/scratch/nvme/SLURM/9663517/usccqdma.Ih4ArxiwaA/Gau-1091748.inp" -scrdir="/mnt/lustre/scratch/nvme/SLURM/9663517/usccqdma.Ih4ArxiwaA/"
 Default is to use a total of  16 processors:
                               16 via shared-memory
                                1 via Linda
 Entering Link 1 = /opt/cesga/2020/software/Core/g16/c1/l1.exe PID=   1091775.
  
 Copyright (c) 1988-2019, Gaussian, Inc.  All Rights Reserved.
  
 This is part of the Gaussian(R) 16 program.  It is based on
 the Gaussian(R) 09 system (copyright 2009, Gaussian, Inc.),
 the Gaussian(R) 03 system (copyright 2003, Gaussian, Inc.),
 the Gaussian(R) 98 system (copyright 1998, Gaussian, Inc.),
 the Gaussian(R) 94 system (copyright 1995, Gaussian, Inc.),
 the Gaussian 92(TM) system (copyright 1992, Gaussian, Inc.),
 the Gaussian 90(TM) system (copyright 1990, Gaussian, Inc.),
 the Gaussian 88(TM) system (copyright 1988, Gaussian, Inc.),
 the Gaussian 86(TM) system (copyright 1986, Carnegie Mellon
 University), and the Gaussian 82(TM) system (copyright 1983,
 Carnegie Mellon University). Gaussian is a federally registered
 trademark of Gaussian, Inc.
  
 This software contains proprietary and confidential information,
 including trade secrets, belonging to Gaussian, Inc.
  
 This software is provided under written license and may be
 used, copied, transmitted, or stored only in accord with that
 written license.
  
 The following legend is applicable only to US Government
 contracts under FAR:
  
                    RESTRICTED RIGHTS LEGEND
  
 Use, reproduction and disclosure by the US Government is
 subject to restrictions as set forth in subparagraphs (a)
 and (c) of the Commercial Computer Software - Restricted
 Rights clause in FAR 52.227-19.
  
 Gaussian, Inc.
 340 Quinnipiac St., Bldg. 40, Wallingford CT 06492
  
  
 ---------------------------------------------------------------
 Warning -- This program may not be used in any manner that
 competes with the business of Gaussian, Inc. or will provide
 assistance to any competitor of Gaussian, Inc.  The licensee
 of this program is prohibited from giving any competitor of
 Gaussian, Inc. access to this program.  By using this program,
 the user acknowledges that Gaussian, Inc. is engaged in the
 business of creating and licensing software in the field of
 computational chemistry and represents and warrants to the
 licensee that it is not a competitor of Gaussian, Inc. and that
 it will not use this program in any manner prohibited above.
 ---------------------------------------------------------------
  

 Cite this work as:
 Gaussian 16, Revision C.01,
 M. J. Frisch, G. W. Trucks, H. B. Schlegel, G. E. Scuseria, 
 M. A. Robb, J. R. Cheeseman, G. Scalmani, V. Barone, 
 G. A. Petersson, H. Nakatsuji, X. Li, M. Caricato, A. V. Marenich, 
 J. Bloino, B. G. Janesko, R. Gomperts, B. Mennucci, H. P. Hratchian, 
 J. V. Ortiz, A. F. Izmaylov, J. L. Sonnenberg, D. Williams-Young, 
 F. Ding, F. Lipparini, F. Egidi, J. Goings, B. Peng, A. Petrone, 
 T. Henderson, D. Ranasinghe, V. G. Zakrzewski, J. Gao, N. Rega, 
 G. Zheng, W. Liang, M. Hada, M. Ehara, K. Toyota, R. Fukuda, 
 J. Hasegawa, M. Ishida, T. Nakajima, Y. Honda, O. Kitao, H. Nakai, 
 T. Vreven, K. Throssell, J. A. Montgomery, Jr., J. E. Peralta, 
 F. Ogliaro, M. J. Bearpark, J. J. Heyd, E. N. Brothers, K. N. Kudin, 
 V. N. Staroverov, T. A. Keith, R. Kobayashi, J. Normand, 
 K. Raghavachari, A. P. Rendell, J. C. Burant, S. S. Iyengar, 
 J. Tomasi, M. Cossi, J. M. Millam, M. Klene, C. Adamo, R. Cammi, 
 J. W. Ochterski, R. L. Martin, K. Morokuma, O. Farkas, 
 J. B. Foresman, and D. J. Fox, Gaussian, Inc., Wallingford CT, 2019.
 
 ******************************************
 Gaussian 16:  ES64L-G16RevC.01  3-Jul-2019
                 7-Dec-2024 
 ******************************************
 Default route: SCF=Direct
 ----------------------------------------------------
 # m06/genecp scf=tight int=ultrafine 5d freq=noraman
 ----------------------------------------------------
 1/10=4,30=1,38=1/1,3;
 2/12=2,17=6,18=5,40=1/2;
 3/5=7,8=1,11=2,16=1,17=8,25=1,30=1,71=2,74=-54,75=-5,140=1/1,2,3;
 4//1;
 5/5=2,32=2,38=5,98=1/2;
 8/6=4,10=90,11=11/1;
 11/6=1,8=1,9=11,15=111,16=1/1,2,10;
 10/6=1/2;
 6/7=2,8=2,9=2,10=2,28=1/1;
 7/8=1,10=1,25=1/1,2,3,16;
 1/10=4,30=1/3;
 99//99;
 ------
 OPT-TS
 ------
 Symbolic Z-matrix:
 Charge =  0 Multiplicity = 1
 C                    -1.65629   1.68969   0.98641 
 C                    -2.43562  -0.44564   0.55763 
 C                    -3.62859  -0.19808   1.22731 
 C                    -3.8053    1.03771   1.83636 
 C                    -2.80892   1.99493   1.70729 
 C                    -0.57165   2.66551   0.74186 
 C                     1.55837   3.00388  -0.11739 
 C                     1.51616   4.3531    0.20035 
 C                     0.3764    4.86746   0.81053 
 C                    -0.67766   4.01376   1.08665 
 H                    -2.24075  -1.40312   0.06966 
 H                    -4.7185    1.25631   2.38569 
 H                    -2.94069   2.97243   2.16262 
 H                     2.43518   2.53468  -0.56733 
 H                     0.31807   5.92578   1.0597 
 H                    -1.58134   4.40184   1.54795 
 N                    -1.47318   0.46491   0.45839 
 N                     0.53395   2.18573   0.14083 
 Ir                    0.60087  -0.05164  -0.29437 
 O                     0.47792  -0.65209   2.60216 
 O                     3.06564  -1.37162  -1.60504 
 O                    -0.37127  -2.57714  -1.58123 
 B                     2.51399  -0.311    -0.89291 
 B                     1.30707  -0.6165    1.48125 
 B                     0.45672  -2.03969  -0.58026 
 O                     0.99682  -3.07914   0.17233 
 O                     2.6091   -0.93408   1.82434 
 C                     2.5985   -1.4377    3.16761 
 C                     1.33055  -0.75315   3.75416 
 C                    -0.51939  -3.98392  -1.33985 
 C                     0.75813  -4.31099  -0.51673 
 C                     4.49185  -1.22639  -1.59065 
 C                     4.66344   0.3118   -1.43021 
 O                     3.49449   0.66806  -0.68168 
 C                     0.62181  -1.54348   4.83456 
 H                     1.28449  -1.70737   5.69667 
 H                    -0.25852  -0.98915   5.18527 
 H                     0.28258  -2.51663   4.46385 
 C                     1.59162   0.67016   4.23323 
 H                     2.11504   1.2546    3.46396 
 H                     0.62694   1.15617   4.43035 
 H                     2.18471   0.69518   5.15735 
 C                     2.47492  -2.95342   3.08496 
 H                     3.27292  -3.33189   2.43095 
 H                     2.57589  -3.42424   4.07263 
 H                     1.52137  -3.24862   2.6318 
 C                     3.90192  -1.05714   3.84073 
 H                     4.73323  -1.59068   3.36075 
 H                     4.10147   0.01721   3.75954 
 H                     3.89166  -1.33629   4.90439 
 C                     5.00677  -2.01045  -0.3895 
 H                     4.66932  -3.05122  -0.48443 
 H                     6.10428  -2.00682  -0.3349 
 H                     4.59081  -1.61057   0.54414 
 C                     5.05969  -1.80499  -2.87099 
 H                     4.87167  -2.88675  -2.89797 
 H                     4.59583  -1.36147  -3.75919 
 H                     6.14685  -1.64816  -2.92605 
 C                     5.89191   0.74217  -0.65374 
 H                     5.92636   1.83832  -0.59373 
 H                     5.87303   0.34953   0.36901 
 H                     6.81244   0.40034  -1.14899 
 C                     4.59252   1.06636  -2.75231 
 H                     3.71259   0.76067  -3.33433 
 H                     4.50258   2.14089  -2.53993 
 H                     5.4901    0.91323  -3.3668 
 C                     0.59206  -5.42567   0.49755 
 H                     1.53896  -5.58197   1.03097 
 H                    -0.17699  -5.18837   1.24173 
 H                     0.32294  -6.37046   0.00297 
 C                     1.97936  -4.58192  -1.3868 
 H                     1.90409  -5.54129  -1.917 
 H                     2.1391   -3.77119  -2.10925 
 H                     2.86181  -4.61612  -0.73374 
 C                    -0.62808  -4.7051   -2.66823 
 H                     0.20921  -4.45435  -3.32842 
 H                    -0.64909  -5.79513  -2.52437 
 H                    -1.55872  -4.41558  -3.17575 
 C                    -1.8073   -4.16784  -0.54379 
 H                    -2.637    -3.7066   -1.09949 
 H                    -2.05253  -5.22704  -0.3876 
 H                    -1.74161  -3.6812    0.44017 
 H                    -0.01041  -0.02177  -2.50249 
 C                    -2.8663    1.27917  -2.33801 
 O                    -2.51029   2.32282  -1.79876 
 C                    -4.30648   0.80227  -2.25758 
 H                    -4.72728   0.6963   -3.27055 
 H                    -4.31694  -0.21478  -1.82976 
 C                    -0.5834    0.78833  -3.00922 
 H                    -0.18958   0.84289  -4.03459 
 H                    -0.43137   1.74952  -2.51298 
 N                    -1.99362   0.47349  -3.01625 
 C                    -2.32113  -0.82024  -3.58591 
 H                    -3.39312  -0.91764  -3.7695 
 H                    -1.80619  -0.92546  -4.55093 
 H                    -1.97566  -1.63288  -2.92787 
 C                    -5.1842    1.71183  -1.41678 
 H                    -4.66195   1.94131  -0.4761 
 H                    -5.31171   2.68258  -1.91914 
 C                    -6.53546   1.08505  -1.11098 
 H                    -7.10851   0.942    -2.04361 
 H                    -6.38657   0.072    -0.69751 
 C                    -7.35892   1.89767  -0.12411 
 H                    -6.77661   2.01756   0.80599 
 H                    -7.50874   2.91576  -0.51843 
 C                    -8.69755   1.25204   0.18971 
 H                    -9.30302   1.13704  -0.72013 
 H                    -8.55566   0.24959   0.61751 
 H                    -9.2826    1.84165   0.90633 
 C                    -4.65464  -1.28463   1.2971 
 F                    -4.27856  -2.26327   2.12308 
 F                    -5.83653  -0.82303   1.7189 
 F                    -4.84451  -1.84619   0.09278 
 C                     2.67727   5.25576  -0.07759 
 F                     2.28287   6.3484   -0.7426 
 F                     3.2361    5.67813   1.06276 
 F                     3.62315   4.65382  -0.79852 
 

 GradGradGradGradGradGradGradGradGradGradGradGradGradGradGradGradGradGrad
 Berny optimization.
 Initialization pass.
 Trust Radius=3.00D-01 FncErr=1.00D-07 GrdErr=1.00D-07 EigMax=2.50D+02 EigMin=1.00D-04
 Number of steps in this run=      2 maximum allowed number of steps=      2.
 GradGradGradGradGradGradGradGradGradGradGradGradGradGradGradGradGradGrad

 Stoichiometry    C38H59B3F6IrN3O7
 Framework group  C1[X(C38H59B3F6IrN3O7)]
 Deg. of freedom   345
 Full point group                 C1      NOp   1
 Largest Abelian subgroup         C1      NOp   1
 Largest concise Abelian subgroup C1      NOp   1
                         Standard orientation:                         
 ---------------------------------------------------------------------
 Center     Atomic      Atomic             Coordinates (Angstroms)
 Number     Number       Type             X           Y           Z
 ---------------------------------------------------------------------
      1          6           0       -1.656290    1.689691    0.986410
      2          6           0       -2.435620   -0.445639    0.557630
      3          6           0       -3.628590   -0.198079    1.227310
      4          6           0       -3.805300    1.037711    1.836360
      5          6           0       -2.808919    1.994931    1.707290
      6          6           0       -0.571649    2.665510    0.741860
      7          6           0        1.558371    3.003880   -0.117390
      8          6           0        1.516161    4.353100    0.200350
      9          6           0        0.376401    4.867460    0.810530
     10          6           0       -0.677659    4.013760    1.086650
     11          1           0       -2.240750   -1.403119    0.069660
     12          1           0       -4.718500    1.256311    2.385690
     13          1           0       -2.940689    2.972431    2.162620
     14          1           0        2.435181    2.534680   -0.567330
     15          1           0        0.318071    5.925780    1.059700
     16          1           0       -1.581339    4.401841    1.547950
     17          7           0       -1.473180    0.464911    0.458390
     18          7           0        0.533951    2.185730    0.140830
     19         77           0        0.600870   -0.051640   -0.294370
     20          8           0        0.477920   -0.652090    2.602160
     21          8           0        3.065640   -1.371620   -1.605040
     22          8           0       -0.371271   -2.577140   -1.581230
     23          5           0        2.513990   -0.311000   -0.892910
     24          5           0        1.307070   -0.616500    1.481250
     25          5           0        0.456720   -2.039690   -0.580260
     26          8           0        0.996819   -3.079140    0.172330
     27          8           0        2.609100   -0.934080    1.824340
     28          6           0        2.598500   -1.437700    3.167610
     29          6           0        1.330550   -0.753150    3.754160
     30          6           0       -0.519391   -3.983920   -1.339850
     31          6           0        0.758129   -4.310990   -0.516730
     32          6           0        4.491850   -1.226391   -1.590650
     33          6           0        4.663440    0.311799   -1.430210
     34          8           0        3.494490    0.668059   -0.681680
     35          6           0        0.621810   -1.543480    4.834560
     36          1           0        1.284490   -1.707370    5.696670
     37          1           0       -0.258520   -0.989150    5.185270
     38          1           0        0.282579   -2.516630    4.463850
     39          6           0        1.591620    0.670160    4.233230
     40          1           0        2.115040    1.254600    3.463960
     41          1           0        0.626940    1.156170    4.430350
     42          1           0        2.184710    0.695180    5.157350
     43          6           0        2.474919   -2.953420    3.084960
     44          1           0        3.272919   -3.331891    2.430950
     45          1           0        2.575889   -3.424240    4.072630
     46          1           0        1.521369   -3.248620    2.631800
     47          6           0        3.901920   -1.057141    3.840730
     48          1           0        4.733230   -1.590681    3.360750
     49          1           0        4.101470    0.017209    3.759540
     50          1           0        3.891660   -1.336291    4.904390
     51          6           0        5.006770   -2.010451   -0.389500
     52          1           0        4.669319   -3.051221   -0.484430
     53          1           0        6.104280   -2.006821   -0.334900
     54          1           0        4.590810   -1.610571    0.544140
     55          6           0        5.059690   -1.804991   -2.870990
     56          1           0        4.871669   -2.886751   -2.897970
     57          1           0        4.595830   -1.361471   -3.759190
     58          1           0        6.146850   -1.648161   -2.926050
     59          6           0        5.891910    0.742169   -0.653740
     60          1           0        5.926360    1.838319   -0.593730
     61          1           0        5.873030    0.349529    0.369010
     62          1           0        6.812440    0.400339   -1.148990
     63          6           0        4.592520    1.066359   -2.752310
     64          1           0        3.712590    0.760669   -3.334330
     65          1           0        4.502581    2.140889   -2.539930
     66          1           0        5.490100    0.913229   -3.366800
     67          6           0        0.592059   -5.425670    0.497550
     68          1           0        1.538959   -5.581970    1.030970
     69          1           0       -0.176991   -5.188370    1.241730
     70          1           0        0.322939   -6.370460    0.002970
     71          6           0        1.979359   -4.581920   -1.386800
     72          1           0        1.904089   -5.541290   -1.917000
     73          1           0        2.139099   -3.771190   -2.109250
     74          1           0        2.861809   -4.616120   -0.733740
     75          6           0       -0.628081   -4.705100   -2.668230
     76          1           0        0.209209   -4.454350   -3.328420
     77          1           0       -0.649091   -5.795130   -2.524370
     78          1           0       -1.558721   -4.415579   -3.175750
     79          6           0       -1.807301   -4.167839   -0.543790
     80          1           0       -2.637001   -3.706599   -1.099490
     81          1           0       -2.052531   -5.227039   -0.387600
     82          1           0       -1.741611   -3.681199    0.440170
     83          1           0       -0.010410   -0.021770   -2.502490
     84          6           0       -2.866300    1.279171   -2.338010
     85          8           0       -2.510289    2.322821   -1.798760
     86          6           0       -4.306480    0.802271   -2.257580
     87          1           0       -4.727280    0.696301   -3.270550
     88          1           0       -4.316940   -0.214779   -1.829760
     89          6           0       -0.583400    0.788330   -3.009220
     90          1           0       -0.189580    0.842890   -4.034590
     91          1           0       -0.431370    1.749520   -2.512980
     92          7           0       -1.993620    0.473491   -3.016250
     93          6           0       -2.321130   -0.820239   -3.585910
     94          1           0       -3.393120   -0.917639   -3.769500
     95          1           0       -1.806190   -0.925459   -4.550930
     96          1           0       -1.975660   -1.632879   -2.927870
     97          6           0       -5.184200    1.711831   -1.416780
     98          1           0       -4.661950    1.941311   -0.476100
     99          1           0       -5.311709    2.682581   -1.919140
    100          6           0       -6.535460    1.085052   -1.110980
    101          1           0       -7.108510    0.942002   -2.043610
    102          1           0       -6.386570    0.072002   -0.697510
    103          6           0       -7.358920    1.897672   -0.124110
    104          1           0       -6.776609    2.017562    0.805990
    105          1           0       -7.508739    2.915762   -0.518430
    106          6           0       -8.697550    1.252042    0.189710
    107          1           0       -9.303020    1.137042   -0.720130
    108          1           0       -8.555660    0.249592    0.617510
    109          1           0       -9.282600    1.841652    0.906330
    110          6           0       -4.654640   -1.284629    1.297100
    111          9           0       -4.278560   -2.263269    2.123080
    112          9           0       -5.836530   -0.823028    1.718900
    113          9           0       -4.844510   -1.846189    0.092780
    114          6           0        2.677271    5.255760   -0.077590
    115          9           0        2.282872    6.348400   -0.742600
    116          9           0        3.236101    5.678130    1.062760
    117          9           0        3.623151    4.653819   -0.798520
 ---------------------------------------------------------------------
 Rotational constants (GHZ):           0.0535579           0.0386787           0.0312341
 General basis read from cards:  (5D, 7F)
 ======================================================================================================
                                       Pseudopotential Parameters
 ======================================================================================================
  Center     Atomic      Valence      Angular      Power
  Number     Number     Electrons     Momentum     of R      Exponent        Coefficient   SO-Coeffient
 ======================================================================================================
    1          6
                                   No pseudopotential on this center.
    2          6
                                   No pseudopotential on this center.
    3          6
                                   No pseudopotential on this center.
    4          6
                                   No pseudopotential on this center.
    5          6
                                   No pseudopotential on this center.
    6          6
                                   No pseudopotential on this center.
    7          6
                                   No pseudopotential on this center.
    8          6
                                   No pseudopotential on this center.
    9          6
                                   No pseudopotential on this center.
   10          6
                                   No pseudopotential on this center.
   11          1
                                   No pseudopotential on this center.
   12          1
                                   No pseudopotential on this center.
   13          1
                                   No pseudopotential on this center.
   14          1
                                   No pseudopotential on this center.
   15          1
                                   No pseudopotential on this center.
   16          1
                                   No pseudopotential on this center.
   17          7
                                   No pseudopotential on this center.
   18          7
                                   No pseudopotential on this center.
   19         77           17
                                      G and up 
                                                     1      823.5880147       -0.15780140    0.00000000
                                                     2      364.6613336    -1517.52704460    0.00000000
                                                     2       55.7082801     -316.53065290    0.00000000
                                                     2       12.0464544      -91.88809410    0.00000000
                                                     2        3.5120610       -9.22417730    0.00000000
                                      S - G
                                                     0      188.0490770        3.15780140    0.00000000
                                                     1      340.4194712       26.83225770    0.00000000
                                                     2      128.2373673      800.42500070    0.00000000
                                                     2       33.8644961      369.40506830    0.00000000
                                                     2        4.7560005      242.41718990    0.00000000
                                                     2        3.9649974     -118.21732820    0.00000000
                                      P - G
                                                     0      289.7291139        2.15780140    0.00000000
                                                     1       87.4633789       61.96786100    0.00000000
                                                     2       30.4363766      269.05819860    0.00000000
                                                     2        4.0553412      231.16547930    0.00000000
                                                     2        3.5525341     -133.69526670    0.00000000
                                      D - G
                                                     0      136.4017106        3.15780140    0.00000000
                                                     1       95.0776925       45.93498030    0.00000000
                                                     2       49.2258410      359.03446680    0.00000000
                                                     2       15.0874145      176.47401190    0.00000000
                                                     2        4.0405764       54.51552860    0.00000000
                                      F - G
                                                     0      127.3507908        3.95461970    0.00000000
                                                     1       66.2364374       52.97736550    0.00000000
                                                     2       34.4299229      274.86433830    0.00000000
                                                     2       10.1995721      137.20473380    0.00000000
                                                     2        2.5409702       14.86333050    0.00000000
   20          8
                                   No pseudopotential on this center.
   21          8
                                   No pseudopotential on this center.
   22          8
                                   No pseudopotential on this center.
   23          5
                                   No pseudopotential on this center.
   24          5
                                   No pseudopotential on this center.
   25          5
                                   No pseudopotential on this center.
   26          8
                                   No pseudopotential on this center.
   27          8
                                   No pseudopotential on this center.
   28          6
                                   No pseudopotential on this center.
   29          6
                                   No pseudopotential on this center.
   30          6
                                   No pseudopotential on this center.
   31          6
                                   No pseudopotential on this center.
   32          6
                                   No pseudopotential on this center.
   33          6
                                   No pseudopotential on this center.
   34          8
                                   No pseudopotential on this center.
   35          6
                                   No pseudopotential on this center.
   36          1
                                   No pseudopotential on this center.
   37          1
                                   No pseudopotential on this center.
   38          1
                                   No pseudopotential on this center.
   39          6
                                   No pseudopotential on this center.
   40          1
                                   No pseudopotential on this center.
   41          1
                                   No pseudopotential on this center.
   42          1
                                   No pseudopotential on this center.
   43          6
                                   No pseudopotential on this center.
   44          1
                                   No pseudopotential on this center.
   45          1
                                   No pseudopotential on this center.
   46          1
                                   No pseudopotential on this center.
   47          6
                                   No pseudopotential on this center.
   48          1
                                   No pseudopotential on this center.
   49          1
                                   No pseudopotential on this center.
   50          1
                                   No pseudopotential on this center.
   51          6
                                   No pseudopotential on this center.
   52          1
                                   No pseudopotential on this center.
   53          1
                                   No pseudopotential on this center.
   54          1
                                   No pseudopotential on this center.
   55          6
                                   No pseudopotential on this center.
   56          1
                                   No pseudopotential on this center.
   57          1
                                   No pseudopotential on this center.
   58          1
                                   No pseudopotential on this center.
   59          6
                                   No pseudopotential on this center.
   60          1
                                   No pseudopotential on this center.
   61          1
                                   No pseudopotential on this center.
   62          1
                                   No pseudopotential on this center.
   63          6
                                   No pseudopotential on this center.
   64          1
                                   No pseudopotential on this center.
   65          1
                                   No pseudopotential on this center.
   66          1
                                   No pseudopotential on this center.
   67          6
                                   No pseudopotential on this center.
   68          1
                                   No pseudopotential on this center.
   69          1
                                   No pseudopotential on this center.
   70          1
                                   No pseudopotential on this center.
   71          6
                                   No pseudopotential on this center.
   72          1
                                   No pseudopotential on this center.
   73          1
                                   No pseudopotential on this center.
   74          1
                                   No pseudopotential on this center.
   75          6
                                   No pseudopotential on this center.
   76          1
                                   No pseudopotential on this center.
   77          1
                                   No pseudopotential on this center.
   78          1
                                   No pseudopotential on this center.
   79          6
                                   No pseudopotential on this center.
   80          1
                                   No pseudopotential on this center.
   81          1
                                   No pseudopotential on this center.
   82          1
                                   No pseudopotential on this center.
   83          1
                                   No pseudopotential on this center.
   84          6
                                   No pseudopotential on this center.
   85          8
                                   No pseudopotential on this center.
   86          6
                                   No pseudopotential on this center.
   87          1
                                   No pseudopotential on this center.
   88          1
                                   No pseudopotential on this center.
   89          6
                                   No pseudopotential on this center.
   90          1
                                   No pseudopotential on this center.
   91          1
                                   No pseudopotential on this center.
   92          7
                                   No pseudopotential on this center.
   93          6
                                   No pseudopotential on this center.
   94          1
                                   No pseudopotential on this center.
   95          1
                                   No pseudopotential on this center.
   96          1
                                   No pseudopotential on this center.
   97          6
                                   No pseudopotential on this center.
   98          1
                                   No pseudopotential on this center.
   99          1
                                   No pseudopotential on this center.
  100          6
                                   No pseudopotential on this center.
  101          1
                                   No pseudopotential on this center.
  102          1
                                   No pseudopotential on this center.
  103          6
                                   No pseudopotential on this center.
  104          1
                                   No pseudopotential on this center.
  105          1
                                   No pseudopotential on this center.
  106          6
                                   No pseudopotential on this center.
  107          1
                                   No pseudopotential on this center.
  108          1
                                   No pseudopotential on this center.
  109          1
                                   No pseudopotential on this center.
  110          6
                                   No pseudopotential on this center.
  111          9
                                   No pseudopotential on this center.
  112          9
                                   No pseudopotential on this center.
  113          9
                                   No pseudopotential on this center.
  114          6
                                   No pseudopotential on this center.
  115          9
                                   No pseudopotential on this center.
  116          9
                                   No pseudopotential on this center.
  117          9
                                   No pseudopotential on this center.
 ======================================================================================================
 There are   997 symmetry adapted cartesian basis functions of A   symmetry.
 There are   938 symmetry adapted basis functions of A   symmetry.
   938 basis functions,  1875 primitive gaussians,   997 cartesian basis functions
   225 alpha electrons      225 beta electrons
       nuclear repulsion energy     10395.8336050114 Hartrees.
 NAtoms=  117 NActive=  117 NUniq=  117 SFac= 1.00D+00 NAtFMM=   60 NAOKFM=T Big=T
 Integral buffers will be    131072 words long.
 Raffenetti 2 integral format.
 Two-electron integral symmetry is turned on.
 One-electron integrals computed using PRISM.
   1 Symmetry operations used in ECPInt.
 ECPInt:  NShTT=   62835 NPrTT=  387974 LenC2=   44754 LenP2D=  136107.
 LDataN:  DoStor=T MaxTD1= 6 Len=  172
 NBasis=   938 RedAO= T EigKep=  4.39D-04  NBF=   938
 NBsUse=   938 1.00D-06 EigRej= -1.00D+00 NBFU=   938
 Defaulting to unpruned grid for atomic number  77.
 ExpMin= 2.90D-02 ExpMax= 7.00D+03 ExpMxC= 1.05D+03 IAcc=3 IRadAn=         5 AccDes= 0.00D+00
 Harris functional with IExCor= 1009 and IRadAn=       5 diagonalized for initial guess.
 HarFok:  IExCor= 1009 AccDes= 0.00D+00 IRadAn=         5 IDoV= 1 UseB2=F ITyADJ=14
 ICtDFT=  3500011 ScaDFX=  1.000000  1.000000  1.000000  1.000000
 Defaulting to unpruned grid for atomic number  77.
 FoFCou: FMM=F IPFlag=           0 FMFlag=      100000 FMFlg1=        2001
         NFxFlg=           0 DoJE=T BraDBF=F KetDBF=T FulRan=T
         wScrn=  0.000000 ICntrl=       500 IOpCl=  0 I1Cent=   200000004 NGrid=           0
         NMat0=    1 NMatS0=      1 NMatT0=    0 NMatD0=    1 NMtDS0=    0 NMtDT0=    0
 Petite list used in FoFCou.
 Requested convergence on RMS density matrix=1.00D-08 within 128 cycles.
 Requested convergence on MAX density matrix=1.00D-06.
 Requested convergence on             energy=1.00D-06.
 No special actions if energy rises.
 Defaulting to unpruned grid for atomic number  77.
 Defaulting to unpruned grid for atomic number  77.
 Defaulting to unpruned grid for atomic number  77.
 Defaulting to unpruned grid for atomic number  77.
 Defaulting to unpruned grid for atomic number  77.
 Defaulting to unpruned grid for atomic number  77.
 Defaulting to unpruned grid for atomic number  77.
 Defaulting to unpruned grid for atomic number  77.
 Defaulting to unpruned grid for atomic number  77.
 Defaulting to unpruned grid for atomic number  77.
 Defaulting to unpruned grid for atomic number  77.
 Defaulting to unpruned grid for atomic number  77.
 Defaulting to unpruned grid for atomic number  77.
 Defaulting to unpruned grid for atomic number  77.
 Defaulting to unpruned grid for atomic number  77.
 Defaulting to unpruned grid for atomic number  77.
 SCF Done:  E(RM06) =  -2951.41867824     A.U. after   15 cycles
            NFock= 15  Conv=0.53D-08     -V/T= 2.0309
 DoSCS=F DFT=T ScalE2(SS,OS)=  1.000000  1.000000
 Range of M.O.s used for correlation:     1   938
 NBasis=   938 NAE=   225 NBE=   225 NFC=     0 NFV=     0
 NROrb=    938 NOA=   225 NOB=   225 NVA=   713 NVB=   713
   1 Symmetry operations used in ECPInt.
 ECPInt:  NShTT=   62835 NPrTT=  387974 LenC2=   44754 LenP2D=  136107.
 LDataN:  DoStor=T MaxTD1= 7 Len=  274
 Number of processors reduced to   6 by ecpmxn.
 Symmetrizing basis deriv contribution to polar:
 IMax=3 JMax=2 DiffMx= 0.00D+00
 G2DrvN: will do   118 centers at a time, making    1 passes.
 Calling FoFCou, ICntrl=  3107 FMM=T I1Cent=   0 AccDes= 0.00D+00.
 Defaulting to unpruned grid for atomic number  77.
 Defaulting to unpruned grid for atomic number  77.
 Defaulting to unpruned grid for atomic number  77.
 Defaulting to unpruned grid for atomic number  77.
 Defaulting to unpruned grid for atomic number  77.
 Defaulting to unpruned grid for atomic number  77.
 Defaulting to unpruned grid for atomic number  77.
 Defaulting to unpruned grid for atomic number  77.
 Defaulting to unpruned grid for atomic number  77.
 Defaulting to unpruned grid for atomic number  77.
 Defaulting to unpruned grid for atomic number  77.
 Defaulting to unpruned grid for atomic number  77.
 Defaulting to unpruned grid for atomic number  77.
 Defaulting to unpruned grid for atomic number  77.
 Defaulting to unpruned grid for atomic number  77.
 Defaulting to unpruned grid for atomic number  77.
 End of G2Drv F.D. properties file   721 does not exist.
 End of G2Drv F.D. properties file   722 does not exist.
 End of G2Drv F.D. properties file   788 does not exist.
          IDoAtm=11111111111111111111111111111111111111111111111111
          IDoAtm=11111111111111111111111111111111111111111111111111
          IDoAtm=11111111111111111
          Differentiating once with respect to electric field.
                with respect to dipole field.
          Differentiating once with respect to nuclear coordinates.
 Defaulting to unpruned grid for atomic number  77.
 CalDSu exits because no D1Ps are significant.
 Defaulting to unpruned grid for atomic number  77.
 Defaulting to unpruned grid for atomic number  77.
 Defaulting to unpruned grid for atomic number  77.
 Defaulting to unpruned grid for atomic number  77.
 Defaulting to unpruned grid for atomic number  77.
 Defaulting to unpruned grid for atomic number  77.
 Defaulting to unpruned grid for atomic number  77.
 Defaulting to unpruned grid for atomic number  77.
 Defaulting to unpruned grid for atomic number  77.
 Defaulting to unpruned grid for atomic number  77.
 Defaulting to unpruned grid for atomic number  77.
 Defaulting to unpruned grid for atomic number  77.
 Defaulting to unpruned grid for atomic number  77.
 Defaulting to unpruned grid for atomic number  77.
 Defaulting to unpruned grid for atomic number  77.
 Defaulting to unpruned grid for atomic number  77.
          There are   354 degrees of freedom in the 1st order CPHF.  IDoFFX=6 NUNeed=     3.
    351 vectors produced by pass  0 Test12= 1.60D-13 1.00D-09 XBig12= 5.08D+02 8.88D+00.
 AX will form    72 AO Fock derivatives at one time.
    351 vectors produced by pass  1 Test12= 1.60D-13 1.00D-09 XBig12= 8.58D+01 1.22D+00.
    351 vectors produced by pass  2 Test12= 1.60D-13 1.00D-09 XBig12= 1.11D+00 1.12D-01.
    351 vectors produced by pass  3 Test12= 1.60D-13 1.00D-09 XBig12= 7.75D-03 7.31D-03.
    351 vectors produced by pass  4 Test12= 1.60D-13 1.00D-09 XBig12= 2.94D-05 3.34D-04.
    317 vectors produced by pass  5 Test12= 1.60D-13 1.00D-09 XBig12= 6.00D-08 2.34D-05.
     84 vectors produced by pass  6 Test12= 1.60D-13 1.00D-09 XBig12= 8.73D-11 6.16D-07.
      3 vectors produced by pass  7 Test12= 1.60D-13 1.00D-09 XBig12= 1.14D-13 2.11D-08.
 InvSVY:  IOpt=1 It=  1 EMax= 3.55D-14
 Solved reduced A of dimension  2159 with   354 vectors.
 Isotropic polarizability for W=    0.000000      521.29 Bohr**3.
 End of Minotr F.D. properties file   721 does not exist.
 End of Minotr F.D. properties file   722 does not exist.
 End of Minotr F.D. properties file   788 does not exist.
 Hyperfine terms turned off by default for NAtoms > 100.

 **********************************************************************

            Population analysis using the SCF Density.

 **********************************************************************

 Orbital symmetries:
       Occupied  (A) (A) (A) (A) (A) (A) (A) (A) (A) (A) (A) (A)
                 (A) (A) (A) (A) (A) (A) (A) (A) (A) (A) (A) (A)
                 (A) (A) (A) (A) (A) (A) (A) (A) (A) (A) (A) (A)
                 (A) (A) (A) (A) (A) (A) (A) (A) (A) (A) (A) (A)
                 (A) (A) (A) (A) (A) (A) (A) (A) (A) (A) (A) (A)
                 (A) (A) (A) (A) (A) (A) (A) (A) (A) (A) (A) (A)
                 (A) (A) (A) (A) (A) (A) (A) (A) (A) (A) (A) (A)
                 (A) (A) (A) (A) (A) (A) (A) (A) (A) (A) (A) (A)
                 (A) (A) (A) (A) (A) (A) (A) (A) (A) (A) (A) (A)
                 (A) (A) (A) (A) (A) (A) (A) (A) (A) (A) (A) (A)
                 (A) (A) (A) (A) (A) (A) (A) (A) (A) (A) (A) (A)
                 (A) (A) (A) (A) (A) (A) (A) (A) (A) (A) (A) (A)
                 (A) (A) (A) (A) (A) (A) (A) (A) (A) (A) (A) (A)
                 (A) (A) (A) (A) (A) (A) (A) (A) (A) (A) (A) (A)
                 (A) (A) (A) (A) (A) (A) (A) (A) (A) (A) (A) (A)
                 (A) (A) (A) (A) (A) (A) (A) (A) (A) (A) (A) (A)
                 (A) (A) (A) (A) (A) (A) (A) (A) (A) (A) (A) (A)
                 (A) (A) (A) (A) (A) (A) (A) (A) (A) (A) (A) (A)
                 (A) (A) (A) (A) (A) (A) (A) (A) (A)
       Virtual   (A) (A) (A) (A) (A) (A) (A) (A) (A) (A) (A) (A)
                 (A) (A) (A) (A) (A) (A) (A) (A) (A) (A) (A) (A)
                 (A) (A) (A) (A) (A) (A) (A) (A) (A) (A) (A) (A)
                 (A) (A) (A) (A) (A) (A) (A) (A) (A) (A) (A) (A)
                 (A) (A) (A) (A) (A) (A) (A) (A) (A) (A) (A) (A)
                 (A) (A) (A) (A) (A) (A) (A) (A) (A) (A) (A) (A)
                 (A) (A) (A) (A) (A) (A) (A) (A) (A) (A) (A) (A)
                 (A) (A) (A) (A) (A) (A) (A) (A) (A) (A) (A) (A)
                 (A) (A) (A) (A) (A) (A) (A) (A) (A) (A) (A) (A)
                 (A) (A) (A) (A) (A) (A) (A) (A) (A) (A) (A) (A)
                 (A) (A) (A) (A) (A) (A) (A) (A) (A) (A) (A) (A)
                 (A) (A) (A) (A) (A) (A) (A) (A) (A) (A) (A) (A)
                 (A) (A) (A) (A) (A) (A) (A) (A) (A) (A) (A) (A)
                 (A) (A) (A) (A) (A) (A) (A) (A) (A) (A) (A) (A)
                 (A) (A) (A) (A) (A) (A) (A) (A) (A) (A) (A) (A)
                 (A) (A) (A) (A) (A) (A) (A) (A) (A) (A) (A) (A)
                 (A) (A) (A) (A) (A) (A) (A) (A) (A) (A) (A) (A)
                 (A) (A) (A) (A) (A) (A) (A) (A) (A) (A) (A) (A)
                 (A) (A) (A) (A) (A) (A) (A) (A) (A) (A) (A) (A)
                 (A) (A) (A) (A) (A) (A) (A) (A) (A) (A) (A) (A)
                 (A) (A) (A) (A) (A) (A) (A) (A) (A) (A) (A) (A)
                 (A) (A) (A) (A) (A) (A) (A) (A) (A) (A) (A) (A)
                 (A) (A) (A) (A) (A) (A) (A) (A) (A) (A) (A) (A)
                 (A) (A) (A) (A) (A) (A) (A) (A) (A) (A) (A) (A)
                 (A) (A) (A) (A) (A) (A) (A) (A) (A) (A) (A) (A)
                 (A) (A) (A) (A) (A) (A) (A) (A) (A) (A) (A) (A)
                 (A) (A) (A) (A) (A) (A) (A) (A) (A) (A) (A) (A)
                 (A) (A) (A) (A) (A) (A) (A) (A) (A) (A) (A) (A)
                 (A) (A) (A) (A) (A) (A) (A) (A) (A) (A) (A) (A)
                 (A) (A) (A) (A) (A) (A) (A) (A) (A) (A) (A) (A)
                 (A) (A) (A) (A) (A) (A) (A) (A) (A) (A) (A) (A)
                 (A) (A) (A) (A) (A) (A) (A) (A) (A) (A) (A) (A)
                 (A) (A) (A) (A) (A) (A) (A) (A) (A) (A) (A) (A)
                 (A) (A) (A) (A) (A) (A) (A) (A) (A) (A) (A) (A)
                 (A) (A) (A) (A) (A) (A) (A) (A) (A) (A) (A) (A)
                 (A) (A) (A) (A) (A) (A) (A) (A) (A) (A) (A) (A)
                 (A) (A) (A) (A) (A) (A) (A) (A) (A) (A) (A) (A)
                 (A) (A) (A) (A) (A) (A) (A) (A) (A) (A) (A) (A)
                 (A) (A) (A) (A) (A) (A) (A) (A) (A) (A) (A) (A)
                 (A) (A) (A) (A) (A) (A) (A) (A) (A) (A) (A) (A)
                 (A) (A) (A) (A) (A) (A) (A) (A) (A) (A) (A) (A)
                 (A) (A) (A) (A) (A) (A) (A) (A) (A) (A) (A) (A)
                 (A) (A) (A) (A) (A) (A) (A) (A) (A) (A) (A) (A)
                 (A) (A) (A) (A) (A) (A) (A) (A) (A) (A) (A) (A)
                 (A) (A) (A) (A) (A) (A) (A) (A) (A) (A) (A) (A)
                 (A) (A) (A) (A) (A) (A) (A) (A) (A) (A) (A) (A)
                 (A) (A) (A) (A) (A) (A) (A) (A) (A) (A) (A) (A)
                 (A) (A) (A) (A) (A) (A) (A) (A) (A) (A) (A) (A)
                 (A) (A) (A) (A) (A) (A) (A) (A) (A) (A) (A) (A)
                 (A) (A) (A) (A) (A) (A) (A) (A) (A) (A) (A) (A)
                 (A) (A) (A) (A) (A) (A) (A) (A) (A) (A) (A) (A)
                 (A) (A) (A) (A) (A) (A) (A) (A) (A) (A) (A) (A)
                 (A) (A) (A) (A) (A) (A) (A) (A) (A) (A) (A) (A)
                 (A) (A) (A) (A) (A) (A) (A) (A) (A) (A) (A) (A)
                 (A) (A) (A) (A) (A) (A) (A) (A) (A) (A) (A) (A)
                 (A) (A) (A) (A) (A) (A) (A) (A) (A) (A) (A) (A)
                 (A) (A) (A) (A) (A) (A) (A) (A) (A) (A) (A) (A)
                 (A) (A) (A) (A) (A) (A) (A) (A) (A) (A) (A) (A)
                 (A) (A) (A) (A) (A) (A) (A) (A) (A) (A) (A) (A)
                 (A) (A) (A) (A) (A)
 The electronic state is 1-A.
 Alpha  occ. eigenvalues --  -24.84206 -24.83863 -24.83413 -24.83289 -24.82834
 Alpha  occ. eigenvalues --  -24.82670 -19.20119 -19.20098 -19.19826 -19.19454
 Alpha  occ. eigenvalues --  -19.19416 -19.19135 -19.18874 -14.45622 -14.45552
 Alpha  occ. eigenvalues --  -14.42718 -10.52308 -10.51514 -10.34665 -10.33456
 Alpha  occ. eigenvalues --  -10.33316 -10.32306 -10.31291 -10.30675 -10.30342
 Alpha  occ. eigenvalues --  -10.30221 -10.29725 -10.29576 -10.29422 -10.29253
 Alpha  occ. eigenvalues --  -10.29226 -10.28941 -10.28851 -10.28623 -10.28386
 Alpha  occ. eigenvalues --  -10.27041 -10.26924 -10.25226 -10.24279 -10.24000
 Alpha  occ. eigenvalues --  -10.23921 -10.23318 -10.22962 -10.22855 -10.22698
 Alpha  occ. eigenvalues --  -10.22603 -10.22502 -10.22466 -10.22156 -10.22116
 Alpha  occ. eigenvalues --  -10.22103 -10.21444 -10.21361 -10.20957  -6.80031
 Alpha  occ. eigenvalues --   -6.78421  -6.78131  -3.60470  -2.03229  -2.02471
 Alpha  occ. eigenvalues --   -2.01982  -1.36626  -1.35855  -1.28145  -1.27631
 Alpha  occ. eigenvalues --   -1.27362  -1.26831  -1.05975  -1.05659  -1.05217
 Alpha  occ. eigenvalues --   -1.04753  -1.01250  -0.99056  -0.98861  -0.98732
 Alpha  occ. eigenvalues --   -0.98295  -0.94463  -0.87199  -0.86293  -0.84605
 Alpha  occ. eigenvalues --   -0.82016  -0.80990  -0.80186  -0.80102  -0.79567
 Alpha  occ. eigenvalues --   -0.77789  -0.76134  -0.74632  -0.74609  -0.74077
 Alpha  occ. eigenvalues --   -0.72989  -0.72939  -0.71332  -0.70288  -0.70132
 Alpha  occ. eigenvalues --   -0.69728  -0.69660  -0.69196  -0.67957  -0.67449
 Alpha  occ. eigenvalues --   -0.67322  -0.66890  -0.66856  -0.65768  -0.62665
 Alpha  occ. eigenvalues --   -0.62598  -0.61848  -0.61784  -0.61700  -0.61519
 Alpha  occ. eigenvalues --   -0.61247  -0.61122  -0.60796  -0.60500  -0.58596
 Alpha  occ. eigenvalues --   -0.57251  -0.54895  -0.54446  -0.54291  -0.54117
 Alpha  occ. eigenvalues --   -0.53756  -0.53457  -0.52782  -0.52475  -0.52014
 Alpha  occ. eigenvalues --   -0.50789  -0.50497  -0.50293  -0.49941  -0.49925
 Alpha  occ. eigenvalues --   -0.49289  -0.49081  -0.48676  -0.48285  -0.47977
 Alpha  occ. eigenvalues --   -0.47818  -0.47272  -0.46880  -0.46749  -0.46657
 Alpha  occ. eigenvalues --   -0.46217  -0.46199  -0.46085  -0.45929  -0.45678
 Alpha  occ. eigenvalues --   -0.45452  -0.45420  -0.45157  -0.44923  -0.44586
 Alpha  occ. eigenvalues --   -0.44305  -0.44114  -0.43914  -0.43714  -0.43697
 Alpha  occ. eigenvalues --   -0.43601  -0.43387  -0.43196  -0.43103  -0.43084
 Alpha  occ. eigenvalues --   -0.42695  -0.41681  -0.41173  -0.40734  -0.40698
 Alpha  occ. eigenvalues --   -0.40534  -0.40221  -0.40188  -0.40127  -0.39902
 Alpha  occ. eigenvalues --   -0.39799  -0.39629  -0.39584  -0.39384  -0.39328
 Alpha  occ. eigenvalues --   -0.39082  -0.38951  -0.38755  -0.38747  -0.38572
 Alpha  occ. eigenvalues --   -0.38288  -0.37357  -0.37270  -0.36845  -0.36798
 Alpha  occ. eigenvalues --   -0.36635  -0.36493  -0.36393  -0.36277  -0.35912
 Alpha  occ. eigenvalues --   -0.35776  -0.35600  -0.35446  -0.35317  -0.34717
 Alpha  occ. eigenvalues --   -0.34699  -0.34480  -0.34373  -0.34104  -0.33935
 Alpha  occ. eigenvalues --   -0.33485  -0.33181  -0.32941  -0.32431  -0.32300
 Alpha  occ. eigenvalues --   -0.32077  -0.31845  -0.31330  -0.31004  -0.30762
 Alpha  occ. eigenvalues --   -0.29940  -0.29790  -0.29402  -0.29114  -0.28271
 Alpha  occ. eigenvalues --   -0.26722  -0.26144  -0.25892  -0.25523  -0.25004
 Alpha  occ. eigenvalues --   -0.24896  -0.24511  -0.21216  -0.21133  -0.20737
 Alpha virt. eigenvalues --   -0.08999  -0.05369  -0.04188  -0.00890   0.00971
 Alpha virt. eigenvalues --    0.03290   0.04068   0.05227   0.06159   0.06865
 Alpha virt. eigenvalues --    0.07356   0.07813   0.08655   0.09203   0.09799
 Alpha virt. eigenvalues --    0.10208   0.10371   0.10809   0.11483   0.11830
 Alpha virt. eigenvalues --    0.12111   0.12186   0.12710   0.13034   0.13265
 Alpha virt. eigenvalues --    0.13338   0.13579   0.13661   0.13814   0.14048
 Alpha virt. eigenvalues --    0.14191   0.14261   0.14482   0.14681   0.14900
 Alpha virt. eigenvalues --    0.15008   0.15479   0.15710   0.15861   0.16084
 Alpha virt. eigenvalues --    0.16431   0.16529   0.16616   0.16942   0.17063
 Alpha virt. eigenvalues --    0.17301   0.17418   0.17514   0.17638   0.17830
 Alpha virt. eigenvalues --    0.18010   0.18153   0.18482   0.18671   0.18744
 Alpha virt. eigenvalues --    0.18910   0.19084   0.19306   0.19444   0.19495
 Alpha virt. eigenvalues --    0.19724   0.19992   0.20262   0.20360   0.20451
 Alpha virt. eigenvalues --    0.20527   0.20649   0.20897   0.21106   0.21169
 Alpha virt. eigenvalues --    0.21297   0.21626   0.21729   0.22030   0.22143
 Alpha virt. eigenvalues --    0.22255   0.22310   0.22685   0.22947   0.23036
 Alpha virt. eigenvalues --    0.23135   0.23268   0.23503   0.23903   0.23942
 Alpha virt. eigenvalues --    0.23972   0.24211   0.24516   0.24610   0.24921
 Alpha virt. eigenvalues --    0.25267   0.25504   0.25945   0.26092   0.26284
 Alpha virt. eigenvalues --    0.26507   0.26637   0.26910   0.27121   0.27269
 Alpha virt. eigenvalues --    0.27520   0.27888   0.28281   0.28635   0.28939
 Alpha virt. eigenvalues --    0.29317   0.29477   0.30233   0.31488   0.31623
 Alpha virt. eigenvalues --    0.31977   0.32160   0.32360   0.33480   0.34042
 Alpha virt. eigenvalues --    0.34818   0.35163   0.35367   0.35664   0.36214
 Alpha virt. eigenvalues --    0.36684   0.37006   0.37528   0.38220   0.39535
 Alpha virt. eigenvalues --    0.39600   0.40646   0.40738   0.41738   0.42796
 Alpha virt. eigenvalues --    0.43944   0.45241   0.45936   0.46307   0.47316
 Alpha virt. eigenvalues --    0.47714   0.48096   0.49149   0.49595   0.50026
 Alpha virt. eigenvalues --    0.50140   0.50424   0.50689   0.50961   0.51381
 Alpha virt. eigenvalues --    0.51612   0.52007   0.52133   0.52285   0.52321
 Alpha virt. eigenvalues --    0.52951   0.53120   0.53705   0.54021   0.54227
 Alpha virt. eigenvalues --    0.54387   0.54957   0.55350   0.55477   0.55868
 Alpha virt. eigenvalues --    0.56215   0.56526   0.57049   0.57227   0.57614
 Alpha virt. eigenvalues --    0.57951   0.58009   0.58277   0.58462   0.58782
 Alpha virt. eigenvalues --    0.58949   0.59324   0.59717   0.59997   0.60209
 Alpha virt. eigenvalues --    0.60473   0.60759   0.61151   0.61216   0.61676
 Alpha virt. eigenvalues --    0.61798   0.61954   0.62431   0.63143   0.63528
 Alpha virt. eigenvalues --    0.63637   0.63787   0.64203   0.64404   0.64825
 Alpha virt. eigenvalues --    0.65353   0.65557   0.65908   0.66050   0.66381
 Alpha virt. eigenvalues --    0.66903   0.66936   0.67135   0.67429   0.67793
 Alpha virt. eigenvalues --    0.68247   0.68412   0.68573   0.68927   0.69036
 Alpha virt. eigenvalues --    0.69725   0.70259   0.70880   0.70992   0.71234
 Alpha virt. eigenvalues --    0.71333   0.71474   0.71720   0.71990   0.72608
 Alpha virt. eigenvalues --    0.72955   0.73246   0.73616   0.73667   0.74274
 Alpha virt. eigenvalues --    0.74458   0.74731   0.75149   0.75543   0.75696
 Alpha virt. eigenvalues --    0.75868   0.76314   0.76495   0.77047   0.77235
 Alpha virt. eigenvalues --    0.77556   0.77885   0.78255   0.78524   0.78791
 Alpha virt. eigenvalues --    0.79509   0.79718   0.79974   0.80072   0.80927
 Alpha virt. eigenvalues --    0.81636   0.82106   0.82291   0.82779   0.83188
 Alpha virt. eigenvalues --    0.83257   0.83665   0.84079   0.84242   0.84290
 Alpha virt. eigenvalues --    0.84588   0.84824   0.85033   0.85101   0.85520
 Alpha virt. eigenvalues --    0.85556   0.86091   0.86248   0.86628   0.86730
 Alpha virt. eigenvalues --    0.87229   0.87520   0.87662   0.87784   0.88013
 Alpha virt. eigenvalues --    0.88193   0.88395   0.88935   0.89084   0.89271
 Alpha virt. eigenvalues --    0.89397   0.89715   0.89892   0.90314   0.90507
 Alpha virt. eigenvalues --    0.90655   0.90886   0.90946   0.91175   0.91386
 Alpha virt. eigenvalues --    0.92010   0.92062   0.92201   0.92391   0.92616
 Alpha virt. eigenvalues --    0.92807   0.93082   0.93395   0.93962   0.94014
 Alpha virt. eigenvalues --    0.94381   0.94462   0.94628   0.94880   0.95450
 Alpha virt. eigenvalues --    0.95585   0.95805   0.96160   0.96483   0.96693
 Alpha virt. eigenvalues --    0.97057   0.97269   0.97550   0.97616   0.98378
 Alpha virt. eigenvalues --    0.98648   0.99037   0.99260   0.99590   0.99795
 Alpha virt. eigenvalues --    1.00555   1.00693   1.01357   1.01810   1.01903
 Alpha virt. eigenvalues --    1.02096   1.02951   1.03128   1.03663   1.04498
 Alpha virt. eigenvalues --    1.04955   1.05659   1.06380   1.06736   1.06940
 Alpha virt. eigenvalues --    1.07429   1.08099   1.09227   1.09967   1.10227
 Alpha virt. eigenvalues --    1.10521   1.10630   1.11557   1.11800   1.12852
 Alpha virt. eigenvalues --    1.13169   1.13745   1.14056   1.14526   1.15218
 Alpha virt. eigenvalues --    1.16019   1.16873   1.17323   1.17640   1.17703
 Alpha virt. eigenvalues --    1.18169   1.18518   1.18575   1.19116   1.19907
 Alpha virt. eigenvalues --    1.20262   1.20874   1.21115   1.21684   1.21888
 Alpha virt. eigenvalues --    1.22377   1.22462   1.23086   1.23310   1.24525
 Alpha virt. eigenvalues --    1.25226   1.25471   1.26197   1.26821   1.27296
 Alpha virt. eigenvalues --    1.27756   1.29082   1.29213   1.30400   1.30707
 Alpha virt. eigenvalues --    1.31621   1.31875   1.32404   1.32694   1.33708
 Alpha virt. eigenvalues --    1.34124   1.34241   1.34409   1.34962   1.35035
 Alpha virt. eigenvalues --    1.35487   1.36642   1.36803   1.37138   1.37457
 Alpha virt. eigenvalues --    1.37971   1.38223   1.38837   1.38909   1.39125
 Alpha virt. eigenvalues --    1.39531   1.40282   1.40656   1.41267   1.41470
 Alpha virt. eigenvalues --    1.42042   1.42362   1.42532   1.43186   1.43530
 Alpha virt. eigenvalues --    1.44010   1.44217   1.44519   1.44944   1.45226
 Alpha virt. eigenvalues --    1.45583   1.45905   1.46568   1.46731   1.47778
 Alpha virt. eigenvalues --    1.48513   1.48862   1.49076   1.49381   1.49685
 Alpha virt. eigenvalues --    1.50699   1.51140   1.51744   1.52385   1.53054
 Alpha virt. eigenvalues --    1.54032   1.54622   1.55212   1.56408   1.56654
 Alpha virt. eigenvalues --    1.58142   1.59232   1.59442   1.59975   1.60629
 Alpha virt. eigenvalues --    1.61449   1.62168   1.63605   1.63766   1.64328
 Alpha virt. eigenvalues --    1.64533   1.64941   1.65312   1.65580   1.66773
 Alpha virt. eigenvalues --    1.67098   1.67764   1.68341   1.68898   1.69454
 Alpha virt. eigenvalues --    1.69652   1.70049   1.70570   1.71045   1.71269
 Alpha virt. eigenvalues --    1.71931   1.72071   1.73000   1.73455   1.73765
 Alpha virt. eigenvalues --    1.74663   1.75243   1.76444   1.76797   1.76961
 Alpha virt. eigenvalues --    1.77350   1.77768   1.77980   1.78605   1.78998
 Alpha virt. eigenvalues --    1.79898   1.80281   1.80459   1.80986   1.81268
 Alpha virt. eigenvalues --    1.81794   1.82336   1.82946   1.83476   1.83778
 Alpha virt. eigenvalues --    1.84181   1.84818   1.85098   1.85472   1.85870
 Alpha virt. eigenvalues --    1.85963   1.86101   1.86411   1.86845   1.87375
 Alpha virt. eigenvalues --    1.87645   1.88021   1.88588   1.88830   1.89690
 Alpha virt. eigenvalues --    1.89942   1.90236   1.90755   1.91228   1.91584
 Alpha virt. eigenvalues --    1.91822   1.92040   1.92181   1.92360   1.92535
 Alpha virt. eigenvalues --    1.92836   1.93163   1.93228   1.93534   1.93692
 Alpha virt. eigenvalues --    1.93876   1.94155   1.94861   1.95298   1.96019
 Alpha virt. eigenvalues --    1.96113   1.96252   1.96876   1.97271   1.97794
 Alpha virt. eigenvalues --    1.98523   1.98912   1.99225   2.00081   2.00616
 Alpha virt. eigenvalues --    2.00945   2.01355   2.01542   2.01965   2.02309
 Alpha virt. eigenvalues --    2.02437   2.02633   2.02794   2.02911   2.02990
 Alpha virt. eigenvalues --    2.03403   2.03897   2.03988   2.04758   2.04909
 Alpha virt. eigenvalues --    2.05453   2.05762   2.06630   2.06857   2.06938
 Alpha virt. eigenvalues --    2.07089   2.07616   2.07934   2.08175   2.08359
 Alpha virt. eigenvalues --    2.08511   2.08823   2.09091   2.09397   2.09635
 Alpha virt. eigenvalues --    2.09912   2.10331   2.10656   2.10751   2.11120
 Alpha virt. eigenvalues --    2.11913   2.12019   2.12301   2.12553   2.13155
 Alpha virt. eigenvalues --    2.13602   2.14050   2.14726   2.15172   2.15576
 Alpha virt. eigenvalues --    2.15748   2.15934   2.16597   2.16728   2.16967
 Alpha virt. eigenvalues --    2.17708   2.18575   2.18763   2.19036   2.19059
 Alpha virt. eigenvalues --    2.19519   2.19676   2.19806   2.20078   2.20305
 Alpha virt. eigenvalues --    2.20877   2.21520   2.21818   2.21910   2.22544
 Alpha virt. eigenvalues --    2.22809   2.23238   2.23460   2.24046   2.24391
 Alpha virt. eigenvalues --    2.24625   2.24935   2.25750   2.26125   2.26170
 Alpha virt. eigenvalues --    2.26618   2.26746   2.27235   2.27676   2.28149
 Alpha virt. eigenvalues --    2.28688   2.29445   2.29805   2.31317   2.31595
 Alpha virt. eigenvalues --    2.31719   2.31997   2.32413   2.33252   2.33321
 Alpha virt. eigenvalues --    2.33583   2.33733   2.34173   2.35040   2.35729
 Alpha virt. eigenvalues --    2.36066   2.37021   2.37874   2.38891   2.38909
 Alpha virt. eigenvalues --    2.39533   2.39627   2.41206   2.43556   2.44080
 Alpha virt. eigenvalues --    2.44773   2.45605   2.45813   2.47302   2.48170
 Alpha virt. eigenvalues --    2.48660   2.48993   2.49086   2.49627   2.49809
 Alpha virt. eigenvalues --    2.49957   2.50409   2.50871   2.51073   2.51508
 Alpha virt. eigenvalues --    2.53370   2.53901   2.58216   2.59241   2.59558
 Alpha virt. eigenvalues --    2.60291   2.60497   2.60902   2.61497   2.62513
 Alpha virt. eigenvalues --    2.62774   2.64786   2.64991   2.65164   2.65556
 Alpha virt. eigenvalues --    2.66291   2.66662   2.67751   2.68609   2.70849
 Alpha virt. eigenvalues --    2.74902   2.75972   2.76247   2.76693   2.77104
 Alpha virt. eigenvalues --    2.77993   2.78288   2.78468   2.78710   2.79996
 Alpha virt. eigenvalues --    2.80623   2.80832   2.81054   2.81682   2.82277
 Alpha virt. eigenvalues --    2.82380   2.82570   2.83225   2.84230   2.85251
 Alpha virt. eigenvalues --    2.86431   2.88454   2.88836   2.89610   2.91221
 Alpha virt. eigenvalues --    2.91813   2.92740   2.94017   2.94652   2.96290
 Alpha virt. eigenvalues --    2.97190   2.98386   2.99385   3.02816   3.03896
 Alpha virt. eigenvalues --    3.05253   3.05719   3.06399   3.06498   3.07634
 Alpha virt. eigenvalues --    3.08125   3.10679   3.11798   3.11825   3.12379
 Alpha virt. eigenvalues --    3.13246   3.13767   3.14608   3.20367   3.26381
 Alpha virt. eigenvalues --    3.32064   3.45163  11.61582
          Condensed to atoms (all electrons):
 Mulliken charges:
               1
     1  C    0.340473
     2  C    0.046073
     3  C   -0.064852
     4  C   -0.162908
     5  C   -0.178152
     6  C    0.318811
     7  C    0.030598
     8  C   -0.076746
     9  C   -0.156491
    10  C   -0.180445
    11  H    0.192101
    12  H    0.202116
    13  H    0.180788
    14  H    0.241498
    15  H    0.202609
    16  H    0.182256
    17  N   -0.478005
    18  N   -0.504755
    19  Ir  -0.088695
    20  O   -0.528200
    21  O   -0.514641
    22  O   -0.537974
    23  B    0.478345
    24  B    0.532250
    25  B    0.424832
    26  O   -0.519179
    27  O   -0.512369
    28  C    0.288214
    29  C    0.298388
    30  C    0.299956
    31  C    0.294767
    32  C    0.292869
    33  C    0.304353
    34  O   -0.535212
    35  C   -0.511209
    36  H    0.150033
    37  H    0.163493
    38  H    0.176610
    39  C   -0.512034
    40  H    0.180009
    41  H    0.161094
    42  H    0.152159
    43  C   -0.488661
    44  H    0.158353
    45  H    0.139835
    46  H    0.184362
    47  C   -0.512206
    48  H    0.167786
    49  H    0.172452
    50  H    0.148577
    51  C   -0.505975
    52  H    0.156522
    53  H    0.140221
    54  H    0.193566
    55  C   -0.509693
    56  H    0.165498
    57  H    0.166326
    58  H    0.147690
    59  C   -0.506475
    60  H    0.162544
    61  H    0.176751
    62  H    0.147070
    63  C   -0.510590
    64  H    0.171511
    65  H    0.160910
    66  H    0.151429
    67  C   -0.511569
    68  H    0.168836
    69  H    0.165680
    70  H    0.148796
    71  C   -0.500336
    72  H    0.140781
    73  H    0.190534
    74  H    0.160343
    75  C   -0.510175
    76  H    0.179091
    77  H    0.151682
    78  H    0.156430
    79  C   -0.503624
    80  H    0.151414
    81  H    0.158073
    82  H    0.167279
    83  H    0.235179
    84  C    0.598663
    85  O   -0.522879
    86  C   -0.424234
    87  H    0.179065
    88  H    0.158713
    89  C   -0.391305
    90  H    0.184451
    91  H    0.222911
    92  N   -0.389683
    93  C   -0.381028
    94  H    0.173878
    95  H    0.177419
    96  H    0.208569
    97  C   -0.259436
    98  H    0.132823
    99  H    0.162523
   100  C   -0.281810
   101  H    0.143248
   102  H    0.127417
   103  C   -0.271562
   104  H    0.124916
   105  H    0.150491
   106  C   -0.497414
   107  H    0.161101
   108  H    0.161450
   109  H    0.163780
   110  C    0.977693
   111  F   -0.298951
   112  F   -0.316406
   113  F   -0.309568
   114  C    0.968616
   115  F   -0.314454
   116  F   -0.309989
   117  F   -0.308057
 Sum of Mulliken charges =  -0.00000
 Mulliken charges with hydrogens summed into heavy atoms:
               1
     1  C    0.340473
     2  C    0.238174
     3  C   -0.064852
     4  C    0.039208
     5  C    0.002636
     6  C    0.318811
     7  C    0.272097
     8  C   -0.076746
     9  C    0.046118
    10  C    0.001812
    17  N   -0.478005
    18  N   -0.504755
    19  Ir  -0.088695
    20  O   -0.528200
    21  O   -0.514641
    22  O   -0.537974
    23  B    0.478345
    24  B    0.532250
    25  B    0.424832
    26  O   -0.519179
    27  O   -0.512369
    28  C    0.288214
    29  C    0.298388
    30  C    0.299956
    31  C    0.294767
    32  C    0.292869
    33  C    0.304353
    34  O   -0.535212
    35  C   -0.021074
    39  C   -0.018772
    43  C   -0.006111
    47  C   -0.023391
    51  C   -0.015666
    55  C   -0.030180
    59  C   -0.020109
    63  C   -0.026740
    67  C   -0.028257
    71  C   -0.008678
    75  C   -0.022972
    79  C   -0.026858
    84  C    0.598663
    85  O   -0.522879
    86  C   -0.086456
    89  C    0.251237
    92  N   -0.389683
    93  C    0.178838
    97  C    0.035911
   100  C   -0.011145
   103  C    0.003844
   106  C   -0.011082
   110  C    0.977693
   111  F   -0.298951
   112  F   -0.316406
   113  F   -0.309568
   114  C    0.968616
   115  F   -0.314454
   116  F   -0.309989
   117  F   -0.308057
 APT charges:
               1
     1  C    0.252707
     2  C    0.084904
     3  C   -0.219609
     4  C    0.099072
     5  C   -0.191255
     6  C    0.219715
     7  C    0.033615
     8  C   -0.197116
     9  C    0.108365
    10  C   -0.193914
    11  H    0.091693
    12  H    0.074510
    13  H    0.049505
    14  H    0.161419
    15  H    0.058055
    16  H    0.047310
    17  N   -0.189066
    18  N   -0.165346
    19  Ir  -0.627561
    20  O   -0.956974
    21  O   -0.996883
    22  O   -1.035737
    23  B    1.270003
    24  B    1.270428
    25  B    1.240446
    26  O   -0.975636
    27  O   -0.975140
    28  C    0.489318
    29  C    0.490089
    30  C    0.475387
    31  C    0.501555
    32  C    0.488908
    33  C    0.517974
    34  O   -1.024102
    35  C   -0.014502
    36  H   -0.015340
    37  H   -0.006101
    38  H    0.007075
    39  C   -0.031674
    40  H    0.004218
    41  H   -0.008794
    42  H   -0.017934
    43  C   -0.038756
    44  H    0.004007
    45  H   -0.030369
    46  H    0.027665
    47  C   -0.010521
    48  H   -0.001030
    49  H    0.002247
    50  H   -0.017820
    51  C   -0.047292
    52  H    0.001505
    53  H   -0.032801
    54  H    0.041727
    55  C   -0.002193
    56  H   -0.002155
    57  H   -0.001600
    58  H   -0.021572
    59  C   -0.012245
    60  H   -0.004932
    61  H    0.006303
    62  H   -0.022190
    63  C   -0.026135
    64  H   -0.000012
    65  H   -0.008896
    66  H   -0.026935
    67  C   -0.013808
    68  H    0.001223
    69  H    0.001721
    70  H   -0.017351
    71  C   -0.043363
    72  H   -0.032209
    73  H    0.033644
    74  H    0.000558
    75  C   -0.007474
    76  H    0.009992
    77  H   -0.019794
    78  H   -0.012817
    79  C   -0.023290
    80  H   -0.012484
    81  H   -0.021234
    82  H   -0.007068
    83  H   -0.032290
    84  C    0.886495
    85  O   -0.713705
    86  C   -0.024712
    87  H   -0.013586
    88  H    0.002633
    89  C    0.250052
    90  H   -0.054060
    91  H    0.070312
    92  N   -0.701720
    93  C    0.260498
    94  H    0.005766
    95  H   -0.015528
    96  H    0.039965
    97  C    0.102777
    98  H   -0.019578
    99  H   -0.034586
   100  C    0.087147
   101  H   -0.052581
   102  H   -0.022806
   103  C    0.136201
   104  H   -0.066728
   105  H   -0.050965
   106  C    0.058301
   107  H   -0.021570
   108  H   -0.009145
   109  H   -0.035392
   110  C    1.754903
   111  F   -0.563166
   112  F   -0.578660
   113  F   -0.544709
   114  C    1.845739
   115  F   -0.615886
   116  F   -0.609738
   117  F   -0.525512
 Sum of APT charges =  -0.00000
 APT charges with hydrogens summed into heavy atoms:
               1
     1  C    0.252707
     2  C    0.176597
     3  C   -0.219609
     4  C    0.173582
     5  C   -0.141750
     6  C    0.219715
     7  C    0.195034
     8  C   -0.197116
     9  C    0.166421
    10  C   -0.146604
    17  N   -0.189066
    18  N   -0.165346
    19  Ir  -0.627561
    20  O   -0.956974
    21  O   -0.996883
    22  O   -1.035737
    23  B    1.270003
    24  B    1.270428
    25  B    1.240446
    26  O   -0.975636
    27  O   -0.975140
    28  C    0.489318
    29  C    0.490089
    30  C    0.475387
    31  C    0.501555
    32  C    0.488908
    33  C    0.517974
    34  O   -1.024102
    35  C   -0.028868
    39  C   -0.054184
    43  C   -0.037454
    47  C   -0.027123
    51  C   -0.036862
    55  C   -0.027519
    59  C   -0.033065
    63  C   -0.061979
    67  C   -0.028216
    71  C   -0.041370
    75  C   -0.030094
    79  C   -0.064076
    84  C    0.886495
    85  O   -0.713705
    86  C   -0.035665
    89  C    0.234014
    92  N   -0.701720
    93  C    0.290701
    97  C    0.048613
   100  C    0.011760
   103  C    0.018508
   106  C   -0.007807
   110  C    1.754903
   111  F   -0.563166
   112  F   -0.578660
   113  F   -0.544709
   114  C    1.845739
   115  F   -0.615886
   116  F   -0.609738
   117  F   -0.525512
 Electronic spatial extent (au):  <R**2>=          38282.7327
 Charge=             -0.0000 electrons
 Dipole moment (field-independent basis, Debye):
    X=             -3.5829    Y=              1.5525    Z=              1.2238  Tot=              4.0921
 Quadrupole moment (field-independent basis, Debye-Ang):
   XX=           -351.3052   YY=           -347.8780   ZZ=           -341.8169
   XY=            -10.0947   XZ=             -1.1596   YZ=             13.4432
 Traceless Quadrupole moment (field-independent basis, Debye-Ang):
   XX=             -4.3052   YY=             -0.8780   ZZ=              5.1831
   XY=            -10.0947   XZ=             -1.1596   YZ=             13.4432
 Octapole moment (field-independent basis, Debye-Ang**2):
  XXX=             74.1238  YYY=             20.7508  ZZZ=            -25.2496  XYY=            -25.4403
  XXY=             20.1890  XXZ=            -25.7204  XZZ=              5.9233  YZZ=             18.0029
  YYZ=             34.5419  XYZ=            -42.8845
 Hexadecapole moment (field-independent basis, Debye-Ang**3):
 XXXX=         -24997.0954 YYYY=         -14832.2284 ZZZZ=          -8493.2812 XXXY=            155.9091
 XXXZ=           -152.5014 YYYX=            203.0586 YYYZ=            226.3194 ZZZX=              7.0147
 ZZZY=            -90.8069 XXYY=          -6879.4611 XXZZ=          -5460.7227 YYZZ=          -3993.1340
 XXYZ=             46.8793 YYXZ=           -112.7008 ZZXY=             92.0531
 N-N= 1.039583360501D+04 E-N=-2.767189745154D+04  KE= 2.862888317360D+03
  Exact polarizability:     586.093       2.566     542.877     -32.804      26.847     434.896
 Approx polarizability:     785.920      23.855     803.648     -65.097      52.178     652.121
   1 Symmetry operations used in ECPInt.
 ECPInt:  NShTT=   62835 NPrTT=  387974 LenC2=   44754 LenP2D=  136107.
 LDataN:  DoStor=T MaxTD1= 8 Len=  415
 Calling FoFJK, ICntrl=    100127 FMM=F ISym2X=0 I1Cent= 0 IOpClX= 0 NMat=1 NMatS=1 NMatT=0.
 Defaulting to unpruned grid for atomic number  77.
 Defaulting to unpruned grid for atomic number  77.
 Defaulting to unpruned grid for atomic number  77.
 Defaulting to unpruned grid for atomic number  77.
 Defaulting to unpruned grid for atomic number  77.
 Defaulting to unpruned grid for atomic number  77.
 Defaulting to unpruned grid for atomic number  77.
 Defaulting to unpruned grid for atomic number  77.
 Defaulting to unpruned grid for atomic number  77.
 Defaulting to unpruned grid for atomic number  77.
 Defaulting to unpruned grid for atomic number  77.
 Defaulting to unpruned grid for atomic number  77.
 Defaulting to unpruned grid for atomic number  77.
 Defaulting to unpruned grid for atomic number  77.
 Defaulting to unpruned grid for atomic number  77.
 Defaulting to unpruned grid for atomic number  77.
 Full mass-weighted force constant matrix:
 Low frequencies ---   -4.5641    0.0005    0.0008    0.0010    1.5013    4.9449
 Low frequencies ---    6.6897   15.2966   18.5200
 Diagonal vibrational polarizability:
     1034.1433726     274.8677506    4292.2177373
 Harmonic frequencies (cm**-1), IR intensities (KM/Mole), Raman scattering
 activities (A**4/AMU), depolarization ratios for plane and unpolarized
 incident light, reduced masses (AMU), force constants (mDyne/A),
 and normal coordinates:
                      1                      2                      3
                      A                      A                      A
 Frequencies --      1.4301                15.2932                18.4457
 Red. masses --      5.7157                 4.4077                 5.6313
 Frc consts  --      0.0000                 0.0006                 0.0011
 IR Inten    --      0.4027                 0.2437                 0.1596
  Atom AN      X      Y      Z        X      Y      Z        X      Y      Z
     1   6     0.00  -0.02   0.01    -0.02   0.00   0.02    -0.00  -0.02   0.03
     2   6    -0.01  -0.00  -0.03    -0.01  -0.00   0.03    -0.01  -0.01  -0.00
     3   6    -0.01  -0.01  -0.03    -0.03   0.01  -0.01     0.01  -0.03   0.05
     4   6    -0.01  -0.02  -0.01    -0.04   0.02  -0.03     0.03  -0.04   0.09
     5   6    -0.00  -0.02   0.01    -0.04   0.01  -0.01     0.02  -0.04   0.08
     6   6     0.01  -0.02   0.04    -0.02  -0.00   0.02    -0.01  -0.01   0.02
     7   6     0.00  -0.01   0.02    -0.01  -0.00   0.03    -0.03   0.00  -0.02
     8   6     0.03  -0.03   0.10    -0.02   0.00   0.02    -0.02  -0.00   0.01
     9   6     0.06  -0.04   0.15    -0.02   0.00   0.02    -0.00  -0.01   0.05
    10   6     0.05  -0.04   0.12    -0.02   0.00   0.02     0.00  -0.02   0.05
    11   1    -0.02   0.00  -0.05    -0.00  -0.01   0.05    -0.03   0.01  -0.03
    12   1    -0.01  -0.02  -0.01    -0.06   0.03  -0.06     0.05  -0.06   0.13
    13   1    -0.00  -0.03   0.02    -0.05   0.02  -0.03     0.04  -0.05   0.11
    14   1    -0.01  -0.01  -0.02    -0.01  -0.00   0.03    -0.04   0.01  -0.04
    15   1     0.08  -0.06   0.21    -0.02   0.00   0.01     0.00  -0.02   0.08
    16   1     0.07  -0.05   0.17    -0.02   0.00   0.02     0.01  -0.03   0.08
    17   7    -0.01  -0.01  -0.01    -0.01  -0.01   0.04    -0.02  -0.00  -0.02
    18   7    -0.01  -0.01  -0.00    -0.01  -0.00   0.03    -0.02  -0.00  -0.01
    19  77    -0.01  -0.00  -0.03    -0.01  -0.00   0.04    -0.02   0.00  -0.03
    20   8     0.02   0.09  -0.01     0.05  -0.02   0.04    -0.07  -0.01  -0.03
    21   8    -0.02  -0.00  -0.05    -0.03   0.01  -0.01    -0.01   0.00   0.00
    22   8     0.02  -0.03  -0.01    -0.04   0.00   0.07    -0.02  -0.01  -0.01
    23   5    -0.02  -0.00  -0.04    -0.02   0.00   0.01    -0.02   0.00  -0.01
    24   5     0.01   0.04  -0.03     0.03  -0.01   0.03    -0.05   0.01  -0.01
    25   5    -0.00  -0.01  -0.01    -0.01  -0.00   0.04    -0.02   0.00  -0.02
    26   8    -0.01   0.01   0.02     0.02  -0.01   0.02    -0.02   0.01  -0.01
    27   8     0.01   0.04  -0.04     0.04  -0.01  -0.00    -0.05   0.03   0.00
    28   6     0.03   0.09  -0.02     0.06  -0.02  -0.01    -0.06   0.04   0.00
    29   6     0.05   0.13  -0.02     0.07  -0.03   0.03    -0.08   0.01  -0.01
    30   6     0.01  -0.02   0.02    -0.02  -0.00   0.06    -0.01  -0.01  -0.00
    31   6    -0.00  -0.01   0.05     0.01  -0.00   0.01    -0.01   0.00   0.00
    32   6    -0.02  -0.01  -0.04    -0.03   0.02  -0.06    -0.01   0.01   0.00
    33   6    -0.01  -0.01  -0.02    -0.04   0.02  -0.07    -0.03   0.02  -0.02
    34   8    -0.02  -0.01  -0.04    -0.01   0.01  -0.02    -0.03   0.01  -0.02
    35   6     0.06   0.18   0.02     0.10  -0.04   0.03    -0.08   0.00  -0.02
    36   1     0.08   0.22   0.02     0.11  -0.04   0.02    -0.09   0.02  -0.01
    37   1     0.07   0.20   0.02     0.10  -0.04   0.05    -0.09  -0.02  -0.03
    38   1     0.05   0.17   0.07     0.09  -0.03   0.03    -0.05  -0.01  -0.02
    39   6     0.07   0.15  -0.09     0.08  -0.03   0.03    -0.11   0.02  -0.01
    40   1     0.03   0.12  -0.15     0.08  -0.03   0.03    -0.13   0.03  -0.02
    41   1     0.08   0.16  -0.07     0.09  -0.03   0.05    -0.13  -0.00  -0.02
    42   1     0.11   0.19  -0.12     0.10  -0.04   0.03    -0.12   0.04  -0.01
    43   6     0.00   0.09   0.03     0.06  -0.02  -0.02    -0.03   0.03   0.00
    44   1    -0.01   0.06   0.04     0.05  -0.01  -0.04    -0.01   0.05   0.01
    45   1     0.01   0.12   0.05     0.09  -0.03  -0.02    -0.03   0.03   0.00
    46   1    -0.00   0.09   0.05     0.05  -0.02   0.00    -0.02   0.01  -0.01
    47   6     0.04   0.10  -0.06     0.08  -0.03  -0.03    -0.07   0.06   0.02
    48   1     0.03   0.07  -0.06     0.07  -0.02  -0.05    -0.06   0.08   0.03
    49   1     0.05   0.09  -0.10     0.08  -0.02  -0.02    -0.09   0.07   0.02
    50   1     0.06   0.14  -0.05     0.10  -0.03  -0.03    -0.08   0.06   0.02
    51   6    -0.03  -0.03  -0.05     0.01   0.03  -0.07    -0.01   0.04   0.02
    52   1    -0.03  -0.03  -0.06     0.01   0.03  -0.06     0.00   0.04   0.04
    53   1    -0.03  -0.03  -0.04     0.01   0.04  -0.11    -0.01   0.05   0.02
    54   1    -0.04  -0.04  -0.04     0.04   0.03  -0.06    -0.01   0.06   0.01
    55   6    -0.02  -0.00  -0.04    -0.07   0.02  -0.08    -0.01  -0.00   0.01
    56   1    -0.02   0.00  -0.06    -0.06   0.02  -0.07     0.01  -0.00   0.03
    57   1    -0.01   0.01  -0.04    -0.11   0.01  -0.06    -0.01  -0.02   0.01
    58   1    -0.01  -0.01  -0.03    -0.08   0.03  -0.11    -0.01   0.01   0.01
    59   6    -0.02  -0.03   0.00    -0.01   0.04  -0.13    -0.03   0.05  -0.04
    60   1    -0.01  -0.03   0.01    -0.02   0.04  -0.14    -0.04   0.05  -0.06
    61   1    -0.04  -0.04  -0.00     0.04   0.04  -0.13    -0.01   0.06  -0.04
    62   1    -0.01  -0.04   0.02    -0.03   0.04  -0.17    -0.03   0.05  -0.05
    63   6     0.02   0.00  -0.02    -0.11   0.02  -0.07    -0.05  -0.00  -0.03
    64   1     0.03   0.02  -0.03    -0.14   0.01  -0.03    -0.06  -0.02  -0.02
    65   1     0.03   0.00  -0.01    -0.11   0.02  -0.07    -0.07  -0.00  -0.05
    66   1     0.03  -0.00  -0.00    -0.14   0.02  -0.11    -0.06   0.00  -0.04
    67   6    -0.02   0.02   0.08     0.05  -0.01   0.01    -0.00   0.01   0.01
    68   1    -0.03   0.03   0.10     0.07  -0.01  -0.02    -0.00   0.01   0.01
    69   1    -0.03   0.04   0.06     0.07  -0.03   0.03    -0.01   0.01   0.01
    70   1    -0.01   0.01   0.10     0.04  -0.01   0.00    -0.00   0.00   0.01
    71   6     0.01  -0.03   0.08    -0.02   0.02  -0.03    -0.01   0.00   0.00
    72   1     0.02  -0.04   0.10    -0.03   0.02  -0.04    -0.00  -0.00   0.01
    73   1     0.03  -0.05   0.06    -0.05   0.03  -0.03    -0.02  -0.00  -0.01
    74   1    -0.00  -0.02   0.09     0.00   0.02  -0.06    -0.01   0.02   0.00
    75   6     0.03  -0.06   0.04    -0.06   0.01   0.05    -0.01  -0.02   0.00
    76   1     0.04  -0.08   0.05    -0.08   0.03   0.03    -0.01  -0.02   0.00
    77   1     0.03  -0.05   0.06    -0.04   0.01   0.04    -0.01  -0.02   0.01
    78   1     0.04  -0.07   0.02    -0.08   0.01   0.08    -0.01  -0.02   0.00
    79   6    -0.00  -0.00   0.01     0.01  -0.03   0.09    -0.01  -0.01   0.00
    80   1     0.01  -0.01  -0.02    -0.02  -0.04   0.12    -0.01  -0.01   0.00
    81   1    -0.01   0.00   0.03     0.03  -0.03   0.10    -0.01  -0.01   0.01
    82   1    -0.01   0.02  -0.00     0.03  -0.03   0.09    -0.01  -0.00  -0.00
    83   1    -0.01  -0.04  -0.03     0.03  -0.05   0.04     0.08  -0.06  -0.05
    84   6    -0.02  -0.04  -0.00     0.06  -0.01  -0.02     0.12  -0.02  -0.05
    85   8    -0.02  -0.04  -0.00     0.06  -0.02  -0.01     0.14  -0.02  -0.05
    86   6    -0.03  -0.03  -0.00     0.05  -0.01  -0.04     0.12  -0.01  -0.01
    87   1    -0.02  -0.03  -0.00     0.07  -0.00  -0.05     0.09  -0.01  -0.00
    88   1    -0.03  -0.03   0.01     0.04  -0.01  -0.05     0.13  -0.01  -0.02
    89   6    -0.03  -0.04  -0.01     0.06  -0.04   0.01     0.10  -0.05  -0.07
[...]
 02387,0.00006348,0.00006400,0.00000820,-0.00002153,0.00002720,-0.00002
 238,-0.00001280,-0.00000673,0.00001423,0.00003973,-0.00001534,-0.00003
 210,0.00009986,0.00014264,0.00000164,-0.00007233,-0.00011481,-0.000028
 63,-0.00001486,-0.00001819,0.00002680,-0.00002508,0.00006128,0.0000135
 2,-0.00000326,0.00005540,-0.00001846,0.00001769,-0.00000615,0.,-0.0000
 2020,0.00002030,0.00001628,0.00002210,-0.00001946,0.00001566,-0.000085
 48,0.00002750,-0.00000392,0.00002324,-0.00000515,0.00001035,0.00002378
 ,-0.00001640,0.00001021,-0.00000373,0.00002565,-0.00001762,-0.00005985
 ,-0.00000837,0.00000078,-0.00002438,0.00001434,0.00002526,-0.00000267,
 -0.00000091,-0.00000301,0.00000675,-0.00000949,-0.00001242,-0.00002692
 ,0.00000152,-0.00000101,-0.00003127,0.00000255,0.00001288,0.00001800,0
 .00003733,0.00000683,0.00001189,-0.00000680,0.00003081,0.00007675,0.00
 004923,-0.00007233,0.00000656,-0.00011693,0.00001744,-0.00010479,0.000
 05303,0.00001594,-0.00001177,0.00000858,0.00005063,0.00041375,0.000122
 31,0.00002079,-0.00001537,0.00002760,-0.00008208,-0.00022579,-0.000038
 22,0.00003236,-0.00009986,-0.00001397,-0.00000021,-0.00000584,-0.00000
 389,0.00001436,-0.00000460,0.00000248,-0.00001134,0.00000189,-0.000000
 50,-0.00000246,-0.00000888,0.00000222,-0.00000845,-0.00000731,-0.00000
 998,-0.00000019,-0.00001218,-0.00000712,0.00000140,0.00000620,0.000015
 55,0.00000886,0.00000565,0.,-0.00000135,-0.00001339,-0.00000014,-0.000
 00287,0.00000647,0.00000180,-0.00000078,-0.00001665,-0.00000107,0.0000
 0416,0.00000673,0.00000073,-0.00000655,-0.00001546,0.00000160,0.000008
 95,0.00000564,0.00000797,-0.00000514,-0.00001864,0.00000113,-0.0000037
 0,0.00000896,-0.00001001,0.00000333,-0.00001975,0.00000867,0.00011076,
 0.00016937,0.00007352,-0.00015967,-0.00018193,-0.00005277,-0.00003138,
 -0.00002350,-0.00000612,-0.00000767,0.00000303,-0.00000683,-0.00000434
 ,0.00000096,0.00000858,0.00003032,0.00008605,0.00003831,0.00000697,0.0
 0001567,0.00003134,0.00004310,0.00001820,-0.00003295,-0.00004188,-0.00
 011740,-0.00004080,-0.00000065,0.00007238,0.00003433,-0.00001735,-0.00
 000954,-0.00000320,0.00000837,0.00000079,-0.00000484,-0.00000407,-0.00
 000840,-0.00000281,0.00000921,-0.00000509,0.00000596,0.00000739,-0.000
 00319,-0.00000839,0.00000464,-0.00000036,-0.00000192,0.00001300,0.0000
 0445,0.00000334,-0.00001034,0.00000079,-0.00000603,0.00000058,0.000002
 65,0.00000408,0.00000249,-0.00001184,-0.00000272,0.00000158,-0.0000033
 9,-0.00000441,-0.00000106,0.00000259,-0.00000235,0.00000262,0.00000639
 ,0.00000249,-0.00000221,-0.00000247,-0.00000463,0.00000365,-0.00000367
 ,-0.00000118,-0.00001336,0.00000551,0.00000951,0.00024597,0.00027008,-
 0.00012508,-0.00003974,-0.00014128,0.00007761,-0.00010690,-0.00002982,
 0.00004475,-0.00005461,-0.00007419,0.00000459,-0.08517083,-0.06304421,
 -0.21481273,-0.03808706,0.02015547,-0.05723472,0.12764484,0.09239477,0
 .33573003,0.00075662,0.00040289,-0.00026775,-0.00015733,0.00002050,0.0
 0014863,-0.00018136,-0.00040536,-0.00015466,0.00028560,0.00023049,-0.0
 0003789,-0.00050806,-0.00028567,0.00018436,0.00026150,0.00045831,0.000
 13124,-0.00163647,0.00247010,0.00099909,-0.03394152,0.01927808,0.02913
 396,-0.00274363,-0.00815122,0.00051081,-0.00198814,0.00082664,0.000451
 91,-0.00003389,0.00001061,0.00001531,-0.00002101,-0.00000021,0.0000156
 7,0.00011680,-0.00001619,-0.00009484,-0.00183161,-0.00157969,0.0004320
 9,0.00061874,0.00009804,-0.00017295,-0.00063486,-0.00047966,0.00008189
 ,-0.00024935,-0.00038621,-0.00002020,-0.00034034,-0.00034543,-0.000110
 86,0.00066392,-0.00003811,0.00065927,0.00027601,-0.00017231,0.00024861
 ,0.00109541,0.00017445,-0.00025836,-0.00001444,-0.00048429,-0.00010924
 ,-0.00238127,-0.00031593,0.00036510,-0.00074597,0.00035623,-0.00066492
 ,-0.00024808,0.00079426,-0.00010703,0.00015069,-0.00048214,0.00001341,
 0.00056069,-0.00012265,0.00024999,-0.00008432,0.00003555,-0.00008594,-
 0.00014850,0.00007152,-0.00015055,-0.00003477,0.00016900,-0.00003087,-
 0.00005844,0.00014815,0.00010214,-0.00038564,-0.00033373,-0.00010073,-
 0.00067156,-0.00028828,0.00058179,0.00205696,0.00059586,-0.00041004,0.
 00001071,-0.00000784,0.00001696,0.00000981,-0.00000579,0.00002713,0.00
 001357,-0.00000532,-0.00002415,-0.00001172,0.00000192,-0.00000456,-0.0
 0000223,-0.00000703,0.00003787,-0.00008897,0.00002476,-0.00002069,0.00
 006478,0.00000421,-0.00005635,0.00001446,-0.00001814,0.00004722,0.0000
 1634,0.00000122,0.00002748,0.00001107,-0.00002285,-0.00001268,-0.00000
 171,-0.00001229,0.00000921,0.00001070,0.00002434,-0.00000602,0.0000054
 2,-0.00003994,0.00000510,0.00003195,-0.00004513,-0.00000433,-0.0000348
 2,0.00002966,0.00002982,0.00001728,0.00001694,-0.00000145,0.00010738,0
 .00013141,0.00002423,-0.00001034,0.00008677,-0.00000848,0.00006744,-0.
 00004477,0.00000603,-0.00007813,-0.00003140,0.00001659,0.00006747,0.00
 004669,0.00000434,-0.00001347,0.00007355,-0.00000825,-0.00003735,-0.00
 004565,-0.00004375,0.00006214,-0.00003899,-0.00002254,0.00008414,-0.00
 034034,-0.00004669,0.00013639,0.00014820,0.00001421,-0.00002021,0.0000
 2837,-0.00004886,0.00002714,0.00008880,0.00006053,0.00011081,-0.000849
 39,-0.00025547,0.00003597,0.00016356,0.00010461,-0.00048663,0.00117099
 ,0.00021410,0.00000055,0.00013945,-0.00004041,0.00001470,-0.00002130,-
 0.00001808,0.00001318,-0.00000438,0.00001700,0.00000641,0.00000996,-0.
 00001736,-0.00000752,-0.00001609,0.00000166,0.00001474,-0.00002776,-0.
 00001182,0.00001619,-0.00001045,-0.00001737,-0.00003753,0.00000126,-0.
 00001837,0.00001364,-0.00001819,0.00003245,-0.00000647,-0.00002769,0.0
 0000994,0.00000639,0.00000618,-0.00001425,-0.00000433,-0.00002406,-0.0
 0000866,0.00000623,0.00000642,0.00000386,0.00000899,-0.00003282,0.0000
 1595,0.00002164,0.00000961,0.00002438,-0.00000615,-0.00002680,-0.00000
 025,-0.00001257,0.00001211,-0.00003463,-0.00001932,0.00002949,0.000037
 90,-0.00006238,0.00050479,0.00039416,-0.00017755,-0.00036015,-0.000387
 04,-0.00001531,-0.00005712,0.00000577,-0.00001223,0.00000136,-0.000032
 63,0.00000193,0.00001194,0.00002470,-0.00007336,-0.00002940,0.00007501
 ,-0.00002923,-0.00001303,-0.00010833,-0.00002862,0.00002836,0.00011242
 ,0.00017410,-0.00017799,-0.00027464,0.00003469,0.00008206,0.00009154,-
 0.00001149,-0.00000106,0.00000763,0.00001311,-0.00000824,-0.00004119,-
 0.00000933,-0.00001363,0.00000129,0.00003162,0.00001045,0.00005580,0.0
 0000647,-0.00001455,-0.00003045,-0.00000022,0.00000495,-0.00000463,0.0
 0001504,-0.00001802,-0.00000026,-0.00002664,-0.00000070,-0.00002390,0.
 00000963,0.00001199,0.00000907,0.00002563,-0.00000355,0.00002715,-0.00
 001219,-0.00000491,-0.00003118,-0.00000158,0.00000415,0.00000002,0.000
 00581,0.00000390,-0.00000295,-0.00001149,-0.00000484,-0.00001468,0.000
 00671,-0.00000191,0.00000223,-0.00000857,0.00000591,0.00001112,0.00055
 582,0.00065083,-0.00004683,-0.00009879,-0.00029481,0.00010729,-0.00019
 744,-0.00008326,0.00004610,-0.00014017,-0.00022224,-0.00012462,-0.2174
 2820,0.05675669,0.09617329,-0.02226635,0.04249940,0.00173682,0.0203064
 2,0.00410133,0.00901249,0.26147354,-0.00003839,0.00017610,0.00004398,-
 0.00001654,0.00002244,0.00001093,-0.00002341,-0.00005675,-0.00001774,0
 .00000325,0.00006673,0.00002406,-0.00011282,-0.00010478,0.00003203,-0.
 00054737,0.00042607,0.00032933,-0.00024417,-0.00494152,-0.00041865,-0.
 00886958,0.01094464,0.00496960,-0.00041454,-0.00177445,-0.00044215,-0.
 00110518,-0.00010586,0.00047559,0.00001201,-0.00000075,-0.00000663,-0.
 00000836,-0.00000597,0.00000331,0.00001686,0.00000345,0.00000055,-0.00
 186443,0.00103043,0.00093047,-0.00041885,0.00025577,0.00031749,-0.0001
 3354,-0.00011033,0.00006697,-0.00002109,0.00004587,-0.00000188,-0.0006
 2322,0.00127351,0.00059416,0.00000778,-0.00013584,0.00015297,-0.000022
 93,-0.00002029,0.00026416,-0.00005911,-0.00032813,-0.00011321,-0.00009
 923,-0.00021618,-0.00008346,0.00064264,0.00059583,0.00005203,0.0000155
 6,0.00008162,-0.00035058,0.00005762,0.00035152,0.00005529,-0.00002149,
 -0.00021111,0.00000853,0.00000315,-0.00009553,0.00020663,0.00000008,0.
 00006236,-0.00014084,-0.00005131,-0.00001712,-0.00010264,0.00002456,0.
 00008751,-0.00001654,0.00003079,0.00007592,0.00002606,-0.00003430,0.00
 012821,0.00000601,-0.00020481,0.00044009,0.00012240,-0.00032550,-0.000
 61976,-0.00009665,-0.00000016,0.00000552,0.00000944,0.00000737,-0.0000
 0591,0.00000984,-0.00001345,0.00000298,0.00000079,0.00000177,0.0000016
 7,-0.00000414,0.00002368,0.00003898,-0.00000073,-0.00000288,-0.0000246
 6,-0.00001857,-0.00002172,-0.00000543,-0.00000167,0.00001124,-0.000010
 95,0.00002245,-0.00000091,-0.00000913,0.00001278,-0.00000497,0.0000107
 7,-0.00000492,0.00000095,-0.00001246,0.00001770,0.00000024,0.00000470,
 -0.00000823,0.00000979,0.00000296,0.00001482,-0.00000455,0.00001457,-0
 .00000863,0.00000287,-0.00000683,-0.00002549,-0.00000424,-0.00001297,0
 .00002168,-0.00001756,-0.00004228,-0.00000641,-0.00000369,-0.00003631,
 0.00000105,0.00000907,0.00001078,0.00000221,0.00000920,0.00002152,-0.0
 0001860,-0.00001259,-0.00004921,0.00000467,0.00000073,-0.00003815,-0.0
 0001082,0.00000079,0.00002030,0.00001192,0.00000217,0.00001270,0.00000
 312,-0.00008895,-0.00007976,-0.00003249,-0.00012006,0.00008025,-0.0000
 1216,-0.00001606,0.00002254,0.00002528,0.00004963,-0.00001188,-0.00004
 232,-0.00005450,-0.00044637,0.00003698,-0.00003648,0.00004771,0.000014
 70,0.00066564,-0.00186860,-0.00082581,0.00007440,0.00005186,-0.0000143
 3,-0.00000218,-0.00000644,0.00000012,0.00000354,0.00000417,0.00000102,
 -0.00000354,0.00000306,0.00000436,-0.00000288,-0.00001161,-0.00000348,
 -0.00000644,-0.00000706,-0.00000891,-0.00000337,-0.00001750,-0.0000065
 7,0.00001059,0.00001092,0.00001999,-0.00000059,0.00001354,-0.00000665,
 -0.00000092,-0.00001059,0.00000100,0.00000183,0.00000417,0.00000557,0.
 00000006,-0.00001221,-0.00000215,-0.00000753,0.00000496,-0.00000421,-0
 .00000368,-0.00001285,0.00000465,-0.00000280,0.00000638,-0.00000183,-0
 .00000521,-0.00001373,0.00000301,0.00000417,0.00000408,-0.00000653,-0.
 00000480,0.00002940,-0.00000837,0.00011114,-0.00011347,-0.00005930,-0.
 00006591,0.00009375,-0.00001433,-0.00001381,-0.00000956,0.00000933,-0.
 00000421,-0.00000195,-0.00000489,-0.00000158,0.00001044,0.00000302,0.0
 0008777,0.00002227,0.00001482,-0.00000573,0.00000353,0.00000506,0.0000
 5195,-0.00003415,0.00000469,-0.00012807,0.00002685,0.00001286,-0.00001
 119,0.00001394,0.00002028,-0.00001372,-0.00000589,-0.00000196,0.000009
 24,0.00000233,0.00000239,0.00001470,0.00000084,0.00000538,0.00001006,-
 0.00001779,0.00001458,0.00000407,-0.00000845,-0.00000313,-0.00000805,0
 .00000964,-0.00001004,0.00000454,0.00000390,0.00000447,-0.00000660,-0.
 00000127,-0.00000520,0.00000406,0.00000936,0.00000075,0.00000585,-0.00
 001438,0.00000810,-0.00000075,-0.00000454,-0.00000554,-0.00000427,0.00
 000901,-0.00000580,0.00000020,0.00000320,0.00000083,-0.00000192,-0.000
 00255,-0.00000379,0.00000298,0.00000323,-0.00000157,-0.00000670,0.0000
 0169,0.00000644,0.00017622,0.00009751,-0.00002206,-0.00003343,-0.00004
 375,0.00001845,-0.00008448,-0.00000674,0.00001989,-0.00004164,-0.00003
 095,-0.00001399,0.06277331,-0.11199070,-0.04629818,0.05428587,-0.04409
 156,-0.01132637,0.01304672,-0.00881495,-0.03892860,-0.11615379,0.15987
 980,-0.00039195,-0.00016350,0.00012825,0.00006355,-0.00000717,-0.00006
 227,0.00009053,0.00017464,0.00007036,-0.00012082,-0.00008907,0.0000441
 9,0.00022344,0.00008744,-0.00007614,-0.00039611,0.00001326,0.00005645,
 0.00048868,-0.00268081,-0.00094867,0.01894210,-0.00956384,-0.00421782,
 0.00226294,0.00352936,0.00114189,0.00043827,-0.00061979,-0.00065807,0.
 00001577,-0.00000278,-0.00001451,0.00000546,-0.00000102,-0.00001079,-0
 .00007173,0.00002214,0.00002379,0.00025626,0.00094289,-0.00023391,-0.0
 0037926,0.00005189,0.00006064,0.00022199,0.00025735,-0.00020405,0.0001
 1263,0.00021855,0.00001016,0.00022309,0.00060118,0.00025991,-0.0002412
 5,-0.00003068,-0.00020293,-0.00008534,0.00008897,0.00012107,-0.0005472
 8,-0.00013025,0.00015789,0.00000816,0.00018068,0.00007595,0.00127297,0
 .00027142,-0.00024526,0.00022755,-0.00011990,-0.00000790,0.00009968,-0
 .00029953,0.00000216,-0.00005885,0.00018053,0.00003567,-0.00017898,0.0
 0005198,0.00005630,0.00002645,-0.00000576,-0.00004775,0.00000243,-0.00
 009889,-0.00004851,0.00002151,-0.00004949,0.00000577,0.00003321,-0.000
 06280,-0.00005679,0.00018702,0.00020040,0.00006123,0.00029428,0.000223
 97,-0.00047747,-0.00103954,-0.00038035,0.00038306,0.00000473,0.0000285
 8,0.00001614,-0.00000319,-0.00000497,-0.00000406,-0.00001444,-0.000002
 44,0.00001026,0.00001184,0.00001492,-0.00000346,-0.00001693,0.00003096
 ,0.00003821,0.00004507,-0.00003764,-0.00002549,-0.00004029,-0.00000414
 ,0.00002089,0.00000123,0.00000362,-0.00000414,-0.00000037,-0.00000097,
 0.00000648,-0.00001370,0.00001812,0.00000404,0.00000051,-0.00000017,0.
 00000158,0.00000122,-0.00000377,-0.00000435,0.00000357,-0.00001916,0.0
 0000567,-0.00001807,0.00003040,0.00000060,0.00002070,-0.00000304,-0.00
 001540,-0.00000382,-0.00000669,0.00000827,-0.00006301,-0.00009305,-0.0
 0001616,0.00000593,-0.00005354,0.00001060,-0.00002638,0.00002103,-0.00
 000413,0.00004004,0.00001566,-0.00001047,-0.00004010,-0.00003005,-0.00
 000562,0.00000664,-0.00004935,0.00000643,0.00002560,0.00003156,0.00004
 034,-0.00003103,0.00002421,0.00000923,0.00000255,0.00029139,0.00008008
 ,-0.00018853,-0.00004761,-0.00013412,0.00003042,-0.00009921,0.00005367
 ,-0.00001858,-0.00006129,-0.00001375,-0.00006296,0.00032715,0.00020846
 ,-0.00000671,-0.00002275,-0.00001818,0.00029766,-0.00134730,-0.0007161
 4,0.00002881,-0.00006908,0.00002558,-0.00000749,0.00001086,0.00000922,
 -0.00000124,-0.00000029,-0.00000820,-0.00000822,-0.00000493,0.00000914
 ,0.00000346,0.00000693,0.00000018,-0.00001109,0.00001369,0.00000291,-0
 .00000875,0.00000291,0.00000735,0.00001966,0.00000063,0.00001407,-0.00
 000339,0.00001073,-0.00001651,0.00000316,0.00001025,-0.00000603,-0.000
 00596,-0.00000017,0.00000814,0.00000205,0.00000698,0.00000498,0.000000
 36,-0.00000075,-0.00000120,-0.00000808,0.00001264,-0.00000860,-0.00000
 728,-0.00000340,-0.00001045,0.00000142,0.00000820,0.00000064,0.0000055
 9,-0.00000314,0.00001713,0.00001191,-0.00003388,-0.00001783,0.00009597
 ,-0.00022287,-0.00021036,0.00002726,0.00012197,0.00022415,-0.00000750,
 0.00002581,-0.00000759,0.00000360,0.00000053,0.00001729,-0.00000371,-0
 .00000843,-0.00001121,0.00005964,0.00007683,-0.00001963,0.00002367,0.0
 0002492,0.00009142,0.00005907,0.00000147,-0.00010351,-0.00012874,0.000
 03503,0.00015302,-0.00002500,-0.00000640,-0.00003816,-0.00000206,-0.00
 000602,-0.00000672,-0.00000369,0.00000603,0.00002288,0.00000140,0.0000
 0369,-0.00000329,-0.00001623,-0.00000951,-0.00003336,-0.00000082,0.000
 00945,0.00001449,0.00000363,-0.00000411,0.00000341,-0.00000325,0.00001
 479,0.00000185,0.00001175,0.00000055,0.00001182,-0.00000623,-0.0000074
 7,-0.00000363,-0.00001498,-0.00000306,-0.00001829,0.00000776,0.0000021
 8,0.00001699,0.00000103,-0.00000219,-0.00000038,-0.00000235,0.00000099
 ,0.00000320,0.00000596,0.00000183,0.00000665,-0.00000260,-0.00000109,-
 0.00000168,-0.00000069,-0.00000113,-0.00000251,-0.00024703,-0.00027697
 ,-0.00003646,0.00004629,0.00011980,-0.00003124,0.00007963,0.00003644,-
 0.00000882,0.00006315,0.00010153,0.00007994,0.09766324,-0.04237349,-0.
 14334124,-0.00640503,-0.00028392,0.02007513,0.02510769,-0.03957354,-0.
 05837409,-0.13836217,0.09048668,0.18677204\\0.00000541,0.00000723,-0.0
 0000124,0.00000111,0.00000891,-0.00000082,-0.00000362,-0.00000137,-0.0
 0000170,0.00000438,-0.00000923,0.00000058,-0.00000377,0.00000872,0.000
 00342,-0.00000425,-0.00000031,-0.00000001,-0.00000720,0.00000205,0.000
 00751,-0.00000192,-0.00000581,-0.00000161,-0.00000168,0.00000288,0.000
 00328,0.00000001,-0.00000115,0.00000238,0.00000345,-0.00000325,-0.0000
 0080,-0.00000199,0.00000173,0.00000035,0.00000084,-0.00000504,-0.00000
 065,0.00000244,-0.00000141,-0.00000277,-0.00000002,0.00000035,-0.00000
 051,0.00000115,-0.00000028,-0.00000154,-0.00000572,-0.00000639,-0.0000
 0667,0.00000610,0.00000333,0.00000029,-0.00000702,0.00000731,-0.000010
 33,-0.00000201,0.00000210,-0.00000093,-0.00000260,-0.00000206,0.000006
 67,0.00001021,0.00001292,0.00000286,-0.00000271,0.00000448,-0.00000194
 ,0.00001073,-0.00000579,-0.00000367,0.00001329,-0.00001675,0.00001441,
 -0.00000564,0.00000228,-0.00000935,0.00000121,-0.00000077,0.00000496,-
 0.00000349,0.00000432,-0.00000016,0.00000316,-0.00000132,-0.00000012,-
 0.00000582,-0.00000054,-0.00000868,-0.00000053,-0.00000532,0.00000070,
 0.00000027,0.00000246,0.00000228,0.00000049,0.00000156,0.00000101,0.00
 000342,-0.00000651,0.00000576,0.00000428,-0.00000801,0.00000152,-0.000
 00219,0.00000033,-0.00000162,-0.00000519,0.00000222,0.00000093,-0.0000
 0080,0.00000159,-0.00000031,-0.00000256,0.00000206,-0.00000327,-0.0000
 0002,-0.00000214,0.00000357,-0.00000030,-0.00000162,-0.00000009,0.0000
 0096,-0.00000066,0.00000150,0.00000032,-0.00000713,-0.00000100,-0.0000
 0058,0.00000162,0.00000098,-0.00000052,0.00000014,0.00000066,0.0000017
 1,0.00000197,0.00000301,-0.00000005,-0.00000306,-0.00000071,-0.0000011
 4,0.00000014,0.00000067,-0.00000072,0.00000186,0.00000107,-0.00000142,
 -0.00000070,0.00000189,0.00000476,-0.00000208,-0.00000253,-0.00000034,
 -0.00000075,0.00000106,-0.00000451,-0.00000046,0.00000122,-0.00000238,
 -0.00000053,0.00000563,0.00000212,-0.00000117,-0.00000137,0.00000126,0
 .00000084,0.00000068,0.00000113,0.00000015,0.00000043,-0.00000196,-0.0
 0000030,0.00000127,-0.00000041,-0.00000136,0.00000653,0.00000056,-0.00
 000002,0.00000159,0.00000062,0.00000269,-0.00000548,0.00000008,0.00000
 022,0.00000148,0.00000559,0.00000130,-0.00000214,-0.00000357,-0.000001
 20,0.00000021,0.00000064,0.00000231,0.00000234,-0.00000071,0.00000077,
 0.00000257,-0.00001026,0.00000515,0.00000278,0.00000502,-0.00000238,0.
 00000224,0.00000537,-0.00000137,-0.00000556,0.00000025,-0.00000157,-0.
 00000149,-0.00000240,-0.00000060,-0.00000390,-0.00000040,0.00000104,0.
 00000079,0.00000105,0.00000076,0.00000004,0.00000146,0.00000074,0.0000
 0067,-0.00000337,0.00000305,0.00000967,0.00000596,0.00000164,-0.000004
 79,0.00000060,-0.00000044,-0.00000055,-0.00000010,-0.00000029,-0.00000
 189,-0.00000031,0.00000439,-0.00000368,0.00000081,-0.00000109,0.000000
 35,-0.00000124,-0.00000365,-0.00000027,-0.00000154,0.00000149,0.000000
 60,-0.00001934,0.00001238,-0.00001614,-0.00000321,0.00000551,0.0000040
 7,-0.00000486,0.00000270,0.00000362,0.00000349,0.00000335,0.00000274,-
 0.00000149,-0.00000071,-0.00000252,0.00000062,-0.00000123,0.00000015,0
 .00001504,-0.00000338,0.00002371,0.00000640,-0.00000476,0.00000194,-0.
 00000509,0.00000123,-0.00000913,0.00000826,-0.00002668,-0.00000847,0.0
 0000696,0.00001779,0.00000010,-0.00000051,-0.00000113,0.00000068,-0.00
 000169,-0.00000006,-0.00000150,-0.00001171,-0.00000543,-0.00000442,0.0
 0000215,-0.00000071,0.00000454,-0.00000277,-0.00000070,-0.00000511,0.0
 0000069,0.00000219,-0.00000124,0.00000344,-0.00000078,-0.00000733,0.00
 000104,0.00000072,0.00000036,0.00000105,-0.00000003,-0.00000218,-0.000
 00399,0.00000260,-0.00000322,0.00000068,0.00000181,0.00000396,0.000000
 23,-0.00000170,-0.00000104,0.00000402,0.00000556,0.00000568,-0.0000030
 3,0.00000002,-0.00000685,0.00000010,-0.00000389,0.00000097,0.00000112,
 -0.00000145,-0.00000370,0.00000131,0.00000918,0.00000128,-0.00000124,-
 0.00000265,-0.00000010,-0.00000134,-0.00000240,-0.00000235,-0.00000157
 ,-0.00000365,-0.00000333,-0.00000002,-0.00000175,0.00000663,0.00000011
 ,0.00000371,-0.00000154,0.00000049,-0.00000075,0.00000086,0.00000146,-
 0.00000008,-0.00000136\\\@
 The archive entry for this job was punched.


 CHEMISTRY BEGAN BY SAYING IT WOULD CHANGE THE BASER
 METALS INTO GOLD.  BY NOT DOING THAT IT HAS DONE MUCH
 GREATER THINGS.  --  RALPH WALDO EMERSON
 Job cpu time:       2 days  5 hours 59 minutes  6.6 seconds.
 Elapsed time:       0 days  3 hours 26 minutes 25.9 seconds.
 File lengths (MBytes):  RWF=  11754 Int=      0 D2E=      0 Chk=     62 Scr=      1
 Normal termination of Gaussian 16 at Sat Dec  7 22:14:04 2024.
