/mnt/lustre/scratch/nvme/SLURM/9663738/usccqdma.uDbYBmQAZR
OMP_STACKSIZE=0m
GAUSS_PDEF=16
GAUSS_MDEF=65536MB
GAUSS_RDEF=SCF=Direct
 Entering Gaussian System, Link 0=g16.exe
 Initial command:
 /opt/cesga/2020/software/Core/g16/c1/l1.exe "/mnt/lustre/scratch/nvme/SLURM/9663738/usccqdma.uDbYBmQAZR/Gau-3448875.inp" -scrdir="/mnt/lustre/scratch/nvme/SLURM/9663738/usccqdma.uDbYBmQAZR/"
 Default is to use a total of  16 processors:
                               16 via shared-memory
                                1 via Linda
 Entering Link 1 = /opt/cesga/2020/software/Core/g16/c1/l1.exe PID=   3448901.
  
 Copyright (c) 1988-2019, Gaussian, Inc.  All Rights Reserved.
  
 This is part of the Gaussian(R) 16 program.  It is based on
 the Gaussian(R) 09 system (copyright 2009, Gaussian, Inc.),
 the Gaussian(R) 03 system (copyright 2003, Gaussian, Inc.),
 the Gaussian(R) 98 system (copyright 1998, Gaussian, Inc.),
 the Gaussian(R) 94 system (copyright 1995, Gaussian, Inc.),
 the Gaussian 92(TM) system (copyright 1992, Gaussian, Inc.),
 the Gaussian 90(TM) system (copyright 1990, Gaussian, Inc.),
 the Gaussian 88(TM) system (copyright 1988, Gaussian, Inc.),
 the Gaussian 86(TM) system (copyright 1986, Carnegie Mellon
 University), and the Gaussian 82(TM) system (copyright 1983,
 Carnegie Mellon University). Gaussian is a federally registered
 trademark of Gaussian, Inc.
  
 This software contains proprietary and confidential information,
 including trade secrets, belonging to Gaussian, Inc.
  
 This software is provided under written license and may be
 used, copied, transmitted, or stored only in accord with that
 written license.
  
 The following legend is applicable only to US Government
 contracts under FAR:
  
                    RESTRICTED RIGHTS LEGEND
  
 Use, reproduction and disclosure by the US Government is
 subject to restrictions as set forth in subparagraphs (a)
 and (c) of the Commercial Computer Software - Restricted
 Rights clause in FAR 52.227-19.
  
 Gaussian, Inc.
 340 Quinnipiac St., Bldg. 40, Wallingford CT 06492
  
  
 ---------------------------------------------------------------
 Warning -- This program may not be used in any manner that
 competes with the business of Gaussian, Inc. or will provide
 assistance to any competitor of Gaussian, Inc.  The licensee
 of this program is prohibited from giving any competitor of
 Gaussian, Inc. access to this program.  By using this program,
 the user acknowledges that Gaussian, Inc. is engaged in the
 business of creating and licensing software in the field of
 computational chemistry and represents and warrants to the
 licensee that it is not a competitor of Gaussian, Inc. and that
 it will not use this program in any manner prohibited above.
 ---------------------------------------------------------------
  

 Cite this work as:
 Gaussian 16, Revision C.01,
 M. J. Frisch, G. W. Trucks, H. B. Schlegel, G. E. Scuseria, 
 M. A. Robb, J. R. Cheeseman, G. Scalmani, V. Barone, 
 G. A. Petersson, H. Nakatsuji, X. Li, M. Caricato, A. V. Marenich, 
 J. Bloino, B. G. Janesko, R. Gomperts, B. Mennucci, H. P. Hratchian, 
 J. V. Ortiz, A. F. Izmaylov, J. L. Sonnenberg, D. Williams-Young, 
 F. Ding, F. Lipparini, F. Egidi, J. Goings, B. Peng, A. Petrone, 
 T. Henderson, D. Ranasinghe, V. G. Zakrzewski, J. Gao, N. Rega, 
 G. Zheng, W. Liang, M. Hada, M. Ehara, K. Toyota, R. Fukuda, 
 J. Hasegawa, M. Ishida, T. Nakajima, Y. Honda, O. Kitao, H. Nakai, 
 T. Vreven, K. Throssell, J. A. Montgomery, Jr., J. E. Peralta, 
 F. Ogliaro, M. J. Bearpark, J. J. Heyd, E. N. Brothers, K. N. Kudin, 
 V. N. Staroverov, T. A. Keith, R. Kobayashi, J. Normand, 
 K. Raghavachari, A. P. Rendell, J. C. Burant, S. S. Iyengar, 
 J. Tomasi, M. Cossi, J. M. Millam, M. Klene, C. Adamo, R. Cammi, 
 J. W. Ochterski, R. L. Martin, K. Morokuma, O. Farkas, 
 J. B. Foresman, and D. J. Fox, Gaussian, Inc., Wallingford CT, 2019.
 
 ******************************************
 Gaussian 16:  ES64L-G16RevC.01  3-Jul-2019
                 7-Dec-2024 
 ******************************************
 Default route: SCF=Direct
 ----------------------------------------------------
 # m06/genecp scf=tight int=ultrafine 5d freq=noraman
 ----------------------------------------------------
 1/10=4,30=1,38=1/1,3;
 2/12=2,17=6,18=5,40=1/2;
 3/5=7,8=1,11=2,16=1,17=8,25=1,30=1,71=2,74=-54,75=-5,140=1/1,2,3;
 4//1;
 5/5=2,32=2,38=5,98=1/2;
 8/6=4,10=90,11=11/1;
 11/6=1,8=1,9=11,15=111,16=1/1,2,10;
 10/6=1/2;
 6/7=2,8=2,9=2,10=2,28=1/1;
 7/8=1,10=1,25=1/1,2,3,16;
 1/10=4,30=1/3;
 99//99;
 ------
 OPT-TS
 ------
 Symbolic Z-matrix:
 Charge =  0 Multiplicity = 1
 C                     2.76215   0.25633   1.33518 
 C                     3.14613   0.28633  -0.95991 
 C                     4.50379   0.50014  -0.7805 
 C                     4.99652   0.58      0.51727 
 C                     4.11918   0.45994   1.58247 
 C                     1.753     0.14502   2.40349 
 C                    -0.48207  -0.21564   2.92034 
 C                    -0.24258  -0.04589   4.27626 
 C                     1.05205   0.23027   4.69853 
 C                     2.05944   0.3291    3.75207 
 H                     2.69259   0.22324  -1.94694 
 H                     6.05844   0.73205   0.69936 
 H                     4.49366   0.50769   2.60096 
 H                    -1.47374  -0.43033   2.52858 
 H                     1.2769    0.37043   5.75395 
 H                     3.07655   0.55206   4.06278 
 N                     2.29994   0.16984   0.07068 
 N                     0.49051  -0.12452   2.00591 
 O                     0.89216   2.2793   -1.60562 
 O                    -2.57316   0.73515   0.73033 
 O                    -1.7371   -2.3266    0.96634 
 B                    -1.63186   0.73189  -0.30545 
 B                     0.27253   1.79604  -0.47161 
 B                    -1.47039  -1.57094  -0.16697 
 O                    -2.31764  -1.92512  -1.20335 
 O                     0.15932   2.78378   0.49403 
 C                     0.93354   3.9171    0.05867 
 C                     1.00792   3.70493  -1.48373 
 C                    -2.90849  -3.11739   0.73066 
 C                    -3.00442  -3.13104  -0.82849 
 C                    -3.57466   1.72274   0.42929 
 C                    -3.48319   1.82503  -1.12096 
 O                    -2.11034   1.48537  -1.37382 
 C                    -0.16867   4.30814  -2.23456 
 H                    -0.14043   3.95414  -3.27241 
 H                    -1.11739   3.97035  -1.80184 
 H                    -0.13898   5.40615  -2.23811 
 C                     2.30947   4.14799  -2.12326 
 H                     2.27122   3.95631  -3.2031 
 H                     2.47246   5.22555  -1.97639 
 H                     3.17038   3.6053   -1.71554 
 C                     0.23895   5.18996   0.49848 
 H                     0.78188   6.07587   0.13861 
 H                    -0.79148   5.2419    0.12819 
 H                     0.20609   5.23316   1.59491 
 C                     2.28904   3.80666   0.74511 
 H                     2.92079   4.68389   0.55104 
 H                     2.12947   3.72584   1.82879 
 H                     2.83079   2.90926   0.41707 
 C                    -4.92218   1.26455   0.951 
 H                    -4.87038   1.12553   2.03902 
 H                    -5.69036   2.02296   0.7418 
 H                    -5.2474    0.31954   0.50286 
 C                    -3.16349   2.99853   1.15262 
 H                    -2.17834   3.34279   0.81508 
 H                    -3.89984   3.80255   1.01922 
 H                    -3.08357   2.78023   2.22554 
 C                    -4.32948   0.79339  -1.85335 
 H                    -4.06707   0.82134  -2.9182 
 H                    -4.11103  -0.21865  -1.49215 
 H                    -5.40462   0.99664  -1.75524 
 C                    -3.7777    3.20412  -1.6777 
 H                    -3.14977   3.98061  -1.22629 
 H                    -3.59952   3.20925  -2.76084 
 H                    -4.83001   3.47186  -1.50365 
 C                    -2.24749  -4.28418  -1.47588 
 H                    -1.21456  -4.34625  -1.1084 
 H                    -2.73839  -5.25035  -1.2986 
 H                    -2.20534  -4.10976  -2.55862 
 C                    -4.41794  -3.09402  -1.37697 
 H                    -4.9804   -2.2247   -1.01755 
 H                    -4.38572  -3.04447  -2.47299 
 H                    -4.96806  -4.0026   -1.09211 
 C                    -4.06495  -2.39664   1.40586 
 H                    -3.82928  -2.28007   2.47221 
 H                    -4.18912  -1.39243   0.98543 
 H                    -5.01062  -2.94854   1.31986 
 C                    -2.7146   -4.48233   1.36259 
 H                    -2.65253  -4.37745   2.45326 
 H                    -3.56163  -5.14522   1.13335 
 H                    -1.79005  -4.96047   1.02026 
 H                     0.08808  -0.43522  -1.7635 
 C                     3.34957  -2.75615  -0.74011 
 O                     3.73983  -2.61744   0.41735 
 C                     4.33565  -3.07877  -1.85649 
 H                     4.02909  -4.00817  -2.36195 
 H                     4.27673  -2.29695  -2.63191 
 C                     1.01815  -2.36928  -0.09523 
 H                     0.27914  -3.1768   -0.18577 
 H                     1.48796  -2.48815   0.88739 
 N                     2.04295  -2.61883  -1.10332 
 C                     1.55811  -2.89458  -2.43778 
 H                     0.5693   -2.43174  -2.54087 
 H                     2.20612  -2.46463  -3.21196 
 H                     1.45913  -3.97627  -2.62971 
 C                     5.75486  -3.19627  -1.33701 
 H                     6.07313  -2.26139  -0.85969 
 H                     5.82841  -3.97928  -0.57441 
 H                    -1.06369  -0.12999   4.9836 
 H                     5.15807   0.58981  -1.6445 
 Ir                    0.18014  -0.32156  -0.17029 
 H                     6.45275  -3.43081  -2.15024 
 

 GradGradGradGradGradGradGradGradGradGradGradGradGradGradGradGradGradGrad
 Berny optimization.
 Initialization pass.
 Trust Radius=3.00D-01 FncErr=1.00D-07 GrdErr=1.00D-07 EigMax=2.50D+02 EigMin=1.00D-04
 Number of steps in this run=      2 maximum allowed number of steps=      2.
 GradGradGradGradGradGradGradGradGradGradGradGradGradGradGradGradGradGrad

 Stoichiometry    C33H55B3IrN3O7
 Framework group  C1[X(C33H55B3IrN3O7)]
 Deg. of freedom   300
 Full point group                 C1      NOp   1
 Largest Abelian subgroup         C1      NOp   1
 Largest concise Abelian subgroup C1      NOp   1
                         Standard orientation:                         
 ---------------------------------------------------------------------
 Center     Atomic      Atomic             Coordinates (Angstroms)
 Number     Number       Type             X           Y           Z
 ---------------------------------------------------------------------
      1          6           0        2.762150    0.256332    1.335180
      2          6           0        3.146130    0.286332   -0.959910
      3          6           0        4.503790    0.500143   -0.780500
      4          6           0        4.996520    0.580003    0.517270
      5          6           0        4.119180    0.459943    1.582470
      6          6           0        1.753000    0.145021    2.403490
      7          6           0       -0.482070   -0.215640    2.920340
      8          6           0       -0.242580   -0.045890    4.276260
      9          6           0        1.052050    0.230271    4.698530
     10          6           0        2.059440    0.329101    3.752070
     11          1           0        2.692590    0.223242   -1.946940
     12          1           0        6.058440    0.732054    0.699360
     13          1           0        4.493660    0.507693    2.600960
     14          1           0       -1.473740   -0.430331    2.528580
     15          1           0        1.276900    0.370431    5.753950
     16          1           0        3.076550    0.552062    4.062780
     17          7           0        2.299940    0.169842    0.070680
     18          7           0        0.490510   -0.124520    2.005910
     19          8           0        0.892159    2.279301   -1.605620
     20          8           0       -2.573160    0.735149    0.730330
     21          8           0       -1.737099   -2.326601    0.966340
     22          5           0       -1.631860    0.731889   -0.305450
     23          5           0        0.272529    1.796040   -0.471610
     24          5           0       -1.470389   -1.570941   -0.166970
     25          8           0       -2.317639   -1.925121   -1.203350
     26          8           0        0.159318    2.783780    0.494030
     27          6           0        0.933538    3.917101    0.058670
     28          6           0        1.007918    3.704931   -1.483730
     29          6           0       -2.908488   -3.117392    0.730660
     30          6           0       -3.004418   -3.131042   -0.828490
     31          6           0       -3.574661    1.722738    0.429290
     32          6           0       -3.483191    1.825028   -1.120960
     33          8           0       -2.110341    1.485369   -1.373820
     34          6           0       -0.168673    4.308140   -2.234560
     35          1           0       -0.140432    3.954140   -3.272410
     36          1           0       -1.117392    3.970349   -1.801840
     37          1           0       -0.138983    5.406150   -2.238110
     38          6           0        2.309467    4.147992   -2.123260
     39          1           0        2.271218    3.956312   -3.203100
     40          1           0        2.472457    5.225552   -1.976390
     41          1           0        3.170378    3.605302   -1.715540
     42          6           0        0.238947    5.189960    0.498480
     43          1           0        0.781876    6.075871    0.138610
     44          1           0       -0.791483    5.241900    0.128190
     45          1           0        0.206087    5.233160    1.594910
     46          6           0        2.289038    3.806662    0.745110
     47          1           0        2.920787    4.683892    0.551040
     48          1           0        2.129468    3.725841    1.828790
     49          1           0        2.830788    2.909262    0.417070
     50          6           0       -4.922181    1.264547    0.951000
     51          1           0       -4.870381    1.125527    2.039020
     52          1           0       -5.690361    2.022957    0.741800
     53          1           0       -5.247400    0.319537    0.502860
     54          6           0       -3.163492    2.998528    1.152620
     55          1           0       -2.178342    3.342789    0.815080
     56          1           0       -3.899842    3.802548    1.019220
     57          1           0       -3.083572    2.780228    2.225540
     58          6           0       -4.329481    0.793388   -1.853350
     59          1           0       -4.067071    0.821338   -2.918200
     60          1           0       -4.111030   -0.218652   -1.492150
     61          1           0       -5.404621    0.996637   -1.755240
     62          6           0       -3.777702    3.204118   -1.677700
     63          1           0       -3.149772    3.980608   -1.226290
     64          1           0       -3.599522    3.209248   -2.760840
     65          1           0       -4.830012    3.471857   -1.503650
     66          6           0       -2.247487   -4.284181   -1.475880
     67          1           0       -1.214557   -4.346251   -1.108400
     68          1           0       -2.738387   -5.250351   -1.298600
     69          1           0       -2.205338   -4.109761   -2.558620
     70          6           0       -4.417938   -3.094023   -1.376970
     71          1           0       -4.980399   -2.224703   -1.017550
     72          1           0       -4.385718   -3.044472   -2.472990
     73          1           0       -4.968058   -4.002603   -1.092110
     74          6           0       -4.064949   -2.396642    1.405860
     75          1           0       -3.829279   -2.280072    2.472210
     76          1           0       -4.189119   -1.392432    0.985430
     77          1           0       -5.010618   -2.948543    1.319860
     78          6           0       -2.714597   -4.482331    1.362590
     79          1           0       -2.652527   -4.377451    2.453260
     80          1           0       -3.561627   -5.145222    1.133350
     81          1           0       -1.790047   -4.960471    1.020260
     82          1           0        0.088080   -0.435220   -1.763500
     83          6           0        3.349572   -2.756148   -0.740110
     84          8           0        3.739832   -2.617438    0.417350
     85          6           0        4.335652   -3.078767   -1.856490
     86          1           0        4.029092   -4.008167   -2.361950
     87          1           0        4.276731   -2.296947   -2.631910
     88          6           0        1.018151   -2.369279   -0.095230
     89          1           0        0.279142   -3.176800   -0.185770
     90          1           0        1.487961   -2.488149    0.887390
     91          7           0        2.042952   -2.618829   -1.103320
     92          6           0        1.558112   -2.894579   -2.437780
     93          1           0        0.569301   -2.431739   -2.540870
     94          1           0        2.206121   -2.464629   -3.211960
     95          1           0        1.459132   -3.976269   -2.629710
     96          6           0        5.754862   -3.196266   -1.337010
     97          1           0        6.073131   -2.261386   -0.859690
     98          1           0        5.828412   -3.979276   -0.574410
     99          1           0       -1.063690   -0.129990    4.983600
    100          1           0        5.158070    0.589813   -1.644500
    101         77           0        0.180140   -0.321560   -0.170290
    102          1           0        6.452752   -3.430806   -2.150240
 ---------------------------------------------------------------------
 Rotational constants (GHZ):           0.0816976           0.0698942           0.0523505
 General basis read from cards:  (5D, 7F)
 ======================================================================================================
                                       Pseudopotential Parameters
 ======================================================================================================
  Center     Atomic      Valence      Angular      Power
  Number     Number     Electrons     Momentum     of R      Exponent        Coefficient   SO-Coeffient
 ======================================================================================================
    1          6
                                   No pseudopotential on this center.
    2          6
                                   No pseudopotential on this center.
    3          6
                                   No pseudopotential on this center.
    4          6
                                   No pseudopotential on this center.
    5          6
                                   No pseudopotential on this center.
    6          6
                                   No pseudopotential on this center.
    7          6
                                   No pseudopotential on this center.
    8          6
                                   No pseudopotential on this center.
    9          6
                                   No pseudopotential on this center.
   10          6
                                   No pseudopotential on this center.
   11          1
                                   No pseudopotential on this center.
   12          1
                                   No pseudopotential on this center.
   13          1
                                   No pseudopotential on this center.
   14          1
                                   No pseudopotential on this center.
   15          1
                                   No pseudopotential on this center.
   16          1
                                   No pseudopotential on this center.
   17          7
                                   No pseudopotential on this center.
   18          7
                                   No pseudopotential on this center.
   19          8
                                   No pseudopotential on this center.
   20          8
                                   No pseudopotential on this center.
   21          8
                                   No pseudopotential on this center.
   22          5
                                   No pseudopotential on this center.
   23          5
                                   No pseudopotential on this center.
   24          5
                                   No pseudopotential on this center.
   25          8
                                   No pseudopotential on this center.
   26          8
                                   No pseudopotential on this center.
   27          6
                                   No pseudopotential on this center.
   28          6
                                   No pseudopotential on this center.
   29          6
                                   No pseudopotential on this center.
   30          6
                                   No pseudopotential on this center.
   31          6
                                   No pseudopotential on this center.
   32          6
                                   No pseudopotential on this center.
   33          8
                                   No pseudopotential on this center.
   34          6
                                   No pseudopotential on this center.
   35          1
                                   No pseudopotential on this center.
   36          1
                                   No pseudopotential on this center.
   37          1
                                   No pseudopotential on this center.
   38          6
                                   No pseudopotential on this center.
   39          1
                                   No pseudopotential on this center.
   40          1
                                   No pseudopotential on this center.
   41          1
                                   No pseudopotential on this center.
   42          6
                                   No pseudopotential on this center.
   43          1
                                   No pseudopotential on this center.
   44          1
                                   No pseudopotential on this center.
   45          1
                                   No pseudopotential on this center.
   46          6
                                   No pseudopotential on this center.
   47          1
                                   No pseudopotential on this center.
   48          1
                                   No pseudopotential on this center.
   49          1
                                   No pseudopotential on this center.
   50          6
                                   No pseudopotential on this center.
   51          1
                                   No pseudopotential on this center.
   52          1
                                   No pseudopotential on this center.
   53          1
                                   No pseudopotential on this center.
   54          6
                                   No pseudopotential on this center.
   55          1
                                   No pseudopotential on this center.
   56          1
                                   No pseudopotential on this center.
   57          1
                                   No pseudopotential on this center.
   58          6
                                   No pseudopotential on this center.
   59          1
                                   No pseudopotential on this center.
   60          1
                                   No pseudopotential on this center.
   61          1
                                   No pseudopotential on this center.
   62          6
                                   No pseudopotential on this center.
   63          1
                                   No pseudopotential on this center.
   64          1
                                   No pseudopotential on this center.
   65          1
                                   No pseudopotential on this center.
   66          6
                                   No pseudopotential on this center.
   67          1
                                   No pseudopotential on this center.
   68          1
                                   No pseudopotential on this center.
   69          1
                                   No pseudopotential on this center.
   70          6
                                   No pseudopotential on this center.
   71          1
                                   No pseudopotential on this center.
   72          1
                                   No pseudopotential on this center.
   73          1
                                   No pseudopotential on this center.
   74          6
                                   No pseudopotential on this center.
   75          1
                                   No pseudopotential on this center.
   76          1
                                   No pseudopotential on this center.
   77          1
                                   No pseudopotential on this center.
   78          6
                                   No pseudopotential on this center.
   79          1
                                   No pseudopotential on this center.
   80          1
                                   No pseudopotential on this center.
   81          1
                                   No pseudopotential on this center.
   82          1
                                   No pseudopotential on this center.
   83          6
                                   No pseudopotential on this center.
   84          8
                                   No pseudopotential on this center.
   85          6
                                   No pseudopotential on this center.
   86          1
                                   No pseudopotential on this center.
   87          1
                                   No pseudopotential on this center.
   88          6
                                   No pseudopotential on this center.
   89          1
                                   No pseudopotential on this center.
   90          1
                                   No pseudopotential on this center.
   91          7
                                   No pseudopotential on this center.
   92          6
                                   No pseudopotential on this center.
   93          1
                                   No pseudopotential on this center.
   94          1
                                   No pseudopotential on this center.
   95          1
                                   No pseudopotential on this center.
   96          6
                                   No pseudopotential on this center.
   97          1
                                   No pseudopotential on this center.
   98          1
                                   No pseudopotential on this center.
   99          1
                                   No pseudopotential on this center.
  100          1
                                   No pseudopotential on this center.
  101         77           17
                                      G and up 
                                                     1      823.5880147       -0.15780140    0.00000000
                                                     2      364.6613336    -1517.52704460    0.00000000
                                                     2       55.7082801     -316.53065290    0.00000000
                                                     2       12.0464544      -91.88809410    0.00000000
                                                     2        3.5120610       -9.22417730    0.00000000
                                      S - G
                                                     0      188.0490770        3.15780140    0.00000000
                                                     1      340.4194712       26.83225770    0.00000000
                                                     2      128.2373673      800.42500070    0.00000000
                                                     2       33.8644961      369.40506830    0.00000000
                                                     2        4.7560005      242.41718990    0.00000000
                                                     2        3.9649974     -118.21732820    0.00000000
                                      P - G
                                                     0      289.7291139        2.15780140    0.00000000
                                                     1       87.4633789       61.96786100    0.00000000
                                                     2       30.4363766      269.05819860    0.00000000
                                                     2        4.0553412      231.16547930    0.00000000
                                                     2        3.5525341     -133.69526670    0.00000000
                                      D - G
                                                     0      136.4017106        3.15780140    0.00000000
                                                     1       95.0776925       45.93498030    0.00000000
                                                     2       49.2258410      359.03446680    0.00000000
                                                     2       15.0874145      176.47401190    0.00000000
                                                     2        4.0405764       54.51552860    0.00000000
                                      F - G
                                                     0      127.3507908        3.95461970    0.00000000
                                                     1       66.2364374       52.97736550    0.00000000
                                                     2       34.4299229      274.86433830    0.00000000
                                                     2       10.1995721      137.20473380    0.00000000
                                                     2        2.5409702       14.86333050    0.00000000
  102          1
                                   No pseudopotential on this center.
 ======================================================================================================
 There are   824 symmetry adapted cartesian basis functions of A   symmetry.
 There are   776 symmetry adapted basis functions of A   symmetry.
   776 basis functions,  1551 primitive gaussians,   824 cartesian basis functions
   181 alpha electrons      181 beta electrons
       nuclear repulsion energy      7495.1430128554 Hartrees.
 NAtoms=  102 NActive=  102 NUniq=  102 SFac= 1.00D+00 NAtFMM=   60 NAOKFM=T Big=T
 Integral buffers will be    131072 words long.
 Raffenetti 2 integral format.
 Two-electron integral symmetry is turned on.
 One-electron integrals computed using PRISM.
   1 Symmetry operations used in ECPInt.
 ECPInt:  NShTT=   45753 NPrTT=  276657 LenC2=   36283 LenP2D=  113701.
 LDataN:  DoStor=T MaxTD1= 6 Len=  172
 NBasis=   776 RedAO= T EigKep=  5.48D-04  NBF=   776
 NBsUse=   776 1.00D-06 EigRej= -1.00D+00 NBFU=   776
 Defaulting to unpruned grid for atomic number  77.
 ExpMin= 2.90D-02 ExpMax= 5.48D+03 ExpMxC= 8.25D+02 IAcc=3 IRadAn=         5 AccDes= 0.00D+00
 Harris functional with IExCor= 1009 and IRadAn=       5 diagonalized for initial guess.
 HarFok:  IExCor= 1009 AccDes= 0.00D+00 IRadAn=         5 IDoV= 1 UseB2=F ITyADJ=14
 ICtDFT=  3500011 ScaDFX=  1.000000  1.000000  1.000000  1.000000
 Defaulting to unpruned grid for atomic number  77.
 FoFCou: FMM=F IPFlag=           0 FMFlag=      100000 FMFlg1=        2001
         NFxFlg=           0 DoJE=T BraDBF=F KetDBF=T FulRan=T
         wScrn=  0.000000 ICntrl=       500 IOpCl=  0 I1Cent=   200000004 NGrid=           0
         NMat0=    1 NMatS0=      1 NMatT0=    0 NMatD0=    1 NMtDS0=    0 NMtDT0=    0
 Petite list used in FoFCou.
 Requested convergence on RMS density matrix=1.00D-08 within 128 cycles.
 Requested convergence on MAX density matrix=1.00D-06.
 Requested convergence on             energy=1.00D-06.
 No special actions if energy rises.
 Defaulting to unpruned grid for atomic number  77.
 Defaulting to unpruned grid for atomic number  77.
 Defaulting to unpruned grid for atomic number  77.
 Defaulting to unpruned grid for atomic number  77.
 Defaulting to unpruned grid for atomic number  77.
 Defaulting to unpruned grid for atomic number  77.
 Defaulting to unpruned grid for atomic number  77.
 Defaulting to unpruned grid for atomic number  77.
 Defaulting to unpruned grid for atomic number  77.
 Defaulting to unpruned grid for atomic number  77.
 Defaulting to unpruned grid for atomic number  77.
 Defaulting to unpruned grid for atomic number  77.
 Defaulting to unpruned grid for atomic number  77.
 Defaulting to unpruned grid for atomic number  77.
 Defaulting to unpruned grid for atomic number  77.
 Defaulting to unpruned grid for atomic number  77.
 SCF Done:  E(RM06) =  -2159.67928971     A.U. after   15 cycles
            NFock= 15  Conv=0.91D-08     -V/T= 2.0409
 DoSCS=F DFT=T ScalE2(SS,OS)=  1.000000  1.000000
 Range of M.O.s used for correlation:     1   776
 NBasis=   776 NAE=   181 NBE=   181 NFC=     0 NFV=     0
 NROrb=    776 NOA=   181 NOB=   181 NVA=   595 NVB=   595
   1 Symmetry operations used in ECPInt.
 ECPInt:  NShTT=   45753 NPrTT=  276657 LenC2=   36283 LenP2D=  113701.
 LDataN:  DoStor=T MaxTD1= 7 Len=  274
 Number of processors reduced to   8 by ecpmxn.
 Symmetrizing basis deriv contribution to polar:
 IMax=3 JMax=2 DiffMx= 0.00D+00
 G2DrvN: will do   103 centers at a time, making    1 passes.
 Calling FoFCou, ICntrl=  3107 FMM=T I1Cent=   0 AccDes= 0.00D+00.
 Defaulting to unpruned grid for atomic number  77.
 Defaulting to unpruned grid for atomic number  77.
 Defaulting to unpruned grid for atomic number  77.
 Defaulting to unpruned grid for atomic number  77.
 Defaulting to unpruned grid for atomic number  77.
 Defaulting to unpruned grid for atomic number  77.
 Defaulting to unpruned grid for atomic number  77.
 Defaulting to unpruned grid for atomic number  77.
 Defaulting to unpruned grid for atomic number  77.
 Defaulting to unpruned grid for atomic number  77.
 Defaulting to unpruned grid for atomic number  77.
 Defaulting to unpruned grid for atomic number  77.
 Defaulting to unpruned grid for atomic number  77.
 Defaulting to unpruned grid for atomic number  77.
 Defaulting to unpruned grid for atomic number  77.
 Defaulting to unpruned grid for atomic number  77.
 End of G2Drv F.D. properties file   721 does not exist.
 End of G2Drv F.D. properties file   722 does not exist.
 End of G2Drv F.D. properties file   788 does not exist.
          IDoAtm=11111111111111111111111111111111111111111111111111
          IDoAtm=11111111111111111111111111111111111111111111111111
          IDoAtm=11
          Differentiating once with respect to electric field.
                with respect to dipole field.
          Differentiating once with respect to nuclear coordinates.
 Defaulting to unpruned grid for atomic number  77.
 CalDSu exits because no D1Ps are significant.
 Defaulting to unpruned grid for atomic number  77.
 Defaulting to unpruned grid for atomic number  77.
 Defaulting to unpruned grid for atomic number  77.
 Defaulting to unpruned grid for atomic number  77.
 Defaulting to unpruned grid for atomic number  77.
 Defaulting to unpruned grid for atomic number  77.
 Defaulting to unpruned grid for atomic number  77.
 Defaulting to unpruned grid for atomic number  77.
 Defaulting to unpruned grid for atomic number  77.
 Defaulting to unpruned grid for atomic number  77.
 Defaulting to unpruned grid for atomic number  77.
 Defaulting to unpruned grid for atomic number  77.
 Defaulting to unpruned grid for atomic number  77.
 Defaulting to unpruned grid for atomic number  77.
 Defaulting to unpruned grid for atomic number  77.
 Defaulting to unpruned grid for atomic number  77.
          There are   309 degrees of freedom in the 1st order CPHF.  IDoFFX=6 NUNeed=     3.
    306 vectors produced by pass  0 Test12= 1.08D-13 1.00D-09 XBig12= 4.73D+02 5.84D+00.
 AX will form    72 AO Fock derivatives at one time.
    306 vectors produced by pass  1 Test12= 1.08D-13 1.00D-09 XBig12= 8.40D+01 7.15D-01.
    306 vectors produced by pass  2 Test12= 1.08D-13 1.00D-09 XBig12= 9.44D-01 8.22D-02.
    306 vectors produced by pass  3 Test12= 1.08D-13 1.00D-09 XBig12= 5.18D-03 5.58D-03.
    306 vectors produced by pass  4 Test12= 1.08D-13 1.00D-09 XBig12= 1.53D-05 2.03D-04.
    266 vectors produced by pass  5 Test12= 1.08D-13 1.00D-09 XBig12= 2.71D-08 8.42D-06.
     70 vectors produced by pass  6 Test12= 1.08D-13 1.00D-09 XBig12= 3.71D-11 3.58D-07.
      3 vectors produced by pass  7 Test12= 1.08D-13 1.00D-09 XBig12= 4.99D-14 1.41D-08.
 InvSVY:  IOpt=1 It=  1 EMax= 1.78D-14
 Solved reduced A of dimension  1869 with   309 vectors.
 Isotropic polarizability for W=    0.000000      461.97 Bohr**3.
 End of Minotr F.D. properties file   721 does not exist.
 End of Minotr F.D. properties file   722 does not exist.
 End of Minotr F.D. properties file   788 does not exist.
 Hyperfine terms turned off by default for NAtoms > 100.

 **********************************************************************

            Population analysis using the SCF Density.

 **********************************************************************

 Orbital symmetries:
       Occupied  (A) (A) (A) (A) (A) (A) (A) (A) (A) (A) (A) (A)
                 (A) (A) (A) (A) (A) (A) (A) (A) (A) (A) (A) (A)
                 (A) (A) (A) (A) (A) (A) (A) (A) (A) (A) (A) (A)
                 (A) (A) (A) (A) (A) (A) (A) (A) (A) (A) (A) (A)
                 (A) (A) (A) (A) (A) (A) (A) (A) (A) (A) (A) (A)
                 (A) (A) (A) (A) (A) (A) (A) (A) (A) (A) (A) (A)
                 (A) (A) (A) (A) (A) (A) (A) (A) (A) (A) (A) (A)
                 (A) (A) (A) (A) (A) (A) (A) (A) (A) (A) (A) (A)
                 (A) (A) (A) (A) (A) (A) (A) (A) (A) (A) (A) (A)
                 (A) (A) (A) (A) (A) (A) (A) (A) (A) (A) (A) (A)
                 (A) (A) (A) (A) (A) (A) (A) (A) (A) (A) (A) (A)
                 (A) (A) (A) (A) (A) (A) (A) (A) (A) (A) (A) (A)
                 (A) (A) (A) (A) (A) (A) (A) (A) (A) (A) (A) (A)
                 (A) (A) (A) (A) (A) (A) (A) (A) (A) (A) (A) (A)
                 (A) (A) (A) (A) (A) (A) (A) (A) (A) (A) (A) (A)
                 (A)
       Virtual   (A) (A) (A) (A) (A) (A) (A) (A) (A) (A) (A) (A)
                 (A) (A) (A) (A) (A) (A) (A) (A) (A) (A) (A) (A)
                 (A) (A) (A) (A) (A) (A) (A) (A) (A) (A) (A) (A)
                 (A) (A) (A) (A) (A) (A) (A) (A) (A) (A) (A) (A)
                 (A) (A) (A) (A) (A) (A) (A) (A) (A) (A) (A) (A)
                 (A) (A) (A) (A) (A) (A) (A) (A) (A) (A) (A) (A)
                 (A) (A) (A) (A) (A) (A) (A) (A) (A) (A) (A) (A)
                 (A) (A) (A) (A) (A) (A) (A) (A) (A) (A) (A) (A)
                 (A) (A) (A) (A) (A) (A) (A) (A) (A) (A) (A) (A)
                 (A) (A) (A) (A) (A) (A) (A) (A) (A) (A) (A) (A)
                 (A) (A) (A) (A) (A) (A) (A) (A) (A) (A) (A) (A)
                 (A) (A) (A) (A) (A) (A) (A) (A) (A) (A) (A) (A)
                 (A) (A) (A) (A) (A) (A) (A) (A) (A) (A) (A) (A)
                 (A) (A) (A) (A) (A) (A) (A) (A) (A) (A) (A) (A)
                 (A) (A) (A) (A) (A) (A) (A) (A) (A) (A) (A) (A)
                 (A) (A) (A) (A) (A) (A) (A) (A) (A) (A) (A) (A)
                 (A) (A) (A) (A) (A) (A) (A) (A) (A) (A) (A) (A)
                 (A) (A) (A) (A) (A) (A) (A) (A) (A) (A) (A) (A)
                 (A) (A) (A) (A) (A) (A) (A) (A) (A) (A) (A) (A)
                 (A) (A) (A) (A) (A) (A) (A) (A) (A) (A) (A) (A)
                 (A) (A) (A) (A) (A) (A) (A) (A) (A) (A) (A) (A)
                 (A) (A) (A) (A) (A) (A) (A) (A) (A) (A) (A) (A)
                 (A) (A) (A) (A) (A) (A) (A) (A) (A) (A) (A) (A)
                 (A) (A) (A) (A) (A) (A) (A) (A) (A) (A) (A) (A)
                 (A) (A) (A) (A) (A) (A) (A) (A) (A) (A) (A) (A)
                 (A) (A) (A) (A) (A) (A) (A) (A) (A) (A) (A) (A)
                 (A) (A) (A) (A) (A) (A) (A) (A) (A) (A) (A) (A)
                 (A) (A) (A) (A) (A) (A) (A) (A) (A) (A) (A) (A)
                 (A) (A) (A) (A) (A) (A) (A) (A) (A) (A) (A) (A)
                 (A) (A) (A) (A) (A) (A) (A) (A) (A) (A) (A) (A)
                 (A) (A) (A) (A) (A) (A) (A) (A) (A) (A) (A) (A)
                 (A) (A) (A) (A) (A) (A) (A) (A) (A) (A) (A) (A)
                 (A) (A) (A) (A) (A) (A) (A) (A) (A) (A) (A) (A)
                 (A) (A) (A) (A) (A) (A) (A) (A) (A) (A) (A) (A)
                 (A) (A) (A) (A) (A) (A) (A) (A) (A) (A) (A) (A)
                 (A) (A) (A) (A) (A) (A) (A) (A) (A) (A) (A) (A)
                 (A) (A) (A) (A) (A) (A) (A) (A) (A) (A) (A) (A)
                 (A) (A) (A) (A) (A) (A) (A) (A) (A) (A) (A) (A)
                 (A) (A) (A) (A) (A) (A) (A) (A) (A) (A) (A) (A)
                 (A) (A) (A) (A) (A) (A) (A) (A) (A) (A) (A) (A)
                 (A) (A) (A) (A) (A) (A) (A) (A) (A) (A) (A) (A)
                 (A) (A) (A) (A) (A) (A) (A) (A) (A) (A) (A) (A)
                 (A) (A) (A) (A) (A) (A) (A) (A) (A) (A) (A) (A)
                 (A) (A) (A) (A) (A) (A) (A) (A) (A) (A) (A) (A)
                 (A) (A) (A) (A) (A) (A) (A) (A) (A) (A) (A) (A)
                 (A) (A) (A) (A) (A) (A) (A) (A) (A) (A) (A) (A)
                 (A) (A) (A) (A) (A) (A) (A) (A) (A) (A) (A) (A)
                 (A) (A) (A) (A) (A) (A) (A) (A) (A) (A) (A) (A)
                 (A) (A) (A) (A) (A) (A) (A) (A) (A) (A) (A) (A)
                 (A) (A) (A) (A) (A) (A) (A)
 The electronic state is 1-A.
 Alpha  occ. eigenvalues --  -19.21134 -19.20585 -19.20507 -19.20424 -19.20325
 Alpha  occ. eigenvalues --  -19.20011 -19.15920 -14.45032 -14.44322 -14.39789
 Alpha  occ. eigenvalues --  -10.31705 -10.31637 -10.31309 -10.30214 -10.29991
 Alpha  occ. eigenvalues --  -10.29650 -10.29446 -10.29372 -10.29270 -10.29176
 Alpha  occ. eigenvalues --  -10.29176 -10.28390 -10.28075 -10.27634 -10.27544
 Alpha  occ. eigenvalues --  -10.27357 -10.26898 -10.25288 -10.23711 -10.23340
 Alpha  occ. eigenvalues --  -10.23188 -10.23166 -10.22921 -10.22793 -10.22714
 Alpha  occ. eigenvalues --  -10.22558 -10.22372 -10.22174 -10.22136 -10.22135
 Alpha  occ. eigenvalues --  -10.22027 -10.21896 -10.21593  -6.81354  -6.81081
 Alpha  occ. eigenvalues --   -6.80517  -3.64021  -2.06540  -2.05796  -2.04967
 Alpha  occ. eigenvalues --   -1.06812  -1.06299  -1.06033  -1.01757  -0.99886
 Alpha  occ. eigenvalues --   -0.99604  -0.99382  -0.99270  -0.96978  -0.91344
 Alpha  occ. eigenvalues --   -0.83775  -0.82896  -0.82269  -0.80948  -0.80516
 Alpha  occ. eigenvalues --   -0.80330  -0.76970  -0.76770  -0.75331  -0.74862
 Alpha  occ. eigenvalues --   -0.74782  -0.70912  -0.70471  -0.70063  -0.69151
 Alpha  occ. eigenvalues --   -0.68417  -0.68028  -0.67591  -0.67502  -0.67263
 Alpha  occ. eigenvalues --   -0.66992  -0.63982  -0.63031  -0.62295  -0.61713
 Alpha  occ. eigenvalues --   -0.61210  -0.60509  -0.57189  -0.55252  -0.55071
 Alpha  occ. eigenvalues --   -0.54687  -0.54485  -0.53574  -0.53125  -0.52887
 Alpha  occ. eigenvalues --   -0.52710  -0.50950  -0.50315  -0.49201  -0.48715
 Alpha  occ. eigenvalues --   -0.48373  -0.47582  -0.47375  -0.46953  -0.46636
 Alpha  occ. eigenvalues --   -0.46495  -0.46311  -0.46130  -0.45745  -0.45515
 Alpha  occ. eigenvalues --   -0.45159  -0.44928  -0.44531  -0.44408  -0.44024
 Alpha  occ. eigenvalues --   -0.43852  -0.43784  -0.43278  -0.43111  -0.42721
 Alpha  occ. eigenvalues --   -0.41991  -0.41586  -0.40561  -0.40513  -0.40157
 Alpha  occ. eigenvalues --   -0.40070  -0.40020  -0.39885  -0.39877  -0.39600
 Alpha  occ. eigenvalues --   -0.39542  -0.39490  -0.39282  -0.39086  -0.38835
 Alpha  occ. eigenvalues --   -0.38577  -0.38033  -0.37977  -0.37615  -0.37502
 Alpha  occ. eigenvalues --   -0.36983  -0.36903  -0.36816  -0.36659  -0.36502
 Alpha  occ. eigenvalues --   -0.36467  -0.36240  -0.36167  -0.35906  -0.35699
 Alpha  occ. eigenvalues --   -0.35604  -0.35048  -0.34792  -0.34705  -0.34424
 Alpha  occ. eigenvalues --   -0.34202  -0.33590  -0.32870  -0.32585  -0.32242
 Alpha  occ. eigenvalues --   -0.32168  -0.31830  -0.31775  -0.31516  -0.31069
 Alpha  occ. eigenvalues --   -0.30740  -0.30458  -0.30154  -0.29960  -0.28072
 Alpha  occ. eigenvalues --   -0.27386  -0.26884  -0.26682  -0.26226  -0.25936
 Alpha  occ. eigenvalues --   -0.25774  -0.25346  -0.23383  -0.22581  -0.21380
 Alpha  occ. eigenvalues --   -0.18467
 Alpha virt. eigenvalues --   -0.06399  -0.03152  -0.02316   0.02444   0.02883
 Alpha virt. eigenvalues --    0.04639   0.05498   0.06357   0.06693   0.07082
 Alpha virt. eigenvalues --    0.07484   0.08436   0.09520   0.09892   0.10725
 Alpha virt. eigenvalues --    0.11238   0.11288   0.11567   0.11917   0.12300
 Alpha virt. eigenvalues --    0.12446   0.12769   0.13481   0.13510   0.13784
 Alpha virt. eigenvalues --    0.14097   0.14232   0.14601   0.14911   0.14988
 Alpha virt. eigenvalues --    0.15242   0.15357   0.15822   0.15867   0.15876
 Alpha virt. eigenvalues --    0.16213   0.16405   0.16625   0.16782   0.16790
 Alpha virt. eigenvalues --    0.17214   0.17295   0.17359   0.17612   0.17746
 Alpha virt. eigenvalues --    0.18202   0.18369   0.18500   0.18609   0.18894
 Alpha virt. eigenvalues --    0.19076   0.19330   0.19511   0.19765   0.19811
 Alpha virt. eigenvalues --    0.19970   0.20318   0.20488   0.20829   0.20963
 Alpha virt. eigenvalues --    0.21391   0.21622   0.21698   0.22000   0.22149
 Alpha virt. eigenvalues --    0.22558   0.22842   0.23100   0.23299   0.23552
 Alpha virt. eigenvalues --    0.23735   0.24050   0.24349   0.24597   0.24733
 Alpha virt. eigenvalues --    0.24988   0.25074   0.25496   0.25578   0.25757
 Alpha virt. eigenvalues --    0.26279   0.26589   0.26847   0.27108   0.27342
 Alpha virt. eigenvalues --    0.27568   0.27801   0.28136   0.28466   0.28727
 Alpha virt. eigenvalues --    0.29126   0.29504   0.30180   0.30311   0.30442
 Alpha virt. eigenvalues --    0.31425   0.31452   0.32263   0.32384   0.33443
 Alpha virt. eigenvalues --    0.33730   0.34827   0.35163   0.35829   0.36700
 Alpha virt. eigenvalues --    0.36903   0.37459   0.38399   0.38555   0.39798
 Alpha virt. eigenvalues --    0.40099   0.40499   0.42305   0.42662   0.44202
 Alpha virt. eigenvalues --    0.45415   0.46869   0.48163   0.48532   0.48900
 Alpha virt. eigenvalues --    0.49592   0.50075   0.50194   0.50344   0.51010
 Alpha virt. eigenvalues --    0.51331   0.51763   0.52185   0.52754   0.52854
 Alpha virt. eigenvalues --    0.53444   0.53689   0.54530   0.54796   0.54885
 Alpha virt. eigenvalues --    0.55473   0.56273   0.56365   0.56740   0.56950
 Alpha virt. eigenvalues --    0.57453   0.57655   0.57785   0.58051   0.58426
 Alpha virt. eigenvalues --    0.58621   0.58888   0.59035   0.59266   0.59523
 Alpha virt. eigenvalues --    0.59866   0.60212   0.60444   0.60913   0.60974
 Alpha virt. eigenvalues --    0.61575   0.61726   0.61953   0.62278   0.63005
 Alpha virt. eigenvalues --    0.63282   0.63666   0.63771   0.64232   0.64263
 Alpha virt. eigenvalues --    0.64536   0.65079   0.65371   0.65494   0.65910
 Alpha virt. eigenvalues --    0.66406   0.66914   0.67068   0.67363   0.67721
 Alpha virt. eigenvalues --    0.67893   0.68343   0.68849   0.69116   0.69792
 Alpha virt. eigenvalues --    0.70364   0.70744   0.70888   0.71266   0.71542
 Alpha virt. eigenvalues --    0.72078   0.72274   0.72369   0.73085   0.73172
 Alpha virt. eigenvalues --    0.73784   0.74184   0.74686   0.75058   0.75406
 Alpha virt. eigenvalues --    0.76131   0.76445   0.76851   0.77444   0.77567
 Alpha virt. eigenvalues --    0.78283   0.78455   0.78833   0.79186   0.79591
 Alpha virt. eigenvalues --    0.79721   0.80065   0.80717   0.80967   0.81429
 Alpha virt. eigenvalues --    0.81734   0.82200   0.82552   0.82623   0.82961
 Alpha virt. eigenvalues --    0.83182   0.83435   0.83616   0.84306   0.84608
 Alpha virt. eigenvalues --    0.84851   0.85348   0.85514   0.85911   0.86011
 Alpha virt. eigenvalues --    0.86400   0.86497   0.86751   0.87082   0.87469
 Alpha virt. eigenvalues --    0.87538   0.88001   0.88085   0.88604   0.88890
 Alpha virt. eigenvalues --    0.88926   0.89095   0.89456   0.89505   0.89898
 Alpha virt. eigenvalues --    0.90101   0.90275   0.90522   0.90676   0.91063
 Alpha virt. eigenvalues --    0.91457   0.91710   0.91919   0.92100   0.92504
 Alpha virt. eigenvalues --    0.92969   0.93299   0.93445   0.94310   0.94606
 Alpha virt. eigenvalues --    0.94981   0.95164   0.95391   0.95549   0.95761
 Alpha virt. eigenvalues --    0.96061   0.96184   0.96482   0.96630   0.96921
 Alpha virt. eigenvalues --    0.97275   0.97925   0.98185   0.98526   0.98814
 Alpha virt. eigenvalues --    0.99345   0.99816   1.00695   1.01332   1.01612
 Alpha virt. eigenvalues --    1.01939   1.02695   1.03054   1.03445   1.04125
 Alpha virt. eigenvalues --    1.04589   1.05249   1.05878   1.06062   1.06100
 Alpha virt. eigenvalues --    1.07282   1.07497   1.08340   1.08526   1.09935
 Alpha virt. eigenvalues --    1.10075   1.10643   1.11380   1.12482   1.13146
 Alpha virt. eigenvalues --    1.13576   1.14045   1.14378   1.15248   1.15852
 Alpha virt. eigenvalues --    1.16400   1.17192   1.17298   1.17490   1.18236
 Alpha virt. eigenvalues --    1.18898   1.19712   1.20631   1.20906   1.21705
 Alpha virt. eigenvalues --    1.21878   1.22671   1.23013   1.23579   1.24280
 Alpha virt. eigenvalues --    1.25171   1.25792   1.26861   1.26986   1.27241
 Alpha virt. eigenvalues --    1.28163   1.28642   1.29426   1.30097   1.30554
 Alpha virt. eigenvalues --    1.31658   1.32332   1.33895   1.34340   1.34991
 Alpha virt. eigenvalues --    1.35919   1.36052   1.37449   1.38114   1.38580
 Alpha virt. eigenvalues --    1.38843   1.39063   1.40798   1.41889   1.42008
 Alpha virt. eigenvalues --    1.42816   1.43000   1.43421   1.44201   1.44588
 Alpha virt. eigenvalues --    1.45216   1.45695   1.45908   1.46462   1.46645
 Alpha virt. eigenvalues --    1.46923   1.47660   1.48513   1.48587   1.49239
 Alpha virt. eigenvalues --    1.49306   1.50001   1.52830   1.53921   1.54191
 Alpha virt. eigenvalues --    1.55983   1.56119   1.57950   1.59400   1.59443
 Alpha virt. eigenvalues --    1.60097   1.60562   1.62586   1.63431   1.63577
 Alpha virt. eigenvalues --    1.64236   1.64641   1.65354   1.65856   1.66420
 Alpha virt. eigenvalues --    1.67394   1.67868   1.68072   1.69941   1.69964
 Alpha virt. eigenvalues --    1.70395   1.71077   1.72253   1.72451   1.73867
 Alpha virt. eigenvalues --    1.74574   1.75165   1.76521   1.76720   1.77588
 Alpha virt. eigenvalues --    1.78123   1.78450   1.78625   1.78989   1.79451
 Alpha virt. eigenvalues --    1.79954   1.80818   1.81296   1.81710   1.82260
 Alpha virt. eigenvalues --    1.82387   1.83374   1.83437   1.83623   1.83968
 Alpha virt. eigenvalues --    1.84728   1.85308   1.85906   1.86268   1.86733
 Alpha virt. eigenvalues --    1.87599   1.87979   1.88077   1.89186   1.89618
 Alpha virt. eigenvalues --    1.90128   1.90713   1.91053   1.91136   1.91405
 Alpha virt. eigenvalues --    1.91553   1.92110   1.92615   1.92931   1.93097
 Alpha virt. eigenvalues --    1.93154   1.93727   1.94047   1.94528   1.94678
 Alpha virt. eigenvalues --    1.95269   1.95641   1.96201   1.96396   1.96971
 Alpha virt. eigenvalues --    1.97315   1.98018   1.98504   1.99495   1.99994
 Alpha virt. eigenvalues --    2.00029   2.01052   2.02397   2.03067   2.03411
 Alpha virt. eigenvalues --    2.03734   2.04093   2.04811   2.05199   2.05884
 Alpha virt. eigenvalues --    2.06140   2.07158   2.07542   2.07871   2.08060
 Alpha virt. eigenvalues --    2.08848   2.09002   2.09764   2.09828   2.10724
 Alpha virt. eigenvalues --    2.11334   2.12115   2.12418   2.12575   2.13152
 Alpha virt. eigenvalues --    2.13943   2.14389   2.14560   2.15289   2.15515
 Alpha virt. eigenvalues --    2.15969   2.16511   2.16956   2.17143   2.17893
 Alpha virt. eigenvalues --    2.17989   2.18259   2.18351   2.18863   2.19020
 Alpha virt. eigenvalues --    2.19307   2.19690   2.20049   2.20351   2.20580
 Alpha virt. eigenvalues --    2.22052   2.22149   2.22641   2.23068   2.23213
 Alpha virt. eigenvalues --    2.23606   2.24319   2.24439   2.24760   2.25049
 Alpha virt. eigenvalues --    2.25397   2.25875   2.26565   2.27129   2.27350
 Alpha virt. eigenvalues --    2.27753   2.28113   2.28582   2.28879   2.29346
 Alpha virt. eigenvalues --    2.30406   2.31198   2.31763   2.32399   2.32545
 Alpha virt. eigenvalues --    2.32977   2.33697   2.34761   2.35218   2.36200
 Alpha virt. eigenvalues --    2.36808   2.37637   2.39161   2.39241   2.39708
 Alpha virt. eigenvalues --    2.39914   2.40468   2.41067   2.41835   2.44797
 Alpha virt. eigenvalues --    2.46165   2.47260   2.47848   2.48330   2.48517
 Alpha virt. eigenvalues --    2.48900   2.49272   2.49359   2.50615   2.52546
 Alpha virt. eigenvalues --    2.53193   2.53696   2.54994   2.57312   2.58565
 Alpha virt. eigenvalues --    2.60795   2.61161   2.61569   2.62283   2.62774
 Alpha virt. eigenvalues --    2.63159   2.63718   2.64591   2.65635   2.66649
 Alpha virt. eigenvalues --    2.67384   2.68474   2.69456   2.70181   2.70875
 Alpha virt. eigenvalues --    2.72247   2.73104   2.76691   2.77137   2.77332
 Alpha virt. eigenvalues --    2.77622   2.77817   2.78454   2.78728   2.79283
 Alpha virt. eigenvalues --    2.79997   2.81164   2.81777   2.82149   2.82416
 Alpha virt. eigenvalues --    2.83811   2.85188   2.87522   2.87903   2.91006
 Alpha virt. eigenvalues --    2.92511   2.93490   2.94591   2.95816   2.96334
 Alpha virt. eigenvalues --    2.97410   2.99433   3.01617   3.03383   3.06070
 Alpha virt. eigenvalues --    3.08098   3.09177   3.11683   3.12535   3.14499
 Alpha virt. eigenvalues --    3.22491   3.25691   3.31219   3.45051  13.29603
          Condensed to atoms (all electrons):
 Mulliken charges:
               1
     1  C    0.324172
     2  C    0.054860
     3  C   -0.155889
     4  C   -0.135706
     5  C   -0.154852
     6  C    0.314612
     7  C    0.092648
     8  C   -0.179768
     9  C   -0.136424
    10  C   -0.182843
    11  H    0.217300
    12  H    0.181754
    13  H    0.172329
    14  H    0.214598
    15  H    0.178421
    16  H    0.168463
    17  N   -0.524028
    18  N   -0.511684
    19  O   -0.493518
    20  O   -0.533778
    21  O   -0.505211
    22  B    0.452613
    23  B    0.482212
    24  B    0.478313
    25  O   -0.513967
    26  O   -0.508188
    27  C    0.291168
    28  C    0.287607
    29  C    0.292190
    30  C    0.282700
    31  C    0.294288
    32  C    0.288696
    33  O   -0.514677
    34  C   -0.496886
    35  H    0.177217
    36  H    0.167838
    37  H    0.144244
    38  C   -0.507645
    39  H    0.173899
    40  H    0.150289
    41  H    0.158499
    42  C   -0.505862
    43  H    0.152491
    44  H    0.165038
    45  H    0.171591
    46  C   -0.497689
    47  H    0.152816
    48  H    0.168640
    49  H    0.154213
    50  C   -0.504333
    51  H    0.166271
    52  H    0.153501
    53  H    0.161189
    54  C   -0.508480
    55  H    0.183277
    56  H    0.143633
    57  H    0.165629
    58  C   -0.507300
    59  H    0.177654
    60  H    0.179395
    61  H    0.140885
    62  C   -0.504481
    63  H    0.157013
    64  H    0.174320
    65  H    0.151430
    66  C   -0.503186
    67  H    0.167233
    68  H    0.151269
    69  H    0.174206
    70  C   -0.502429
    71  H    0.158369
    72  H    0.174694
    73  H    0.151222
    74  C   -0.498242
    75  H    0.160408
    76  H    0.165919
    77  H    0.147816
    78  C   -0.504710
    79  H    0.168562
    80  H    0.147530
    81  H    0.173284
    82  H    0.143594
    83  C    0.575143
    84  O   -0.532404
    85  C   -0.399025
    86  H    0.171476
    87  H    0.152194
    88  C   -0.346478
    89  H    0.141573
    90  H    0.192703
    91  N   -0.356259
    92  C   -0.372058
    93  H    0.220360
    94  H    0.159942
    95  H    0.162114
    96  C   -0.473205
    97  H    0.155338
    98  H    0.180318
    99  H    0.178390
   100  H    0.179482
   101  Ir  -0.090176
   102  H    0.148325
 Sum of Mulliken charges =  -0.00000
 Mulliken charges with hydrogens summed into heavy atoms:
               1
     1  C    0.324172
     2  C    0.272160
     3  C    0.023594
     4  C    0.046047
     5  C    0.017477
     6  C    0.314612
     7  C    0.307246
     8  C   -0.001378
     9  C    0.041997
    10  C   -0.014380
    17  N   -0.524028
    18  N   -0.511684
    19  O   -0.493518
    20  O   -0.533778
    21  O   -0.505211
    22  B    0.452613
    23  B    0.482212
    24  B    0.478313
    25  O   -0.513967
    26  O   -0.508188
    27  C    0.291168
    28  C    0.287607
    29  C    0.292190
    30  C    0.282700
    31  C    0.294288
    32  C    0.288696
    33  O   -0.514677
    34  C   -0.007587
    38  C   -0.024958
    42  C   -0.016742
    46  C   -0.022019
    50  C   -0.023372
    54  C   -0.015940
    58  C   -0.009366
    62  C   -0.021718
    66  C   -0.010477
    70  C   -0.018145
    74  C   -0.024099
    78  C   -0.015334
    83  C    0.575143
    84  O   -0.532404
    85  C   -0.075354
    88  C   -0.012201
    91  N   -0.356259
    92  C    0.170358
    96  C    0.010776
   101  Ir   0.053418
 APT charges:
               1
     1  C    0.200147
     2  C    0.077606
     3  C   -0.077179
     4  C    0.130915
     5  C   -0.157930
     6  C    0.166555
     7  C    0.037359
     8  C   -0.037238
     9  C    0.096524
    10  C   -0.160762
    11  H    0.075143
    12  H    0.034526
    13  H    0.041309
    14  H    0.109440
    15  H    0.026479
    16  H    0.040699
    17  N   -0.179868
    18  N   -0.058612
    19  O   -0.908004
    20  O   -0.990703
    21  O   -0.973134
    22  B    1.327562
    23  B    1.211801
    24  B    1.363566
    25  O   -0.991195
    26  O   -0.907863
    27  C    0.439876
    28  C    0.467690
    29  C    0.508784
    30  C    0.484997
    31  C    0.502775
    32  C    0.493805
    33  O   -1.003574
    34  C   -0.023050
    35  H    0.004300
    36  H    0.016663
    37  H   -0.027568
    38  C   -0.006791
    39  H    0.002420
    40  H   -0.013486
    41  H   -0.003132
    42  C    0.003109
    43  H   -0.017676
    44  H   -0.000073
    45  H    0.001824
    46  C   -0.018117
    47  H   -0.018920
    48  H    0.000430
    49  H   -0.005647
    50  C   -0.010115
    51  H    0.003374
    52  H   -0.019166
    53  H   -0.002596
    54  C   -0.039512
    55  H    0.028778
    56  H   -0.025469
    57  H   -0.001213
    58  C   -0.045210
    59  H    0.005288
    60  H    0.029231
    61  H   -0.029203
    62  C   -0.007318
    63  H   -0.006639
    64  H    0.005729
    65  H   -0.019842
    66  C   -0.025034
    67  H   -0.001638
    68  H   -0.026550
    69  H    0.005518
    70  C   -0.003529
    71  H   -0.002426
    72  H    0.004205
    73  H   -0.019967
    74  C   -0.039408
    75  H   -0.000914
    76  H    0.023245
    77  H   -0.025882
    78  C   -0.015564
    79  H    0.000964
    80  H   -0.018083
    81  H    0.007229
    82  H   -0.021152
    83  C    0.879196
    84  O   -0.710473
    85  C    0.015881
    86  H   -0.031354
    87  H   -0.026827
    88  C    0.343744
    89  H   -0.083171
    90  H   -0.026431
    91  N   -0.791252
    92  C    0.285473
    93  H    0.046713
    94  H   -0.021667
    95  H   -0.061749
    96  C    0.067883
    97  H   -0.002257
    98  H    0.007724
    99  H    0.036050
   100  H    0.038499
   101  Ir  -0.918642
   102  H   -0.040251
 Sum of APT charges =  -0.00000
 APT charges with hydrogens summed into heavy atoms:
               1
     1  C    0.200147
     2  C    0.152748
     3  C   -0.038680
     4  C    0.165442
     5  C   -0.116621
     6  C    0.166555
     7  C    0.146799
     8  C   -0.001187
     9  C    0.123003
    10  C   -0.120063
    17  N   -0.179868
    18  N   -0.058612
    19  O   -0.908004
    20  O   -0.990703
    21  O   -0.973134
    22  B    1.327562
    23  B    1.211801
    24  B    1.363566
    25  O   -0.991195
    26  O   -0.907863
    27  C    0.439876
    28  C    0.467690
    29  C    0.508784
    30  C    0.484997
    31  C    0.502775
    32  C    0.493805
    33  O   -1.003574
    34  C   -0.029654
    38  C   -0.020988
    42  C   -0.012816
    46  C   -0.042255
    50  C   -0.028503
    54  C   -0.037416
    58  C   -0.039894
    62  C   -0.028070
    66  C   -0.047705
    70  C   -0.021718
    74  C   -0.042959
    78  C   -0.025453
    83  C    0.879196
    84  O   -0.710473
    85  C   -0.042300
    88  C    0.234142
    91  N   -0.791252
    92  C    0.248770
    96  C    0.033099
   101  Ir  -0.939794
 Electronic spatial extent (au):  <R**2>=          23914.9900
 Charge=             -0.0000 electrons
 Dipole moment (field-independent basis, Debye):
    X=              1.3324    Y=              3.0266    Z=              2.4987  Tot=              4.1447
 Quadrupole moment (field-independent basis, Debye-Ang):
   XX=           -271.6385   YY=           -289.8045   ZZ=           -277.6776
   XY=             15.9697   XZ=             -3.4064   YZ=              7.5532
 Traceless Quadrupole moment (field-independent basis, Debye-Ang):
   XX=              8.0684   YY=            -10.0976   ZZ=              2.0293
   XY=             15.9697   XZ=             -3.4064   YZ=              7.5532
 Octapole moment (field-independent basis, Debye-Ang**2):
  XXX=             47.0440  YYY=            -18.7843  ZZZ=             82.2921  XYY=            -38.7422
  XXY=             40.2668  XXZ=            -14.4812  XZZ=             47.0187  YZZ=            -13.7519
  YYZ=            -53.5879  XYZ=             28.5120
 Hexadecapole moment (field-independent basis, Debye-Ang**3):
 XXXX=         -14153.7398 YYYY=         -11738.2001 ZZZZ=          -4785.5422 XXXY=            218.5716
 XXXZ=              8.1720 YYYX=            144.1345 YYYZ=             27.5430 ZZZX=             59.8962
 ZZZY=             44.3826 XXYY=          -4443.0594 XXZZ=          -3212.0178 YYZZ=          -2932.5163
 XXYZ=             80.1331 YYXZ=            -69.1276 ZZXY=              8.9640
 N-N= 7.495143012855D+03 E-N=-1.999487318660D+04  KE= 2.074765552939D+03
  Exact polarizability:     527.964      11.640     418.918      -5.598       9.783     439.039
 Approx polarizability:     743.054      25.733     558.714      -7.087      11.291     721.748
   1 Symmetry operations used in ECPInt.
 ECPInt:  NShTT=   45753 NPrTT=  276657 LenC2=   36283 LenP2D=  113701.
 LDataN:  DoStor=T MaxTD1= 8 Len=  415
 Calling FoFJK, ICntrl=    100127 FMM=F ISym2X=0 I1Cent= 0 IOpClX= 0 NMat=1 NMatS=1 NMatT=0.
 Defaulting to unpruned grid for atomic number  77.
 Defaulting to unpruned grid for atomic number  77.
 Defaulting to unpruned grid for atomic number  77.
 Defaulting to unpruned grid for atomic number  77.
 Defaulting to unpruned grid for atomic number  77.
 Defaulting to unpruned grid for atomic number  77.
 Defaulting to unpruned grid for atomic number  77.
 Defaulting to unpruned grid for atomic number  77.
 Defaulting to unpruned grid for atomic number  77.
 Defaulting to unpruned grid for atomic number  77.
 Defaulting to unpruned grid for atomic number  77.
 Defaulting to unpruned grid for atomic number  77.
 Defaulting to unpruned grid for atomic number  77.
 Defaulting to unpruned grid for atomic number  77.
 Defaulting to unpruned grid for atomic number  77.
 Defaulting to unpruned grid for atomic number  77.
 Full mass-weighted force constant matrix:
 Low frequencies ---   -6.0251   -4.9593   -0.0001    0.0004    0.0007    4.7525
 Low frequencies ---   11.5672   21.0669   30.1397
 Diagonal vibrational polarizability:
      123.4093569     161.9387975      40.3019437
 Harmonic frequencies (cm**-1), IR intensities (KM/Mole), Raman scattering
 activities (A**4/AMU), depolarization ratios for plane and unpolarized
 incident light, reduced masses (AMU), force constants (mDyne/A),
 and normal coordinates:
                      1                      2                      3
                      A                      A                      A
 Frequencies --     11.4350                21.0002                30.1126
 Red. masses --      4.4483                 4.5518                 4.8957
 Frc consts  --      0.0003                 0.0012                 0.0026
 IR Inten    --      0.1938                 1.1539                 0.7479
  Atom AN      X      Y      Z        X      Y      Z        X      Y      Z
     1   6    -0.01   0.01  -0.00     0.02  -0.02  -0.07     0.00   0.03  -0.03
     2   6    -0.01   0.02  -0.00    -0.02   0.00  -0.08     0.01  -0.06  -0.03
     3   6    -0.01   0.03  -0.00    -0.01  -0.00  -0.10     0.01  -0.08  -0.03
     4   6    -0.01   0.03  -0.00     0.01  -0.02  -0.10     0.01  -0.04  -0.03
     5   6    -0.01   0.02  -0.00     0.03  -0.04  -0.09     0.00   0.02  -0.03
     6   6    -0.01  -0.01  -0.00     0.04  -0.03  -0.05    -0.01   0.10  -0.03
     7   6     0.00  -0.05   0.00     0.04   0.01  -0.02     0.00   0.07  -0.01
     8   6     0.00  -0.06   0.00     0.06  -0.02  -0.03    -0.01   0.20  -0.03
     9   6     0.00  -0.05   0.00     0.08  -0.05  -0.04    -0.03   0.30  -0.04
    10   6    -0.00  -0.02   0.00     0.06  -0.05  -0.06    -0.02   0.24  -0.04
    11   1    -0.01   0.01  -0.00    -0.04   0.01  -0.07     0.01  -0.10  -0.02
    12   1    -0.01   0.04  -0.00     0.01  -0.03  -0.12     0.01  -0.06  -0.03
    13   1    -0.01   0.02  -0.00     0.05  -0.06  -0.10     0.00   0.04  -0.03
    14   1     0.00  -0.05   0.00     0.03   0.03  -0.01     0.01   0.00  -0.00
    15   1     0.00  -0.06   0.00     0.10  -0.07  -0.04    -0.05   0.41  -0.05
    16   1    -0.01  -0.02  -0.00     0.07  -0.08  -0.07    -0.04   0.31  -0.06
    17   7    -0.01   0.01  -0.00    -0.00  -0.00  -0.06     0.00  -0.01  -0.02
    18   7    -0.00  -0.02  -0.00     0.03  -0.00  -0.04     0.01   0.03  -0.01
    19   8    -0.03  -0.03  -0.06    -0.00   0.04   0.02     0.00   0.02   0.02
    20   8     0.02   0.00   0.06    -0.01  -0.00  -0.03     0.01  -0.04   0.02
    21   8    -0.02  -0.02  -0.05     0.02  -0.00   0.00    -0.01  -0.02  -0.03
    22   5    -0.00   0.00   0.03    -0.01   0.01  -0.02     0.00  -0.01   0.01
    23   5    -0.00  -0.01  -0.04    -0.01   0.01   0.01     0.00  -0.01   0.01
    24   5    -0.01   0.00  -0.03    -0.01   0.01   0.00     0.00  -0.01  -0.02
    25   8    -0.01   0.03  -0.04    -0.05   0.03   0.03     0.01  -0.00  -0.03
    26   8     0.04  -0.00  -0.04    -0.03  -0.01   0.03    -0.00  -0.02   0.03
    27   6     0.03  -0.01  -0.08    -0.03   0.00   0.06    -0.02  -0.01   0.05
    28   6    -0.02  -0.03  -0.08    -0.01   0.03   0.06    -0.01   0.01   0.05
    29   6    -0.02  -0.01  -0.07     0.02   0.00   0.03    -0.00  -0.02  -0.05
    30   6    -0.01   0.02  -0.07    -0.04   0.03   0.03     0.02  -0.01  -0.05
    31   6     0.03   0.02   0.09    -0.02  -0.01  -0.03     0.01  -0.03   0.05
    32   6    -0.02   0.02   0.09    -0.01   0.01  -0.03    -0.00   0.01   0.05
    33   8    -0.03   0.01   0.05    -0.00   0.01  -0.02    -0.01   0.01   0.03
    34   6    -0.04  -0.03  -0.05    -0.00   0.05   0.06    -0.01   0.01   0.05
    35   1    -0.07  -0.04  -0.05     0.01   0.07   0.05     0.00   0.03   0.04
    36   1    -0.03  -0.02  -0.02    -0.01   0.03   0.04    -0.01  -0.00   0.03
    37   1    -0.03  -0.03  -0.07    -0.01   0.05   0.08    -0.02   0.01   0.06
    38   6    -0.04  -0.04  -0.13    -0.01   0.06   0.08    -0.01   0.03   0.06
    39   1    -0.07  -0.06  -0.12     0.01   0.08   0.07    -0.00   0.05   0.06
    40   1    -0.03  -0.04  -0.15    -0.01   0.05   0.11    -0.02   0.03   0.08
    41   1    -0.03  -0.04  -0.15    -0.01   0.05   0.07    -0.01   0.03   0.06
    42   6     0.04  -0.00  -0.08    -0.03  -0.01   0.08    -0.04  -0.02   0.06
    43   1     0.04  -0.01  -0.10    -0.03  -0.00   0.11    -0.06  -0.01   0.08
    44   1     0.03  -0.00  -0.04    -0.03  -0.00   0.07    -0.04  -0.03   0.05
    45   1     0.08   0.01  -0.07    -0.04  -0.04   0.08    -0.05  -0.04   0.06
    46   6     0.05  -0.00  -0.12    -0.03  -0.01   0.07    -0.02   0.01   0.05
    47   1     0.04  -0.00  -0.15    -0.03  -0.01   0.09    -0.03   0.02   0.06
    48   1     0.08   0.01  -0.12    -0.04  -0.03   0.07    -0.02   0.01   0.05
    49   1     0.04  -0.01  -0.13    -0.03  -0.01   0.06    -0.01   0.02   0.06
    50   6     0.04   0.03   0.13    -0.02  -0.03  -0.05     0.01  -0.03   0.05
    51   1     0.07   0.02   0.13    -0.03  -0.04  -0.05     0.02  -0.06   0.05
    52   1     0.04   0.04   0.17    -0.03  -0.05  -0.05     0.02  -0.02   0.08
    53   1     0.01   0.04   0.14     0.00  -0.04  -0.06     0.00  -0.02   0.03
    54   6     0.07   0.01   0.09    -0.04  -0.01  -0.01     0.02  -0.04   0.08
    55   1     0.06  -0.00   0.06    -0.04   0.00   0.00     0.02  -0.04   0.08
    56   1     0.07   0.02   0.12    -0.05  -0.02  -0.01     0.03  -0.04   0.11
    57   1     0.10   0.00   0.08    -0.05  -0.02  -0.01     0.04  -0.07   0.07
    58   6    -0.05   0.04   0.11     0.00   0.01  -0.05    -0.01   0.03   0.04
    59   1    -0.08   0.04   0.10     0.01   0.02  -0.04    -0.02   0.05   0.04
    60   1    -0.05   0.03   0.10     0.00   0.01  -0.05    -0.01   0.02   0.01
    61   1    -0.05   0.04   0.15     0.00   0.01  -0.05    -0.01   0.02   0.05
    62   6    -0.02   0.03   0.11    -0.01   0.01  -0.02    -0.01   0.02   0.09
    63   1     0.00   0.02   0.09    -0.01   0.01  -0.00     0.00   0.01   0.10
    64   1    -0.06   0.03   0.10     0.01   0.02  -0.01    -0.02   0.05   0.09
    65   1    -0.01   0.04   0.15    -0.01   0.00  -0.02    -0.00   0.02   0.11
    66   6     0.01   0.04  -0.09    -0.07   0.03  -0.01     0.03  -0.00  -0.05
    67   1     0.00   0.04  -0.08    -0.06   0.03  -0.06     0.02  -0.00  -0.04
    68   1     0.01   0.03  -0.12    -0.07   0.03  -0.01     0.03  -0.00  -0.07
    69   1     0.02   0.06  -0.08    -0.12   0.05  -0.01     0.05   0.01  -0.05
    70   6    -0.00   0.02  -0.08    -0.06   0.05   0.09     0.02  -0.01  -0.07
    71   1    -0.02   0.00  -0.07    -0.04   0.05   0.13     0.01  -0.02  -0.07
    72   1     0.01   0.04  -0.08    -0.10   0.07   0.09     0.04  -0.01  -0.07
    73   1     0.00   0.00  -0.11    -0.06   0.05   0.09     0.02  -0.02  -0.08
    74   6    -0.02  -0.02  -0.07     0.04  -0.01   0.09    -0.01  -0.03  -0.06
    75   1    -0.03  -0.03  -0.07     0.08  -0.04   0.08    -0.02  -0.03  -0.06
    76   1    -0.02  -0.01  -0.05     0.03   0.00   0.12    -0.02  -0.03  -0.06
    77   1    -0.02  -0.02  -0.08     0.03  -0.00   0.10    -0.01  -0.04  -0.07
    78   6    -0.03  -0.03  -0.10     0.04  -0.01  -0.00    -0.00  -0.02  -0.06
    79   1    -0.04  -0.05  -0.09     0.09  -0.03  -0.00    -0.02  -0.03  -0.06
    80   1    -0.03  -0.02  -0.12     0.03  -0.01   0.02     0.00  -0.03  -0.07
    81   1    -0.03  -0.02  -0.10     0.03  -0.00  -0.05     0.00  -0.02  -0.05
    82   1    -0.01  -0.01  -0.00    -0.02  -0.00  -0.03     0.00  -0.00  -0.01
    83   6     0.02   0.02   0.08     0.01   0.01   0.09    -0.00  -0.06   0.01
    84   8    -0.01   0.05   0.09    -0.04   0.06   0.11    -0.00  -0.06   0.01
    85   6     0.06   0.01   0.11     0.06  -0.04   0.15    -0.00  -0.09   0.01
    86   1     0.08  -0.00   0.12     0.08  -0.06   0.18    -0.02  -0.09   0.02
    87   1     0.08  -0.01   0.10     0.10  -0.07   0.12     0.01  -0.10   0.01
    88   6     0.00  -0.00   0.01    -0.02  -0.00  -0.02     0.00  -0.01  -0.00
    89   1     0.00  -0.00  -0.02    -0.02   0.00  -0.07     0.00  -0.01   0.01
    90   1    -0.03  -0.01   0.03    -0.08  -0.02   0.01     0.00   0.00  -0.00
    91   7     0.03   0.00   0.04     0.03  -0.01   0.03     0.00  -0.03   0.00
    92   6     0.07  -0.01   0.03     0.08  -0.05   0.02    -0.00  -0.04   0.00
    93   1     0.09   0.02  -0.01     0.11   0.01  -0.05     0.02   0.00  -0.01
    94   1     0.11  -0.06   0.04     0.15  -0.13   0.03     0.02  -0.08   0.00
    95   1     0.03  -0.02   0.06     0.01  -0.05   0.07    -0.04  -0.04   0.03
    96   6     0.04   0.03   0.16     0.04  -0.03   0.22    -0.01  -0.11   0.02
    97   1     0.03   0.04   0.15     0.02  -0.02   0.20     0.01  -0.11   0.01
    98   1     0.03   0.04   0.17    -0.00  -0.00   0.26    -0.03  -0.11   0.03
    99   1     0.01  -0.09   0.01     0.07  -0.01  -0.01    -0.02   0.24  -0.02
   100   1    -0.01   0.04  -0.00    -0.03   0.01  -0.11     0.02  -0.12  -0.03
   101  77    -0.01  -0.00  -0.00    -0.01   0.00  -0.03     0.00  -0.01  -0.01
   102   1     0.07   0.02   0.18     0.07  -0.07   0.27    -0.01  -0.13   0.03
                      4                      5                      6
                      A                      A                      A
 Frequencies --     34.0997                42.1762                46.2615
 Red. masses --      3.7183                 3.7036                 4.5699
 Frc consts  --      0.0025                 0.0039                 0.0058
 IR Inten    --      0.5164                 0.0815                 0.1608
  Atom AN      X      Y      Z        X      Y      Z        X      Y      Z
     1   6    -0.02   0.02   0.03    -0.01  -0.04   0.02    -0.01   0.04  -0.02
     2   6     0.02  -0.00   0.03     0.01   0.01   0.02    -0.03   0.03  -0.03
     3   6     0.01   0.02   0.05     0.01  -0.04   0.04    -0.04   0.10  -0.04
     4   6    -0.01   0.04   0.06     0.01  -0.11   0.05    -0.03   0.14  -0.04
     5   6    -0.02   0.04   0.05    -0.01  -0.11   0.04    -0.02   0.10  -0.03
     6   6    -0.03   0.02   0.02    -0.03  -0.01   0.01    -0.01   0.03  -0.02
     7   6    -0.03  -0.01  -0.01    -0.05   0.05  -0.02     0.01  -0.02  -0.00
     8   6    -0.05   0.03  -0.01    -0.06   0.07  -0.02     0.00   0.03  -0.01
     9   6    -0.06   0.07   0.00    -0.06   0.03  -0.00    -0.00   0.08  -0.02
    10   6    -0.05   0.07   0.02    -0.04  -0.01   0.01    -0.01   0.08  -0.02
    11   1     0.03  -0.02   0.03     0.01   0.06   0.02    -0.03  -0.01  -0.02
    12   1    -0.01   0.05   0.07     0.01  -0.17   0.06    -0.04   0.20  -0.05
    13   1    -0.04   0.06   0.05    -0.01  -0.16   0.04    -0.02   0.13  -0.04
    14   1    -0.02  -0.04  -0.01    -0.05   0.08  -0.03     0.01  -0.07   0.01
    15   1    -0.08   0.11   0.00    -0.07   0.04  -0.00    -0.01   0.12  -0.02
    16   1    -0.06   0.10   0.02    -0.04  -0.03   0.02    -0.01   0.12  -0.03
    17   7     0.00  -0.00   0.02    -0.01   0.01   0.01    -0.01  -0.00  -0.02
    18   7    -0.02  -0.01   0.00    -0.03   0.02  -0.01     0.00  -0.02  -0.01
    19   8     0.02  -0.03  -0.01    -0.05   0.02  -0.03    -0.02  -0.02   0.01
    20   8     0.01  -0.02  -0.01    -0.02  -0.02  -0.02    -0.00  -0.00  -0.02
    21   8     0.05  -0.05  -0.01     0.03   0.01   0.00    -0.04  -0.01   0.01
    22   5     0.01  -0.01  -0.00    -0.01   0.01  -0.01     0.01  -0.01  -0.01
    23   5     0.01  -0.02  -0.01    -0.01   0.02  -0.01     0.01  -0.03   0.01
    24   5    -0.00  -0.01   0.01     0.01   0.00  -0.00    -0.02  -0.03   0.00
    25   8    -0.07   0.06   0.04     0.00  -0.01   0.01    -0.02  -0.03  -0.00
    26   8     0.00  -0.01  -0.02     0.06   0.01   0.02     0.07  -0.06   0.05
    27   6    -0.00  -0.01  -0.03     0.09  -0.02  -0.00     0.08  -0.06   0.05
    28   6     0.02  -0.03  -0.02    -0.03   0.02  -0.01     0.02  -0.02   0.04
    29   6     0.03  -0.03   0.02     0.04  -0.02   0.02    -0.06   0.01   0.01
    30   6    -0.08   0.06   0.02     0.02  -0.02   0.02    -0.03  -0.01   0.01
    31   6     0.01  -0.02  -0.00    -0.03  -0.02  -0.01     0.01   0.01  -0.02
    32   6     0.02   0.02  -0.00    -0.02  -0.01  -0.01     0.02   0.01  -0.02
    33   8     0.02   0.01   0.00    -0.02   0.02  -0.00     0.02   0.00  -0.01
    34   6     0.03  -0.04  -0.05    -0.07   0.06   0.10     0.01   0.03   0.10
    35   1     0.04  -0.05  -0.04    -0.17   0.07   0.09    -0.04   0.06   0.09
    36   1     0.02  -0.03  -0.05    -0.05   0.08   0.17     0.02   0.05   0.13
    37   1     0.03  -0.04  -0.06    -0.04   0.06   0.10     0.05   0.03   0.13
    38   6     0.03  -0.04  -0.01    -0.07   0.02  -0.10     0.01  -0.04   0.01
    39   1     0.04  -0.06  -0.01    -0.16   0.05  -0.10    -0.03  -0.01   0.00
    40   1     0.03  -0.04  -0.03    -0.04   0.01  -0.08     0.04  -0.05   0.03
    41   1     0.02  -0.04   0.01    -0.05  -0.01  -0.18     0.01  -0.07  -0.04
    42   6    -0.02  -0.01  -0.05     0.18   0.00   0.08     0.13  -0.06   0.12
    43   1    -0.02  -0.01  -0.06     0.20  -0.01   0.07     0.14  -0.06   0.13
    44   1    -0.01  -0.03  -0.06     0.16   0.07   0.16     0.12  -0.02   0.15
    45   1    -0.03   0.01  -0.05     0.26  -0.02   0.09     0.16  -0.10   0.12
    46   6    -0.01   0.01  -0.01     0.13  -0.10  -0.10     0.11  -0.10  -0.00
    47   1    -0.01   0.01  -0.02     0.16  -0.12  -0.12     0.11  -0.11  -0.01
    48   1    -0.02   0.03  -0.01     0.21  -0.13  -0.09     0.15  -0.12   0.00
    49   1     0.00   0.01   0.01     0.07  -0.11  -0.17     0.09  -0.10  -0.04
    50   6     0.00  -0.04  -0.03    -0.02  -0.04  -0.02     0.00   0.03  -0.03
    51   1    -0.02  -0.04  -0.03    -0.03  -0.04  -0.02    -0.01   0.03  -0.03
    52   1    -0.01  -0.05  -0.04    -0.03  -0.05  -0.02     0.02   0.05  -0.03
    53   1     0.03  -0.04  -0.04    -0.01  -0.05  -0.02    -0.01   0.04  -0.03
    54   6    -0.01  -0.03   0.03    -0.04  -0.02  -0.00     0.03   0.01  -0.02
    55   1    -0.00  -0.02   0.04    -0.04  -0.02   0.00     0.04  -0.01  -0.01
    56   1    -0.01  -0.03   0.04    -0.04  -0.03   0.00     0.04   0.02  -0.03
    57   1    -0.02  -0.05   0.02    -0.03  -0.03  -0.00     0.02   0.01  -0.02
    58   6     0.02   0.04  -0.03    -0.00  -0.03  -0.02     0.02   0.01  -0.02
    59   1     0.02   0.07  -0.03     0.00  -0.02  -0.02     0.03   0.00  -0.02
    60   1     0.00   0.03  -0.05     0.02  -0.02  -0.02     0.02   0.01  -0.02
    61   1     0.02   0.05  -0.04    -0.01  -0.05  -0.02     0.02   0.01  -0.03
    62   6     0.04   0.03   0.03    -0.05  -0.02  -0.00     0.03   0.01  -0.03
    63   1     0.05   0.01   0.05    -0.08  -0.00   0.01     0.02   0.01  -0.02
    64   1     0.05   0.06   0.03    -0.04  -0.01  -0.00     0.05   0.00  -0.02
    65   1     0.05   0.04   0.03    -0.06  -0.04  -0.02     0.03   0.00  -0.05
    66   6    -0.14   0.08  -0.09     0.02  -0.01   0.00    -0.04  -0.03   0.04
    67   1    -0.11   0.05  -0.16     0.03   0.00  -0.02    -0.04  -0.04   0.06
    68   1    -0.14   0.08  -0.10     0.03  -0.01   0.02    -0.05  -0.03   0.05
    69   1    -0.21   0.14  -0.08    -0.01  -0.01   0.00    -0.02  -0.06   0.04
    70   6    -0.11   0.12   0.12     0.01  -0.03   0.05    -0.03  -0.01  -0.02
    71   1    -0.07   0.11   0.21     0.01  -0.03   0.05    -0.02   0.01  -0.04
    72   1    -0.19   0.19   0.12    -0.01  -0.03   0.04    -0.01  -0.03  -0.02
    73   1    -0.11   0.12   0.11     0.02  -0.04   0.06    -0.04   0.00  -0.00
    74   6     0.08  -0.06   0.14     0.04  -0.04   0.04    -0.05   0.05  -0.03
    75   1     0.15  -0.15   0.14     0.06  -0.05   0.04    -0.06   0.08  -0.03
    76   1     0.08  -0.02   0.23     0.02  -0.04   0.05    -0.02   0.04  -0.06
    77   1     0.06  -0.03   0.15     0.05  -0.06   0.05    -0.06   0.07  -0.02
[...]
 696,0.00078992,-0.00002283,-0.00007642,-0.00006957,0.00019688,0.000047
 09,-0.00012600,-0.00001337,0.00002631,0.00024136,-0.00025412,0.0000578
 1,-0.00000287,-0.00019467,0.00009454,-0.00002187,0.00033917,0.00004213
 ,-0.00016853,-0.00029642,-0.00004638,0.00005901,0.00007641,-0.00007446
 ,-0.00026193,-0.00124726,0.00022261,-0.00011255,0.00007278,0.00016330,
 0.00003722,0.00000521,-0.00015311,-0.00053573,-0.00010538,-0.00013039,
 -0.00065139,-0.00081522,-0.00006793,0.00007451,-0.00000237,0.00015601,
 -0.00004140,-0.00013994,-0.00020790,-0.00053853,0.00017492,0.00016178,
 -0.00083924,-0.00016722,-0.00008910,0.00005783,-0.00001142,0.00017093,
 -0.00012941,-0.00041487,0.00009662,0.00004520,0.00018588,-0.00004345,-
 0.00120446,-0.03745259,-0.01075871,-0.00559157,-0.00206201,-0.00184677
 ,0.00156171,0.00079675,0.00103954,0.00048977,0.00022505,0.00028623,-0.
 00013393,0.00016671,0.00008277,0.00000419,0.00007087,-0.00012562,0.003
 78106,-0.04249818,0.00548398,0.00454248,-0.00672477,0.00226216,0.00447
 607,-0.00763525,0.00052225,0.01313013,-0.00511872,-0.00621916,-0.00007
 503,-0.00122338,0.00032495,0.00029399,-0.00011581,0.00029572,0.0001718
 5,0.00015015,-0.00025139,0.00045034,-0.00023353,0.00010722,0.00000959,
 -0.00003448,-0.00016022,0.00006732,0.00003727,0.00007473,-0.00001979,0
 .00001875,0.00003525,0.00009701,-0.00043687,0.00022051,0.00033997,-0.0
 0002790,0.00000730,-0.00466220,0.33074415,-0.00770224,-0.00223145,-0.0
 1009467,0.00716607,0.00191768,0.00595994,0.00420616,0.00049733,-0.0000
 6049,-0.00007156,-0.00017137,-0.00322343,-0.00246009,-0.00011684,-0.00
 093327,-0.02579255,-0.00427623,-0.00347148,0.01385419,0.00057392,-0.02
 198499,0.00178267,0.00069110,0.00924992,-0.00657943,-0.00149721,-0.003
 29130,0.00587997,0.00060757,-0.00174469,0.00202407,0.00054153,-0.00041
 820,0.00002554,0.00003586,-0.00006436,-0.00055368,0.00004742,-0.000145
 39,-0.00149780,0.00001021,0.00035333,-0.00007112,0.00005133,0.00018281
 ,0.00024850,0.00014235,0.00092417,0.00833254,0.00059118,-0.03647557,0.
 00691921,0.00387165,-0.01188393,0.00556364,0.01478043,-0.00284021,0.01
 409746,-0.00739965,0.00323758,0.01212850,0.01420708,0.00084552,-0.0004
 9959,0.00035974,-0.04120351,-0.00228552,0.00705072,-0.02510565,0.00134
 537,-0.00461168,-0.04148366,-0.01099143,-0.01011872,0.00227672,-0.0026
 5997,-0.00661803,0.00244327,0.00061562,-0.00134587,-0.00118090,0.00182
 566,-0.00054455,-0.00149085,-0.00198755,0.00165377,-0.00210371,-0.0007
 0092,0.00172074,-0.00227927,0.00035619,0.00233376,-0.00183507,0.002541
 97,0.00079115,-0.00213342,-0.01389734,0.00902332,0.00127743,0.00012681
 ,0.00024411,0.00022408,0.00000616,-0.00002833,0.00002858,-0.00003062,-
 0.00010230,-0.00001130,-0.00010310,0.00020410,-0.00008537,-0.00015575,
 0.00097986,0.00040393,-0.00006480,-0.00002875,-0.00000661,0.00036177,0
 .00023954,-0.00018809,0.00005206,-0.00004427,0.00001539,-0.00033473,-0
 .00032262,0.00039710,0.00005612,-0.00020843,-0.00007648,0.00003748,-0.
 00000556,-0.00004641,-0.00002718,0.00007262,0.00007922,0.00007387,0.00
 009532,0.00003582,-0.00001806,-0.00001150,-0.00000302,-0.00001101,-0.0
 0001188,0.00012646,-0.00003361,0.00009595,-0.00009860,0.00059633,-0.00
 089852,0.00063335,-0.00014868,0.00000570,0.00009803,0.00043834,0.00001
 811,-0.00016943,-0.00003606,0.00005568,-0.00006595,0.00019983,-0.00013
 478,0.00020938,-0.00010593,-0.00010887,-0.00015838,0.00002092,-0.00020
 364,-0.00006522,-0.00005286,0.00007102,0.00009713,-0.00044821,0.000153
 35,0.00032379,0.00007236,0.00002526,0.00009611,0.00010639,-0.00007978,
 -0.00002743,-0.00025940,-0.00011393,-0.00009737,-0.00107665,0.00008403
 ,0.00059091,0.00008627,-0.00000291,-0.00005511,0.00008111,-0.00012933,
 0.00009201,-0.00023170,0.00039230,-0.00017014,-0.00009199,-0.00023767,
 0.00028650,0.00017281,0.00008312,-0.00001177,-0.00000496,-0.00020134,-
 0.00008486,-0.00004190,0.00004955,0.00006376,-0.00034627,-0.00084669,0
 .00062592,0.00001022,0.00005880,-0.00006656,0.00012206,0.00003436,0.00
 009349,-0.00038677,-0.00011521,-0.00014389,0.00011749,0.00020697,0.000
 29306,-0.00006742,-0.00001418,0.00006212,-0.00002634,-0.00011469,-0.00
 010051,0.00021653,-0.00001865,-0.00009099,0.00118063,0.00050565,0.0006
 2799,-0.00001532,-0.00011247,0.00006871,0.00005505,0.00052296,-0.00022
 791,-0.00006951,-0.00000787,-0.00002429,-0.01098539,-0.00885154,-0.160
 35937,-0.00339636,-0.00164979,-0.00407756,0.00063641,-0.00006108,0.002
 85505,0.00048435,0.00084569,-0.00006291,0.00003411,0.00004214,0.000081
 79,0.00024845,-0.00001655,-0.00027944,-0.00845143,0.00710866,-0.034877
 15,0.00182217,-0.00377992,0.00038554,-0.00414571,0.01211244,0.00068585
 ,0.01231897,-0.01190330,-0.00171968,0.00115475,-0.00062472,0.00081689,
 -0.00047659,-0.00082006,0.00006885,0.00032933,-0.00006088,-0.00007760,
 -0.00039391,0.00016920,-0.00021949,0.00003610,0.00002350,-0.00023263,0
 .00003251,0.00000781,0.00003108,-0.00002715,0.00000790,0.00002202,0.00
 021120,0.00019643,0.00077092,0.00057666,-0.00002250,0.00012314,-0.0012
 7589,-0.01538020,0.38125586,0.00000154,-0.00003402,-0.00001203,-0.0000
 3433,-0.00006589,-0.00002013,-0.00002252,0.00001248,0.00004339,-0.0000
 0736,-0.00000899,-0.00002442,-0.00000395,0.00000912,0.00000882,0.00002
 052,-0.00001134,-0.00001863,0.00000427,0.00000171,0.00002147,-0.000013
 17,-0.00000329,-0.00001913,0.00002581,0.00000488,0.00000053,-0.0000153
 3,0.00000227,0.00001953,0.00000061,-0.00002382,0.00001621,0.00001439,0
 .00001927,0.00001403,0.00000001,0.00000047,0.00000421,0.00000178,-0.00
 000379,-0.00000303,0.00000106,0.00000015,0.00000415,0.00000385,0.00000
 042,0.00000054,-0.00001658,-0.00002186,0.00000167,0.00000652,-0.000006
 85,-0.00004633,0.00003540,0.00011453,-0.00004523,-0.00009195,0.0000492
 8,0.00001636,-0.00013301,-0.00004213,0.00004177,0.00014434,-0.00006730
 ,0.00001356,-0.00001249,-0.00012621,0.00001242,0.00023642,-0.00004662,
 0.00000034,-0.00009962,-0.00004072,-0.00002590,0.00002630,0.00011144,0
 .00000310,-0.00002008,-0.00002721,0.00001217,-0.00000510,-0.00004944,0
 .00000490,0.00005874,0.00004316,0.00000601,0.00002997,0.00003105,-0.00
 000813,0.00003149,-0.00003328,0.00000728,0.00003839,-0.00001420,-0.000
 00616,-0.00009469,0.00005737,-0.00003774,0.00000128,0.00000846,0.00000
 092,-0.00000067,-0.00000315,-0.00000142,0.00000257,-0.00000360,0.00000
 023,-0.00000208,0.00000727,-0.00000100,0.00000246,0.00000635,0.0000010
 5,-0.00000252,-0.00000148,-0.00000490,0.00000262,0.00000558,-0.0000003
 8,-0.00000137,-0.00000407,0.00000363,0.00000277,0.00000345,-0.00000150
 ,0.00000157,0.00000637,-0.00000075,-0.00000166,-0.00000129,0.00000026,
 -0.00000105,-0.00000142,0.00000144,0.00000478,0.00000238,-0.00000410,0
 .00000420,0.00000715,-0.00000019,-0.00000078,-0.00000320,-0.00000128,-
 0.00000431,-0.00000245,0.00000288,-0.00000397,0.00000359,-0.00000038,0
 .00000149,-0.00000211,0.00000108,-0.00000466,0.00000336,-0.00000046,0.
 00000220,-0.00000126,0.00000065,-0.00000389,0.00000515,-0.00000104,0.0
 0000238,-0.00000408,-0.00000010,-0.00000404,0.00000577,0.00000011,0.00
 000189,-0.00000205,-0.00000004,-0.00000756,0.00000057,0.00000322,0.000
 00276,-0.00000021,-0.00000104,0.00000562,0.00000019,-0.00000009,-0.000
 00714,0.00000010,-0.00000030,-0.00000413,0.00000024,0.00000022,0.00000
 179,0.00000037,0.00000100,0.00000177,-0.00000032,-0.00000268,-0.000004
 21,0.00000287,0.00000032,0.00001699,-0.00001241,0.00000923,-0.00000441
 ,0.00001597,-0.00000579,-0.00001300,-0.00000665,0.00000122,0.00000135,
 0.00000458,-0.00000086,-0.00000228,0.00000061,0.00000190,-0.00000251,0
 .00000274,0.00000083,0.00000124,0.00000135,-0.00000354,-0.00000408,-0.
 00000393,0.00000123,-0.00001025,-0.00000680,-0.00000097,0.00000294,0.0
 0000147,0.00000083,0.00000368,0.00000004,-0.00000063,-0.00001021,-0.00
 000175,0.00000121,-0.00000005,-0.00000746,-0.00000175,0.00000176,0.000
 00224,0.00000272,-0.00000738,-0.00000445,-0.00000053,0.00000215,0.0000
 0889,-0.00000047,0.00001039,-0.00003539,0.00000395,-0.00372759,-0.0001
 0290,-0.00489504,0.00056617,0.00002188,-0.00015076,-0.01860463,0.00650
 383,0.02433504,0.00104208,-0.00062557,0.00020611,0.00119609,0.00033807
 ,-0.00004330,-0.00010243,-0.00017906,-0.00060679,-0.00016904,0.0000469
 8,0.00009863,0.00002524,0.00002422,-0.00000001,-0.00191732,0.00067222,
 0.00187535,0.00019305,0.00006219,0.00054561,-0.00004562,-0.00000483,-0
 .00006406,0.00008014,0.00003369,-0.00003905,-0.00003712,-0.00007115,-0
 .00005570,-0.15261484,0.03542642,0.12506718,0.00628578,-0.00116710,-0.
 00799568,0.00108283,-0.00117399,-0.00257166,-0.00000277,-0.00000085,0.
 00000268,-0.00000676,0.00002206,-0.00000144,-0.00014997,0.00013478,0.0
 0010309,0.16682103,-0.00002633,0.00001139,0.00003141,-0.00007018,0.000
 01754,-0.00000767,0.00005997,0.00003254,-0.00007144,0.00000025,0.00000
 578,0.00000847,-0.00000062,-0.00000588,0.00004526,-0.00000819,-0.00000
 046,0.00001865,-0.00000368,-0.00000055,-0.00000715,0.00000761,0.000001
 44,0.00000136,-0.00000353,-0.00000004,0.00000564,0.00000867,-0.0000005
 5,-0.00000998,0.00001308,0.00000258,-0.00000523,0.00001641,0.00003811,
 0.00000021,-0.00000234,0.00000374,0.00000187,-0.00000039,0.00000078,-0
 .00000064,0.00000005,-0.00000012,-0.00000253,-0.00000093,0.00000109,0.
 00000425,0.00000985,0.00000917,-0.00000706,0.00000349,0.00000192,-0.00
 000494,-0.00001001,-0.00004674,0.00002555,0.00003009,-0.00001733,-0.00
 000282,0.00002855,0.00001475,-0.00000827,-0.00004779,0.00002590,-0.000
 00951,0.00000167,0.00005773,-0.00002526,-0.00004920,-0.00000330,-0.000
 00228,0.00002462,0.00001147,0.00000667,-0.00000909,-0.00004252,0.00000
 518,0.00000618,0.00001103,-0.00000962,0.00000715,0.00002664,-0.0000058
 1,-0.00001410,-0.00000879,-0.00000072,-0.00000738,-0.00000522,0.000002
 56,-0.00001065,0.00001121,-0.00000310,-0.00001237,0.00000540,0.0000013
 9,0.00002947,-0.00002066,0.00001476,-0.00000189,-0.00000433,0.00000024
 ,0.00000108,0.00000137,0.00000131,-0.00000181,0.00000139,0.00000008,0.
 00000133,-0.00000302,0.00000035,-0.00000442,-0.00000324,-0.00000040,0.
 00000359,-0.00000032,0.00000446,-0.00000046,-0.00000246,0.00000052,0.0
 0000138,0.00000393,-0.00000506,0.00000072,-0.00000082,0.00000150,-0.00
 000078,-0.00000280,0.00000019,0.00000109,-0.00000010,-0.00000040,0.000
 00019,0.00000088,0.00000016,-0.00000386,0.00000492,0.00000459,-0.00000
 058,-0.00000573,-0.00000033,-0.00000024,0.00000157,0.00000173,0.000001
 46,0.00000260,-0.00000397,0.00000128,-0.00000123,0.00000013,-0.0000005
 5,0.00000067,-0.00000009,0.00000160,-0.00000106,0.00000014,-0.00000068
 ,0.00000036,-0.00000029,0.00000148,-0.00000174,0.00000010,-0.00000099,
 0.00000143,-0.00000019,0.00000152,-0.00000195,0.,-0.00000085,0.0000006
 6,0.00000038,0.00000244,-0.00000058,-0.00000121,-0.00000068,0.00000016
 ,0.00000055,-0.00000161,-0.00000022,0.00000002,0.00000212,0.00000017,0
 .00000017,0.00000127,0.00000003,0.,-0.00000055,-0.00000033,-0.00000079
 ,-0.00000031,0.00000021,0.00000126,0.00000112,-0.00000099,-0.00000002,
 -0.00000132,0.00000160,-0.00000256,0.00000088,-0.00000264,0.00000190,0
 .00000158,0.00000147,0.00000022,-0.00000076,-0.00000012,-0.00000018,0.
 00000060,-0.00000007,-0.00000061,0.00000077,-0.00000094,-0.00000048,-0
 .00000038,0.00000007,0.00000089,0.00000089,0.00000089,-0.00000005,0.00
 000209,0.00000128,-0.00000041,-0.00000076,-0.00000056,-0.00000015,-0.0
 0000111,-0.00000004,0.00000012,0.00000232,0.00000067,-0.00000006,0.000
 00067,0.00000140,0.00000028,-0.00000023,-0.00000076,-0.00000091,0.0000
 0107,0.00000138,0.00000017,0.00000002,-0.00000148,0.00000066,-0.000003
 45,0.00000637,0.00000418,0.00005374,0.00056628,-0.00000150,0.00042815,
 0.00059642,0.00005870,0.00077622,-0.00150321,-0.00145754,-0.00005562,0
 .00012246,0.00037811,-0.00000739,-0.00013055,-0.00028907,0.00002524,0.
 00000019,0.00005388,0.00002806,0.00000427,-0.00000544,-0.00000791,-0.0
 0000109,0.00001382,0.00021294,0.00006946,-0.00009465,0.00000914,-0.000
 01740,-0.00008056,0.00000573,-0.00000919,0.00000869,0.00000397,-0.0000
 0069,0.00001910,-0.00001072,-0.00000227,0.00001459,0.03555344,-0.06163
 103,-0.04238359,0.01876146,-0.00420560,-0.01953064,-0.01600050,0.00644
 979,0.01660463,0.00000148,0.00000028,-0.00000090,0.00001312,-0.0000050
 8,-0.00002488,0.00002194,-0.00001993,-0.00000562,-0.03978912,0.0595808
 7,-0.00004229,0.00003376,0.00002657,-0.00002027,-0.00000522,-0.0000092
 1,0.00003137,-0.00001587,-0.00006194,0.00003331,0.00000198,0.00002499,
 0.00001241,-0.00001455,0.00003021,-0.00001677,0.00000490,0.00002851,-0
 .00000965,-0.00000101,-0.00001501,0.00001321,0.00000212,0.00000786,-0.
 00001044,-0.00000212,0.00001319,0.00001529,-0.00000498,-0.00001784,-0.
 00000121,0.00001170,-0.00000628,0.00001561,0.00003162,-0.00000380,-0.0
 0000044,0.00001319,0.00000455,-0.00000170,0.00000130,-0.00000169,-0.00
 000095,0.00000100,-0.00000391,-0.00000083,0.00000665,0.00000725,-0.000
 00601,-0.00000190,0.00000051,0.00000067,0.00000312,-0.00000794,-0.0000
 0554,-0.00007256,0.00002667,0.00006639,-0.00003409,-0.00000844,0.00005
 192,0.00003180,-0.00000881,-0.00010152,0.00004629,-0.00001398,-0.00000
 107,0.00008541,-0.00002521,-0.00008842,-0.00002397,-0.00000262,0.00005
 577,0.00003090,0.00001337,-0.00000999,-0.00007187,-0.00000078,0.000007
 98,0.00002021,-0.00001078,0.00000298,0.00004113,-0.00000624,-0.0000317
 0,-0.00001428,-0.00000094,-0.00001741,-0.00001697,0.00000511,-0.000024
 43,0.00002337,-0.00000534,-0.00003007,0.00001052,0.00000308,0.00006522
 ,-0.00003844,0.00002572,-0.00000006,-0.00000480,0.00000079,0.00000021,
 0.00000252,0.00000105,-0.00000141,0.00000210,-0.00000047,0.00000137,-0
 .00000595,0.00000037,-0.00000572,-0.00000314,-0.00000056,0.00000160,0.
 00000239,0.00000293,0.00000013,-0.00000577,-0.00000068,0.00000373,0.00
 000485,-0.00000161,0.00000123,-0.00000136,0.00000111,-0.00000167,-0.00
 000420,0.00000103,0.00000252,-0.00000003,0.00000015,0.00000034,0.00000
 146,-0.00000126,-0.00000500,0.00000545,0.00000624,-0.00000162,-0.00000
 737,0.00000088,0.00000036,0.00000315,0.00000137,0.00000302,0.00000169,
 -0.00000525,0.00000278,-0.00000213,-0.00000033,-0.00000141,0.00000154,
 -0.00000070,0.00000341,-0.00000261,0.00000062,-0.00000130,0.00000118,-
 0.00000026,0.00000251,-0.00000352,0.00000015,-0.00000207,0.00000327,-0
 .00000033,0.00000340,-0.00000427,0.00000041,-0.00000195,0.00000168,0.0
 0000047,0.00000492,-0.00000045,-0.00000128,-0.00000223,0.00000044,0.00
 000062,-0.00000367,-0.00000032,0.00000010,0.00000534,-0.00000006,-0.00
 000002,0.00000264,-0.00000078,0.00000030,-0.00000143,0.00000030,-0.000
 00048,-0.00000164,0.00000027,0.00000181,0.00000352,-0.00000171,-0.0000
 0052,-0.00000742,0.00000453,-0.00000501,0.00000332,-0.00000599,0.00000
 460,0.00000593,0.00000403,-0.00000162,-0.00000261,-0.00000269,-0.00000
 031,0.00000181,-0.00000069,-0.00000074,0.00000140,-0.00000198,-0.00000
 065,-0.00000119,-0.00000090,0.00000222,0.00000228,0.00000273,-0.000001
 05,0.00000298,0.00000035,-0.00000116,-0.00000207,-0.00000123,0.0000001
 3,-0.00000227,-0.00000059,0.,0.00000507,0.00000212,0.00000035,-0.00000
 037,0.00000406,0.00000049,-0.00000243,-0.00000125,-0.00000064,0.000004
 89,0.00000255,0.00000124,-0.00000103,-0.00000464,-0.00000140,-0.000006
 46,0.00001023,0.00000119,-0.00378608,-0.00008981,-0.00367286,0.0025965
 2,-0.00036771,0.00097441,-0.01055510,0.00346871,0.01035031,0.00089443,
 -0.00005699,0.00037183,0.00086170,-0.00007071,0.00050082,-0.00016373,0
 .00002701,-0.00004542,-0.00000520,0.00001195,0.00002476,-0.00001991,-0
 .00000166,0.00003833,-0.00009675,0.00009032,0.00112783,0.00008666,-0.0
 0003186,0.00001950,0.00002130,0.00000729,-0.00000244,0.00001890,0.0000
 2707,-0.00002017,0.00000809,0.00002066,0.00002798,0.12559809,-0.042363
 44,-0.19631006,0.00754285,-0.00042272,-0.00919190,0.01277110,-0.007038
 35,-0.01440640,0.00000298,0.00000122,-0.00000200,0.00001740,0.00001988
 ,-0.00001535,0.00004139,-0.00003400,0.00000901,-0.13579972,0.04672550,
 0.21021069\\0.00000714,0.00000192,-0.00000549,-0.00000179,-0.00000143,
 -0.00000298,0.00000247,-0.00000068,0.00000337,-0.00000440,-0.00000048,
 -0.00000433,-0.00000598,-0.00000446,-0.00000557,0.00000205,0.00000045,
 0.00000402,0.00000292,0.00000066,-0.00000457,0.00000390,-0.00000053,0.
 00000122,0.00000687,-0.00000011,-0.00000441,-0.00000325,-0.00000139,0.
 00000075,-0.00000094,-0.00000140,-0.00000186,0.00000475,-0.00000099,-0
 .00000252,0.00000241,-0.00000035,-0.00000194,-0.00000024,-0.00000026,0
 .00000039,0.00000267,0.00000022,0.00000011,0.00000245,-0.00000208,-0.0
 0000185,-0.00000153,-0.00000058,0.00000394,0.00000436,0.00000288,-0.00
 000086,0.00000488,0.00000332,-0.00000586,-0.00000191,-0.00000109,0.000
 00649,-0.00000118,-0.00000004,0.00000337,0.00000868,0.00000228,0.00000
 382,-0.00000425,0.00000442,0.00001411,0.00000345,0.00000222,0.00000013
 ,-0.00000125,-0.00000192,0.00000010,-0.00000154,-0.00000134,-0.0000064
 2,0.00000669,0.00000049,0.00000422,-0.00000633,-0.00000547,-0.00000218
 ,0.00000108,-0.00000456,0.00000599,-0.00000200,0.00000318,-0.00000400,
 0.00000125,-0.00000021,-0.00000402,-0.00000206,0.00000316,0.00000403,-
 0.00000220,0.00000095,-0.00000310,0.00000320,0.00000353,-0.00000316,-0
 .00000137,0.00000117,0.00000291,-0.00000189,-0.00000082,0.00000139,0.0
 0000029,-0.00000253,-0.00000096,0.00000627,0.00000183,0.00000164,-0.00
 000096,-0.00000135,-0.00000203,-0.00000053,-0.00000343,-0.00000202,-0.
 00000209,0.,-0.00000283,-0.00000281,-0.00000084,0.00000304,0.00000201,
 0.00000069,-0.00000159,0.00000321,0.00000126,0.00000074,0.00000275,-0.
 00000072,-0.00000371,-0.00000086,-0.00000567,-0.00000653,0.00000270,0.
 00000141,-0.00000269,0.00000181,-0.00000074,-0.00000080,0.00000155,0.0
 0000245,-0.00000021,-0.00000382,0.00000538,0.00000114,0.00000214,0.000
 00056,0.00000380,0.00000422,-0.00000151,0.00000349,0.00000021,-0.00000
 153,0.00000165,0.00000268,0.00000717,0.00000340,-0.00000099,-0.0000014
 2,0.00000154,0.00000322,-0.00000163,0.00000277,0.00000165,0.00000056,0
 .00000224,0.00000262,-0.00000281,0.00000482,-0.00000031,0.00000044,0.0
 0000006,-0.00000288,0.00000505,-0.00000011,-0.00000144,0.00000151,0.00
 000409,0.00000016,0.00000368,0.00000224,-0.00000045,-0.00000219,-0.000
 00070,-0.00000102,0.00000069,-0.00000099,0.00000016,0.00000145,0.00000
 205,-0.00000030,0.00000103,0.00000187,-0.00000169,-0.00000067,0.000000
 39,-0.00000194,0.00000067,0.00000185,-0.00000267,0.00000053,0.00000203
 ,-0.00000418,0.00000507,0.00000197,0.00000023,-0.00000193,0.00000112,-
 0.00000130,0.00000131,0.00000302,-0.00000225,0.00000002,0.00000408,-0.
 00000605,0.00000347,0.00000340,0.00000078,0.00000024,0.00000040,0.0000
 0183,-0.00000104,0.00000234,0.00000197,0.00000133,0.00000323,0.0000004
 2,0.00000170,-0.00000189,0.00000020,0.00000009,0.00000171,0.00000104,0
 .00000259,0.00000228,-0.00000271,0.00000124,0.00000200,-0.00000200,-0.
 00000218,0.00000053,-0.00000267,-0.00000024,0.00000699,0.00000017,-0.0
 0000139,-0.00000552,0.00000773,-0.00000572,0.00000240,-0.00000327,-0.0
 0000235,-0.00000318,-0.00000343,0.00000269,-0.00000499,0.00000373,-0.0
 0000372,0.00000278,0.00000074,0.00000290,0.00000030,-0.00000218,0.0000
 0226,-0.00000223,-0.00000106,-0.00000008,-0.00000644,-0.00000552,-0.00
 000551,-0.00000297,0.00000212,-0.00000012,-0.00000056,-0.00000088,-0.0
 0000036,-0.00000035,-0.00000182,0.00000338,0.00000054,-0.00000828,-0.0
 0000499,-0.00000920,0.00000038,-0.00000015,-0.00000150,-0.00000084,0.0
 0000117,-0.00000507,0.00000077,0.00000076,0.00000219,0.,-0.00000084,-0
 .00000529,-0.00001014,-0.00000868,-0.00000736,-0.00000352,-0.00000092,
 0.00000032\\\@
 The archive entry for this job was punched.


 GARLIC THEN HAVE POWER TO SAVE FROM DEATH
 BEAR WITH IT THOUGH IT MAKETH UNSAVORY BREATH,
 AND SCORN NOT GARLIC LIKE SOME THAT THINK
 IT ONLY MAKETH MEN WINK AND DRINK AND STINK.
   --  SIR JOHN HARRINGTON,
       "THE ENGLISHMAN'S DOCTOR", 1609
 Job cpu time:       1 days 10 hours 14 minutes 18.0 seconds.
 Elapsed time:       0 days  2 hours 10 minutes 50.6 seconds.
 File lengths (MBytes):  RWF=   6947 Int=      0 D2E=      0 Chk=     43 Scr=      1
 Normal termination of Gaussian 16 at Sun Dec  8 00:03:20 2024.
