/mnt/lustre/scratch/nvme/SLURM/9663536/usccqdma.rII0jFkXd8
OMP_STACKSIZE=0m
GAUSS_PDEF=16
GAUSS_MDEF=65536MB
GAUSS_RDEF=SCF=Direct
 Entering Gaussian System, Link 0=g16.exe
 Initial command:
 /opt/cesga/2020/software/Core/g16/c1/l1.exe "/mnt/lustre/scratch/nvme/SLURM/9663536/usccqdma.rII0jFkXd8/Gau-924724.inp" -scrdir="/mnt/lustre/scratch/nvme/SLURM/9663536/usccqdma.rII0jFkXd8/"
 Default is to use a total of  16 processors:
                               16 via shared-memory
                                1 via Linda
 Entering Link 1 = /opt/cesga/2020/software/Core/g16/c1/l1.exe PID=    924751.
  
 Copyright (c) 1988-2019, Gaussian, Inc.  All Rights Reserved.
  
 This is part of the Gaussian(R) 16 program.  It is based on
 the Gaussian(R) 09 system (copyright 2009, Gaussian, Inc.),
 the Gaussian(R) 03 system (copyright 2003, Gaussian, Inc.),
 the Gaussian(R) 98 system (copyright 1998, Gaussian, Inc.),
 the Gaussian(R) 94 system (copyright 1995, Gaussian, Inc.),
 the Gaussian 92(TM) system (copyright 1992, Gaussian, Inc.),
 the Gaussian 90(TM) system (copyright 1990, Gaussian, Inc.),
 the Gaussian 88(TM) system (copyright 1988, Gaussian, Inc.),
 the Gaussian 86(TM) system (copyright 1986, Carnegie Mellon
 University), and the Gaussian 82(TM) system (copyright 1983,
 Carnegie Mellon University). Gaussian is a federally registered
 trademark of Gaussian, Inc.
  
 This software contains proprietary and confidential information,
 including trade secrets, belonging to Gaussian, Inc.
  
 This software is provided under written license and may be
 used, copied, transmitted, or stored only in accord with that
 written license.
  
 The following legend is applicable only to US Government
 contracts under FAR:
  
                    RESTRICTED RIGHTS LEGEND
  
 Use, reproduction and disclosure by the US Government is
 subject to restrictions as set forth in subparagraphs (a)
 and (c) of the Commercial Computer Software - Restricted
 Rights clause in FAR 52.227-19.
  
 Gaussian, Inc.
 340 Quinnipiac St., Bldg. 40, Wallingford CT 06492
  
  
 ---------------------------------------------------------------
 Warning -- This program may not be used in any manner that
 competes with the business of Gaussian, Inc. or will provide
 assistance to any competitor of Gaussian, Inc.  The licensee
 of this program is prohibited from giving any competitor of
 Gaussian, Inc. access to this program.  By using this program,
 the user acknowledges that Gaussian, Inc. is engaged in the
 business of creating and licensing software in the field of
 computational chemistry and represents and warrants to the
 licensee that it is not a competitor of Gaussian, Inc. and that
 it will not use this program in any manner prohibited above.
 ---------------------------------------------------------------
  

 Cite this work as:
 Gaussian 16, Revision C.01,
 M. J. Frisch, G. W. Trucks, H. B. Schlegel, G. E. Scuseria, 
 M. A. Robb, J. R. Cheeseman, G. Scalmani, V. Barone, 
 G. A. Petersson, H. Nakatsuji, X. Li, M. Caricato, A. V. Marenich, 
 J. Bloino, B. G. Janesko, R. Gomperts, B. Mennucci, H. P. Hratchian, 
 J. V. Ortiz, A. F. Izmaylov, J. L. Sonnenberg, D. Williams-Young, 
 F. Ding, F. Lipparini, F. Egidi, J. Goings, B. Peng, A. Petrone, 
 T. Henderson, D. Ranasinghe, V. G. Zakrzewski, J. Gao, N. Rega, 
 G. Zheng, W. Liang, M. Hada, M. Ehara, K. Toyota, R. Fukuda, 
 J. Hasegawa, M. Ishida, T. Nakajima, Y. Honda, O. Kitao, H. Nakai, 
 T. Vreven, K. Throssell, J. A. Montgomery, Jr., J. E. Peralta, 
 F. Ogliaro, M. J. Bearpark, J. J. Heyd, E. N. Brothers, K. N. Kudin, 
 V. N. Staroverov, T. A. Keith, R. Kobayashi, J. Normand, 
 K. Raghavachari, A. P. Rendell, J. C. Burant, S. S. Iyengar, 
 J. Tomasi, M. Cossi, J. M. Millam, M. Klene, C. Adamo, R. Cammi, 
 J. W. Ochterski, R. L. Martin, K. Morokuma, O. Farkas, 
 J. B. Foresman, and D. J. Fox, Gaussian, Inc., Wallingford CT, 2019.
 
 ******************************************
 Gaussian 16:  ES64L-G16RevC.01  3-Jul-2019
                 7-Dec-2024 
 ******************************************
 Default route: SCF=Direct
 ----------------------------------------------------
 # m06/genecp scf=tight int=ultrafine 5d freq=noraman
 ----------------------------------------------------
 1/10=4,30=1,38=1/1,3;
 2/12=2,17=6,18=5,40=1/2;
 3/5=7,8=1,11=2,16=1,17=8,25=1,30=1,71=2,74=-54,75=-5,140=1/1,2,3;
 4//1;
 5/5=2,32=2,38=5,98=1/2;
 8/6=4,10=90,11=11/1;
 11/6=1,8=1,9=11,15=111,16=1/1,2,10;
 10/6=1/2;
 6/7=2,8=2,9=2,10=2,28=1/1;
 7/8=1,10=1,25=1/1,2,3,16;
 1/10=4,30=1/3;
 99//99;
 ------
 OPT-TS
 ------
 Symbolic Z-matrix:
 Charge =  0 Multiplicity = 1
 C                    -1.41068  -2.24641  -1.67488 
 C                    -2.59086  -0.69756  -0.41084 
 C                    -3.76773  -1.41307  -0.55923 
 C                    -3.76292  -2.58014  -1.31624 
 C                    -2.56617  -3.00151  -1.87407 
 C                    -0.08627  -2.64398  -2.18987 
 C                     2.14478  -2.03866  -2.43053 
 C                     2.4619   -3.25961  -3.01028 
 C                     1.4488   -4.1938   -3.1827 
 C                     0.16201  -3.88523  -2.76837 
 H                    -2.54321   0.20934   0.18965 
 H                    -4.6754   -3.15653  -1.45085 
 H                    -2.53452  -3.91551  -2.46065 
 H                     2.89295  -1.27131  -2.23961 
 H                     1.65963  -5.16534  -3.62482 
 H                    -0.63047  -4.62261  -2.85937 
 N                    -1.44031  -1.09205  -0.96874 
 N                     0.90245  -1.73646  -2.04019 
 Ir                    0.32306   0.15843  -1.02451 
 O                    -1.07671   1.44766   1.37866 
 O                    -0.37275   3.18036  -1.19626 
 O                     3.92603  -0.51911  -0.22865 
 B                    -0.71856   1.84051  -1.34315 
 B                     0.11358   1.1779    0.68542 
 B                     3.65153  -0.48856   1.11297 
 O                     4.39627   0.43      1.79646 
 O                     1.19898   1.56917   1.46741 
 C                     0.71741   2.39561   2.53534 
 C                    -0.75086   1.90109   2.70239 
 C                     5.07939   0.32019  -0.44176 
 C                     5.05232   1.2548    0.80702 
 C                    -1.38859   3.97631  -1.82419 
 C                    -2.62628   3.03055  -1.8035 
 O                    -2.01423   1.73522  -1.85845 
 C                    -0.8778    0.70505   3.63477 
 H                    -0.15759  -0.08289   3.37525 
 H                    -0.72536   0.9839    4.68617 
 H                    -1.88748   0.28305   3.53264 
 C                    -1.74459   2.97039   3.11203 
 H                    -2.75128   2.53522   3.17215 
 H                    -1.49212   3.38313   4.0994 
 H                    -1.77593   3.79415   2.38897 
 C                     1.60362   2.19495   3.74894 
 H                     1.22706   2.76668   4.60971 
 H                     1.67696   1.13905   4.03455 
 H                     2.61969   2.54494   3.52455 
 C                     0.80764   3.83859   2.05487 
 H                     1.85107   4.0586    1.79451 
 H                     0.20596   3.98654   1.14827 
 H                     0.48852   4.55108   2.82783 
 C                    -1.55941   5.26274  -1.04094 
 H                    -1.78639   5.06787   0.01427 
 H                    -0.63186   5.84837  -1.08462 
 H                    -2.36966   5.87454  -1.46346 
 C                    -0.90147   4.28853  -3.23299 
 H                     0.07653   4.78101  -3.16531 
 H                    -0.77457   3.36878  -3.81859 
 H                    -1.58947   4.9563   -3.7689 
 C                    -3.41848   3.09577  -0.5031 
 H                    -3.97242   4.0393   -0.40424 
 H                    -4.14656   2.27226  -0.49288 
 H                    -2.7594    2.96932   0.36556 
 C                    -3.56888   3.17978  -2.98148 
 H                    -3.0641    2.98554  -3.93408 
 H                    -4.39249   2.46024  -2.88241 
 H                    -4.0027    4.18987  -3.01204 
 C                     6.41808   1.64656   1.33296 
 H                     6.30119   2.29504   2.21011 
 H                     7.00826   0.77454   1.63531 
 H                     6.9805    2.20597   0.57187 
 C                     4.19226   2.49223   0.60555 
 H                     3.18978   2.23732   0.23832 
 H                     4.07135   2.99181   1.57669 
 H                     4.66708   3.20103  -0.08594 
 C                     4.92855   1.03132  -1.77069 
 H                     5.72916   1.77154  -1.91018 
 H                     5.00135   0.30554  -2.5925 
 H                     3.95736   1.53375  -1.84539 
 C                     6.28099  -0.61432  -0.4734 
 H                     7.21278  -0.07929  -0.6988 
 H                     6.40155  -1.14237   0.48251 
 H                     6.11986  -1.36827  -1.25591 
 H                     1.65804   1.04899  -1.23642 
 C                     1.02586  -3.18745   1.03008 
 O                     0.78944  -4.17616   0.34031 
 C                    -0.07052  -2.51713   1.83984 
 H                     0.27183  -2.39203   2.87999 
 H                    -0.23137  -1.49531   1.44991 
 C                     2.61668  -1.43051   1.83634 
 H                     1.72083  -0.8058    1.9506 
 H                     2.9703   -1.65806   2.85901 
 N                     2.2837   -2.65267   1.11353 
 C                     3.38755  -3.41327   0.5618 
 H                     3.77487  -2.96081  -0.36158 
 H                     4.20807  -3.4506    1.29465 
 H                     3.04083  -4.427     0.3458 
 C                    -1.37902  -3.29057   1.78416 
 H                    -1.63401  -3.46388   0.72906 
 H                    -1.23181  -4.29486   2.21163 
 C                    -2.53039  -2.585     2.48968 
 H                    -2.59093  -1.53887   2.1385 
 H                    -3.4849   -3.05221   2.18864 
 C                    -2.44982  -2.58726   4.00967 
 H                    -2.33841  -3.62424   4.36691 
 H                    -1.54286  -2.05501   4.34015 
 C                    -3.67628  -1.94884   4.64106 
 H                    -3.60877  -1.91232   5.73544 
 H                    -3.81551  -0.91933   4.27878 
 H                    -4.58696  -2.50581   4.37929 
 C                    -5.02622  -0.89015   0.05833 
 F                    -4.78098  -0.18262   1.16475 
 F                    -5.68096  -0.08385  -0.78814 
 F                    -5.85963  -1.88492   0.38343 
 H                     3.48583  -3.46897  -3.30987 
 

 GradGradGradGradGradGradGradGradGradGradGradGradGradGradGradGradGradGrad
 Berny optimization.
 Initialization pass.
 Trust Radius=3.00D-01 FncErr=1.00D-07 GrdErr=1.00D-07 EigMax=2.50D+02 EigMin=1.00D-04
 Number of steps in this run=      2 maximum allowed number of steps=      2.
 GradGradGradGradGradGradGradGradGradGradGradGradGradGradGradGradGradGrad

 Stoichiometry    C37H60B3F3IrN3O7
 Framework group  C1[X(C37H60B3F3IrN3O7)]
 Deg. of freedom   336
 Full point group                 C1      NOp   1
 Largest Abelian subgroup         C1      NOp   1
 Largest concise Abelian subgroup C1      NOp   1
                         Standard orientation:                         
 ---------------------------------------------------------------------
 Center     Atomic      Atomic             Coordinates (Angstroms)
 Number     Number       Type             X           Y           Z
 ---------------------------------------------------------------------
      1          6           0       -1.410680   -2.246409   -1.674880
      2          6           0       -2.590860   -0.697559   -0.410840
      3          6           0       -3.767730   -1.413068   -0.559230
      4          6           0       -3.762920   -2.580138   -1.316240
      5          6           0       -2.566171   -3.001509   -1.874070
      6          6           0       -0.086270   -2.643980   -2.189870
      7          6           0        2.144780   -2.038661   -2.430530
      8          6           0        2.461899   -3.259611   -3.010280
      9          6           0        1.448799   -4.193801   -3.182700
     10          6           0        0.162009   -3.885230   -2.768370
     11          1           0       -2.543209    0.209341    0.189650
     12          1           0       -4.675401   -3.156528   -1.450850
     13          1           0       -2.534521   -3.915509   -2.460650
     14          1           0        2.892950   -1.271311   -2.239610
     15          1           0        1.659628   -5.165341   -3.624820
     16          1           0       -0.630471   -4.622610   -2.859370
     17          7           0       -1.440310   -1.092049   -0.968740
     18          7           0        0.902450   -1.736460   -2.040190
     19         77           0        0.323061    0.158430   -1.024510
     20          8           0       -1.076709    1.447660    1.378660
     21          8           0       -0.372748    3.180360   -1.196260
     22          8           0        3.926031   -0.519112   -0.228650
     23          5           0       -0.718558    1.840510   -1.343150
     24          5           0        0.113581    1.177900    0.685420
     25          5           0        3.651531   -0.488562    1.112970
     26          8           0        4.396271    0.429998    1.796460
     27          8           0        1.198981    1.569169    1.467410
     28          6           0        0.717412    2.395610    2.535340
     29          6           0       -0.750858    1.901090    2.702390
     30          6           0        5.079391    0.320188   -0.441760
     31          6           0        5.052321    1.254798    0.807020
     32          6           0       -1.388587    3.976311   -1.824190
     33          6           0       -2.626278    3.030551   -1.803500
     34          8           0       -2.014228    1.735221   -1.858450
     35          6           0       -0.877799    0.705050    3.634770
     36          1           0       -0.157589   -0.082890    3.375250
     37          1           0       -0.725359    0.983900    4.686170
     38          1           0       -1.887479    0.283051    3.532640
     39          6           0       -1.744588    2.970391    3.112030
     40          1           0       -2.751278    2.535221    3.172150
     41          1           0       -1.492118    3.383131    4.099400
     42          1           0       -1.775928    3.794151    2.388970
     43          6           0        1.603622    2.194949    3.748940
     44          1           0        1.227062    2.766679    4.609710
     45          1           0        1.676961    1.139049    4.034550
     46          1           0        2.619692    2.544939    3.524550
     47          6           0        0.807642    3.838590    2.054870
     48          1           0        1.851073    4.058599    1.794510
     49          1           0        0.205963    3.986540    1.148270
     50          1           0        0.488523    4.551080    2.827830
     51          6           0       -1.559407    5.262741   -1.040940
     52          1           0       -1.786387    5.067871    0.014270
     53          1           0       -0.631857    5.848370   -1.084620
     54          1           0       -2.369657    5.874541   -1.463460
     55          6           0       -0.901467    4.288530   -3.232990
     56          1           0        0.076533    4.781010   -3.165310
     57          1           0       -0.774568    3.368780   -3.818590
     58          1           0       -1.589467    4.956301   -3.768900
     59          6           0       -3.418478    3.095771   -0.503100
     60          1           0       -3.972417    4.039302   -0.404240
     61          1           0       -4.146558    2.272262   -0.492880
     62          1           0       -2.759398    2.969321    0.365560
     63          6           0       -3.568878    3.179782   -2.981480
     64          1           0       -3.064098    2.985541   -3.934080
     65          1           0       -4.392488    2.460242   -2.882410
     66          1           0       -4.002697    4.189872   -3.012040
     67          6           0        6.418081    1.646557    1.332960
     68          1           0        6.301192    2.295037    2.210110
     69          1           0        7.008261    0.774537    1.635310
     70          1           0        6.980502    2.205967    0.571870
     71          6           0        4.192262    2.492228    0.605550
     72          1           0        3.189782    2.237319    0.238320
     73          1           0        4.071352    2.991808    1.576690
     74          1           0        4.667082    3.201028   -0.085940
     75          6           0        4.928551    1.031318   -1.770690
     76          1           0        5.729162    1.771537   -1.910180
     77          1           0        5.001351    0.305538   -2.592500
     78          1           0        3.957361    1.533748   -1.845390
     79          6           0        6.280990   -0.614323   -0.473400
     80          1           0        7.212781   -0.079293   -0.698800
     81          1           0        6.401550   -1.142373    0.482510
     82          1           0        6.119860   -1.368273   -1.255910
     83          1           0        1.658041    1.048989   -1.236420
     84          6           0        1.025859   -3.187451    1.030080
     85          8           0        0.789439   -4.176160    0.340310
     86          6           0       -0.070520   -2.517130    1.839840
     87          1           0        0.271830   -2.392030    2.879990
     88          1           0       -0.231370   -1.495310    1.449910
     89          6           0        2.616680   -1.430511    1.836340
     90          1           0        1.720830   -0.805801    1.950600
     91          1           0        2.970300   -1.658061    2.859010
     92          7           0        2.283700   -2.652671    1.113530
     93          6           0        3.387549   -3.413272    0.561800
     94          1           0        3.774869   -2.960812   -0.361580
     95          1           0        4.208069   -3.450602    1.294650
     96          1           0        3.040829   -4.427001    0.345800
     97          6           0       -1.379021   -3.290569    1.784160
     98          1           0       -1.634011   -3.463879    0.729060
     99          1           0       -1.231811   -4.294860    2.211630
    100          6           0       -2.530390   -2.584999    2.489680
    101          1           0       -2.590930   -1.538869    2.138500
    102          1           0       -3.484901   -3.052208    2.188640
    103          6           0       -2.449820   -2.587259    4.009670
    104          1           0       -2.338411   -3.624239    4.366910
    105          1           0       -1.542860   -2.055009    4.340150
    106          6           0       -3.676280   -1.948838    4.641060
    107          1           0       -3.608770   -1.912318    5.735440
    108          1           0       -3.815510   -0.919328    4.278780
    109          1           0       -4.586960   -2.505808    4.379290
    110          6           0       -5.026220   -0.890148    0.058330
    111          9           0       -4.780979   -0.182618    1.164750
    112          9           0       -5.680959   -0.083848   -0.788140
    113          9           0       -5.859630   -1.884917    0.383430
    114          1           0        3.485829   -3.468972   -3.309870
 ---------------------------------------------------------------------
 Rotational constants (GHZ):           0.0628503           0.0466836           0.0410561
 General basis read from cards:  (5D, 7F)
 ======================================================================================================
                                       Pseudopotential Parameters
 ======================================================================================================
  Center     Atomic      Valence      Angular      Power
  Number     Number     Electrons     Momentum     of R      Exponent        Coefficient   SO-Coeffient
 ======================================================================================================
    1          6
                                   No pseudopotential on this center.
    2          6
                                   No pseudopotential on this center.
    3          6
                                   No pseudopotential on this center.
    4          6
                                   No pseudopotential on this center.
    5          6
                                   No pseudopotential on this center.
    6          6
                                   No pseudopotential on this center.
    7          6
                                   No pseudopotential on this center.
    8          6
                                   No pseudopotential on this center.
    9          6
                                   No pseudopotential on this center.
   10          6
                                   No pseudopotential on this center.
   11          1
                                   No pseudopotential on this center.
   12          1
                                   No pseudopotential on this center.
   13          1
                                   No pseudopotential on this center.
   14          1
                                   No pseudopotential on this center.
   15          1
                                   No pseudopotential on this center.
   16          1
                                   No pseudopotential on this center.
   17          7
                                   No pseudopotential on this center.
   18          7
                                   No pseudopotential on this center.
   19         77           17
                                      G and up 
                                                     1      823.5880147       -0.15780140    0.00000000
                                                     2      364.6613336    -1517.52704460    0.00000000
                                                     2       55.7082801     -316.53065290    0.00000000
                                                     2       12.0464544      -91.88809410    0.00000000
                                                     2        3.5120610       -9.22417730    0.00000000
                                      S - G
                                                     0      188.0490770        3.15780140    0.00000000
                                                     1      340.4194712       26.83225770    0.00000000
                                                     2      128.2373673      800.42500070    0.00000000
                                                     2       33.8644961      369.40506830    0.00000000
                                                     2        4.7560005      242.41718990    0.00000000
                                                     2        3.9649974     -118.21732820    0.00000000
                                      P - G
                                                     0      289.7291139        2.15780140    0.00000000
                                                     1       87.4633789       61.96786100    0.00000000
                                                     2       30.4363766      269.05819860    0.00000000
                                                     2        4.0553412      231.16547930    0.00000000
                                                     2        3.5525341     -133.69526670    0.00000000
                                      D - G
                                                     0      136.4017106        3.15780140    0.00000000
                                                     1       95.0776925       45.93498030    0.00000000
                                                     2       49.2258410      359.03446680    0.00000000
                                                     2       15.0874145      176.47401190    0.00000000
                                                     2        4.0405764       54.51552860    0.00000000
                                      F - G
                                                     0      127.3507908        3.95461970    0.00000000
                                                     1       66.2364374       52.97736550    0.00000000
                                                     2       34.4299229      274.86433830    0.00000000
                                                     2       10.1995721      137.20473380    0.00000000
                                                     2        2.5409702       14.86333050    0.00000000
   20          8
                                   No pseudopotential on this center.
   21          8
                                   No pseudopotential on this center.
   22          8
                                   No pseudopotential on this center.
   23          5
                                   No pseudopotential on this center.
   24          5
                                   No pseudopotential on this center.
   25          5
                                   No pseudopotential on this center.
   26          8
                                   No pseudopotential on this center.
   27          8
                                   No pseudopotential on this center.
   28          6
                                   No pseudopotential on this center.
   29          6
                                   No pseudopotential on this center.
   30          6
                                   No pseudopotential on this center.
   31          6
                                   No pseudopotential on this center.
   32          6
                                   No pseudopotential on this center.
   33          6
                                   No pseudopotential on this center.
   34          8
                                   No pseudopotential on this center.
   35          6
                                   No pseudopotential on this center.
   36          1
                                   No pseudopotential on this center.
   37          1
                                   No pseudopotential on this center.
   38          1
                                   No pseudopotential on this center.
   39          6
                                   No pseudopotential on this center.
   40          1
                                   No pseudopotential on this center.
   41          1
                                   No pseudopotential on this center.
   42          1
                                   No pseudopotential on this center.
   43          6
                                   No pseudopotential on this center.
   44          1
                                   No pseudopotential on this center.
   45          1
                                   No pseudopotential on this center.
   46          1
                                   No pseudopotential on this center.
   47          6
                                   No pseudopotential on this center.
   48          1
                                   No pseudopotential on this center.
   49          1
                                   No pseudopotential on this center.
   50          1
                                   No pseudopotential on this center.
   51          6
                                   No pseudopotential on this center.
   52          1
                                   No pseudopotential on this center.
   53          1
                                   No pseudopotential on this center.
   54          1
                                   No pseudopotential on this center.
   55          6
                                   No pseudopotential on this center.
   56          1
                                   No pseudopotential on this center.
   57          1
                                   No pseudopotential on this center.
   58          1
                                   No pseudopotential on this center.
   59          6
                                   No pseudopotential on this center.
   60          1
                                   No pseudopotential on this center.
   61          1
                                   No pseudopotential on this center.
   62          1
                                   No pseudopotential on this center.
   63          6
                                   No pseudopotential on this center.
   64          1
                                   No pseudopotential on this center.
   65          1
                                   No pseudopotential on this center.
   66          1
                                   No pseudopotential on this center.
   67          6
                                   No pseudopotential on this center.
   68          1
                                   No pseudopotential on this center.
   69          1
                                   No pseudopotential on this center.
   70          1
                                   No pseudopotential on this center.
   71          6
                                   No pseudopotential on this center.
   72          1
                                   No pseudopotential on this center.
   73          1
                                   No pseudopotential on this center.
   74          1
                                   No pseudopotential on this center.
   75          6
                                   No pseudopotential on this center.
   76          1
                                   No pseudopotential on this center.
   77          1
                                   No pseudopotential on this center.
   78          1
                                   No pseudopotential on this center.
   79          6
                                   No pseudopotential on this center.
   80          1
                                   No pseudopotential on this center.
   81          1
                                   No pseudopotential on this center.
   82          1
                                   No pseudopotential on this center.
   83          1
                                   No pseudopotential on this center.
   84          6
                                   No pseudopotential on this center.
   85          8
                                   No pseudopotential on this center.
   86          6
                                   No pseudopotential on this center.
   87          1
                                   No pseudopotential on this center.
   88          1
                                   No pseudopotential on this center.
   89          6
                                   No pseudopotential on this center.
   90          1
                                   No pseudopotential on this center.
   91          1
                                   No pseudopotential on this center.
   92          7
                                   No pseudopotential on this center.
   93          6
                                   No pseudopotential on this center.
   94          1
                                   No pseudopotential on this center.
   95          1
                                   No pseudopotential on this center.
   96          1
                                   No pseudopotential on this center.
   97          6
                                   No pseudopotential on this center.
   98          1
                                   No pseudopotential on this center.
   99          1
                                   No pseudopotential on this center.
  100          6
                                   No pseudopotential on this center.
  101          1
                                   No pseudopotential on this center.
  102          1
                                   No pseudopotential on this center.
  103          6
                                   No pseudopotential on this center.
  104          1
                                   No pseudopotential on this center.
  105          1
                                   No pseudopotential on this center.
  106          6
                                   No pseudopotential on this center.
  107          1
                                   No pseudopotential on this center.
  108          1
                                   No pseudopotential on this center.
  109          1
                                   No pseudopotential on this center.
  110          6
                                   No pseudopotential on this center.
  111          9
                                   No pseudopotential on this center.
  112          9
                                   No pseudopotential on this center.
  113          9
                                   No pseudopotential on this center.
  114          1
                                   No pseudopotential on this center.
 ======================================================================================================
 There are   939 symmetry adapted cartesian basis functions of A   symmetry.
 There are   884 symmetry adapted basis functions of A   symmetry.
   884 basis functions,  1767 primitive gaussians,   939 cartesian basis functions
   209 alpha electrons      209 beta electrons
       nuclear repulsion energy      9382.1635438945 Hartrees.
 NAtoms=  114 NActive=  114 NUniq=  114 SFac= 1.00D+00 NAtFMM=   60 NAOKFM=T Big=T
 Integral buffers will be    131072 words long.
 Raffenetti 2 integral format.
 Two-electron integral symmetry is turned on.
 One-electron integrals computed using PRISM.
   1 Symmetry operations used in ECPInt.
 ECPInt:  NShTT=   57970 NPrTT=  353525 LenC2=   44262 LenP2D=  135671.
 LDataN:  DoStor=T MaxTD1= 6 Len=  172
 NBasis=   884 RedAO= T EigKep=  4.94D-04  NBF=   884
 NBsUse=   884 1.00D-06 EigRej= -1.00D+00 NBFU=   884
 Defaulting to unpruned grid for atomic number  77.
 ExpMin= 2.90D-02 ExpMax= 7.00D+03 ExpMxC= 1.05D+03 IAcc=3 IRadAn=         5 AccDes= 0.00D+00
 Harris functional with IExCor= 1009 and IRadAn=       5 diagonalized for initial guess.
 HarFok:  IExCor= 1009 AccDes= 0.00D+00 IRadAn=         5 IDoV= 1 UseB2=F ITyADJ=14
 ICtDFT=  3500011 ScaDFX=  1.000000  1.000000  1.000000  1.000000
 Defaulting to unpruned grid for atomic number  77.
 FoFCou: FMM=F IPFlag=           0 FMFlag=      100000 FMFlg1=        2001
         NFxFlg=           0 DoJE=T BraDBF=F KetDBF=T FulRan=T
         wScrn=  0.000000 ICntrl=       500 IOpCl=  0 I1Cent=   200000004 NGrid=           0
         NMat0=    1 NMatS0=      1 NMatT0=    0 NMatD0=    1 NMtDS0=    0 NMtDT0=    0
 Petite list used in FoFCou.
 Requested convergence on RMS density matrix=1.00D-08 within 128 cycles.
 Requested convergence on MAX density matrix=1.00D-06.
 Requested convergence on             energy=1.00D-06.
 No special actions if energy rises.
 Defaulting to unpruned grid for atomic number  77.
 Defaulting to unpruned grid for atomic number  77.
 Defaulting to unpruned grid for atomic number  77.
 Defaulting to unpruned grid for atomic number  77.
 Defaulting to unpruned grid for atomic number  77.
 Defaulting to unpruned grid for atomic number  77.
 Defaulting to unpruned grid for atomic number  77.
 Defaulting to unpruned grid for atomic number  77.
 Defaulting to unpruned grid for atomic number  77.
 Defaulting to unpruned grid for atomic number  77.
 Defaulting to unpruned grid for atomic number  77.
 Defaulting to unpruned grid for atomic number  77.
 Defaulting to unpruned grid for atomic number  77.
 Defaulting to unpruned grid for atomic number  77.
 Defaulting to unpruned grid for atomic number  77.
 Defaulting to unpruned grid for atomic number  77.
 SCF Done:  E(RM06) =  -2614.48268984     A.U. after   16 cycles
            NFock= 16  Conv=0.69D-08     -V/T= 2.0344
 DoSCS=F DFT=T ScalE2(SS,OS)=  1.000000  1.000000
 Range of M.O.s used for correlation:     1   884
 NBasis=   884 NAE=   209 NBE=   209 NFC=     0 NFV=     0
 NROrb=    884 NOA=   209 NOB=   209 NVA=   675 NVB=   675
   1 Symmetry operations used in ECPInt.
 ECPInt:  NShTT=   57970 NPrTT=  353525 LenC2=   44262 LenP2D=  135671.
 LDataN:  DoStor=T MaxTD1= 7 Len=  274
 Number of processors reduced to   7 by ecpmxn.
 Symmetrizing basis deriv contribution to polar:
 IMax=3 JMax=2 DiffMx= 0.00D+00
 G2DrvN: will do   115 centers at a time, making    1 passes.
 Calling FoFCou, ICntrl=  3107 FMM=T I1Cent=   0 AccDes= 0.00D+00.
 Defaulting to unpruned grid for atomic number  77.
 Defaulting to unpruned grid for atomic number  77.
 Defaulting to unpruned grid for atomic number  77.
 Defaulting to unpruned grid for atomic number  77.
 Defaulting to unpruned grid for atomic number  77.
 Defaulting to unpruned grid for atomic number  77.
 Defaulting to unpruned grid for atomic number  77.
 Defaulting to unpruned grid for atomic number  77.
 Defaulting to unpruned grid for atomic number  77.
 Defaulting to unpruned grid for atomic number  77.
 Defaulting to unpruned grid for atomic number  77.
 Defaulting to unpruned grid for atomic number  77.
 Defaulting to unpruned grid for atomic number  77.
 Defaulting to unpruned grid for atomic number  77.
 Defaulting to unpruned grid for atomic number  77.
 Defaulting to unpruned grid for atomic number  77.
 End of G2Drv F.D. properties file   721 does not exist.
 End of G2Drv F.D. properties file   722 does not exist.
 End of G2Drv F.D. properties file   788 does not exist.
          IDoAtm=11111111111111111111111111111111111111111111111111
          IDoAtm=11111111111111111111111111111111111111111111111111
          IDoAtm=11111111111111
          Differentiating once with respect to electric field.
                with respect to dipole field.
          Differentiating once with respect to nuclear coordinates.
 Defaulting to unpruned grid for atomic number  77.
 CalDSu exits because no D1Ps are significant.
 Defaulting to unpruned grid for atomic number  77.
 Defaulting to unpruned grid for atomic number  77.
 Defaulting to unpruned grid for atomic number  77.
 Defaulting to unpruned grid for atomic number  77.
 Defaulting to unpruned grid for atomic number  77.
 Defaulting to unpruned grid for atomic number  77.
 Defaulting to unpruned grid for atomic number  77.
 Defaulting to unpruned grid for atomic number  77.
 Defaulting to unpruned grid for atomic number  77.
 Defaulting to unpruned grid for atomic number  77.
 Defaulting to unpruned grid for atomic number  77.
 Defaulting to unpruned grid for atomic number  77.
 Defaulting to unpruned grid for atomic number  77.
 Defaulting to unpruned grid for atomic number  77.
 Defaulting to unpruned grid for atomic number  77.
 Defaulting to unpruned grid for atomic number  77.
          There are   345 degrees of freedom in the 1st order CPHF.  IDoFFX=6 NUNeed=     3.
    342 vectors produced by pass  0 Test12= 1.41D-13 1.00D-09 XBig12= 5.56D+02 1.05D+01.
 AX will form    72 AO Fock derivatives at one time.
    342 vectors produced by pass  1 Test12= 1.41D-13 1.00D-09 XBig12= 1.10D+02 1.26D+00.
    342 vectors produced by pass  2 Test12= 1.41D-13 1.00D-09 XBig12= 1.62D+00 1.12D-01.
    342 vectors produced by pass  3 Test12= 1.41D-13 1.00D-09 XBig12= 1.17D-02 1.14D-02.
    342 vectors produced by pass  4 Test12= 1.41D-13 1.00D-09 XBig12= 4.48D-05 4.34D-04.
    299 vectors produced by pass  5 Test12= 1.41D-13 1.00D-09 XBig12= 8.78D-08 1.32D-05.
     78 vectors produced by pass  6 Test12= 1.41D-13 1.00D-09 XBig12= 1.26D-10 5.36D-07.
      3 vectors produced by pass  7 Test12= 1.41D-13 1.00D-09 XBig12= 1.70D-13 2.54D-08.
      1 vectors produced by pass  8 Test12= 1.41D-13 1.00D-09 XBig12= 2.24D-16 1.27D-09.
 InvSVY:  IOpt=1 It=  1 EMax= 2.49D-14
 Solved reduced A of dimension  2091 with   345 vectors.
 Isotropic polarizability for W=    0.000000      504.11 Bohr**3.
 End of Minotr F.D. properties file   721 does not exist.
 End of Minotr F.D. properties file   722 does not exist.
 End of Minotr F.D. properties file   788 does not exist.
 Hyperfine terms turned off by default for NAtoms > 100.

 **********************************************************************

            Population analysis using the SCF Density.

 **********************************************************************

 Orbital symmetries:
       Occupied  (A) (A) (A) (A) (A) (A) (A) (A) (A) (A) (A) (A)
                 (A) (A) (A) (A) (A) (A) (A) (A) (A) (A) (A) (A)
                 (A) (A) (A) (A) (A) (A) (A) (A) (A) (A) (A) (A)
                 (A) (A) (A) (A) (A) (A) (A) (A) (A) (A) (A) (A)
                 (A) (A) (A) (A) (A) (A) (A) (A) (A) (A) (A) (A)
                 (A) (A) (A) (A) (A) (A) (A) (A) (A) (A) (A) (A)
                 (A) (A) (A) (A) (A) (A) (A) (A) (A) (A) (A) (A)
                 (A) (A) (A) (A) (A) (A) (A) (A) (A) (A) (A) (A)
                 (A) (A) (A) (A) (A) (A) (A) (A) (A) (A) (A) (A)
                 (A) (A) (A) (A) (A) (A) (A) (A) (A) (A) (A) (A)
                 (A) (A) (A) (A) (A) (A) (A) (A) (A) (A) (A) (A)
                 (A) (A) (A) (A) (A) (A) (A) (A) (A) (A) (A) (A)
                 (A) (A) (A) (A) (A) (A) (A) (A) (A) (A) (A) (A)
                 (A) (A) (A) (A) (A) (A) (A) (A) (A) (A) (A) (A)
                 (A) (A) (A) (A) (A) (A) (A) (A) (A) (A) (A) (A)
                 (A) (A) (A) (A) (A) (A) (A) (A) (A) (A) (A) (A)
                 (A) (A) (A) (A) (A) (A) (A) (A) (A) (A) (A) (A)
                 (A) (A) (A) (A) (A)
       Virtual   (A) (A) (A) (A) (A) (A) (A) (A) (A) (A) (A) (A)
                 (A) (A) (A) (A) (A) (A) (A) (A) (A) (A) (A) (A)
                 (A) (A) (A) (A) (A) (A) (A) (A) (A) (A) (A) (A)
                 (A) (A) (A) (A) (A) (A) (A) (A) (A) (A) (A) (A)
                 (A) (A) (A) (A) (A) (A) (A) (A) (A) (A) (A) (A)
                 (A) (A) (A) (A) (A) (A) (A) (A) (A) (A) (A) (A)
                 (A) (A) (A) (A) (A) (A) (A) (A) (A) (A) (A) (A)
                 (A) (A) (A) (A) (A) (A) (A) (A) (A) (A) (A) (A)
                 (A) (A) (A) (A) (A) (A) (A) (A) (A) (A) (A) (A)
                 (A) (A) (A) (A) (A) (A) (A) (A) (A) (A) (A) (A)
                 (A) (A) (A) (A) (A) (A) (A) (A) (A) (A) (A) (A)
                 (A) (A) (A) (A) (A) (A) (A) (A) (A) (A) (A) (A)
                 (A) (A) (A) (A) (A) (A) (A) (A) (A) (A) (A) (A)
                 (A) (A) (A) (A) (A) (A) (A) (A) (A) (A) (A) (A)
                 (A) (A) (A) (A) (A) (A) (A) (A) (A) (A) (A) (A)
                 (A) (A) (A) (A) (A) (A) (A) (A) (A) (A) (A) (A)
                 (A) (A) (A) (A) (A) (A) (A) (A) (A) (A) (A) (A)
                 (A) (A) (A) (A) (A) (A) (A) (A) (A) (A) (A) (A)
                 (A) (A) (A) (A) (A) (A) (A) (A) (A) (A) (A) (A)
                 (A) (A) (A) (A) (A) (A) (A) (A) (A) (A) (A) (A)
                 (A) (A) (A) (A) (A) (A) (A) (A) (A) (A) (A) (A)
                 (A) (A) (A) (A) (A) (A) (A) (A) (A) (A) (A) (A)
                 (A) (A) (A) (A) (A) (A) (A) (A) (A) (A) (A) (A)
                 (A) (A) (A) (A) (A) (A) (A) (A) (A) (A) (A) (A)
                 (A) (A) (A) (A) (A) (A) (A) (A) (A) (A) (A) (A)
                 (A) (A) (A) (A) (A) (A) (A) (A) (A) (A) (A) (A)
                 (A) (A) (A) (A) (A) (A) (A) (A) (A) (A) (A) (A)
                 (A) (A) (A) (A) (A) (A) (A) (A) (A) (A) (A) (A)
                 (A) (A) (A) (A) (A) (A) (A) (A) (A) (A) (A) (A)
                 (A) (A) (A) (A) (A) (A) (A) (A) (A) (A) (A) (A)
                 (A) (A) (A) (A) (A) (A) (A) (A) (A) (A) (A) (A)
                 (A) (A) (A) (A) (A) (A) (A) (A) (A) (A) (A) (A)
                 (A) (A) (A) (A) (A) (A) (A) (A) (A) (A) (A) (A)
                 (A) (A) (A) (A) (A) (A) (A) (A) (A) (A) (A) (A)
                 (A) (A) (A) (A) (A) (A) (A) (A) (A) (A) (A) (A)
                 (A) (A) (A) (A) (A) (A) (A) (A) (A) (A) (A) (A)
                 (A) (A) (A) (A) (A) (A) (A) (A) (A) (A) (A) (A)
                 (A) (A) (A) (A) (A) (A) (A) (A) (A) (A) (A) (A)
                 (A) (A) (A) (A) (A) (A) (A) (A) (A) (A) (A) (A)
                 (A) (A) (A) (A) (A) (A) (A) (A) (A) (A) (A) (A)
                 (A) (A) (A) (A) (A) (A) (A) (A) (A) (A) (A) (A)
                 (A) (A) (A) (A) (A) (A) (A) (A) (A) (A) (A) (A)
                 (A) (A) (A) (A) (A) (A) (A) (A) (A) (A) (A) (A)
                 (A) (A) (A) (A) (A) (A) (A) (A) (A) (A) (A) (A)
                 (A) (A) (A) (A) (A) (A) (A) (A) (A) (A) (A) (A)
                 (A) (A) (A) (A) (A) (A) (A) (A) (A) (A) (A) (A)
                 (A) (A) (A) (A) (A) (A) (A) (A) (A) (A) (A) (A)
                 (A) (A) (A) (A) (A) (A) (A) (A) (A) (A) (A) (A)
                 (A) (A) (A) (A) (A) (A) (A) (A) (A) (A) (A) (A)
                 (A) (A) (A) (A) (A) (A) (A) (A) (A) (A) (A) (A)
                 (A) (A) (A) (A) (A) (A) (A) (A) (A) (A) (A) (A)
                 (A) (A) (A) (A) (A) (A) (A) (A) (A) (A) (A) (A)
                 (A) (A) (A) (A) (A) (A) (A) (A) (A) (A) (A) (A)
                 (A) (A) (A) (A) (A) (A) (A) (A) (A) (A) (A) (A)
                 (A) (A) (A) (A) (A) (A) (A) (A) (A) (A) (A) (A)
                 (A) (A) (A) (A) (A) (A) (A) (A) (A) (A) (A) (A)
                 (A) (A) (A)
 The electronic state is 1-A.
 Alpha  occ. eigenvalues --  -24.82812 -24.82733 -24.82240 -19.22408 -19.22042
 Alpha  occ. eigenvalues --  -19.20646 -19.19961 -19.19783 -19.19714 -19.17704
 Alpha  occ. eigenvalues --  -14.45538 -14.45138 -14.41544 -10.51083 -10.33348
 Alpha  occ. eigenvalues --  -10.32504 -10.32482 -10.30813 -10.30806 -10.30691
 Alpha  occ. eigenvalues --  -10.30437 -10.29522 -10.29477 -10.29221 -10.29131
 Alpha  occ. eigenvalues --  -10.28988 -10.28913 -10.28828 -10.28699 -10.28397
 Alpha  occ. eigenvalues --  -10.28017 -10.25718 -10.24993 -10.23897 -10.23766
 Alpha  occ. eigenvalues --  -10.23489 -10.23350 -10.23288 -10.23113 -10.22914
 Alpha  occ. eigenvalues --  -10.22899 -10.22787 -10.22588 -10.22516 -10.22499
 Alpha  occ. eigenvalues --  -10.22298 -10.21925 -10.21827 -10.21621 -10.21569
 Alpha  occ. eigenvalues --   -6.81772  -6.79800  -6.79724  -3.60710  -2.03772
 Alpha  occ. eigenvalues --   -2.02489  -2.01799  -1.35424  -1.26924  -1.26436
 Alpha  occ. eigenvalues --   -1.08170  -1.06147  -1.05612  -1.03537  -1.01407
 Alpha  occ. eigenvalues --   -1.00494  -0.99244  -0.98790  -0.97952  -0.92925
 Alpha  occ. eigenvalues --   -0.85997  -0.84144  -0.83474  -0.81604  -0.80956
 Alpha  occ. eigenvalues --   -0.80384  -0.79916  -0.79146  -0.76477  -0.75849
 Alpha  occ. eigenvalues --   -0.74757  -0.74397  -0.73632  -0.71911  -0.71167
 Alpha  occ. eigenvalues --   -0.70378  -0.70174  -0.69907  -0.68700  -0.68655
 Alpha  occ. eigenvalues --   -0.68176  -0.67477  -0.67125  -0.66825  -0.65441
 Alpha  occ. eigenvalues --   -0.64392  -0.62340  -0.61752  -0.61456  -0.61308
 Alpha  occ. eigenvalues --   -0.61162  -0.60948  -0.60166  -0.57309  -0.57070
 Alpha  occ. eigenvalues --   -0.56237  -0.54902  -0.54726  -0.54321  -0.53863
 Alpha  occ. eigenvalues --   -0.53579  -0.52809  -0.52732  -0.52355  -0.50478
 Alpha  occ. eigenvalues --   -0.50090  -0.49140  -0.49000  -0.48776  -0.48489
 Alpha  occ. eigenvalues --   -0.48149  -0.47825  -0.47346  -0.47139  -0.46772
 Alpha  occ. eigenvalues --   -0.46556  -0.46346  -0.46011  -0.45946  -0.45755
 Alpha  occ. eigenvalues --   -0.45422  -0.45184  -0.45121  -0.44893  -0.44615
 Alpha  occ. eigenvalues --   -0.44492  -0.44405  -0.44301  -0.44003  -0.43921
 Alpha  occ. eigenvalues --   -0.43313  -0.43001  -0.42756  -0.42607  -0.42348
 Alpha  occ. eigenvalues --   -0.41124  -0.40951  -0.40870  -0.40752  -0.40588
 Alpha  occ. eigenvalues --   -0.40309  -0.40039  -0.39887  -0.39796  -0.39696
 Alpha  occ. eigenvalues --   -0.39659  -0.39575  -0.39424  -0.39320  -0.38993
 Alpha  occ. eigenvalues --   -0.38822  -0.38615  -0.38546  -0.38236  -0.37574
 Alpha  occ. eigenvalues --   -0.37243  -0.37190  -0.36998  -0.36941  -0.36710
 Alpha  occ. eigenvalues --   -0.36549  -0.36397  -0.36328  -0.36068  -0.35959
 Alpha  occ. eigenvalues --   -0.35603  -0.35371  -0.35183  -0.34950  -0.34625
 Alpha  occ. eigenvalues --   -0.34371  -0.34246  -0.33980  -0.33601  -0.33269
 Alpha  occ. eigenvalues --   -0.33133  -0.32684  -0.32550  -0.32487  -0.31823
 Alpha  occ. eigenvalues --   -0.31729  -0.31421  -0.31244  -0.31116  -0.30753
 Alpha  occ. eigenvalues --   -0.30199  -0.29630  -0.28507  -0.27961  -0.27534
 Alpha  occ. eigenvalues --   -0.26982  -0.26454  -0.25731  -0.25432  -0.24852
 Alpha  occ. eigenvalues --   -0.23540  -0.21081  -0.20340  -0.19212
 Alpha virt. eigenvalues --   -0.08093  -0.04396  -0.03382   0.00380   0.01092
 Alpha virt. eigenvalues --    0.03886   0.04465   0.05040   0.06223   0.06917
 Alpha virt. eigenvalues --    0.07171   0.07519   0.08393   0.09282   0.09558
 Alpha virt. eigenvalues --    0.09911   0.10136   0.10306   0.10640   0.11286
 Alpha virt. eigenvalues --    0.11529   0.11811   0.12158   0.12297   0.12464
 Alpha virt. eigenvalues --    0.13065   0.13271   0.13574   0.13844   0.14167
 Alpha virt. eigenvalues --    0.14520   0.14749   0.15016   0.15077   0.15453
 Alpha virt. eigenvalues --    0.15720   0.15805   0.15862   0.16106   0.16266
 Alpha virt. eigenvalues --    0.16490   0.16712   0.16769   0.16943   0.17156
 Alpha virt. eigenvalues --    0.17253   0.17523   0.17686   0.17839   0.17952
 Alpha virt. eigenvalues --    0.18067   0.18516   0.18554   0.18747   0.18886
 Alpha virt. eigenvalues --    0.19155   0.19225   0.19347   0.19564   0.19629
 Alpha virt. eigenvalues --    0.19803   0.19952   0.20133   0.20368   0.20596
 Alpha virt. eigenvalues --    0.20815   0.20968   0.21091   0.21548   0.21719
 Alpha virt. eigenvalues --    0.21864   0.22136   0.22257   0.22555   0.23042
 Alpha virt. eigenvalues --    0.23218   0.23377   0.23612   0.23692   0.23834
 Alpha virt. eigenvalues --    0.24137   0.24595   0.24629   0.24705   0.25036
 Alpha virt. eigenvalues --    0.25246   0.25509   0.25828   0.26038   0.26277
 Alpha virt. eigenvalues --    0.26448   0.26653   0.26892   0.27010   0.27229
 Alpha virt. eigenvalues --    0.27599   0.27726   0.27876   0.28245   0.28324
 Alpha virt. eigenvalues --    0.28941   0.29084   0.29305   0.29551   0.30235
 Alpha virt. eigenvalues --    0.30568   0.31014   0.31503   0.31980   0.32303
 Alpha virt. eigenvalues --    0.33143   0.33499   0.33575   0.34786   0.35376
 Alpha virt. eigenvalues --    0.35748   0.36488   0.36841   0.37128   0.38090
 Alpha virt. eigenvalues --    0.38636   0.39150   0.39880   0.41045   0.41544
 Alpha virt. eigenvalues --    0.41998   0.42676   0.43079   0.45394   0.46324
 Alpha virt. eigenvalues --    0.47180   0.47676   0.48122   0.48680   0.49045
 Alpha virt. eigenvalues --    0.49511   0.49741   0.50306   0.50641   0.50972
 Alpha virt. eigenvalues --    0.51455   0.51633   0.51898   0.52341   0.52574
 Alpha virt. eigenvalues --    0.52859   0.53191   0.53835   0.54428   0.54578
 Alpha virt. eigenvalues --    0.54747   0.55036   0.55453   0.55626   0.56221
 Alpha virt. eigenvalues --    0.56690   0.57136   0.57241   0.57381   0.57738
 Alpha virt. eigenvalues --    0.58005   0.58109   0.58535   0.58696   0.58788
 Alpha virt. eigenvalues --    0.59144   0.59304   0.59583   0.59658   0.59960
 Alpha virt. eigenvalues --    0.60244   0.60746   0.60986   0.61040   0.61479
 Alpha virt. eigenvalues --    0.61851   0.61946   0.62683   0.63053   0.63382
 Alpha virt. eigenvalues --    0.63609   0.63879   0.63989   0.64148   0.64858
 Alpha virt. eigenvalues --    0.65037   0.65223   0.65423   0.66028   0.66408
 Alpha virt. eigenvalues --    0.66737   0.67013   0.67443   0.67640   0.67920
 Alpha virt. eigenvalues --    0.68514   0.68699   0.69085   0.69306   0.69530
 Alpha virt. eigenvalues --    0.69885   0.70200   0.70666   0.70924   0.71019
 Alpha virt. eigenvalues --    0.71384   0.71702   0.72031   0.72547   0.73212
 Alpha virt. eigenvalues --    0.73518   0.73612   0.73993   0.74383   0.74575
 Alpha virt. eigenvalues --    0.74742   0.74978   0.75603   0.75820   0.76325
 Alpha virt. eigenvalues --    0.76572   0.76785   0.77232   0.77649   0.77894
 Alpha virt. eigenvalues --    0.78481   0.78868   0.79113   0.79347   0.79614
 Alpha virt. eigenvalues --    0.80596   0.80716   0.81264   0.81407   0.81781
 Alpha virt. eigenvalues --    0.82089   0.82285   0.82533   0.83108   0.83437
 Alpha virt. eigenvalues --    0.83877   0.84136   0.84178   0.84460   0.84853
 Alpha virt. eigenvalues --    0.85105   0.85405   0.85552   0.85792   0.85940
 Alpha virt. eigenvalues --    0.85993   0.86356   0.86717   0.86865   0.86952
 Alpha virt. eigenvalues --    0.87424   0.87603   0.87723   0.87812   0.88147
 Alpha virt. eigenvalues --    0.88619   0.88900   0.89059   0.89388   0.89660
 Alpha virt. eigenvalues --    0.89733   0.90251   0.90483   0.90631   0.90933
 Alpha virt. eigenvalues --    0.91133   0.91293   0.91627   0.91966   0.92111
 Alpha virt. eigenvalues --    0.92292   0.92636   0.92732   0.93177   0.93487
 Alpha virt. eigenvalues --    0.93681   0.93947   0.94119   0.94655   0.94830
 Alpha virt. eigenvalues --    0.94915   0.95150   0.95448   0.96181   0.96364
 Alpha virt. eigenvalues --    0.96479   0.97038   0.97332   0.97983   0.98082
 Alpha virt. eigenvalues --    0.98849   0.98940   0.99558   0.99817   1.00166
 Alpha virt. eigenvalues --    1.00679   1.00898   1.01799   1.02060   1.02394
 Alpha virt. eigenvalues --    1.03059   1.03354   1.03860   1.04049   1.05164
 Alpha virt. eigenvalues --    1.05363   1.05713   1.06407   1.06503   1.07426
 Alpha virt. eigenvalues --    1.07723   1.07768   1.08999   1.09312   1.09807
 Alpha virt. eigenvalues --    1.10277   1.10475   1.11147   1.11689   1.12661
 Alpha virt. eigenvalues --    1.13212   1.13507   1.13805   1.14172   1.14735
 Alpha virt. eigenvalues --    1.15563   1.15819   1.16080   1.16659   1.17277
 Alpha virt. eigenvalues --    1.17738   1.18269   1.18657   1.18913   1.19063
 Alpha virt. eigenvalues --    1.19800   1.20073   1.20212   1.20960   1.21903
 Alpha virt. eigenvalues --    1.22502   1.22714   1.23205   1.23393   1.23979
 Alpha virt. eigenvalues --    1.25084   1.25704   1.26056   1.26533   1.26774
 Alpha virt. eigenvalues --    1.27357   1.27543   1.29071   1.29864   1.30298
 Alpha virt. eigenvalues --    1.30534   1.31131   1.32174   1.32733   1.33322
 Alpha virt. eigenvalues --    1.34362   1.34695   1.34969   1.35606   1.36003
 Alpha virt. eigenvalues --    1.36907   1.37486   1.37829   1.38290   1.39048
 Alpha virt. eigenvalues --    1.39294   1.40259   1.40433   1.41045   1.41529
 Alpha virt. eigenvalues --    1.41968   1.42607   1.43175   1.43351   1.43508
 Alpha virt. eigenvalues --    1.43837   1.44217   1.44758   1.45907   1.46071
 Alpha virt. eigenvalues --    1.46506   1.47119   1.47250   1.47750   1.48267
 Alpha virt. eigenvalues --    1.48777   1.49057   1.49305   1.49874   1.50504
 Alpha virt. eigenvalues --    1.51547   1.52309   1.52696   1.54373   1.55070
 Alpha virt. eigenvalues --    1.55474   1.56054   1.56917   1.57322   1.58100
 Alpha virt. eigenvalues --    1.59061   1.59896   1.60502   1.61194   1.62637
 Alpha virt. eigenvalues --    1.63265   1.63713   1.64607   1.64859   1.65750
 Alpha virt. eigenvalues --    1.66072   1.66222   1.66961   1.67564   1.67616
 Alpha virt. eigenvalues --    1.68465   1.68710   1.69217   1.69595   1.70164
 Alpha virt. eigenvalues --    1.71007   1.71492   1.72683   1.73121   1.73806
 Alpha virt. eigenvalues --    1.74659   1.75310   1.75566   1.76485   1.76758
 Alpha virt. eigenvalues --    1.77345   1.77853   1.77905   1.78251   1.79022
 Alpha virt. eigenvalues --    1.79752   1.79785   1.80557   1.80878   1.81183
 Alpha virt. eigenvalues --    1.81347   1.82121   1.82434   1.82846   1.83351
 Alpha virt. eigenvalues --    1.83880   1.84549   1.84936   1.85061   1.85524
 Alpha virt. eigenvalues --    1.85778   1.86183   1.86446   1.87058   1.87277
 Alpha virt. eigenvalues --    1.88142   1.88421   1.88713   1.89013   1.89449
 Alpha virt. eigenvalues --    1.89725   1.90257   1.90660   1.91085   1.91392
 Alpha virt. eigenvalues --    1.91492   1.91823   1.92228   1.92608   1.92831
 Alpha virt. eigenvalues --    1.93168   1.93306   1.93406   1.93893   1.94156
 Alpha virt. eigenvalues --    1.94508   1.94858   1.95315   1.95780   1.96105
 Alpha virt. eigenvalues --    1.96620   1.97282   1.97904   1.98488   1.98704
 Alpha virt. eigenvalues --    1.99360   1.99530   1.99933   2.00219   2.01222
 Alpha virt. eigenvalues --    2.01428   2.02519   2.02904   2.03212   2.03728
 Alpha virt. eigenvalues --    2.03762   2.04202   2.04336   2.04700   2.05880
 Alpha virt. eigenvalues --    2.06245   2.06685   2.06992   2.07324   2.07709
 Alpha virt. eigenvalues --    2.08245   2.08386   2.08773   2.08997   2.09405
 Alpha virt. eigenvalues --    2.09819   2.10142   2.10587   2.10921   2.11400
 Alpha virt. eigenvalues --    2.11930   2.12510   2.12687   2.13185   2.13356
 Alpha virt. eigenvalues --    2.14231   2.14653   2.14951   2.15118   2.15663
 Alpha virt. eigenvalues --    2.16035   2.16333   2.16496   2.16813   2.17380
 Alpha virt. eigenvalues --    2.17498   2.17964   2.18232   2.18368   2.18580
 Alpha virt. eigenvalues --    2.19329   2.19477   2.19782   2.20224   2.20586
 Alpha virt. eigenvalues --    2.20713   2.21380   2.21609   2.22304   2.23060
 Alpha virt. eigenvalues --    2.23622   2.23796   2.23880   2.24101   2.24698
 Alpha virt. eigenvalues --    2.25040   2.25431   2.26488   2.26687   2.27116
 Alpha virt. eigenvalues --    2.27158   2.27419   2.28019   2.28208   2.28739
 Alpha virt. eigenvalues --    2.29222   2.29673   2.29972   2.30875   2.31163
 Alpha virt. eigenvalues --    2.32186   2.32604   2.32876   2.33055   2.33964
 Alpha virt. eigenvalues --    2.34236   2.34721   2.34873   2.35437   2.37070
 Alpha virt. eigenvalues --    2.38246   2.38491   2.38742   2.39330   2.39897
 Alpha virt. eigenvalues --    2.40404   2.41265   2.43442   2.44440   2.44684
 Alpha virt. eigenvalues --    2.45744   2.46196   2.46648   2.47554   2.47799
 Alpha virt. eigenvalues --    2.48395   2.48644   2.48936   2.49420   2.50204
 Alpha virt. eigenvalues --    2.52186   2.54239   2.54465   2.54719   2.57950
 Alpha virt. eigenvalues --    2.58544   2.59725   2.60141   2.60704   2.61295
 Alpha virt. eigenvalues --    2.62175   2.62415   2.62590   2.63264   2.64443
 Alpha virt. eigenvalues --    2.65392   2.65805   2.66983   2.67834   2.67989
 Alpha virt. eigenvalues --    2.68314   2.70589   2.71524   2.71986   2.73452
 Alpha virt. eigenvalues --    2.76343   2.77182   2.77939   2.78296   2.78576
 Alpha virt. eigenvalues --    2.79230   2.79771   2.80016   2.80384   2.80784
 Alpha virt. eigenvalues --    2.81240   2.81355   2.82527   2.82594   2.83558
 Alpha virt. eigenvalues --    2.83903   2.84596   2.85754   2.89162   2.89369
 Alpha virt. eigenvalues --    2.91558   2.93222   2.94134   2.94506   2.96249
 Alpha virt. eigenvalues --    2.96768   2.97213   2.97726   3.02191   3.02827
 Alpha virt. eigenvalues --    3.04897   3.05940   3.06862   3.08509   3.09703
 Alpha virt. eigenvalues --    3.10236   3.11342   3.12837   3.13757   3.14144
 Alpha virt. eigenvalues --    3.21611   3.25405   3.30906   3.44788   9.70867
          Condensed to atoms (all electrons):
 Mulliken charges:
               1
     1  C    0.303838
     2  C    0.075294
     3  C   -0.075115
     4  C   -0.158955
     5  C   -0.184423
     6  C    0.327595
     7  C    0.067251
     8  C   -0.163280
     9  C   -0.131757
    10  C   -0.150195
    11  H    0.227460
    12  H    0.198218
    13  H    0.177207
    14  H    0.209302
    15  H    0.186037
    16  H    0.177765
    17  N   -0.562517
    18  N   -0.567343
    19  Ir   0.013757
    20  O   -0.544407
    21  O   -0.520653
    22  O   -0.501148
    23  B    0.448105
    24  B    0.436853
    25  B    0.676530
    26  O   -0.499754
    27  O   -0.516826
    28  C    0.286440
    29  C    0.294043
    30  C    0.292756
    31  C    0.284078
    32  C    0.292726
    33  C    0.298946
    34  O   -0.511111
    35  C   -0.486228
    36  H    0.145821
    37  H    0.156065
    38  H    0.158114
    39  C   -0.504968
    40  H    0.168706
    41  H    0.153279
    42  H    0.164691
    43  C   -0.499944
    44  H    0.148303
    45  H    0.161306
    46  H    0.169561
    47  C   -0.504680
    48  H    0.163545
    49  H    0.186033
    50  H    0.143112
    51  C   -0.505025
    52  H    0.160325
    53  H    0.170471
    54  H    0.150681
    55  C   -0.512855
    56  H    0.175234
    57  H    0.179907
    58  H    0.147229
    59  C   -0.509879
    60  H    0.147023
    61  H    0.155004
    62  H    0.175916
    63  C   -0.507688
    64  H    0.170818
    65  H    0.168926
    66  H    0.147763
    67  C   -0.513349
    68  H    0.175529
    69  H    0.167932
    70  H    0.154124
    71  C   -0.507703
    72  H    0.228004
    73  H    0.152157
    74  H    0.149247
    75  C   -0.524991
    76  H    0.155672
    77  H    0.157007
    78  H    0.216727
    79  C   -0.500300
    80  H    0.161010
    81  H    0.166123
    82  H    0.157563
    83  H    0.014735
    84  C    0.597017
    85  O   -0.534175
    86  C   -0.413743
    87  H    0.164273
    88  H    0.182577
    89  C   -0.373273
    90  H    0.186344
    91  H    0.164007
    92  N   -0.395241
    93  C   -0.365034
    94  H    0.160918
    95  H    0.156759
    96  H    0.200523
    97  C   -0.261328
    98  H    0.138281
    99  H    0.154699
   100  C   -0.271368
   101  H    0.125862
   102  H    0.131738
   103  C   -0.280529
   104  H    0.147700
   105  H    0.144326
   106  C   -0.495849
   107  H    0.163202
   108  H    0.157476
   109  H    0.160768
   110  C    0.974568
   111  F   -0.309874
   112  F   -0.306898
   113  F   -0.317788
   114  H    0.181291
 Sum of Mulliken charges =  -0.00000
 Mulliken charges with hydrogens summed into heavy atoms:
               1
     1  C    0.303838
     2  C    0.302755
     3  C   -0.075115
     4  C    0.039263
     5  C   -0.007216
     6  C    0.327595
     7  C    0.276553
     8  C    0.018011
     9  C    0.054280
    10  C    0.027570
    17  N   -0.562517
    18  N   -0.567343
    19  Ir   0.028492
    20  O   -0.544407
    21  O   -0.520653
    22  O   -0.501148
    23  B    0.448105
    24  B    0.436853
    25  B    0.676530
    26  O   -0.499754
    27  O   -0.516826
    28  C    0.286440
    29  C    0.294043
    30  C    0.292756
    31  C    0.284078
    32  C    0.292726
    33  C    0.298946
    34  O   -0.511111
    35  C   -0.026229
    39  C   -0.018292
    43  C   -0.020774
    47  C   -0.011990
    51  C   -0.023547
    55  C   -0.010484
    59  C   -0.031935
    63  C   -0.020182
    67  C   -0.015765
    71  C    0.021705
    75  C    0.004415
    79  C   -0.015604
    84  C    0.597017
    85  O   -0.534175
    86  C   -0.066893
    89  C   -0.022922
    92  N   -0.395241
    93  C    0.153167
    97  C    0.031652
   100  C   -0.013768
   103  C    0.011497
   106  C   -0.014403
   110  C    0.974568
   111  F   -0.309874
   112  F   -0.306898
   113  F   -0.317788
 APT charges:
               1
     1  C    0.153545
     2  C    0.054310
     3  C   -0.146657
     4  C    0.032720
     5  C   -0.154518
     6  C    0.243080
     7  C    0.084296
     8  C   -0.070265
     9  C    0.165127
    10  C   -0.200236
    11  H    0.120836
    12  H    0.062417
    13  H    0.045722
    14  H    0.091514
    15  H    0.032285
    16  H    0.049859
    17  N    0.004571
    18  N   -0.309800
    19  Ir  -0.466743
    20  O   -0.978397
    21  O   -1.013763
    22  O   -0.896409
    23  B    1.273169
    24  B    1.233955
    25  B    1.076542
    26  O   -0.868926
    27  O   -1.011546
    28  C    0.479086
    29  C    0.496736
    30  C    0.500214
    31  C    0.458977
    32  C    0.507711
    33  C    0.497605
    34  O   -0.950469
    35  C   -0.022160
    36  H   -0.004602
    37  H   -0.019564
    38  H   -0.002121
    39  C   -0.010725
    40  H    0.003308
    41  H   -0.016065
    42  H    0.000015
    43  C    0.000644
    44  H   -0.018366
    45  H   -0.000569
    46  H   -0.006303
    47  C   -0.030053
    48  H   -0.002814
    49  H    0.024708
    50  H   -0.028058
    51  C   -0.007561
    52  H    0.000423
    53  H    0.001583
    54  H   -0.019520
    55  C   -0.031634
    56  H    0.002821
    57  H    0.006958
    58  H   -0.026479
    59  C   -0.046221
    60  H   -0.023675
    61  H   -0.009319
    62  H    0.030250
    63  C   -0.007745
    64  H   -0.000202
    65  H    0.001948
    66  H   -0.017991
    67  C   -0.003225
    68  H    0.002979
    69  H   -0.005529
    70  H   -0.005427
    71  C   -0.048598
    72  H    0.070250
    73  H   -0.005905
    74  H   -0.015587
    75  C   -0.023760
    76  H   -0.013474
    77  H   -0.001101
    78  H    0.043022
    79  C   -0.028178
    80  H   -0.012490
    81  H    0.001700
    82  H   -0.000585
    83  H   -0.136500
    84  C    0.898297
    85  O   -0.724843
    86  C   -0.053062
    87  H   -0.007093
    88  H   -0.002739
    89  C    0.044725
    90  H    0.045280
    91  H   -0.041141
    92  N   -0.683006
    93  C    0.216657
    94  H   -0.010253
    95  H   -0.022993
    96  H    0.049472
    97  C    0.087782
    98  H   -0.025196
    99  H   -0.034320
   100  C    0.095150
   101  H   -0.046084
   102  H   -0.052301
   103  C    0.109022
   104  H   -0.057076
   105  H   -0.037356
   106  C    0.065878
   107  H   -0.032431
   108  H   -0.018729
   109  H   -0.019364
   110  C    1.750210
   111  F   -0.507301
   112  F   -0.591372
   113  F   -0.570281
   114  H    0.039414
 Sum of APT charges =  -0.00000
 APT charges with hydrogens summed into heavy atoms:
               1
     1  C    0.153545
     2  C    0.175146
     3  C   -0.146657
     4  C    0.095137
     5  C   -0.108796
     6  C    0.243080
     7  C    0.175811
     8  C   -0.030851
     9  C    0.197412
    10  C   -0.150377
    17  N    0.004571
    18  N   -0.309800
    19  Ir  -0.603243
    20  O   -0.978397
    21  O   -1.013763
    22  O   -0.896409
    23  B    1.273169
    24  B    1.233955
    25  B    1.076542
    26  O   -0.868926
    27  O   -1.011546
    28  C    0.479086
    29  C    0.496736
    30  C    0.500214
    31  C    0.458977
    32  C    0.507711
    33  C    0.497605
    34  O   -0.950469
    35  C   -0.048448
    39  C   -0.023466
    43  C   -0.024593
    47  C   -0.036216
    51  C   -0.025074
    55  C   -0.048335
    59  C   -0.048965
    63  C   -0.023990
    67  C   -0.011202
    71  C    0.000160
    75  C    0.004687
    79  C   -0.039553
    84  C    0.898297
    85  O   -0.724843
    86  C   -0.062894
    89  C    0.048865
    92  N   -0.683006
    93  C    0.232883
    97  C    0.028266
   100  C   -0.003235
   103  C    0.014590
   106  C   -0.004646
   110  C    1.750210
   111  F   -0.507301
   112  F   -0.591372
   113  F   -0.570281
 Electronic spatial extent (au):  <R**2>=          31071.3296
 Charge=              0.0000 electrons
 Dipole moment (field-independent basis, Debye):
    X=              1.9065    Y=             -2.7868    Z=             -2.1755  Tot=              4.0167
 Quadrupole moment (field-independent basis, Debye-Ang):
   XX=           -320.5182   YY=           -321.1776   ZZ=           -323.5498
   XY=              0.0480   XZ=             -2.9425   YZ=             19.9419
 Traceless Quadrupole moment (field-independent basis, Debye-Ang):
   XX=              1.2303   YY=              0.5710   ZZ=             -1.8013
   XY=              0.0480   XZ=             -2.9425   YZ=             19.9419
 Octapole moment (field-independent basis, Debye-Ang**2):
  XXX=            121.1720  YYY=             17.4723  ZZZ=           -110.7212  XYY=            -35.8890
  XXY=            -22.7147  XXZ=            -98.9048  XZZ=             -6.0458  YZZ=            -42.6684
  YYZ=           -124.1751  XYZ=              5.3431
 Hexadecapole moment (field-independent basis, Debye-Ang**3):
 XXXX=         -18407.6882 YYYY=         -12840.2681 ZZZZ=          -8910.1195 XXXY=            147.2473
 XXXZ=            -90.8214 YYYX=             10.2239 YYYZ=            324.2419 ZZZX=           -103.8411
 ZZZY=            149.6019 XXYY=          -4979.8605 XXZZ=          -4604.3926 YYZZ=          -3311.5166
 XXYZ=             85.2256 YYXZ=             30.3349 ZZXY=            -62.1125
 N-N= 9.382163543895D+03 E-N=-2.484297975343D+04  KE= 2.527416947006D+03
  Exact polarizability:     557.541      12.176     521.021     -23.563      46.604     433.780
 Approx polarizability:     816.195      37.016     757.864     -31.523      84.310     644.015
   1 Symmetry operations used in ECPInt.
 ECPInt:  NShTT=   57970 NPrTT=  353525 LenC2=   44262 LenP2D=  135671.
 LDataN:  DoStor=T MaxTD1= 8 Len=  415
 Calling FoFJK, ICntrl=    100127 FMM=F ISym2X=0 I1Cent= 0 IOpClX= 0 NMat=1 NMatS=1 NMatT=0.
 Defaulting to unpruned grid for atomic number  77.
 Defaulting to unpruned grid for atomic number  77.
 Defaulting to unpruned grid for atomic number  77.
 Defaulting to unpruned grid for atomic number  77.
 Defaulting to unpruned grid for atomic number  77.
 Defaulting to unpruned grid for atomic number  77.
 Defaulting to unpruned grid for atomic number  77.
 Defaulting to unpruned grid for atomic number  77.
 Defaulting to unpruned grid for atomic number  77.
 Defaulting to unpruned grid for atomic number  77.
 Defaulting to unpruned grid for atomic number  77.
 Defaulting to unpruned grid for atomic number  77.
 Defaulting to unpruned grid for atomic number  77.
 Defaulting to unpruned grid for atomic number  77.
 Defaulting to unpruned grid for atomic number  77.
 Defaulting to unpruned grid for atomic number  77.
 Full mass-weighted force constant matrix:
 Low frequencies ---  -13.1074   -4.3653   -0.0005    0.0004    0.0008    5.5232
 Low frequencies ---   14.4196   19.1688   23.2641
 Diagonal vibrational polarizability:
      188.7015856      79.6144104      77.7475416
 Harmonic frequencies (cm**-1), IR intensities (KM/Mole), Raman scattering
 activities (A**4/AMU), depolarization ratios for plane and unpolarized
 incident light, reduced masses (AMU), force constants (mDyne/A),
 and normal coordinates:
                      1                      2                      3
                      A                      A                      A
 Frequencies --      8.9600                18.9731                23.0278
 Red. masses --      3.8139                 4.6548                 4.9512
 Frc consts  --      0.0002                 0.0010                 0.0015
 IR Inten    --      0.3199                 0.3676                 0.0172
  Atom AN      X      Y      Z        X      Y      Z        X      Y      Z
     1   6     0.00   0.01  -0.00    -0.04   0.01   0.01     0.00   0.01   0.01
     2   6    -0.01  -0.00   0.00    -0.03   0.03  -0.01     0.02   0.01   0.03
     3   6    -0.00  -0.01   0.01    -0.03   0.03   0.01     0.02  -0.00   0.06
     4   6     0.01  -0.01   0.01    -0.04   0.02   0.02     0.01  -0.01   0.07
     5   6     0.01  -0.00   0.00    -0.04   0.01   0.02     0.00  -0.00   0.04
     6   6     0.00   0.02  -0.01    -0.04  -0.02   0.03    -0.01   0.02  -0.03
     7   6    -0.00   0.03  -0.01    -0.03  -0.05   0.05    -0.01   0.02  -0.05
     8   6     0.01   0.04  -0.01    -0.03  -0.06   0.08    -0.02   0.03  -0.09
     9   6     0.02   0.03  -0.01    -0.04  -0.05   0.08    -0.03   0.04  -0.10
    10   6     0.01   0.02  -0.00    -0.04  -0.03   0.06    -0.02   0.03  -0.07
    11   1    -0.01  -0.00   0.00    -0.02   0.04  -0.02     0.03   0.01   0.02
    12   1     0.01  -0.02   0.01    -0.04   0.03   0.03     0.01  -0.02   0.09
    13   1     0.02  -0.01   0.01    -0.05   0.01   0.03    -0.01  -0.01   0.05
    14   1    -0.01   0.04  -0.01    -0.02  -0.05   0.05    -0.01   0.01  -0.04
    15   1     0.02   0.03  -0.00    -0.05  -0.06   0.10    -0.04   0.05  -0.13
    16   1     0.02   0.01  -0.00    -0.05  -0.02   0.07    -0.03   0.04  -0.08
    17   7    -0.00   0.01  -0.00    -0.03   0.02  -0.01     0.01   0.01   0.00
    18   7    -0.00   0.02  -0.01    -0.03  -0.03   0.03    -0.00   0.01  -0.02
    19  77    -0.01   0.02  -0.01    -0.02  -0.01  -0.01     0.01   0.00   0.00
    20   8     0.00  -0.00   0.01    -0.02  -0.00  -0.01    -0.03   0.04  -0.04
    21   8    -0.04   0.02  -0.00     0.03   0.01   0.02     0.02   0.00   0.01
    22   8     0.08  -0.04  -0.01     0.06  -0.02  -0.02    -0.00  -0.01   0.00
    23   5    -0.03   0.01  -0.00     0.01   0.02  -0.00     0.03   0.00  -0.03
    24   5    -0.00   0.02  -0.01    -0.02  -0.01  -0.01    -0.01   0.01  -0.01
    25   5     0.00  -0.01  -0.02     0.02   0.02  -0.03    -0.02  -0.01  -0.00
    26   8    -0.02   0.00  -0.00    -0.03   0.06  -0.04    -0.04  -0.01   0.01
    27   8     0.00   0.05  -0.04    -0.02  -0.02   0.00    -0.03  -0.01   0.02
    28   6     0.01   0.03  -0.02    -0.02  -0.03   0.01    -0.04  -0.00   0.01
    29   6     0.02   0.00   0.00    -0.03  -0.02  -0.00    -0.05   0.02  -0.03
    30   6     0.12  -0.08   0.05     0.05   0.01  -0.01     0.00  -0.00   0.03
    31   6     0.04  -0.03   0.01    -0.03   0.06  -0.05    -0.03  -0.00   0.03
    32   6    -0.05   0.00   0.01     0.04   0.03   0.02     0.04   0.01  -0.02
    33   6    -0.04  -0.01   0.02     0.04   0.04  -0.02     0.04   0.00  -0.10
    34   8    -0.03  -0.00   0.01     0.02   0.04  -0.03     0.05   0.01  -0.09
    35   6     0.06  -0.00   0.00    -0.03  -0.04  -0.02    -0.10   0.02  -0.04
    36   1     0.07   0.01  -0.01    -0.04  -0.04  -0.04    -0.10   0.01  -0.03
    37   1     0.07   0.00  -0.00    -0.04  -0.06  -0.02    -0.13   0.01  -0.04
    38   1     0.06  -0.02   0.02    -0.04  -0.03  -0.04    -0.10   0.03  -0.08
    39   6     0.00  -0.02   0.02    -0.02  -0.02   0.01    -0.04   0.04  -0.05
    40   1     0.01  -0.04   0.03    -0.02  -0.02   0.00    -0.05   0.06  -0.06
    41   1     0.01  -0.02   0.02    -0.02  -0.04   0.01    -0.05   0.04  -0.05
    42   1    -0.02  -0.02   0.02    -0.02  -0.02   0.02    -0.02   0.04  -0.06
    43   6     0.03   0.04  -0.04    -0.03  -0.04   0.01    -0.07  -0.02   0.03
    44   1     0.03   0.01  -0.02    -0.04  -0.05   0.02    -0.08  -0.01   0.02
    45   1     0.07   0.04  -0.06    -0.03  -0.05  -0.00    -0.11  -0.02   0.04
    46   1     0.02   0.08  -0.05    -0.03  -0.04   0.02    -0.06  -0.05   0.05
    47   6    -0.03   0.04  -0.01    -0.01  -0.02   0.03     0.00  -0.01   0.01
    48   1    -0.04   0.06  -0.03    -0.01  -0.03   0.03     0.01  -0.03   0.04
    49   1    -0.05   0.03   0.00    -0.01  -0.01   0.02     0.03   0.01  -0.00
    50   1    -0.03   0.03  -0.00    -0.01  -0.03   0.03    -0.00   0.00   0.00
    51   6    -0.06   0.00   0.01     0.04   0.02   0.04    -0.00  -0.01   0.01
    52   1    -0.05   0.00   0.01     0.02   0.00   0.04    -0.05  -0.04  -0.01
    53   1    -0.06   0.01  -0.00     0.05   0.01   0.07    -0.01  -0.00   0.06
    54   1    -0.07  -0.00   0.01     0.06   0.03   0.04     0.01  -0.01  -0.01
    55   6    -0.07   0.01   0.00     0.07   0.06   0.04     0.10   0.05   0.01
    56   1    -0.07   0.02  -0.01     0.07   0.05   0.06     0.09   0.06   0.07
    57   1    -0.07   0.01  -0.00     0.08   0.07   0.02     0.14   0.06  -0.00
    58   1    -0.08   0.00   0.01     0.09   0.07   0.04     0.12   0.06  -0.00
    59   6    -0.03  -0.01   0.03     0.01   0.02  -0.03    -0.02  -0.03  -0.13
    60   1    -0.04  -0.02   0.03     0.01   0.02  -0.02    -0.04  -0.04  -0.14
    61   1    -0.02  -0.02   0.03     0.01   0.02  -0.06    -0.01  -0.05  -0.18
    62   1    -0.02  -0.01   0.02    -0.00   0.01  -0.02    -0.06  -0.04  -0.10
    63   6    -0.06  -0.02   0.03     0.06   0.08  -0.03     0.10   0.03  -0.14
    64   1    -0.07  -0.01   0.02     0.07   0.09  -0.03     0.15   0.05  -0.12
    65   1    -0.05  -0.03   0.04     0.05   0.09  -0.06     0.09   0.04  -0.20
    66   1    -0.07  -0.02   0.03     0.08   0.09  -0.02     0.11   0.03  -0.14
    67   6     0.01  -0.01   0.08    -0.07   0.14  -0.02    -0.04   0.01   0.05
    68   1    -0.05   0.02   0.05    -0.13   0.18  -0.05    -0.07   0.01   0.05
    69   1    -0.01  -0.00   0.16    -0.04   0.18   0.04    -0.04   0.02   0.07
    70   1     0.06  -0.05   0.10    -0.07   0.13  -0.02    -0.03   0.01   0.06
    71   6     0.05  -0.05  -0.09    -0.09   0.01  -0.12    -0.04  -0.01   0.01
    72   1     0.08  -0.07  -0.16    -0.06  -0.05  -0.15    -0.03  -0.02  -0.01
    73   1    -0.03  -0.02  -0.12    -0.16   0.03  -0.14    -0.07  -0.02   0.01
    74   1     0.09  -0.06  -0.08    -0.09   0.01  -0.12    -0.03  -0.00   0.03
    75   6     0.24  -0.13   0.01     0.07  -0.05  -0.04     0.03  -0.00   0.03
    76   1     0.26  -0.15   0.04     0.06  -0.03  -0.04     0.02   0.00   0.04
    77   1     0.28  -0.16   0.04     0.13  -0.08  -0.01     0.05  -0.00   0.03
    78   1     0.26  -0.10  -0.08     0.06  -0.08  -0.10     0.02  -0.01   0.01
    79   6     0.10  -0.10   0.18     0.08   0.05   0.08     0.01   0.00   0.05
    80   1     0.12  -0.13   0.22     0.07   0.08   0.10     0.01   0.01   0.07
    81   1     0.02  -0.06   0.21     0.06   0.10   0.11    -0.01   0.01   0.06
    82   1     0.14  -0.14   0.20     0.14   0.01   0.10     0.03   0.00   0.05
    83   1    -0.01   0.02  -0.02     0.00  -0.03  -0.00     0.02  -0.00   0.01
    84   6    -0.02   0.00  -0.01     0.08  -0.05   0.01    -0.04   0.01  -0.04
    85   8    -0.02  -0.01  -0.00     0.11  -0.08   0.05    -0.06   0.03  -0.06
    86   6    -0.02   0.00  -0.01     0.05  -0.04  -0.03    -0.03  -0.01  -0.00
    87   1    -0.01   0.01  -0.02     0.03  -0.01  -0.02    -0.00  -0.01  -0.01
    88   1    -0.03  -0.00  -0.02     0.05  -0.05  -0.05    -0.05  -0.01   0.01
    89   6    -0.04   0.03  -0.05     0.03   0.01  -0.02    -0.02  -0.02  -0.01
    90   1    -0.04   0.04  -0.11     0.02  -0.00  -0.05    -0.02  -0.02   0.01
    91   1    -0.09   0.05  -0.02     0.02   0.05  -0.01    -0.01  -0.05  -0.02
    92   7    -0.03   0.01  -0.03     0.07  -0.02   0.01    -0.04  -0.01  -0.04
    93   6    -0.02   0.00  -0.01     0.09  -0.01   0.05    -0.05  -0.00  -0.07
    94   1    -0.03  -0.02  -0.02     0.10  -0.03   0.04    -0.06   0.01  -0.06
    95   1    -0.02   0.03  -0.01     0.08   0.03   0.06    -0.04  -0.02  -0.08
    96   1    -0.02  -0.01   0.02     0.11  -0.02   0.07    -0.06   0.00  -0.08
    97   6    -0.02  -0.00   0.00     0.06  -0.05  -0.05    -0.02  -0.02   0.03
    98   1    -0.03  -0.01   0.01     0.08  -0.06  -0.05    -0.05  -0.01   0.03
    99   1    -0.01  -0.00   0.00     0.06  -0.04  -0.03     0.01  -0.03   0.01
   100   6    -0.01  -0.00   0.01     0.04  -0.05  -0.08    -0.00  -0.05   0.07
   101   1    -0.02  -0.00   0.01     0.04  -0.05  -0.08    -0.05  -0.05   0.06
   102   1    -0.01  -0.01   0.03     0.05  -0.05  -0.10    -0.00  -0.08   0.13
   103   6     0.01  -0.00   0.01    -0.01  -0.05  -0.08     0.07  -0.02   0.07
   104   1     0.01  -0.00   0.01    -0.01  -0.04  -0.07     0.14  -0.01   0.08
   105   1     0.01  -0.01   0.00    -0.02  -0.04  -0.05     0.06   0.03   0.02
   106   6     0.02   0.00   0.03    -0.03  -0.05  -0.12     0.08  -0.07   0.13
   107   1     0.03   0.00   0.03    -0.06  -0.04  -0.12     0.14  -0.05   0.12
   108   1     0.02   0.01   0.03    -0.02  -0.05  -0.13     0.01  -0.09   0.12
   109   1     0.01   0.01   0.04    -0.02  -0.06  -0.14     0.09  -0.12   0.19
   110   6    -0.00  -0.02   0.00    -0.02   0.03   0.03     0.03  -0.01   0.08
   111   9    -0.01  -0.02   0.01     0.01   0.03   0.03     0.04   0.05   0.03
   112   9    -0.01  -0.03   0.01    -0.03   0.04   0.05    -0.04  -0.08   0.07
   113   9     0.00  -0.03   0.00    -0.01   0.03   0.05     0.07  -0.03   0.16
   114   1     0.01   0.04  -0.01    -0.03  -0.08   0.09    -0.03   0.04  -0.11
[...]
 4,-0.00000006,0.00144177,0.00073083,0.00036436,0.00008312,0.00000689,-
 0.00000916,-0.00015941,0.00002231,0.00006022,-0.00016773,0.00018443,0.
 00064465,0.00004437,0.00027895,0.00006035,0.00007569,-0.00002049,0.000
 11732,-0.00012988,-0.00032142,-0.00007550,0.00013455,-0.00041561,-0.00
 079783,-0.00001609,0.00004412,-0.00017732,0.00001959,0.00000930,0.0000
 6926,0.00003344,0.00019699,0.00044075,0.00011436,-0.00008564,-0.000120
 85,-0.00001713,-0.00000124,-0.00035146,-0.00004903,-0.00001421,-0.0000
 0995,-0.00001232,0.00000538,-0.00002167,-0.00000171,-0.00008855,0.0000
 3102,0.00004809,-0.00015299,-0.00006278,0.00013639,0.00024939,0.000030
 46,0.00010321,0.00001513,0.00005813,-0.00000199,0.00000627,-0.00001339
 ,-0.00000574,-0.00001056,0.00002956,-0.00004778,-0.00000578,-0.0000112
 1,0.00007613,0.00003989,0.00003045,-0.00004769,0.00000642,-0.00000304,
 -0.00001328,0.00000950,0.00002074,-0.00001256,-0.00003482,0.00000041,-
 0.00000897,0.00001706,0.00001406,0.00000399,0.00001451,0.00002216,0.00
 001596,-0.00001506,-0.00000189,-0.00000628,-0.00001165,0.00000097,-0.0
 0004370,0.00001160,0.00001880,-0.00000763,-0.00001309,-0.00000021,0.00
 000839,-0.00001589,-0.00001483,0.00000076,0.00002355,0.00001539,0.0000
 2074,0.00001575,-0.00001907,-0.00000988,-0.00000807,0.00000252,0.00001
 624,0.00001481,0.00000126,-0.00000875,0.00000027,0.00000050,0.00000920
 ,0.00001517,-0.00000224,0.00001768,0.00000620,0.00000180,-0.00001217,0
 .00000204,0.00001599,-0.00000906,-0.00000211,-0.00000498,-0.00013278,-
 0.00010444,0.00011802,0.00000647,0.00004563,-0.00000454,-0.00001291,-0
 .00000626,-0.00023648,0.00007879,0.00006421,-0.00001591,-0.00012587,-0
 .00006135,0.00002045,0.00002184,0.00000520,0.00000816,0.00005072,-0.00
 002453,0.00004091,0.00001177,0.00004563,-0.00000207,0.00000085,-0.0000
 0475,0.00000679,-0.00000059,0.00000554,0.00000413,0.00000530,-0.000004
 65,-0.00000067,-0.00000180,-0.00000105,-0.00000164,-0.00000605,-0.0000
 0371,-0.00000030,-0.00001004,-0.00001326,-0.00001681,0.00000733,0.0000
 0569,0.00001163,0.00000028,-0.00000161,-0.00000140,-0.00000251,0.00001
 411,-0.00000750,0.00001442,0.00000270,0.00000575,-0.00000970,0.0000019
 7,0.00000872,-0.00001501,-0.00002158,0.00000240,0.00000376,-0.00000493
 ,-0.00000038,0.00000565,0.00000305,-0.00000171,0.00000167,-0.00000432,
 0.00000674,-0.00000478,0.00000348,0.00000088,0.00019144,0.00009624,0.0
 0002306,0.00014593,-0.00008296,-0.00017877,-0.00008446,0.00000896,0.00
 019188,-0.00006972,0.00018579,0.00010416,0.00003205,-0.00002513,0.0000
 1948,0.00000316,-0.00003657,-0.00006597,-0.00003825,-0.00001389,0.0000
 1160,0.00000498,0.00002699,-0.00003988,0.00001879,-0.00001643,0.000013
 89,-0.00011490,-0.00000527,0.00011077,0.00001516,-0.00000412,-0.000040
 66,-0.00003201,-0.00000698,0.00001230,-0.00000294,0.00000601,0.0000199
 3,0.00000236,0.00000562,-0.00001360,0.00002172,-0.00011796,-0.00025445
 ,0.00000471,0.00005627,0.00002136,-0.00004333,0.00000619,0.00004567,0.
 00036941,0.00026455,0.00029810,0.00021837,-0.00001253,0.00000318,-0.00
 108087,0.00017319,-0.00088055,-0.00002690,-0.00005672,0.00003291,-0.00
 001566,0.00004642,0.00000376,-0.00010884,-0.00001765,-0.00008133,0.000
 13808,0.00003807,0.00000470,-0.00010412,0.00002318,-0.00007232,0.00008
 593,0.00011601,0.00006834,-0.00008574,-0.00018719,0.00014268,0.0465517
 7,0.03722553,-0.09562484,-0.02742177,-0.03437065,0.00865438,0.01142901
 ,0.04632164,-0.01566736,-0.05293296,-0.06349201,0.10317825,0.00002544,
 0.00013203,-0.00025769,-0.00000826,-0.00000820,0.00000508,-0.00002350,
 0.00003640,0.00003650,0.00003859,-0.00000432,-0.00002507,-0.00009743,-
 0.00002298,0.00001633,0.00054371,-0.00057384,-0.00043902,-0.00263612,-
 0.00159837,-0.00009191,-0.30864249,0.05068447,0.07795370,-0.01515930,0
 .00721050,0.00666051,-0.00087557,-0.00394984,0.00007934,-0.00000414,-0
 .00000236,-0.00000302,-0.00000575,0.00000082,-0.00000194,0.00005434,0.
 00001830,0.00002768,0.00010810,0.00041092,-0.00051531,0.00071993,0.000
 42146,-0.00076532,-0.00072175,0.00044088,0.00035613,-0.00004891,0.0000
 3447,0.00002532,0.00176651,0.00063309,0.00161892,-0.00012131,-0.000257
 92,-0.00012400,-0.00002392,0.00004534,0.00011871,-0.00004549,0.0001304
 3,-0.00003433,0.00002336,-0.00005215,-0.00000638,0.00010943,-0.0001213
 1,0.00010354,0.00000481,-0.00003358,-0.00021933,-0.00003153,0.00003722
 ,0.00001345,0.00000654,-0.00001129,-0.00001018,0.00004574,0.00005344,0
 .00012806,0.00001120,-0.00003037,-0.00002707,-0.00001130,-0.00001261,-
 0.00004609,0.00001009,0.00001401,0.00003669,-0.00000963,0.00001399,-0.
 00000752,0.00003050,-0.00002878,0.00002578,0.00002193,-0.00004133,-0.0
 0000043,-0.00006565,0.00007066,-0.00003364,-0.00000051,0.00000492,0.00
 000889,-0.00000056,-0.00000024,-0.00000193,0.00000067,-0.00000126,0.00
 000662,0.00000108,-0.00000036,-0.00000256,0.00000091,-0.00000005,0.000
 00735,-0.00000090,-0.00000044,-0.00000191,-0.00000068,0.00000334,0.000
 00457,0.00000011,-0.00000135,-0.00000181,-0.00000276,0.00000697,0.0000
 0322,0.00000123,0.00000061,0.00000511,-0.00000155,-0.00000189,0.000000
 21,0.00000362,0.00000138,-0.00000038,-0.00000397,0.00000348,0.00000437
 ,0.00000243,0.00000003,-0.00000073,0.00000019,-0.00000474,-0.00000122,
 -0.00000080,0.00000490,0.00000262,-0.00000297,0.00000397,-0.00000595,0
 .00000059,-0.00000224,-0.00000103,0.00000304,0.00000153,0.00000119,-0.
 00000334,0.00000418,0.00000027,-0.00000523,0.00000671,-0.00000487,0.00
 000247,0.00000173,0.00000211,-0.00000195,-0.00000330,0.00000381,-0.000
 00227,0.00000365,-0.00000550,-0.00000494,0.00000514,0.00000008,-0.0000
 0333,0.00000567,0.00000116,0.00000431,-0.00000105,0.00000023,0.0000019
 9,-0.00000374,-0.00000295,-0.00000543,0.00000351,0.00000226,0.00000152
 ,-0.00000126,-0.00000112,0.00000106,-0.00000190,0.00000003,-0.00000299
 ,0.00000446,-0.00000172,0.00000026,-0.00000472,0.00000157,-0.00000196,
 0.00000050,-0.00000094,0.00000168,-0.00000028,-0.00000039,0.00000056,0
 .00000027,-0.00000058,-0.00000203,-0.00000203,0.00000329,-0.00000865,-
 0.00000245,0.00000165,-0.00000128,-0.00000010,-0.00000236,0.00000363,0
 .00000158,-0.00000086,-0.00000858,0.00001562,-0.00000119,0.00000415,-0
 .00000367,0.00000020,0.00000754,0.00001603,0.00000866,-0.00000776,-0.0
 0000513,0.00000430,-0.00000266,-0.00005413,-0.00005898,0.00000008,0.00
 000533,0.00001267,0.00000333,0.00001451,0.00001093,0.00007988,0.000102
 29,0.00011189,0.00003448,0.00000586,-0.00000608,-0.00017688,-0.0001250
 8,-0.00007349,0.00009629,0.00004635,0.00012476,0.00001564,0.00000520,-
 0.00000388,0.00000518,-0.00000090,0.00000514,0.00000544,-0.00000554,-0
 .00000783,0.00003582,0.00001087,0.00000452,0.00000206,0.00000024,-0.00
 001620,-0.00000302,-0.00000261,0.00000240,0.00017267,-0.00001416,-0.00
 005837,-0.00012653,0.00000169,0.00013815,0.00002932,0.00009008,0.00009
 449,0.00001996,0.00000128,-0.00004980,-0.00004226,-0.00002176,0.000073
 44,-0.00000291,-0.00000707,-0.00001529,0.00000296,0.00000432,0.0000036
 6,-0.00000047,-0.00000369,0.00000427,0.00000250,0.00000891,0.00000291,
 -0.00000010,-0.00000827,-0.00000092,0.00000440,0.00000147,-0.00000231,
 -0.00000042,-0.00000067,-0.00000330,-0.00000032,-0.00000328,0.00000283
 ,0.00000087,0.00000228,0.00000158,0.00000111,0.00000117,0.00000125,-0.
 00000024,0.00000045,0.00000366,0.00000038,-0.00000209,-0.00000114,-0.0
 0000010,0.00000005,-0.00000167,0.00010292,-0.00003911,-0.00003863,-0.0
 0002048,0.00001967,0.00002586,-0.00003436,0.00002203,-0.00000313,-0.00
 003503,-0.00000574,0.00001459,0.32487372,0.00028536,-0.00008510,0.0005
 2975,0.00002000,0.00002489,0.00000058,-0.00001741,-0.00001226,0.000005
 52,0.00004719,0.00005582,0.00003654,-0.00000126,-0.00006416,-0.0000768
 5,-0.00110534,-0.00168937,-0.00039602,0.02729159,0.00117846,-0.0054071
 9,0.05046251,-0.06556752,-0.02343428,-0.02077912,0.00873804,0.00678041
 ,-0.00359196,-0.00164948,-0.00289087,-0.00000727,-0.00000383,-0.000000
 65,0.00000383,-0.00000312,0.00000214,0.00003205,0.00004295,-0.00000454
 ,-0.00026267,0.00008851,0.00141555,0.00095391,0.00027181,0.00149279,-0
 .00105096,0.00032268,0.00030906,-0.00009144,-0.00008479,0.00001827,0.0
 0137700,-0.00408831,-0.00542976,0.00019558,0.00067793,0.00020843,0.000
 02399,-0.00003278,-0.00012660,0.00004314,-0.00012260,0.00004919,-0.000
 08761,-0.00000305,0.00019751,-0.00006292,0.00003654,-0.00018358,0.0000
 4093,-0.00008920,0.00021971,0.00012333,0.00003928,-0.00018781,-0.00003
 669,0.00000767,0.00009788,-0.00006703,-0.00004108,-0.00012858,-0.00000
 666,0.00002942,0.00001357,0.00001507,0.00001722,0.00003332,0.00005013,
 0.00001969,-0.00003134,0.00000600,-0.00003371,-0.00005029,-0.00003062,
 0.00001771,-0.00001257,-0.00001303,0.00002783,0.00000210,0.00006028,-0
 .00004256,0.00003402,-0.00000304,-0.00000728,-0.00001041,0.00000044,0.
 00000071,0.00000135,0.00000052,0.00000292,-0.00000592,-0.00000077,-0.0
 0000030,0.00000116,-0.00000388,-0.00000016,-0.00000662,0.00000024,-0.0
 0000003,0.00000088,0.00000199,-0.00000286,-0.00000352,0.00000046,0.000
 00075,0.00000150,0.00000854,-0.00000469,-0.00000403,-0.00000424,0.0000
 0027,-0.00000387,0.00000212,0.00000111,-0.00000121,-0.00000530,-0.0000
 0436,-0.00000154,0.00000716,-0.00000105,-0.00000311,-0.00000311,-0.000
 00303,-0.00000061,-0.00000032,0.00000438,0.00000136,-0.00000113,-0.000
 00359,-0.00000088,0.00000392,-0.00000152,0.00000580,-0.00000052,0.0000
 0154,0.00000072,-0.00000193,-0.00000168,-0.00000072,0.00000176,-0.0000
 0369,-0.00000089,0.00000952,-0.00000675,0.00000443,-0.00000178,-0.0000
 0332,-0.00000235,0.00000259,0.00000369,-0.00000191,-0.00000027,-0.0000
 0255,0.00000597,-0.00000007,-0.00000631,-0.00000034,0.00000290,-0.0000
 0204,-0.00000126,0.00000004,0.00000088,0.00000041,-0.00000260,0.000002
 50,0.00000187,0.00000244,-0.00000419,-0.00000242,-0.00000078,0.0000007
 0,0.00000098,0.00000058,0.00000060,0.00000045,0.00000255,-0.00000194,0
 .00000166,-0.00000685,0.00001010,0.00001102,0.00000105,0.00000808,0.00
 000838,-0.00000411,-0.00000072,-0.00000816,-0.00000326,-0.00000634,-0.
 00000213,0.00000129,0.00000775,0.00001668,0.00001726,0.00000029,-0.000
 00841,-0.00000080,0.00000948,0.00001265,-0.00000567,-0.00000750,-0.000
 00115,0.00002035,-0.00007804,-0.00008796,-0.00000015,0.00002131,0.0000
 2490,-0.00002445,0.00001182,0.00004712,0.00000906,0.00001567,0.0000068
 3,-0.00000546,-0.00009170,-0.00008602,-0.00000047,0.00001988,0.0000167
 0,0.00000566,0.00001831,0.00003601,-0.00001766,0.00006843,0.00003684,-
 0.00005074,-0.00001183,0.00004233,0.00007229,0.00002595,0.00002780,0.0
 0000064,-0.00005862,0.00002265,-0.00001058,0.00000009,-0.00000208,0.00
 000208,0.00000314,-0.00000378,-0.00000864,0.00000579,0.00001076,-0.000
 00313,0.00000187,0.00001893,-0.00000215,-0.00001393,0.00000279,-0.0000
 0320,-0.00000426,0.00000206,-0.00010506,-0.00002572,0.00003594,0.00007
 209,0.00006118,-0.00014790,0.00001035,0.00006265,0.00003227,-0.0000088
 5,-0.00001401,0.00000422,-0.00004239,-0.00004222,0.00006188,-0.0000020
 5,0.00000480,-0.00000565,0.00000095,-0.00000328,-0.00000040,0.00000090
 ,0.00000051,-0.00000012,0.00000010,-0.00000366,0.00000165,-0.00000125,
 0.00000076,-0.00000068,0.00000018,0.00000111,0.00000003,-0.00000055,0.
 00000160,-0.00000038,0.00000011,0.00000002,-0.00000008,0.00000034,-0.0
 0000058,0.00000043,0.00000018,-0.00000077,0.00000074,-0.00000012,0.000
 00024,-0.00000004,-0.00000038,0.00000016,-0.00000003,0.00000004,0.0000
 0036,-0.00000012,0.00000321,0.00000118,-0.00001637,0.00000172,0.000002
 48,0.00000461,-0.00000667,0.00000432,0.00000148,0.00000398,0.00000249,
 -0.00000079,-0.05374714,0.06204912,-0.00022690,0.00059977,-0.00114852,
 -0.00009297,-0.00001573,0.00004440,0.00004088,0.00007562,0.00002798,0.
 00006774,-0.00004538,-0.00007438,-0.00010142,-0.00000963,0.00006348,-0
 .00075217,-0.00060303,-0.00041561,0.01183188,0.00079411,-0.00160246,0.
 07796616,-0.02354056,-0.06077025,-0.00496569,0.00110696,0.00409707,0.0
 0041621,-0.00304775,0.00604579,-0.00000108,-0.00000389,-0.00000079,0.0
 0000010,0.00000421,-0.00000856,0.00001115,-0.00003345,0.00005872,-0.00
 064341,0.00141512,-0.00240691,-0.00055886,0.00154655,-0.00304238,-0.00
 027607,0.00003032,0.00022242,0.00003633,-0.00005892,-0.00008353,0.0021
 6147,-0.00519770,0.00563156,0.00020984,0.00023400,0.00014240,0.0000103
 1,-0.00002996,-0.00012083,0.00004216,-0.00008643,0.00003107,-0.0001671
 6,0.00007404,-0.00000897,-0.00012450,0.00003734,-0.00013458,0.00009388
 ,0.00000625,0.00017853,0.00004010,-0.00012328,-0.00004047,0.00001591,0
 .00006320,0.00000854,-0.00006860,-0.00000784,-0.00009212,-0.00000074,0
 .00000058,0.00001920,0.00001838,0.00000991,0.00004366,0.00005291,-0.00
 005202,-0.00000821,-0.00001452,-0.00003090,-0.00000811,-0.00001973,0.0
 0000660,-0.00000845,-0.00001189,0.00001478,0.00000959,0.00004032,-0.00
 001912,0.00001114,0.00000307,-0.00000892,-0.00000988,-0.00000320,0.000
 00167,0.00000118,-0.00000003,0.00000419,-0.00000505,-0.00000017,-0.000
 00060,0.00000107,-0.00000390,0.00000008,-0.00000910,0.00000003,-0.0000
 0060,0.00000185,0.00000171,-0.00000309,-0.00000351,-0.00000006,0.00000
 370,0.00000057,0.00000287,-0.00000573,0.00000159,-0.00000308,0.0000014
 6,-0.00000211,0.00000268,0.00000398,-0.00000424,-0.00000381,-0.0000041
 4,-0.00000121,0.00000625,-0.00000091,-0.00000557,-0.00000110,-0.000002
 05,0.00000033,-0.00000174,0.00000444,0.00000124,-0.00000075,-0.0000026
 7,-0.00000030,0.00000424,-0.00000164,0.00000398,0.00000122,0.00000043,
 -0.00000195,-0.00000132,-0.00000097,0.00000073,0.00000071,-0.00000287,
 -0.00000120,0.00000625,-0.00000053,0.00000184,-0.00000055,-0.00000015,
 0.00000019,-0.00000047,-0.00000165,-0.00000102,0.,-0.00000147,0.000002
 79,0.00000069,-0.00000196,-0.00000142,0.00000163,-0.00000192,-0.000000
 68,0.00000058,0.00000101,0.00000054,-0.00000191,0.00000101,0.00000102,
 0.00000072,-0.00000238,-0.00000028,0.00000010,0.00000076,-0.00000165,0
 .00000042,0.00000107,0.00000072,0.00000130,-0.00000174,0.00000069,-0.0
 0000073,0.00000323,0.00000502,-0.00000219,0.00000552,0.00000566,-0.000
 00836,0.00000171,-0.00000941,0.00000227,-0.00000166,-0.00000228,-0.000
 00046,0.00000635,0.00001208,0.00000857,-0.00000049,-0.00000178,-0.0000
 0278,0.00000734,0.00000457,0.,0.00000387,-0.00000251,-0.00000482,0.000
 00373,-0.00001694,0.00000188,0.00001078,0.00000542,0.00000264,-0.00001
 401,0.00002609,-0.00000193,0.00001457,-0.00000008,-0.00000062,-0.00007
 081,-0.00009976,0.00000570,0.00004064,0.00002478,-0.00000778,0.0000048
 2,-0.00001060,-0.00003613,0.00001084,0.00007260,-0.00006899,0.00004589
 ,0.00003124,0.00030285,0.00018909,0.00012950,-0.00011527,-0.00002058,-
 0.00016753,-0.00003935,-0.00000137,0.00000784,-0.00000453,0.00000045,-
 0.00000227,-0.00001806,0.00000707,0.00001625,-0.00007909,-0.00003261,-
 0.00003064,-0.00000610,0.00000322,0.00002989,0.00001279,0.00000309,0.0
 0000241,-0.00036019,0.00010234,0.00006602,0.00037051,0.00000135,-0.000
 27103,-0.00010262,-0.00032809,-0.00000898,-0.00004955,-0.00000878,0.00
 013390,0.00008830,0.00009964,-0.00007707,0.00000288,0.00002155,0.00001
 460,-0.00000131,-0.00000827,-0.00000319,0.00000183,0.00000219,-0.00000
 634,0.00000190,-0.00001259,-0.00000296,-0.00000011,0.00000577,0.000002
 89,-0.00001013,-0.00000056,0.00000247,-0.00000197,0.00000381,-0.000000
 18,0.00000097,0.00000251,-0.00000161,-0.00000128,-0.00000396,-0.000002
 42,0.00000118,-0.00000278,0.00000127,-0.00000074,0.00000058,0.00000130
 ,-0.00000061,0.00000263,-0.00000039,-0.00000187,-0.00000041,0.,0.00000
 767,-0.00002336,0.00005351,-0.00000452,0.00000623,-0.00000889,0.000005
 93,0.00000105,-0.00000940,0.00000105,0.00000466,-0.00000754,-0.0849292
 3,0.02682219,0.05346290\\0.00000551,-0.00000382,-0.00000081,0.00000652
 ,0.00000006,0.00000007,-0.00000211,-0.00000324,-0.00000057,0.00000231,
 -0.00000755,0.00000023,0.00000588,-0.00000008,-0.00000229,-0.00000017,
 0.00000045,0.00000118,0.00000143,0.00000829,0.00000315,0.00000236,-0.0
 0000491,-0.00000410,0.00000094,0.00000455,0.00000027,0.00001110,-0.000
 00021,-0.00000257,-0.00000052,-0.00000385,-0.00000009,0.00000282,-0.00
 000332,-0.00000074,0.00000331,-0.00000128,0.00000009,-0.00000049,0.000
 00153,-0.00000080,0.00000494,0.00000376,0.00000017,0.00000224,-0.00000
 236,-0.00000135,-0.00000194,-0.00000096,-0.00000095,0.00000505,0.00000
 212,-0.00000122,-0.00000197,0.00000278,0.00000179,-0.00000309,-0.00000
 089,0.00000090,-0.00000386,0.00000559,-0.00000038,0.00000130,0.0000042
 9,-0.00000022,0.00000167,-0.00000707,0.00000176,-0.00000089,-0.0000031
 2,-0.00000587,0.00000228,0.00000501,-0.00000084,-0.00000066,0.00000306
 ,0.00000044,0.00000037,0.00000130,0.00000174,-0.00000390,-0.00000337,0
 .00000355,-0.00000381,-0.00000051,-0.00000089,-0.00000221,0.00000293,-
 0.00000091,-0.00000359,0.00000656,0.00000416,-0.00000293,-0.00000497,0
 .00000013,-0.00000011,-0.00000347,0.00000202,-0.00000393,0.00000069,-0
 .00000082,0.00000206,-0.00000245,0.00000538,-0.00000129,-0.00000015,-0
 .00000004,-0.00000140,-0.00000248,-0.00000308,0.00000074,-0.00000255,-
 0.00000067,0.00000210,0.00000140,0.00000017,-0.00000525,-0.00000535,0.
 00000008,-0.00000286,-0.00000281,-0.00000030,-0.00000389,-0.00000317,0
 .00000153,0.00000130,0.00000661,-0.00000075,-0.00000258,-0.00000024,0.
 00000006,-0.00000114,-0.00000379,0.00000148,-0.00000355,0.00000120,0.0
 0000028,-0.00000277,0.00000687,-0.00000142,-0.00000471,0.00000110,0.00
 000165,-0.00000316,-0.00000079,0.00000282,-0.00000336,-0.00000213,-0.0
 0000119,-0.00000572,0.00000009,0.00000343,-0.00000464,-0.00000215,-0.0
 0000028,-0.00000465,0.00000022,0.00000074,-0.00000472,-0.00000269,0.00
 000096,-0.00000929,-0.00000335,0.00000046,-0.00000030,0.00000223,0.000
 00075,-0.00000212,0.00000033,0.00000083,-0.00000415,-0.00000059,0.0000
 0114,-0.00000377,-0.00000025,0.00000365,-0.00000155,-0.00000697,0.0000
 0056,-0.00000214,-0.00000436,0.00000060,-0.00000454,-0.00000226,-0.000
 00259,-0.00000118,-0.00000589,-0.00000301,-0.00000452,-0.00000162,0.00
 000320,-0.00000145,-0.00000232,0.00000019,-0.00000494,-0.00000265,0.00
 000048,0.00000004,0.00000516,-0.00000323,-0.00000268,0.00000591,0.0000
 0183,0.00000010,0.00000576,0.00000082,-0.00000148,0.00000652,0.0000006
 3,-0.00000495,-0.00000222,0.00000043,-0.00000201,0.00000355,0.00000060
 ,-0.00000227,0.00000419,0.00000180,-0.00000071,0.00000810,-0.00000222,
 0.00000073,0.00000617,-0.00000150,-0.00000213,0.00000462,0.00000045,-0
 .00000022,0.00000592,0.00000148,-0.00000130,0.00000318,0.00000053,-0.0
 0000200,0.00000347,-0.00000310,0.00000326,0.00000856,-0.00000029,0.000
 00165,0.00000558,0.00000166,0.00000157,0.00000688,0.00000043,-0.000000
 51,0.00000159,0.00000016,0.00000465,0.00001000,0.00000280,0.00000487,-
 0.00000419,-0.00000347,0.00000381,-0.00000362,-0.00000349,0.00000296,0
 .00000055,0.00000263,0.00000151,-0.00000016,-0.00000069,0.00000461,0.0
 0000510,-0.00000038,-0.00000002,0.00000127,-0.00000077,0.00000280,0.00
 000160,0.00000250,-0.00000287,-0.00000742,-0.00000434,-0.00000028,0.00
 000722,-0.00000204,0.00000383,0.00000263,0.00000009,0.00000697,0.00000
 320,0.00000101,0.00000399,0.00000216,-0.00000074,-0.00000022,-0.000003
 01,0.00000002,0.00000387,-0.00000116,0.00000129,0.00000410,0.00000104,
 -0.00000163,0.00000486,-0.00000784,-0.00000461,0.00000133,-0.00000021,
 -0.00000142,0.00000454,-0.00000309,0.00000049,-0.00000095,-0.00000461,
 0.00000020,0.00000348,-0.00000344,-0.00000036,0.00000509,-0.00000068,0
 .00000058,0.00000218,-0.00000720,-0.00000331,0.00000218,-0.00000392,0.
 00000349,0.00000084,-0.00000315,-0.00000054,0.00000314,-0.00000498,-0.
 00000078,0.00000473,-0.00000246,0.00000110,-0.00000124,-0.00000648,-0.
 00000266,0.00000022,-0.00000498,0.00000029,0.00000031,-0.00000699,0.00
 000080,0.00000320,0.00000484,0.00000008\\\@
 The archive entry for this job was punched.


 WE DON'T KNOW ONE MILLIONTH OF ONE PERCENT ABOUT
 ANYTHING.
                                     T. A. EDISON.
 Job cpu time:       2 days  3 hours 12 minutes 45.8 seconds.
 Elapsed time:       0 days  3 hours 15 minutes 38.8 seconds.
 File lengths (MBytes):  RWF=  10098 Int=      0 D2E=      0 Chk=     55 Scr=      1
 Normal termination of Gaussian 16 at Sat Dec  7 22:04:43 2024.
