/mnt/lustre/scratch/nvme/SLURM/9663730/usccqdma.Y0g6JBuP3G
OMP_STACKSIZE=0m
GAUSS_PDEF=16
GAUSS_MDEF=65536MB
GAUSS_RDEF=SCF=Direct
 Entering Gaussian System, Link 0=g16.exe
 Initial command:
 /opt/cesga/2020/software/Core/g16/c1/l1.exe "/mnt/lustre/scratch/nvme/SLURM/9663730/usccqdma.Y0g6JBuP3G/Gau-1474555.inp" -scrdir="/mnt/lustre/scratch/nvme/SLURM/9663730/usccqdma.Y0g6JBuP3G/"
 Default is to use a total of  16 processors:
                               16 via shared-memory
                                1 via Linda
 Entering Link 1 = /opt/cesga/2020/software/Core/g16/c1/l1.exe PID=   1474581.
  
 Copyright (c) 1988-2019, Gaussian, Inc.  All Rights Reserved.
  
 This is part of the Gaussian(R) 16 program.  It is based on
 the Gaussian(R) 09 system (copyright 2009, Gaussian, Inc.),
 the Gaussian(R) 03 system (copyright 2003, Gaussian, Inc.),
 the Gaussian(R) 98 system (copyright 1998, Gaussian, Inc.),
 the Gaussian(R) 94 system (copyright 1995, Gaussian, Inc.),
 the Gaussian 92(TM) system (copyright 1992, Gaussian, Inc.),
 the Gaussian 90(TM) system (copyright 1990, Gaussian, Inc.),
 the Gaussian 88(TM) system (copyright 1988, Gaussian, Inc.),
 the Gaussian 86(TM) system (copyright 1986, Carnegie Mellon
 University), and the Gaussian 82(TM) system (copyright 1983,
 Carnegie Mellon University). Gaussian is a federally registered
 trademark of Gaussian, Inc.
  
 This software contains proprietary and confidential information,
 including trade secrets, belonging to Gaussian, Inc.
  
 This software is provided under written license and may be
 used, copied, transmitted, or stored only in accord with that
 written license.
  
 The following legend is applicable only to US Government
 contracts under FAR:
  
                    RESTRICTED RIGHTS LEGEND
  
 Use, reproduction and disclosure by the US Government is
 subject to restrictions as set forth in subparagraphs (a)
 and (c) of the Commercial Computer Software - Restricted
 Rights clause in FAR 52.227-19.
  
 Gaussian, Inc.
 340 Quinnipiac St., Bldg. 40, Wallingford CT 06492
  
  
 ---------------------------------------------------------------
 Warning -- This program may not be used in any manner that
 competes with the business of Gaussian, Inc. or will provide
 assistance to any competitor of Gaussian, Inc.  The licensee
 of this program is prohibited from giving any competitor of
 Gaussian, Inc. access to this program.  By using this program,
 the user acknowledges that Gaussian, Inc. is engaged in the
 business of creating and licensing software in the field of
 computational chemistry and represents and warrants to the
 licensee that it is not a competitor of Gaussian, Inc. and that
 it will not use this program in any manner prohibited above.
 ---------------------------------------------------------------
  

 Cite this work as:
 Gaussian 16, Revision C.01,
 M. J. Frisch, G. W. Trucks, H. B. Schlegel, G. E. Scuseria, 
 M. A. Robb, J. R. Cheeseman, G. Scalmani, V. Barone, 
 G. A. Petersson, H. Nakatsuji, X. Li, M. Caricato, A. V. Marenich, 
 J. Bloino, B. G. Janesko, R. Gomperts, B. Mennucci, H. P. Hratchian, 
 J. V. Ortiz, A. F. Izmaylov, J. L. Sonnenberg, D. Williams-Young, 
 F. Ding, F. Lipparini, F. Egidi, J. Goings, B. Peng, A. Petrone, 
 T. Henderson, D. Ranasinghe, V. G. Zakrzewski, J. Gao, N. Rega, 
 G. Zheng, W. Liang, M. Hada, M. Ehara, K. Toyota, R. Fukuda, 
 J. Hasegawa, M. Ishida, T. Nakajima, Y. Honda, O. Kitao, H. Nakai, 
 T. Vreven, K. Throssell, J. A. Montgomery, Jr., J. E. Peralta, 
 F. Ogliaro, M. J. Bearpark, J. J. Heyd, E. N. Brothers, K. N. Kudin, 
 V. N. Staroverov, T. A. Keith, R. Kobayashi, J. Normand, 
 K. Raghavachari, A. P. Rendell, J. C. Burant, S. S. Iyengar, 
 J. Tomasi, M. Cossi, J. M. Millam, M. Klene, C. Adamo, R. Cammi, 
 J. W. Ochterski, R. L. Martin, K. Morokuma, O. Farkas, 
 J. B. Foresman, and D. J. Fox, Gaussian, Inc., Wallingford CT, 2019.
 
 ******************************************
 Gaussian 16:  ES64L-G16RevC.01  3-Jul-2019
                 7-Dec-2024 
 ******************************************
 Default route: SCF=Direct
 ----------------------------------------------------
 # m06/genecp scf=tight int=ultrafine 5d freq=noraman
 ----------------------------------------------------
 1/10=4,30=1,38=1/1,3;
 2/12=2,17=6,18=5,40=1/2;
 3/5=7,8=1,11=2,16=1,17=8,25=1,30=1,71=2,74=-54,75=-5,140=1/1,2,3;
 4//1;
 5/5=2,32=2,38=5,98=1/2;
 8/6=4,10=90,11=11/1;
 11/6=1,8=1,9=11,15=111,16=1/1,2,10;
 10/6=1/2;
 6/7=2,8=2,9=2,10=2,28=1/1;
 7/8=1,10=1,25=1/1,2,3,16;
 1/10=4,30=1/3;
 99//99;
 ------
 OPT-TS
 ------
 Symbolic Z-matrix:
 Charge =  0 Multiplicity = 1
 C                    -1.66548  -1.68841   1.01537 
 C                    -1.90833  -1.82706  -1.28318 
 C                    -3.10223  -2.52547  -1.17511 
 C                    -3.60598  -2.77322   0.0986 
 C                    -2.88078  -2.35218   1.20249 
 C                    -0.76738  -1.3254    2.12829 
 C                     1.31733  -0.50207   2.73555 
 C                     1.09077  -0.77862   4.07438 
 C                    -0.13048  -1.33066   4.44745 
 C                    -1.0599   -1.62018   3.46135 
 H                    -1.46703  -1.59145  -2.2517 
 H                    -4.5507   -3.29921   0.23294 
 H                    -3.25675  -2.55244   2.20248 
 H                     2.25711  -0.07561   2.37937 
 H                    -0.35012  -1.54977   5.49031 
 H                    -2.00738  -2.08002   3.73016 
 N                    -1.21038  -1.41122  -0.22344 
 N                     0.39991  -0.73492   1.78326 
 Ir                    0.72302  -0.21558  -0.29493 
 O                     2.18278  -2.75435   0.28435 
 O                     2.63285   2.09825  -0.84044 
 O                    -2.146     3.48036  -0.7335 
 B                     2.4087    0.87369  -0.20388 
 B                     2.07715  -1.64634  -0.56479 
 B                    -1.76093   2.17093  -0.93565 
 O                    -0.84014   1.75254   0.0242 
 O                     3.07721  -1.69549  -1.53503 
 C                     3.76135  -2.94385  -1.41627 
 C                     3.46112  -3.35755   0.05441 
 C                    -1.33064   4.0116    0.31843 
 C                    -0.87847   2.7364    1.08928 
 C                     4.03203   2.38686  -0.77227 
 C                     4.46865   1.64346   0.52303 
 O                     3.54101   0.5551    0.57258 
 C                     3.35904  -4.85209   0.28895 
 H                     3.13893  -5.04527   1.34704 
 H                     2.55919  -5.3035   -0.30851 
 H                     4.30667  -5.35373   0.04346 
 C                     4.42928  -2.74102   1.05794 
 H                     4.03827  -2.91843   2.06911 
 H                     5.43245  -3.18533   0.99448 
 H                     4.50037  -1.65472   0.91211 
 C                     3.14858  -3.89465  -2.43776 
 H                     3.21361  -3.43115  -3.43019 
 H                     3.67056  -4.86095  -2.47134 
 H                     2.08792  -4.07434  -2.21856 
 C                     5.22903  -2.72823  -1.73039 
 H                     5.80999  -3.64852  -1.5709 
 H                     5.34218  -2.43139  -2.78144 
 H                     5.65514  -1.93225  -1.10806 
 C                     4.66418   1.79703  -2.02827 
 H                     4.51699   0.70804  -2.06449 
 H                     4.16337   2.22788  -2.90416 
 H                     5.73809   2.01948  -2.0979 
 C                     4.22236   3.89036  -0.74328 
 H                     5.28103   4.15544  -0.60642 
 H                     3.88474   4.3216   -1.69462 
 H                     3.63678   4.35493   0.05985 
 C                     5.8796    1.08645   0.49311 
 H                     6.61972   1.88864   0.35688 
 H                     6.1       0.58046   1.44293 
 H                     6.00345   0.35525  -0.31422 
 C                     4.27695   2.46681   1.79087 
 H                     4.41394   1.80973   2.6607 
 H                     5.0046    3.28662   1.86517 
 H                     3.26645   2.89175   1.84526 
 C                     0.48745   2.87706   1.72493 
 H                     0.73514   1.98259   2.31119 
 H                     1.26363   3.01483   0.96421 
 H                     0.49379   3.73827   2.40983 
 C                    -1.89031   2.25941   2.12216 
 H                    -1.58367   1.26802   2.48534 
 H                    -1.92336   2.93815   2.98524 
 H                    -2.8953    2.16842   1.69536 
 C                    -2.15662   4.98389   1.13603 
 H                    -2.42587   5.84789   0.5151 
 H                    -3.08392   4.52174   1.49203 
 H                    -1.58894   5.35299   2.00202 
 C                    -0.16566   4.73766  -0.34686 
 H                     0.48489   4.04006  -0.89278 
 H                    -0.57335   5.4633   -1.06195 
 H                     0.44883   5.28278   0.38245 
 H                     0.89397   0.07783  -1.87808 
 C                    -3.94136   0.73282  -1.47271 
 O                    -3.51244   1.13334  -0.38206 
 C                    -5.29002   0.06218  -1.582 
 H                    -5.94169   0.65756  -2.2424 
 H                    -5.16371  -0.9088   -2.08842 
 C                    -1.874     1.5061   -2.37921 
 H                    -1.08113   0.75394  -2.52582 
 H                    -1.73644   2.28364  -3.14547 
 N                    -3.18727   0.89794  -2.58028 
 C                    -3.5052    0.40657  -3.89806 
 H                    -2.8859   -0.468    -4.15657 
 H                    -4.55887   0.1265   -3.98027 
 H                    -3.30204   1.18905  -4.64102 
 C                    -5.95166  -0.15069  -0.23191 
 H                    -5.22329  -0.61107   0.45289 
 H                    -6.20001   0.82186   0.21811 
 C                    -7.19106  -1.02419  -0.32894 
 H                    -7.93955  -0.55096  -0.98826 
 H                    -6.92842  -1.98079  -0.81802 
 C                    -7.81709  -1.31489   1.02651 
 H                    -7.06445  -1.80126   1.67003 
 H                    -8.06413  -0.36321   1.52363 
 C                    -9.05711  -2.18677   0.92651 
 H                    -8.82469  -3.1524    0.45561 
 H                    -9.49459  -2.39369   1.91083 
 H                    -9.83048  -1.70309   0.31381 
 H                     1.86225  -0.56024   4.80858 
 H                    -3.62094  -2.86488  -2.06992 
 

 GradGradGradGradGradGradGradGradGradGradGradGradGradGradGradGradGradGrad
 Berny optimization.
 Initialization pass.
 Trust Radius=3.00D-01 FncErr=1.00D-07 GrdErr=1.00D-07 EigMax=2.50D+02 EigMin=1.00D-04
 Number of steps in this run=      2 maximum allowed number of steps=      2.
 GradGradGradGradGradGradGradGradGradGradGradGradGradGradGradGradGradGrad

 Stoichiometry    C36H61B3IrN3O7
 Framework group  C1[X(C36H61B3IrN3O7)]
 Deg. of freedom   327
 Full point group                 C1      NOp   1
 Largest Abelian subgroup         C1      NOp   1
 Largest concise Abelian subgroup C1      NOp   1
                         Standard orientation:                         
 ---------------------------------------------------------------------
 Center     Atomic      Atomic             Coordinates (Angstroms)
 Number     Number       Type             X           Y           Z
 ---------------------------------------------------------------------
      1          6           0       -1.665480   -1.688410    1.015370
      2          6           0       -1.908330   -1.827060   -1.283180
      3          6           0       -3.102230   -2.525470   -1.175110
      4          6           0       -3.605980   -2.773220    0.098600
      5          6           0       -2.880780   -2.352180    1.202490
      6          6           0       -0.767380   -1.325400    2.128290
      7          6           0        1.317330   -0.502070    2.735550
      8          6           0        1.090770   -0.778620    4.074380
      9          6           0       -0.130480   -1.330660    4.447450
     10          6           0       -1.059900   -1.620180    3.461350
     11          1           0       -1.467030   -1.591450   -2.251700
     12          1           0       -4.550700   -3.299210    0.232940
     13          1           0       -3.256750   -2.552440    2.202480
     14          1           0        2.257110   -0.075610    2.379370
     15          1           0       -0.350120   -1.549770    5.490310
     16          1           0       -2.007380   -2.080020    3.730160
     17          7           0       -1.210380   -1.411220   -0.223440
     18          7           0        0.399910   -0.734920    1.783260
     19         77           0        0.723020   -0.215580   -0.294930
     20          8           0        2.182780   -2.754350    0.284350
     21          8           0        2.632849    2.098251   -0.840440
     22          8           0       -2.146001    3.480360   -0.733500
     23          5           0        2.408699    0.873691   -0.203880
     24          5           0        2.077150   -1.646340   -0.564790
     25          5           0       -1.760931    2.170930   -0.935650
     26          8           0       -0.840141    1.752540    0.024200
     27          8           0        3.077210   -1.695489   -1.535030
     28          6           0        3.761350   -2.943849   -1.416270
     29          6           0        3.461120   -3.357549    0.054410
     30          6           0       -1.330641    4.011600    0.318430
     31          6           0       -0.878471    2.736400    1.089280
     32          6           0        4.032029    2.386861   -0.772270
     33          6           0        4.468649    1.643461    0.523030
     34          8           0        3.541009    0.555101    0.572580
     35          6           0        3.359040   -4.852089    0.288950
     36          1           0        3.138930   -5.045269    1.347040
     37          1           0        2.559190   -5.303499   -0.308510
     38          1           0        4.306670   -5.353729    0.043460
     39          6           0        4.429280   -2.741019    1.057940
     40          1           0        4.038270   -2.918429    2.069110
     41          1           0        5.432450   -3.185329    0.994480
     42          1           0        4.500370   -1.654719    0.912110
     43          6           0        3.148580   -3.894649   -2.437760
     44          1           0        3.213610   -3.431149   -3.430190
     45          1           0        3.670560   -4.860949   -2.471340
     46          1           0        2.087920   -4.074340   -2.218560
     47          6           0        5.229030   -2.728229   -1.730390
     48          1           0        5.809990   -3.648519   -1.570900
     49          1           0        5.342180   -2.431389   -2.781440
     50          1           0        5.655140   -1.932249   -1.108060
     51          6           0        4.664179    1.797031   -2.028270
     52          1           0        4.516989    0.708041   -2.064490
     53          1           0        4.163369    2.227881   -2.904160
     54          1           0        5.738089    2.019481   -2.097900
     55          6           0        4.222359    3.890361   -0.743280
     56          1           0        5.281029    4.155441   -0.606420
     57          1           0        3.884739    4.321601   -1.694620
     58          1           0        3.636779    4.354931    0.059850
     59          6           0        5.879599    1.086451    0.493110
     60          1           0        6.619719    1.888641    0.356880
     61          1           0        6.099999    0.580461    1.442930
     62          1           0        6.003449    0.355251   -0.314220
     63          6           0        4.276949    2.466811    1.790870
     64          1           0        4.413939    1.809731    2.660700
     65          1           0        5.004599    3.286621    1.865170
     66          1           0        3.266449    2.891751    1.845260
     67          6           0        0.487449    2.877060    1.724930
     68          1           0        0.735139    1.982590    2.311190
     69          1           0        1.263629    3.014830    0.964210
     70          1           0        0.493789    3.738270    2.409830
     71          6           0       -1.890311    2.259410    2.122160
     72          1           0       -1.583671    1.268020    2.485340
     73          1           0       -1.923361    2.938150    2.985240
     74          1           0       -2.895301    2.168420    1.695360
     75          6           0       -2.156621    4.983890    1.136030
     76          1           0       -2.425871    5.847890    0.515100
     77          1           0       -3.083921    4.521740    1.492030
     78          1           0       -1.588941    5.352990    2.002020
     79          6           0       -0.165661    4.737660   -0.346860
     80          1           0        0.484889    4.040060   -0.892780
     81          1           0       -0.573351    5.463300   -1.061950
     82          1           0        0.448829    5.282780    0.382450
     83          1           0        0.893970    0.077830   -1.878080
     84          6           0       -3.941361    0.732820   -1.472710
     85          8           0       -3.512441    1.133340   -0.382060
     86          6           0       -5.290020    0.062180   -1.582000
     87          1           0       -5.941691    0.657560   -2.242400
     88          1           0       -5.163710   -0.908800   -2.088420
     89          6           0       -1.874001    1.506100   -2.379210
     90          1           0       -1.081131    0.753940   -2.525820
     91          1           0       -1.736441    2.283640   -3.145470
     92          7           0       -3.187271    0.897940   -2.580280
     93          6           0       -3.505201    0.406570   -3.898060
     94          1           0       -2.885900   -0.468000   -4.156570
     95          1           0       -4.558870    0.126500   -3.980270
     96          1           0       -3.302041    1.189050   -4.641020
     97          6           0       -5.951660   -0.150690   -0.231910
     98          1           0       -5.223290   -0.611070    0.452890
     99          1           0       -6.200011    0.821860    0.218110
    100          6           0       -7.191060   -1.024190   -0.328940
    101          1           0       -7.939550   -0.550960   -0.988260
    102          1           0       -6.928420   -1.980790   -0.818020
    103          6           0       -7.817090   -1.314890    1.026510
    104          1           0       -7.064450   -1.801260    1.670030
    105          1           0       -8.064130   -0.363210    1.523630
    106          6           0       -9.057110   -2.186771    0.926510
    107          1           0       -8.824690   -3.152401    0.455610
    108          1           0       -9.494590   -2.393691    1.910830
    109          1           0       -9.830480   -1.703091    0.313810
    110          1           0        1.862250   -0.560240    4.808580
    111          1           0       -3.620940   -2.864880   -2.069920
 ---------------------------------------------------------------------
 Rotational constants (GHZ):           0.0834984           0.0445524           0.0379179
 General basis read from cards:  (5D, 7F)
 ======================================================================================================
                                       Pseudopotential Parameters
 ======================================================================================================
  Center     Atomic      Valence      Angular      Power
  Number     Number     Electrons     Momentum     of R      Exponent        Coefficient   SO-Coeffient
 ======================================================================================================
    1          6
                                   No pseudopotential on this center.
    2          6
                                   No pseudopotential on this center.
    3          6
                                   No pseudopotential on this center.
    4          6
                                   No pseudopotential on this center.
    5          6
                                   No pseudopotential on this center.
    6          6
                                   No pseudopotential on this center.
    7          6
                                   No pseudopotential on this center.
    8          6
                                   No pseudopotential on this center.
    9          6
                                   No pseudopotential on this center.
   10          6
                                   No pseudopotential on this center.
   11          1
                                   No pseudopotential on this center.
   12          1
                                   No pseudopotential on this center.
   13          1
                                   No pseudopotential on this center.
   14          1
                                   No pseudopotential on this center.
   15          1
                                   No pseudopotential on this center.
   16          1
                                   No pseudopotential on this center.
   17          7
                                   No pseudopotential on this center.
   18          7
                                   No pseudopotential on this center.
   19         77           17
                                      G and up 
                                                     1      823.5880147       -0.15780140    0.00000000
                                                     2      364.6613336    -1517.52704460    0.00000000
                                                     2       55.7082801     -316.53065290    0.00000000
                                                     2       12.0464544      -91.88809410    0.00000000
                                                     2        3.5120610       -9.22417730    0.00000000
                                      S - G
                                                     0      188.0490770        3.15780140    0.00000000
                                                     1      340.4194712       26.83225770    0.00000000
                                                     2      128.2373673      800.42500070    0.00000000
                                                     2       33.8644961      369.40506830    0.00000000
                                                     2        4.7560005      242.41718990    0.00000000
                                                     2        3.9649974     -118.21732820    0.00000000
                                      P - G
                                                     0      289.7291139        2.15780140    0.00000000
                                                     1       87.4633789       61.96786100    0.00000000
                                                     2       30.4363766      269.05819860    0.00000000
                                                     2        4.0553412      231.16547930    0.00000000
                                                     2        3.5525341     -133.69526670    0.00000000
                                      D - G
                                                     0      136.4017106        3.15780140    0.00000000
                                                     1       95.0776925       45.93498030    0.00000000
                                                     2       49.2258410      359.03446680    0.00000000
                                                     2       15.0874145      176.47401190    0.00000000
                                                     2        4.0405764       54.51552860    0.00000000
                                      F - G
                                                     0      127.3507908        3.95461970    0.00000000
                                                     1       66.2364374       52.97736550    0.00000000
                                                     2       34.4299229      274.86433830    0.00000000
                                                     2       10.1995721      137.20473380    0.00000000
                                                     2        2.5409702       14.86333050    0.00000000
   20          8
                                   No pseudopotential on this center.
   21          8
                                   No pseudopotential on this center.
   22          8
                                   No pseudopotential on this center.
   23          5
                                   No pseudopotential on this center.
   24          5
                                   No pseudopotential on this center.
   25          5
                                   No pseudopotential on this center.
   26          8
                                   No pseudopotential on this center.
   27          8
                                   No pseudopotential on this center.
   28          6
                                   No pseudopotential on this center.
   29          6
                                   No pseudopotential on this center.
   30          6
                                   No pseudopotential on this center.
   31          6
                                   No pseudopotential on this center.
   32          6
                                   No pseudopotential on this center.
   33          6
                                   No pseudopotential on this center.
   34          8
                                   No pseudopotential on this center.
   35          6
                                   No pseudopotential on this center.
   36          1
                                   No pseudopotential on this center.
   37          1
                                   No pseudopotential on this center.
   38          1
                                   No pseudopotential on this center.
   39          6
                                   No pseudopotential on this center.
   40          1
                                   No pseudopotential on this center.
   41          1
                                   No pseudopotential on this center.
   42          1
                                   No pseudopotential on this center.
   43          6
                                   No pseudopotential on this center.
   44          1
                                   No pseudopotential on this center.
   45          1
                                   No pseudopotential on this center.
   46          1
                                   No pseudopotential on this center.
   47          6
                                   No pseudopotential on this center.
   48          1
                                   No pseudopotential on this center.
   49          1
                                   No pseudopotential on this center.
   50          1
                                   No pseudopotential on this center.
   51          6
                                   No pseudopotential on this center.
   52          1
                                   No pseudopotential on this center.
   53          1
                                   No pseudopotential on this center.
   54          1
                                   No pseudopotential on this center.
   55          6
                                   No pseudopotential on this center.
   56          1
                                   No pseudopotential on this center.
   57          1
                                   No pseudopotential on this center.
   58          1
                                   No pseudopotential on this center.
   59          6
                                   No pseudopotential on this center.
   60          1
                                   No pseudopotential on this center.
   61          1
                                   No pseudopotential on this center.
   62          1
                                   No pseudopotential on this center.
   63          6
                                   No pseudopotential on this center.
   64          1
                                   No pseudopotential on this center.
   65          1
                                   No pseudopotential on this center.
   66          1
                                   No pseudopotential on this center.
   67          6
                                   No pseudopotential on this center.
   68          1
                                   No pseudopotential on this center.
   69          1
                                   No pseudopotential on this center.
   70          1
                                   No pseudopotential on this center.
   71          6
                                   No pseudopotential on this center.
   72          1
                                   No pseudopotential on this center.
   73          1
                                   No pseudopotential on this center.
   74          1
                                   No pseudopotential on this center.
   75          6
                                   No pseudopotential on this center.
   76          1
                                   No pseudopotential on this center.
   77          1
                                   No pseudopotential on this center.
   78          1
                                   No pseudopotential on this center.
   79          6
                                   No pseudopotential on this center.
   80          1
                                   No pseudopotential on this center.
   81          1
                                   No pseudopotential on this center.
   82          1
                                   No pseudopotential on this center.
   83          1
                                   No pseudopotential on this center.
   84          6
                                   No pseudopotential on this center.
   85          8
                                   No pseudopotential on this center.
   86          6
                                   No pseudopotential on this center.
   87          1
                                   No pseudopotential on this center.
   88          1
                                   No pseudopotential on this center.
   89          6
                                   No pseudopotential on this center.
   90          1
                                   No pseudopotential on this center.
   91          1
                                   No pseudopotential on this center.
   92          7
                                   No pseudopotential on this center.
   93          6
                                   No pseudopotential on this center.
   94          1
                                   No pseudopotential on this center.
   95          1
                                   No pseudopotential on this center.
   96          1
                                   No pseudopotential on this center.
   97          6
                                   No pseudopotential on this center.
   98          1
                                   No pseudopotential on this center.
   99          1
                                   No pseudopotential on this center.
  100          6
                                   No pseudopotential on this center.
  101          1
                                   No pseudopotential on this center.
  102          1
                                   No pseudopotential on this center.
  103          6
                                   No pseudopotential on this center.
  104          1
                                   No pseudopotential on this center.
  105          1
                                   No pseudopotential on this center.
  106          6
                                   No pseudopotential on this center.
  107          1
                                   No pseudopotential on this center.
  108          1
                                   No pseudopotential on this center.
  109          1
                                   No pseudopotential on this center.
  110          1
                                   No pseudopotential on this center.
  111          1
                                   No pseudopotential on this center.
 ======================================================================================================
 There are   881 symmetry adapted cartesian basis functions of A   symmetry.
 There are   830 symmetry adapted basis functions of A   symmetry.
   830 basis functions,  1659 primitive gaussians,   881 cartesian basis functions
   193 alpha electrons      193 beta electrons
       nuclear repulsion energy      7998.1918692788 Hartrees.
 NAtoms=  111 NActive=  111 NUniq=  111 SFac= 1.00D+00 NAtFMM=   60 NAOKFM=T Big=T
 Integral buffers will be    131072 words long.
 Raffenetti 2 integral format.
 Two-electron integral symmetry is turned on.
 One-electron integrals computed using PRISM.
   1 Symmetry operations used in ECPInt.
 ECPInt:  NShTT=   53301 NPrTT=  320676 LenC2=   39175 LenP2D=  120024.
 LDataN:  DoStor=T MaxTD1= 6 Len=  172
 NBasis=   830 RedAO= T EigKep=  5.57D-04  NBF=   830
 NBsUse=   830 1.00D-06 EigRej= -1.00D+00 NBFU=   830
 Defaulting to unpruned grid for atomic number  77.
 ExpMin= 2.90D-02 ExpMax= 5.48D+03 ExpMxC= 8.25D+02 IAcc=3 IRadAn=         5 AccDes= 0.00D+00
 Harris functional with IExCor= 1009 and IRadAn=       5 diagonalized for initial guess.
 HarFok:  IExCor= 1009 AccDes= 0.00D+00 IRadAn=         5 IDoV= 1 UseB2=F ITyADJ=14
 ICtDFT=  3500011 ScaDFX=  1.000000  1.000000  1.000000  1.000000
 Defaulting to unpruned grid for atomic number  77.
 FoFCou: FMM=F IPFlag=           0 FMFlag=      100000 FMFlg1=        2001
         NFxFlg=           0 DoJE=T BraDBF=F KetDBF=T FulRan=T
         wScrn=  0.000000 ICntrl=       500 IOpCl=  0 I1Cent=   200000004 NGrid=           0
         NMat0=    1 NMatS0=      1 NMatT0=    0 NMatD0=    1 NMtDS0=    0 NMtDT0=    0
 Petite list used in FoFCou.
 Requested convergence on RMS density matrix=1.00D-08 within 128 cycles.
 Requested convergence on MAX density matrix=1.00D-06.
 Requested convergence on             energy=1.00D-06.
 No special actions if energy rises.
 Defaulting to unpruned grid for atomic number  77.
 Defaulting to unpruned grid for atomic number  77.
 Defaulting to unpruned grid for atomic number  77.
 Defaulting to unpruned grid for atomic number  77.
 Defaulting to unpruned grid for atomic number  77.
 Defaulting to unpruned grid for atomic number  77.
 Defaulting to unpruned grid for atomic number  77.
 Defaulting to unpruned grid for atomic number  77.
 Defaulting to unpruned grid for atomic number  77.
 Defaulting to unpruned grid for atomic number  77.
 Defaulting to unpruned grid for atomic number  77.
 Defaulting to unpruned grid for atomic number  77.
 Defaulting to unpruned grid for atomic number  77.
 Defaulting to unpruned grid for atomic number  77.
 Defaulting to unpruned grid for atomic number  77.
 Defaulting to unpruned grid for atomic number  77.
 SCF Done:  E(RM06) =  -2277.54056385     A.U. after   16 cycles
            NFock= 16  Conv=0.83D-08     -V/T= 2.0390
 DoSCS=F DFT=T ScalE2(SS,OS)=  1.000000  1.000000
 Range of M.O.s used for correlation:     1   830
 NBasis=   830 NAE=   193 NBE=   193 NFC=     0 NFV=     0
 NROrb=    830 NOA=   193 NOB=   193 NVA=   637 NVB=   637
   1 Symmetry operations used in ECPInt.
 ECPInt:  NShTT=   53301 NPrTT=  320676 LenC2=   39175 LenP2D=  120024.
 LDataN:  DoStor=T MaxTD1= 7 Len=  274
 Number of processors reduced to   8 by ecpmxn.
 Symmetrizing basis deriv contribution to polar:
 IMax=3 JMax=2 DiffMx= 0.00D+00
 G2DrvN: will do   112 centers at a time, making    1 passes.
 Calling FoFCou, ICntrl=  3107 FMM=T I1Cent=   0 AccDes= 0.00D+00.
 Defaulting to unpruned grid for atomic number  77.
 Defaulting to unpruned grid for atomic number  77.
 Defaulting to unpruned grid for atomic number  77.
 Defaulting to unpruned grid for atomic number  77.
 Defaulting to unpruned grid for atomic number  77.
 Defaulting to unpruned grid for atomic number  77.
 Defaulting to unpruned grid for atomic number  77.
 Defaulting to unpruned grid for atomic number  77.
 Defaulting to unpruned grid for atomic number  77.
 Defaulting to unpruned grid for atomic number  77.
 Defaulting to unpruned grid for atomic number  77.
 Defaulting to unpruned grid for atomic number  77.
 Defaulting to unpruned grid for atomic number  77.
 Defaulting to unpruned grid for atomic number  77.
 Defaulting to unpruned grid for atomic number  77.
 Defaulting to unpruned grid for atomic number  77.
 End of G2Drv F.D. properties file   721 does not exist.
 End of G2Drv F.D. properties file   722 does not exist.
 End of G2Drv F.D. properties file   788 does not exist.
          IDoAtm=11111111111111111111111111111111111111111111111111
          IDoAtm=11111111111111111111111111111111111111111111111111
          IDoAtm=11111111111
          Differentiating once with respect to electric field.
                with respect to dipole field.
          Differentiating once with respect to nuclear coordinates.
 Defaulting to unpruned grid for atomic number  77.
 CalDSu exits because no D1Ps are significant.
 Defaulting to unpruned grid for atomic number  77.
 Defaulting to unpruned grid for atomic number  77.
 Defaulting to unpruned grid for atomic number  77.
 Defaulting to unpruned grid for atomic number  77.
 Defaulting to unpruned grid for atomic number  77.
 Defaulting to unpruned grid for atomic number  77.
 Defaulting to unpruned grid for atomic number  77.
 Defaulting to unpruned grid for atomic number  77.
 Defaulting to unpruned grid for atomic number  77.
 Defaulting to unpruned grid for atomic number  77.
 Defaulting to unpruned grid for atomic number  77.
 Defaulting to unpruned grid for atomic number  77.
 Defaulting to unpruned grid for atomic number  77.
 Defaulting to unpruned grid for atomic number  77.
 Defaulting to unpruned grid for atomic number  77.
 Defaulting to unpruned grid for atomic number  77.
          There are   336 degrees of freedom in the 1st order CPHF.  IDoFFX=6 NUNeed=     3.
    333 vectors produced by pass  0 Test12= 1.23D-13 1.00D-09 XBig12= 5.38D+02 7.03D+00.
 AX will form    72 AO Fock derivatives at one time.
    333 vectors produced by pass  1 Test12= 1.23D-13 1.00D-09 XBig12= 8.82D+01 9.34D-01.
    333 vectors produced by pass  2 Test12= 1.23D-13 1.00D-09 XBig12= 9.70D-01 9.80D-02.
    333 vectors produced by pass  3 Test12= 1.23D-13 1.00D-09 XBig12= 5.55D-03 7.80D-03.
    333 vectors produced by pass  4 Test12= 1.23D-13 1.00D-09 XBig12= 1.61D-05 3.83D-04.
    286 vectors produced by pass  5 Test12= 1.23D-13 1.00D-09 XBig12= 2.93D-08 1.06D-05.
     73 vectors produced by pass  6 Test12= 1.23D-13 1.00D-09 XBig12= 4.10D-11 3.76D-07.
      3 vectors produced by pass  7 Test12= 1.23D-13 1.00D-09 XBig12= 5.42D-14 1.58D-08.
 InvSVY:  IOpt=1 It=  1 EMax= 2.84D-14
 Solved reduced A of dimension  2027 with   336 vectors.
 Isotropic polarizability for W=    0.000000      498.15 Bohr**3.
 End of Minotr F.D. properties file   721 does not exist.
 End of Minotr F.D. properties file   722 does not exist.
 End of Minotr F.D. properties file   788 does not exist.
 Hyperfine terms turned off by default for NAtoms > 100.

 **********************************************************************

            Population analysis using the SCF Density.

 **********************************************************************

 Orbital symmetries:
       Occupied  (A) (A) (A) (A) (A) (A) (A) (A) (A) (A) (A) (A)
                 (A) (A) (A) (A) (A) (A) (A) (A) (A) (A) (A) (A)
                 (A) (A) (A) (A) (A) (A) (A) (A) (A) (A) (A) (A)
                 (A) (A) (A) (A) (A) (A) (A) (A) (A) (A) (A) (A)
                 (A) (A) (A) (A) (A) (A) (A) (A) (A) (A) (A) (A)
                 (A) (A) (A) (A) (A) (A) (A) (A) (A) (A) (A) (A)
                 (A) (A) (A) (A) (A) (A) (A) (A) (A) (A) (A) (A)
                 (A) (A) (A) (A) (A) (A) (A) (A) (A) (A) (A) (A)
                 (A) (A) (A) (A) (A) (A) (A) (A) (A) (A) (A) (A)
                 (A) (A) (A) (A) (A) (A) (A) (A) (A) (A) (A) (A)
                 (A) (A) (A) (A) (A) (A) (A) (A) (A) (A) (A) (A)
                 (A) (A) (A) (A) (A) (A) (A) (A) (A) (A) (A) (A)
                 (A) (A) (A) (A) (A) (A) (A) (A) (A) (A) (A) (A)
                 (A) (A) (A) (A) (A) (A) (A) (A) (A) (A) (A) (A)
                 (A) (A) (A) (A) (A) (A) (A) (A) (A) (A) (A) (A)
                 (A) (A) (A) (A) (A) (A) (A) (A) (A) (A) (A) (A)
                 (A)
       Virtual   (A) (A) (A) (A) (A) (A) (A) (A) (A) (A) (A) (A)
                 (A) (A) (A) (A) (A) (A) (A) (A) (A) (A) (A) (A)
                 (A) (A) (A) (A) (A) (A) (A) (A) (A) (A) (A) (A)
                 (A) (A) (A) (A) (A) (A) (A) (A) (A) (A) (A) (A)
                 (A) (A) (A) (A) (A) (A) (A) (A) (A) (A) (A) (A)
                 (A) (A) (A) (A) (A) (A) (A) (A) (A) (A) (A) (A)
                 (A) (A) (A) (A) (A) (A) (A) (A) (A) (A) (A) (A)
                 (A) (A) (A) (A) (A) (A) (A) (A) (A) (A) (A) (A)
                 (A) (A) (A) (A) (A) (A) (A) (A) (A) (A) (A) (A)
                 (A) (A) (A) (A) (A) (A) (A) (A) (A) (A) (A) (A)
                 (A) (A) (A) (A) (A) (A) (A) (A) (A) (A) (A) (A)
                 (A) (A) (A) (A) (A) (A) (A) (A) (A) (A) (A) (A)
                 (A) (A) (A) (A) (A) (A) (A) (A) (A) (A) (A) (A)
                 (A) (A) (A) (A) (A) (A) (A) (A) (A) (A) (A) (A)
                 (A) (A) (A) (A) (A) (A) (A) (A) (A) (A) (A) (A)
                 (A) (A) (A) (A) (A) (A) (A) (A) (A) (A) (A) (A)
                 (A) (A) (A) (A) (A) (A) (A) (A) (A) (A) (A) (A)
                 (A) (A) (A) (A) (A) (A) (A) (A) (A) (A) (A) (A)
                 (A) (A) (A) (A) (A) (A) (A) (A) (A) (A) (A) (A)
                 (A) (A) (A) (A) (A) (A) (A) (A) (A) (A) (A) (A)
                 (A) (A) (A) (A) (A) (A) (A) (A) (A) (A) (A) (A)
                 (A) (A) (A) (A) (A) (A) (A) (A) (A) (A) (A) (A)
                 (A) (A) (A) (A) (A) (A) (A) (A) (A) (A) (A) (A)
                 (A) (A) (A) (A) (A) (A) (A) (A) (A) (A) (A) (A)
                 (A) (A) (A) (A) (A) (A) (A) (A) (A) (A) (A) (A)
                 (A) (A) (A) (A) (A) (A) (A) (A) (A) (A) (A) (A)
                 (A) (A) (A) (A) (A) (A) (A) (A) (A) (A) (A) (A)
                 (A) (A) (A) (A) (A) (A) (A) (A) (A) (A) (A) (A)
                 (A) (A) (A) (A) (A) (A) (A) (A) (A) (A) (A) (A)
                 (A) (A) (A) (A) (A) (A) (A) (A) (A) (A) (A) (A)
                 (A) (A) (A) (A) (A) (A) (A) (A) (A) (A) (A) (A)
                 (A) (A) (A) (A) (A) (A) (A) (A) (A) (A) (A) (A)
                 (A) (A) (A) (A) (A) (A) (A) (A) (A) (A) (A) (A)
                 (A) (A) (A) (A) (A) (A) (A) (A) (A) (A) (A) (A)
                 (A) (A) (A) (A) (A) (A) (A) (A) (A) (A) (A) (A)
                 (A) (A) (A) (A) (A) (A) (A) (A) (A) (A) (A) (A)
                 (A) (A) (A) (A) (A) (A) (A) (A) (A) (A) (A) (A)
                 (A) (A) (A) (A) (A) (A) (A) (A) (A) (A) (A) (A)
                 (A) (A) (A) (A) (A) (A) (A) (A) (A) (A) (A) (A)
                 (A) (A) (A) (A) (A) (A) (A) (A) (A) (A) (A) (A)
                 (A) (A) (A) (A) (A) (A) (A) (A) (A) (A) (A) (A)
                 (A) (A) (A) (A) (A) (A) (A) (A) (A) (A) (A) (A)
                 (A) (A) (A) (A) (A) (A) (A) (A) (A) (A) (A) (A)
                 (A) (A) (A) (A) (A) (A) (A) (A) (A) (A) (A) (A)
                 (A) (A) (A) (A) (A) (A) (A) (A) (A) (A) (A) (A)
                 (A) (A) (A) (A) (A) (A) (A) (A) (A) (A) (A) (A)
                 (A) (A) (A) (A) (A) (A) (A) (A) (A) (A) (A) (A)
                 (A) (A) (A) (A) (A) (A) (A) (A) (A) (A) (A) (A)
                 (A) (A) (A) (A) (A) (A) (A) (A) (A) (A) (A) (A)
                 (A) (A) (A) (A) (A) (A) (A) (A) (A) (A) (A) (A)
                 (A) (A) (A) (A) (A) (A) (A) (A) (A) (A) (A) (A)
                 (A) (A) (A) (A) (A) (A) (A) (A) (A) (A) (A) (A)
                 (A) (A) (A) (A) (A) (A) (A) (A) (A) (A) (A) (A)
                 (A)
 The electronic state is 1-A.
 Alpha  occ. eigenvalues --  -19.21389 -19.20922 -19.19677 -19.18816 -19.18186
 Alpha  occ. eigenvalues --  -19.18121 -19.17955 -14.44117 -14.43863 -14.43815
 Alpha  occ. eigenvalues --  -10.35903 -10.31551 -10.31003 -10.30377 -10.29398
 Alpha  occ. eigenvalues --  -10.29102 -10.29051 -10.29021 -10.28829 -10.28124
 Alpha  occ. eigenvalues --  -10.27997 -10.27890 -10.27799 -10.27786 -10.27572
 Alpha  occ. eigenvalues --  -10.27558 -10.27525 -10.26875 -10.26578 -10.24991
 Alpha  occ. eigenvalues --  -10.24875 -10.24757 -10.24115 -10.23973 -10.22374
 Alpha  occ. eigenvalues --  -10.21860 -10.21844 -10.21802 -10.21789 -10.21703
 Alpha  occ. eigenvalues --  -10.21504 -10.21432 -10.21381 -10.21043 -10.20524
 Alpha  occ. eigenvalues --  -10.20463  -6.81568  -6.77427  -6.76993  -3.59019
 Alpha  occ. eigenvalues --   -2.01583  -2.00810  -2.00494  -1.07199  -1.06087
 Alpha  occ. eigenvalues --   -1.04455  -1.04027  -0.99662  -0.99166  -0.97508
 Alpha  occ. eigenvalues --   -0.97152  -0.96631  -0.95381  -0.83900  -0.82996
 Alpha  occ. eigenvalues --   -0.82810  -0.82147  -0.80325  -0.79085  -0.78685
 Alpha  occ. eigenvalues --   -0.78669  -0.76828  -0.74439  -0.73577  -0.73395
 Alpha  occ. eigenvalues --   -0.73224  -0.72642  -0.69856  -0.69309  -0.68895
 Alpha  occ. eigenvalues --   -0.68378  -0.68288  -0.67371  -0.67007  -0.66469
 Alpha  occ. eigenvalues --   -0.66144  -0.63950  -0.62925  -0.62375  -0.61112
 Alpha  occ. eigenvalues --   -0.60317  -0.59740  -0.59347  -0.57010  -0.55239
 Alpha  occ. eigenvalues --   -0.54740  -0.53681  -0.53210  -0.52976  -0.52714
 Alpha  occ. eigenvalues --   -0.52656  -0.51971  -0.51909  -0.51434  -0.50745
 Alpha  occ. eigenvalues --   -0.50522  -0.49088  -0.48742  -0.48612  -0.46800
 Alpha  occ. eigenvalues --   -0.46674  -0.46173  -0.46097  -0.45761  -0.45586
 Alpha  occ. eigenvalues --   -0.45407  -0.45245  -0.44969  -0.44666  -0.44639
 Alpha  occ. eigenvalues --   -0.44553  -0.43802  -0.43719  -0.43503  -0.43138
 Alpha  occ. eigenvalues --   -0.42677  -0.42526  -0.42290  -0.42127  -0.41978
 Alpha  occ. eigenvalues --   -0.41779  -0.41204  -0.40610  -0.40462  -0.39956
 Alpha  occ. eigenvalues --   -0.39665  -0.39529  -0.39146  -0.39009  -0.38833
 Alpha  occ. eigenvalues --   -0.38699  -0.38639  -0.38610  -0.38421  -0.38289
 Alpha  occ. eigenvalues --   -0.37951  -0.37779  -0.37685  -0.37484  -0.37324
 Alpha  occ. eigenvalues --   -0.36741  -0.36452  -0.36178  -0.36012  -0.35635
 Alpha  occ. eigenvalues --   -0.35450  -0.35356  -0.35242  -0.35104  -0.34982
 Alpha  occ. eigenvalues --   -0.34923  -0.34603  -0.34504  -0.34358  -0.34234
 Alpha  occ. eigenvalues --   -0.33847  -0.33724  -0.33532  -0.33334  -0.33118
 Alpha  occ. eigenvalues --   -0.32626  -0.32363  -0.31678  -0.31112  -0.30780
 Alpha  occ. eigenvalues --   -0.30189  -0.30000  -0.29747  -0.29694  -0.28794
 Alpha  occ. eigenvalues --   -0.28305  -0.27526  -0.26591  -0.26273  -0.26132
 Alpha  occ. eigenvalues --   -0.25914  -0.25348  -0.24163  -0.24032  -0.23170
 Alpha  occ. eigenvalues --   -0.19324  -0.18838  -0.18010
 Alpha virt. eigenvalues --   -0.06525  -0.03492  -0.02374   0.02014   0.02283
 Alpha virt. eigenvalues --    0.03148   0.05028   0.05937   0.07346   0.07848
 Alpha virt. eigenvalues --    0.08427   0.08726   0.08996   0.09417   0.10043
 Alpha virt. eigenvalues --    0.10674   0.11110   0.11191   0.11934   0.11967
 Alpha virt. eigenvalues --    0.12347   0.12668   0.12878   0.13135   0.13300
 Alpha virt. eigenvalues --    0.13376   0.13708   0.14200   0.14643   0.14709
 Alpha virt. eigenvalues --    0.15174   0.15299   0.15435   0.15591   0.15649
 Alpha virt. eigenvalues --    0.16049   0.16186   0.16530   0.16744   0.16842
 Alpha virt. eigenvalues --    0.16966   0.17032   0.17157   0.17281   0.17419
 Alpha virt. eigenvalues --    0.17610   0.17816   0.18027   0.18124   0.18241
 Alpha virt. eigenvalues --    0.18476   0.18708   0.18879   0.18933   0.19230
 Alpha virt. eigenvalues --    0.19317   0.19540   0.19672   0.19965   0.20100
 Alpha virt. eigenvalues --    0.20218   0.20285   0.20452   0.20566   0.20929
 Alpha virt. eigenvalues --    0.21265   0.21346   0.21617   0.21744   0.21870
 Alpha virt. eigenvalues --    0.22130   0.22313   0.22761   0.22907   0.23077
 Alpha virt. eigenvalues --    0.23416   0.23524   0.23775   0.23948   0.24486
 Alpha virt. eigenvalues --    0.24658   0.25067   0.25197   0.25346   0.25617
 Alpha virt. eigenvalues --    0.26019   0.26111   0.26334   0.26663   0.26975
 Alpha virt. eigenvalues --    0.27197   0.27688   0.28122   0.28195   0.28441
 Alpha virt. eigenvalues --    0.28565   0.28922   0.29038   0.29287   0.29673
 Alpha virt. eigenvalues --    0.29928   0.30271   0.30480   0.31097   0.31930
 Alpha virt. eigenvalues --    0.32412   0.33065   0.33455   0.33943   0.34471
 Alpha virt. eigenvalues --    0.35327   0.35560   0.35696   0.36563   0.36791
 Alpha virt. eigenvalues --    0.37776   0.38219   0.38551   0.39769   0.40671
 Alpha virt. eigenvalues --    0.41188   0.41257   0.42100   0.44080   0.44515
 Alpha virt. eigenvalues --    0.45116   0.46986   0.47778   0.48590   0.49187
 Alpha virt. eigenvalues --    0.50168   0.50221   0.50403   0.50883   0.51411
 Alpha virt. eigenvalues --    0.51595   0.51791   0.52099   0.52515   0.52911
 Alpha virt. eigenvalues --    0.53143   0.53568   0.54055   0.54116   0.54448
 Alpha virt. eigenvalues --    0.54884   0.55111   0.55383   0.56021   0.56096
 Alpha virt. eigenvalues --    0.56537   0.57069   0.57439   0.57584   0.58105
 Alpha virt. eigenvalues --    0.58340   0.58753   0.58943   0.59084   0.59169
 Alpha virt. eigenvalues --    0.59351   0.59691   0.59826   0.60049   0.60261
 Alpha virt. eigenvalues --    0.60509   0.60684   0.60981   0.61467   0.61978
 Alpha virt. eigenvalues --    0.62289   0.62344   0.62809   0.63251   0.63688
 Alpha virt. eigenvalues --    0.64079   0.64375   0.64517   0.64586   0.64942
 Alpha virt. eigenvalues --    0.65105   0.65550   0.65921   0.66270   0.66739
 Alpha virt. eigenvalues --    0.66929   0.67362   0.67706   0.68111   0.68309
 Alpha virt. eigenvalues --    0.68652   0.69135   0.69385   0.69743   0.70341
 Alpha virt. eigenvalues --    0.70484   0.70889   0.71218   0.71798   0.71867
 Alpha virt. eigenvalues --    0.72344   0.72884   0.72932   0.73630   0.73808
 Alpha virt. eigenvalues --    0.74061   0.74308   0.75022   0.75227   0.75518
 Alpha virt. eigenvalues --    0.75831   0.76322   0.76596   0.76812   0.76931
 Alpha virt. eigenvalues --    0.77113   0.77660   0.77788   0.78085   0.78302
 Alpha virt. eigenvalues --    0.78631   0.78984   0.79280   0.79325   0.79829
 Alpha virt. eigenvalues --    0.79881   0.80688   0.81378   0.81693   0.81940
 Alpha virt. eigenvalues --    0.82557   0.82732   0.83136   0.83600   0.83912
 Alpha virt. eigenvalues --    0.84208   0.84461   0.84753   0.84936   0.85236
 Alpha virt. eigenvalues --    0.85602   0.85754   0.85897   0.86319   0.86597
 Alpha virt. eigenvalues --    0.86719   0.86815   0.86982   0.87258   0.87429
 Alpha virt. eigenvalues --    0.87708   0.88050   0.88198   0.88398   0.88679
 Alpha virt. eigenvalues --    0.88792   0.89028   0.89204   0.89589   0.89697
 Alpha virt. eigenvalues --    0.89882   0.90183   0.90241   0.90560   0.90853
 Alpha virt. eigenvalues --    0.91025   0.91104   0.91565   0.91606   0.91837
 Alpha virt. eigenvalues --    0.92397   0.92614   0.92905   0.93098   0.93314
 Alpha virt. eigenvalues --    0.93725   0.93854   0.94246   0.94397   0.94532
 Alpha virt. eigenvalues --    0.95021   0.95335   0.95638   0.95894   0.96232
 Alpha virt. eigenvalues --    0.96402   0.96614   0.97049   0.97301   0.97477
 Alpha virt. eigenvalues --    0.97702   0.97951   0.98303   0.98863   0.98995
 Alpha virt. eigenvalues --    0.99616   1.00024   1.00571   1.00903   1.01199
 Alpha virt. eigenvalues --    1.02047   1.02190   1.02556   1.03273   1.03876
 Alpha virt. eigenvalues --    1.04106   1.05004   1.05319   1.06175   1.07005
 Alpha virt. eigenvalues --    1.07823   1.08200   1.08446   1.08797   1.09281
 Alpha virt. eigenvalues --    1.11186   1.11678   1.12682   1.13119   1.14016
 Alpha virt. eigenvalues --    1.14515   1.14896   1.15228   1.15307   1.16132
 Alpha virt. eigenvalues --    1.16833   1.17308   1.19149   1.19651   1.19817
 Alpha virt. eigenvalues --    1.20957   1.21319   1.21936   1.22194   1.22256
 Alpha virt. eigenvalues --    1.23388   1.23657   1.23786   1.24188   1.24886
 Alpha virt. eigenvalues --    1.25723   1.26328   1.26749   1.27055   1.27116
 Alpha virt. eigenvalues --    1.28022   1.29329   1.29753   1.30620   1.31935
 Alpha virt. eigenvalues --    1.32657   1.33155   1.33288   1.34480   1.35314
 Alpha virt. eigenvalues --    1.35835   1.36237   1.37016   1.37728   1.38710
 Alpha virt. eigenvalues --    1.39096   1.39775   1.40183   1.40818   1.40948
 Alpha virt. eigenvalues --    1.41306   1.41891   1.42986   1.43871   1.44050
 Alpha virt. eigenvalues --    1.44487   1.44932   1.45689   1.45757   1.46242
 Alpha virt. eigenvalues --    1.47042   1.47359   1.47631   1.48009   1.48517
 Alpha virt. eigenvalues --    1.48833   1.49875   1.50197   1.50609   1.51257
 Alpha virt. eigenvalues --    1.51578   1.52621   1.52922   1.54348   1.55052
 Alpha virt. eigenvalues --    1.56271   1.56895   1.57970   1.58925   1.59762
 Alpha virt. eigenvalues --    1.60653   1.60773   1.61640   1.62334   1.62892
 Alpha virt. eigenvalues --    1.63713   1.64087   1.65392   1.65672   1.66644
 Alpha virt. eigenvalues --    1.67069   1.67449   1.68354   1.68998   1.69096
 Alpha virt. eigenvalues --    1.69480   1.70688   1.71141   1.71732   1.72424
 Alpha virt. eigenvalues --    1.72990   1.74415   1.76220   1.76485   1.77316
 Alpha virt. eigenvalues --    1.77503   1.78544   1.78896   1.79142   1.79461
 Alpha virt. eigenvalues --    1.80168   1.80551   1.81290   1.81653   1.82084
 Alpha virt. eigenvalues --    1.82292   1.82484   1.82799   1.83932   1.84115
 Alpha virt. eigenvalues --    1.85065   1.85609   1.86042   1.86250   1.86454
 Alpha virt. eigenvalues --    1.86960   1.87519   1.87997   1.88061   1.88970
 Alpha virt. eigenvalues --    1.89885   1.90529   1.90675   1.90860   1.91373
 Alpha virt. eigenvalues --    1.91509   1.91945   1.92198   1.92677   1.92827
 Alpha virt. eigenvalues --    1.93143   1.93265   1.93623   1.93835   1.94036
 Alpha virt. eigenvalues --    1.94415   1.94796   1.94857   1.94985   1.95331
 Alpha virt. eigenvalues --    1.95502   1.95754   1.96712   1.97076   1.97588
 Alpha virt. eigenvalues --    1.97745   1.98418   1.99270   1.99835   2.00137
 Alpha virt. eigenvalues --    2.00943   2.01958   2.02282   2.02708   2.03068
 Alpha virt. eigenvalues --    2.03606   2.03827   2.04669   2.05376   2.06032
 Alpha virt. eigenvalues --    2.06132   2.06853   2.07488   2.07785   2.08275
 Alpha virt. eigenvalues --    2.08666   2.08792   2.09054   2.09174   2.09677
 Alpha virt. eigenvalues --    2.10926   2.11642   2.11836   2.12256   2.12553
 Alpha virt. eigenvalues --    2.13232   2.13928   2.14114   2.15007   2.15125
 Alpha virt. eigenvalues --    2.15468   2.15963   2.16465   2.16759   2.17231
 Alpha virt. eigenvalues --    2.17425   2.17970   2.18609   2.18736   2.18793
 Alpha virt. eigenvalues --    2.19409   2.19749   2.20223   2.20243   2.20488
 Alpha virt. eigenvalues --    2.20883   2.21204   2.21602   2.22025   2.23262
 Alpha virt. eigenvalues --    2.23450   2.24157   2.24337   2.24766   2.24871
 Alpha virt. eigenvalues --    2.25253   2.26046   2.26313   2.26337   2.26790
 Alpha virt. eigenvalues --    2.27246   2.27468   2.27627   2.28245   2.28662
 Alpha virt. eigenvalues --    2.29178   2.30206   2.31255   2.32161   2.32442
 Alpha virt. eigenvalues --    2.33289   2.33494   2.33841   2.33922   2.34838
 Alpha virt. eigenvalues --    2.34998   2.35442   2.35855   2.36516   2.37527
 Alpha virt. eigenvalues --    2.38273   2.38939   2.39535   2.39737   2.40273
 Alpha virt. eigenvalues --    2.41747   2.42176   2.44266   2.45830   2.46851
 Alpha virt. eigenvalues --    2.48209   2.48349   2.48851   2.49567   2.50052
 Alpha virt. eigenvalues --    2.50449   2.50859   2.51186   2.51972   2.52158
 Alpha virt. eigenvalues --    2.54003   2.55227   2.55817   2.57403   2.59241
 Alpha virt. eigenvalues --    2.60575   2.61134   2.61490   2.61726   2.61935
 Alpha virt. eigenvalues --    2.62654   2.63397   2.63868   2.64954   2.65401
 Alpha virt. eigenvalues --    2.65811   2.66627   2.67601   2.69287   2.69332
 Alpha virt. eigenvalues --    2.69887   2.72419   2.75375   2.76881   2.77882
 Alpha virt. eigenvalues --    2.78844   2.79031   2.79258   2.79643   2.80080
 Alpha virt. eigenvalues --    2.81349   2.81761   2.82073   2.82303   2.82950
 Alpha virt. eigenvalues --    2.83484   2.83871   2.84339   2.85330   2.86527
 Alpha virt. eigenvalues --    2.88452   2.90173   2.94091   2.95003   2.95746
 Alpha virt. eigenvalues --    2.96033   2.97057   2.98897   2.99541   3.01304
 Alpha virt. eigenvalues --    3.04333   3.06245   3.07412   3.09624   3.11937
 Alpha virt. eigenvalues --    3.12546   3.13987   3.22860   3.25305   3.30377
 Alpha virt. eigenvalues --    3.44591  10.81972
          Condensed to atoms (all electrons):
 Mulliken charges:
               1
     1  C    0.304068
     2  C    0.041608
     3  C   -0.173052
     4  C   -0.140170
     5  C   -0.175219
     6  C    0.310232
     7  C    0.053789
     8  C   -0.171284
     9  C   -0.143668
    10  C   -0.179631
    11  H    0.191254
    12  H    0.174821
    13  H    0.169542
    14  H    0.212367
    15  H    0.176908
    16  H    0.164660
    17  N   -0.471307
    18  N   -0.534394
    19  Ir  -0.057658
    20  O   -0.513090
    21  O   -0.525242
    22  O   -0.527246
    23  B    0.411630
    24  B    0.436140
    25  B    0.782268
    26  O   -0.525044
    27  O   -0.516278
    28  C    0.301879
    29  C    0.300406
    30  C    0.304164
    31  C    0.305895
    32  C    0.288601
    33  C    0.308425
    34  O   -0.534321
    35  C   -0.507936
    36  H    0.162689
    37  H    0.164951
    38  H    0.144457
    39  C   -0.513787
    40  H    0.155683
    41  H    0.138875
    42  H    0.190579
    43  C   -0.510877
    44  H    0.171596
    45  H    0.142387
    46  H    0.170078
    47  C   -0.504659
    48  H    0.143866
    49  H    0.166124
    50  H    0.162866
    51  C   -0.510552
    52  H    0.192579
    53  H    0.171538
    54  H    0.138494
    55  C   -0.505860
    56  H    0.145605
    57  H    0.169187
    58  H    0.157023
    59  C   -0.507862
    60  H    0.148241
    61  H    0.159772
    62  H    0.170215
    63  C   -0.507551
    64  H    0.155749
    65  H    0.150931
    66  H    0.162831
    67  C   -0.514568
    68  H    0.155782
    69  H    0.189106
    70  H    0.145842
    71  C   -0.504770
    72  H    0.151519
    73  H    0.147323
    74  H    0.197375
    75  C   -0.512539
    76  H    0.168711
    77  H    0.171284
    78  H    0.148950
    79  C   -0.519245
    80  H    0.203916
    81  H    0.164659
    82  H    0.145491
    83  H    0.057291
    84  C    0.621910
    85  O   -0.521683
    86  C   -0.416707
    87  H    0.186857
    88  H    0.151125
    89  C   -0.387947
    90  H    0.204740
    91  H    0.171127
    92  N   -0.396192
    93  C   -0.376551
    94  H    0.176730
    95  H    0.180131
    96  H    0.193553
    97  C   -0.269470
    98  H    0.153578
    99  H    0.170248
   100  C   -0.277258
   101  H    0.144482
   102  H    0.125576
   103  C   -0.280224
   104  H    0.138805
   105  H    0.155634
   106  C   -0.498939
   107  H    0.157384
   108  H    0.168256
   109  H    0.162777
   110  H    0.178656
   111  H    0.168994
 Sum of Mulliken charges =  -0.00000
 Mulliken charges with hydrogens summed into heavy atoms:
               1
     1  C    0.304068
     2  C    0.232862
     3  C   -0.004057
     4  C    0.034651
     5  C   -0.005677
     6  C    0.310232
     7  C    0.266156
     8  C    0.007372
     9  C    0.033240
    10  C   -0.014972
    17  N   -0.471307
    18  N   -0.534394
    19  Ir  -0.000367
    20  O   -0.513090
    21  O   -0.525242
    22  O   -0.527246
    23  B    0.411630
    24  B    0.436140
    25  B    0.782268
    26  O   -0.525044
    27  O   -0.516278
    28  C    0.301879
    29  C    0.300406
    30  C    0.304164
    31  C    0.305895
    32  C    0.288601
    33  C    0.308425
    34  O   -0.534321
    35  C   -0.035839
    39  C   -0.028651
    43  C   -0.026817
    47  C   -0.031804
    51  C   -0.007942
    55  C   -0.034046
    59  C   -0.029634
    63  C   -0.038040
    67  C   -0.023838
    71  C   -0.008553
    75  C   -0.023594
    79  C   -0.005179
    84  C    0.621910
    85  O   -0.521683
    86  C   -0.078726
    89  C   -0.012080
    92  N   -0.396192
    93  C    0.173864
    97  C    0.054357
   100  C   -0.007200
   103  C    0.014215
   106  C   -0.010522
 APT charges:
               1
     1  C    0.225744
     2  C    0.042438
     3  C   -0.045716
     4  C    0.082967
     5  C   -0.175463
     6  C    0.071995
     7  C    0.018801
     8  C    0.014256
     9  C    0.017959
    10  C   -0.117065
    11  H    0.053890
    12  H    0.022518
    13  H    0.044572
    14  H    0.100711
    15  H    0.026482
    16  H    0.037577
    17  N   -0.114969
    18  N    0.023613
    19  Ir  -0.540394
    20  O   -0.964090
    21  O   -1.053818
    22  O   -0.916971
    23  B    1.312570
    24  B    1.359813
    25  B    1.290841
    26  O   -0.943094
    27  O   -1.022007
    28  C    0.496616
    29  C    0.499358
    30  C    0.486143
    31  C    0.432520
    32  C    0.507434
    33  C    0.500844
    34  O   -1.025708
    35  C   -0.008229
    36  H   -0.005835
    37  H   -0.003592
    38  H   -0.021593
    39  C   -0.045749
    40  H   -0.005735
    41  H   -0.030500
    42  H    0.043951
    43  C   -0.027128
    44  H   -0.000584
    45  H   -0.030290
    46  H   -0.002520
    47  C    0.004169
    48  H   -0.027610
    49  H   -0.003454
    50  H   -0.004980
    51  C   -0.039625
    52  H    0.025980
    53  H    0.001755
    54  H   -0.033020
    55  C   -0.001111
    56  H   -0.025691
    57  H   -0.000581
    58  H   -0.010097
    59  C   -0.005181
    60  H   -0.027523
    61  H   -0.003242
    62  H   -0.000076
    63  C   -0.024779
    64  H   -0.004877
    65  H   -0.027994
    66  H   -0.001492
    67  C   -0.035636
    68  H   -0.004147
    69  H    0.048573
    70  H   -0.018673
    71  C   -0.029989
    72  H   -0.015830
    73  H   -0.015843
    74  H    0.035970
    75  C   -0.014327
    76  H   -0.010299
    77  H    0.003616
    78  H   -0.004782
    79  C   -0.035976
    80  H    0.030610
    81  H   -0.010270
    82  H   -0.007794
    83  H   -0.105932
    84  C    0.930486
    85  O   -0.887716
    86  C   -0.032709
    87  H   -0.017198
    88  H    0.000602
    89  C   -0.000294
    90  H    0.034133
    91  H   -0.022962
    92  N   -0.660166
    93  C    0.330304
    94  H   -0.034102
    95  H    0.004312
    96  H   -0.008048
    97  C    0.093752
    98  H   -0.015019
    99  H   -0.024219
   100  C    0.114319
   101  H   -0.055025
   102  H   -0.047735
   103  C    0.119814
   104  H   -0.054120
   105  H   -0.044138
   106  C    0.065558
   107  H   -0.019537
   108  H   -0.033198
   109  H   -0.021092
   110  H    0.038379
   111  H    0.033215
 Sum of APT charges =   0.00000
 APT charges with hydrogens summed into heavy atoms:
               1
     1  C    0.225744
     2  C    0.096328
     3  C   -0.012501
     4  C    0.105485
     5  C   -0.130891
     6  C    0.071995
     7  C    0.119512
     8  C    0.052635
     9  C    0.044440
    10  C   -0.079488
    17  N   -0.114969
    18  N    0.023613
    19  Ir  -0.646326
    20  O   -0.964090
    21  O   -1.053818
    22  O   -0.916971
    23  B    1.312570
    24  B    1.359813
    25  B    1.290841
    26  O   -0.943094
    27  O   -1.022007
    28  C    0.496616
    29  C    0.499358
    30  C    0.486143
    31  C    0.432520
    32  C    0.507434
    33  C    0.500844
    34  O   -1.025708
    35  C   -0.039248
    39  C   -0.038032
    43  C   -0.060521
    47  C   -0.031874
    51  C   -0.044910
    55  C   -0.037480
    59  C   -0.036022
    63  C   -0.059142
    67  C   -0.009883
    71  C   -0.025692
    75  C   -0.025793
    79  C   -0.023431
    84  C    0.930486
    85  O   -0.887716
    86  C   -0.049306
    89  C    0.010878
    92  N   -0.660166
    93  C    0.292465
    97  C    0.054514
   100  C    0.011559
   103  C    0.021555
   106  C   -0.008268
 Electronic spatial extent (au):  <R**2>=          31627.6026
 Charge=              0.0000 electrons
 Dipole moment (field-independent basis, Debye):
    X=             -6.3160    Y=             -2.3832    Z=              2.4513  Tot=              7.1819
 Quadrupole moment (field-independent basis, Debye-Ang):
   XX=           -290.4754   YY=           -314.0303   ZZ=           -289.4833
   XY=             16.5272   XZ=             13.9641   YZ=              0.4967
 Traceless Quadrupole moment (field-independent basis, Debye-Ang):
   XX=              7.5210   YY=            -16.0340   ZZ=              8.5130
   XY=             16.5272   XZ=             13.9641   YZ=              0.4967
 Octapole moment (field-independent basis, Debye-Ang**2):
  XXX=              1.2923  YYY=             -5.0470  ZZZ=             -1.4692  XYY=             32.1692
  XXY=            -42.6450  XXZ=            -49.9752  XZZ=            -28.7024  YZZ=            -25.4562
  YYZ=             -5.5234  XYZ=             10.5658
 Hexadecapole moment (field-independent basis, Debye-Ang**3):
 XXXX=         -24864.5092 YYYY=         -11274.2303 ZZZZ=          -5305.2064 XXXY=             72.3437
 XXXZ=            156.2457 YYYX=             -8.6902 YYYZ=             82.3390 ZZZX=            196.1483
 ZZZY=           -178.5614 XXYY=          -6026.6034 XXZZ=          -5061.7470 YYZZ=          -2820.2172
 XXYZ=            -15.6823 YYXZ=            -64.6257 ZZXY=             11.3825
 N-N= 7.998191869279D+03 E-N=-2.127502160547D+04  KE= 2.192067651899D+03
  Exact polarizability:     569.411      52.153     443.756       1.131      -5.279     481.277
 Approx polarizability:     746.538      86.933     617.635       9.945     -14.126     792.967
   1 Symmetry operations used in ECPInt.
 ECPInt:  NShTT=   53301 NPrTT=  320676 LenC2=   39175 LenP2D=  120024.
 LDataN:  DoStor=T MaxTD1= 8 Len=  415
 Calling FoFJK, ICntrl=    100127 FMM=F ISym2X=0 I1Cent= 0 IOpClX= 0 NMat=1 NMatS=1 NMatT=0.
 Defaulting to unpruned grid for atomic number  77.
 Defaulting to unpruned grid for atomic number  77.
 Defaulting to unpruned grid for atomic number  77.
 Defaulting to unpruned grid for atomic number  77.
 Defaulting to unpruned grid for atomic number  77.
 Defaulting to unpruned grid for atomic number  77.
 Defaulting to unpruned grid for atomic number  77.
 Defaulting to unpruned grid for atomic number  77.
 Defaulting to unpruned grid for atomic number  77.
 Defaulting to unpruned grid for atomic number  77.
 Defaulting to unpruned grid for atomic number  77.
 Defaulting to unpruned grid for atomic number  77.
 Defaulting to unpruned grid for atomic number  77.
 Defaulting to unpruned grid for atomic number  77.
 Defaulting to unpruned grid for atomic number  77.
 Defaulting to unpruned grid for atomic number  77.
 Full mass-weighted force constant matrix:
 Low frequencies ---   -6.7725   -4.9760   -3.5958   -0.0011   -0.0002    0.0004
 Low frequencies ---    8.1637   13.6048   19.8166
 Diagonal vibrational polarizability:
      709.5848362     522.4343550     163.9705173
 Harmonic frequencies (cm**-1), IR intensities (KM/Mole), Raman scattering
 activities (A**4/AMU), depolarization ratios for plane and unpolarized
 incident light, reduced masses (AMU), force constants (mDyne/A),
 and normal coordinates:
                      1                      2                      3
                      A                      A                      A
 Frequencies --      4.6126                13.3636                19.5586
 Red. masses --      3.1420                 4.1729                 4.5286
 Frc consts  --      0.0000                 0.0004                 0.0010
 IR Inten    --      0.7593                 0.3825                 0.0185
  Atom AN      X      Y      Z        X      Y      Z        X      Y      Z
     1   6     0.00  -0.01  -0.04    -0.01  -0.00  -0.04    -0.02   0.03   0.04
     2   6     0.04  -0.03  -0.05     0.02   0.01  -0.04     0.01  -0.03   0.04
     3   6     0.04  -0.03  -0.06     0.03  -0.02  -0.06     0.01  -0.03   0.04
     4   6     0.01  -0.01  -0.07     0.03  -0.05  -0.07    -0.01   0.00   0.04
     5   6    -0.00  -0.01  -0.06     0.01  -0.04  -0.06    -0.02   0.03   0.04
     6   6    -0.02  -0.01  -0.03    -0.03   0.01  -0.03    -0.03   0.06   0.04
     7   6    -0.02  -0.01  -0.00    -0.04   0.02  -0.00    -0.02   0.03   0.04
     8   6    -0.04  -0.00  -0.01    -0.06   0.03  -0.00    -0.06   0.11   0.05
     9   6    -0.05   0.00  -0.02    -0.06   0.02  -0.02    -0.08   0.17   0.05
    10   6    -0.03  -0.00  -0.03    -0.05   0.02  -0.03    -0.07   0.14   0.05
    11   1     0.06  -0.04  -0.04     0.02   0.03  -0.04     0.02  -0.06   0.04
    12   1     0.01  -0.01  -0.08     0.05  -0.08  -0.08    -0.00  -0.00   0.05
    13   1    -0.02   0.00  -0.06     0.01  -0.07  -0.06    -0.03   0.05   0.04
    14   1    -0.02  -0.01   0.01    -0.04   0.02   0.01    -0.00  -0.01   0.03
    15   1    -0.06   0.00  -0.02    -0.08   0.03  -0.02    -0.11   0.23   0.06
    16   1    -0.04  -0.00  -0.05    -0.05   0.01  -0.04    -0.09   0.19   0.05
    17   7     0.02  -0.02  -0.04    -0.00   0.02  -0.03    -0.01  -0.00   0.03
    18   7    -0.01  -0.01  -0.02    -0.03   0.02  -0.01    -0.01   0.01   0.03
    19  77     0.01  -0.00  -0.01    -0.01   0.03  -0.01     0.00  -0.01   0.03
    20   8     0.02   0.00  -0.02    -0.07  -0.01  -0.03     0.05  -0.00  -0.04
    21   8     0.01   0.00   0.01     0.04  -0.01  -0.01     0.01  -0.01   0.04
    22   8    -0.03  -0.03  -0.00    -0.01   0.02  -0.00     0.02  -0.01  -0.03
    23   5     0.00   0.01   0.01     0.00   0.01   0.01     0.00  -0.01   0.03
    24   5     0.02   0.01  -0.01    -0.02   0.01  -0.01     0.02   0.01  -0.01
    25   5    -0.03  -0.03   0.00    -0.01   0.02  -0.01     0.01  -0.02  -0.00
    26   8    -0.02  -0.02  -0.00     0.00   0.03  -0.02    -0.01  -0.01   0.02
    27   8     0.04   0.02   0.00     0.00   0.02   0.02    -0.01   0.04  -0.04
    28   6     0.04   0.02  -0.00    -0.02   0.00   0.01    -0.02   0.03  -0.11
    29   6     0.02   0.01  -0.01    -0.07  -0.02  -0.00     0.04  -0.01  -0.11
    30   6    -0.02  -0.02  -0.01     0.01   0.03  -0.02     0.01  -0.00  -0.03
    31   6    -0.01  -0.02  -0.01     0.01   0.03  -0.02    -0.01   0.01  -0.00
    32   6     0.01   0.00   0.02     0.05  -0.04   0.02     0.01  -0.02   0.04
    33   6    -0.01   0.01   0.04     0.00  -0.02   0.04     0.00  -0.03   0.04
    34   8    -0.01   0.01   0.03    -0.02  -0.00   0.05    -0.00  -0.02   0.03
    35   6     0.03   0.01  -0.03    -0.09  -0.02  -0.03     0.03  -0.02  -0.16
    36   1     0.02  -0.00  -0.03    -0.12  -0.04  -0.04     0.08  -0.05  -0.15
    37   1     0.03   0.01  -0.04    -0.08  -0.00  -0.06    -0.00   0.01  -0.13
    38   1     0.03   0.01  -0.02    -0.09  -0.03  -0.02     0.02  -0.02  -0.22
    39   6     0.01   0.00   0.01    -0.09  -0.05   0.03     0.09  -0.05  -0.13
    40   1     0.00  -0.01  -0.00    -0.11  -0.06   0.02     0.13  -0.09  -0.12
    41   1     0.01   0.01   0.01    -0.09  -0.06   0.05     0.08  -0.06  -0.19
    42   1     0.01   0.00   0.02    -0.07  -0.05   0.05     0.09  -0.05  -0.10
    43   6     0.05   0.03  -0.02    -0.02   0.03  -0.02    -0.07   0.07  -0.12
    44   1     0.06   0.04  -0.01     0.01   0.05  -0.01    -0.10   0.10  -0.10
    45   1     0.05   0.03  -0.02    -0.04   0.02  -0.03    -0.08   0.07  -0.17
    46   1     0.05   0.03  -0.03    -0.03   0.05  -0.05    -0.06   0.08  -0.08
    47   6     0.04   0.03   0.01    -0.01  -0.03   0.05    -0.03   0.03  -0.17
    48   1     0.04   0.03   0.01    -0.04  -0.04   0.04    -0.03   0.02  -0.23
    49   1     0.05   0.04   0.02     0.02  -0.01   0.06    -0.07   0.07  -0.16
    50   1     0.03   0.02   0.03    -0.01  -0.05   0.08     0.01  -0.00  -0.15
    51   6     0.03  -0.00   0.04     0.06  -0.08   0.05     0.01  -0.02   0.04
    52   1     0.03  -0.00   0.04     0.04  -0.08   0.06    -0.01  -0.02   0.03
    53   1     0.04  -0.01   0.03     0.09  -0.09   0.02     0.01  -0.01   0.04
    54   1     0.03  -0.00   0.05     0.07  -0.11   0.07     0.01  -0.04   0.04
    55   6     0.01   0.00   0.02     0.08  -0.04  -0.01     0.02  -0.02   0.04
    56   1     0.00   0.01   0.04     0.08  -0.06   0.02     0.02  -0.03   0.05
    57   1     0.02  -0.00   0.01     0.12  -0.06  -0.03     0.02  -0.02   0.04
    58   1    -0.01   0.01   0.01     0.06  -0.01  -0.04     0.02  -0.02   0.04
    59   6    -0.01   0.01   0.06    -0.01  -0.05   0.09     0.00  -0.04   0.04
    60   1    -0.00   0.01   0.07     0.01  -0.07   0.09     0.01  -0.04   0.04
    61   1    -0.02   0.02   0.06    -0.05  -0.04   0.10    -0.00  -0.04   0.04
    62   1     0.01   0.01   0.06    -0.01  -0.07   0.10    -0.00  -0.04   0.04
    63   6    -0.03   0.02   0.03    -0.01   0.01   0.02     0.01  -0.03   0.04
    64   1    -0.04   0.02   0.03    -0.05   0.02   0.04     0.00  -0.03   0.04
    65   1    -0.03   0.02   0.03     0.01  -0.01   0.02     0.01  -0.03   0.04
    66   1    -0.03   0.02   0.01    -0.00   0.03  -0.01     0.01  -0.03   0.04
    67   6    -0.01  -0.01  -0.01     0.02   0.03  -0.03    -0.01   0.01   0.01
    68   1    -0.01  -0.00  -0.01     0.02   0.03  -0.03    -0.03   0.02   0.03
    69   1    -0.01  -0.01  -0.01     0.01   0.02  -0.04    -0.00  -0.02   0.02
    70   1    -0.01  -0.00  -0.02     0.03   0.04  -0.04    -0.01   0.02  -0.01
    71   6    -0.01  -0.01   0.00     0.02   0.03  -0.01    -0.03   0.04  -0.00
    72   1    -0.01  -0.01   0.00     0.02   0.03  -0.01    -0.04   0.05   0.02
    73   1    -0.00  -0.01  -0.00     0.03   0.03  -0.01    -0.03   0.06  -0.02
    74   1    -0.01  -0.01   0.01     0.02   0.04   0.00    -0.02   0.04  -0.01
    75   6    -0.01  -0.02  -0.01     0.02   0.03  -0.01     0.02   0.03  -0.06
    76   1    -0.02  -0.02  -0.02     0.01   0.03  -0.01     0.03   0.02  -0.08
    77   1    -0.01  -0.01  -0.00     0.03   0.04   0.00     0.01   0.04  -0.06
    78   1    -0.01  -0.01  -0.02     0.04   0.04  -0.02     0.01   0.04  -0.06
    79   6    -0.02  -0.03  -0.02    -0.00   0.02  -0.04     0.03  -0.03  -0.04
    80   1    -0.03  -0.03  -0.02    -0.01   0.01  -0.05     0.02  -0.05  -0.02
    81   1    -0.03  -0.03  -0.03    -0.01   0.02  -0.04     0.04  -0.04  -0.05
    82   1    -0.02  -0.02  -0.03     0.01   0.02  -0.05     0.03  -0.02  -0.04
    83   1     0.02   0.01  -0.01     0.00   0.04  -0.01    -0.00   0.00   0.03
    84   6     0.00  -0.06   0.02     0.01   0.00   0.01     0.01  -0.02  -0.01
    85   8     0.01  -0.02   0.01     0.02   0.02   0.00    -0.01  -0.00  -0.01
    86   6    -0.00  -0.05   0.05     0.02  -0.02   0.03     0.01  -0.03  -0.02
    87   1     0.00  -0.07   0.02    -0.00  -0.02   0.05     0.02  -0.05  -0.04
    88   1    -0.01  -0.08   0.09     0.02  -0.01   0.03     0.03  -0.04   0.00
    89   6    -0.02  -0.03  -0.00    -0.01   0.03  -0.01     0.02  -0.03   0.00
    90   1     0.01   0.01  -0.02     0.00   0.05  -0.02     0.02  -0.03   0.02
    91   1    -0.07  -0.02  -0.00    -0.04   0.04  -0.01     0.02  -0.04  -0.00
    92   7     0.01  -0.09   0.02     0.00   0.00   0.00     0.02  -0.04  -0.00
    93   6     0.01  -0.06   0.01    -0.01   0.02  -0.00     0.04  -0.07   0.00
    94   1     0.25   0.16  -0.12     0.06   0.09  -0.05     0.04  -0.08   0.03
    95   1     0.09  -0.39   0.11     0.01  -0.09   0.04     0.04  -0.06  -0.01
    96   1    -0.32   0.06   0.04    -0.12   0.06   0.01     0.06  -0.09  -0.01
    97   6    -0.01   0.02   0.05     0.05  -0.03   0.05    -0.00  -0.01  -0.02
    98   1    -0.02  -0.00   0.06     0.08  -0.02   0.03    -0.01   0.01  -0.00
    99   1     0.04   0.04   0.03     0.04  -0.04   0.06    -0.02  -0.00  -0.05
   100   6    -0.05   0.07   0.08     0.08  -0.07   0.08     0.01  -0.03  -0.02
   101   1    -0.03   0.10   0.08     0.04  -0.08   0.11     0.01  -0.05  -0.04
   102   1    -0.10   0.05   0.09     0.08  -0.05   0.05     0.03  -0.03  -0.00
   103   6    -0.05   0.12   0.09     0.13  -0.10   0.10    -0.01  -0.01  -0.03
   104   1    -0.07   0.09   0.09     0.18  -0.09   0.06    -0.01   0.01  -0.01
   105   1     0.01   0.14   0.08     0.12  -0.12   0.12    -0.03  -0.00  -0.05
   106   6    -0.10   0.19   0.11     0.16  -0.15   0.13     0.00  -0.03  -0.03
   107   1    -0.16   0.17   0.12     0.18  -0.13   0.11     0.02  -0.03  -0.01
   108   1    -0.10   0.22   0.11     0.20  -0.17   0.15    -0.01  -0.02  -0.03
   109   1    -0.08   0.23   0.11     0.12  -0.17   0.17     0.01  -0.05  -0.05
   110   1    -0.05  -0.00   0.00    -0.07   0.03   0.01    -0.07   0.12   0.05
   111   1     0.05  -0.03  -0.07     0.05  -0.03  -0.07     0.02  -0.06   0.05
                      4                      5                      6
                      A                      A                      A
 Frequencies --     25.0473                31.1733                32.2725
 Red. masses --      3.6301                 3.8125                 3.5541
 Frc consts  --      0.0013                 0.0022                 0.0022
 IR Inten    --      0.0442                 2.1440                 0.3275
  Atom AN      X      Y      Z        X      Y      Z        X      Y      Z
     1   6    -0.02   0.01  -0.02     0.02   0.03   0.00    -0.03  -0.01   0.01
     2   6     0.01  -0.01  -0.03    -0.01   0.02   0.01    -0.05   0.02   0.01
     3   6     0.01  -0.02  -0.03    -0.01   0.03   0.02    -0.06   0.05   0.01
     4   6    -0.00  -0.01  -0.03     0.00   0.03   0.03    -0.06   0.05   0.02
     5   6    -0.01  -0.00  -0.03     0.02   0.03   0.02    -0.04   0.02   0.01
     6   6    -0.03   0.02  -0.02     0.03   0.03  -0.01    -0.01  -0.03   0.01
     7   6    -0.02   0.00  -0.01     0.04   0.01  -0.03    -0.01  -0.05   0.01
     8   6    -0.04   0.03  -0.01     0.05   0.03  -0.03     0.00  -0.07   0.00
     9   6    -0.05   0.05  -0.01     0.05   0.04  -0.01     0.01  -0.07   0.00
    10   6    -0.04   0.04  -0.02     0.04   0.04  -0.00    -0.00  -0.05   0.00
    11   1     0.01  -0.02  -0.02    -0.02   0.01  -0.00    -0.05   0.02   0.01
    12   1     0.00  -0.02  -0.04    -0.00   0.04   0.04    -0.07   0.07   0.02
    13   1    -0.02   0.00  -0.03     0.03   0.04   0.02    -0.04   0.03   0.02
    14   1    -0.01  -0.02  -0.01     0.04  -0.00  -0.04    -0.01  -0.04   0.01
    15   1    -0.07   0.07  -0.01     0.05   0.05  -0.01     0.01  -0.09   0.00
    16   1    -0.05   0.06  -0.02     0.03   0.05   0.01    -0.00  -0.06   0.00
    17   7    -0.01  -0.00  -0.02     0.01   0.02  -0.00    -0.03  -0.01   0.01
    18   7    -0.02  -0.00  -0.02     0.03   0.01  -0.02    -0.01  -0.03   0.01
    19  77    -0.00  -0.01  -0.01     0.02   0.01  -0.03    -0.01  -0.03   0.01
    20   8     0.02   0.02   0.05    -0.03  -0.02  -0.03     0.04  -0.01  -0.01
    21   8    -0.04   0.03   0.06     0.04   0.02   0.03    -0.02  -0.02   0.01
    22   8     0.02   0.01  -0.01     0.01  -0.01  -0.05     0.03  -0.01  -0.06
    23   5    -0.00  -0.01  -0.01     0.03  -0.01  -0.01    -0.02  -0.01   0.02
[...]
 0003249,-0.00002480,0.00001342,0.00000659,0.00000552,-0.00006503,0.001
 80405,0.00081557,-0.00071642,-0.02380201,-0.00803949,-0.01245926,-0.13
 673941,-0.03586062,-0.18818380,0.00794927,0.00221731,0.01016800,0.0019
 3495,0.00163876,0.00061009,0.00000093,0.00000338,-0.00000119,-0.000007
 37,-0.00000432,-0.00000319,-0.00001500,0.00000341,0.00001399,0.0003485
 5,-0.00040397,0.00066766,-0.00032968,-0.00066082,0.00049081,0.00047453
 ,0.00024653,0.00042830,0.00002055,0.00002497,-0.00009061,0.00058090,0.
 00238706,-0.00585116,-0.00029093,-0.00040415,0.00064584,0.00019047,-0.
 00017320,0.00004903,0.00016985,0.00010532,0.00005336,0.00000820,0.0000
 5902,0.00003836,-0.00046979,-0.00019396,-0.00009687,-0.00022746,0.0002
 3191,0.00002449,0.00002703,-0.00006529,-0.00000736,-0.00001682,0.00008
 122,0.00001432,0.00013703,-0.00009568,-0.00000770,-0.00001142,0.000072
 12,-0.00001809,-0.00017094,0.00000755,-0.00003443,-0.00001375,-0.00000
 368,-0.00001970,-0.00003841,-0.00010189,-0.00005517,-0.00008927,0.0000
 2141,-0.00002503,-0.00002247,-0.00010952,-0.00007938,0.00032164,0.0000
 8172,0.00018361,0.00003014,0.00000136,0.00000310,-0.00000903,-0.000011
 27,0.00000489,0.00000481,0.00001365,0.00000805,0.00000240,-0.00000945,
 0.00000051,0.00005377,0.00003767,-0.00003045,-0.00002425,-0.00005856,0
 .00002214,0.00000264,0.00000572,0.00002491,0.00000152,0.00001017,-0.00
 003628,0.00000248,-0.00001659,0.00001400,-0.00000099,0.00000324,0.0000
 0843,0.00000237,-0.00000583,-0.00000333,0.00000352,0.00000648,-0.00000
 155,0.00000113,-0.00001433,-0.00000205,0.00000772,-0.00000406,-0.00000
 343,0.00000132,0.00000193,0.00000606,0.00000495,0.00000923,-0.00000185
 ,0.00002188,-0.00000860,0.00001453,-0.00001043,0.00000087,-0.00000441,
 -0.00000270,-0.00000513,0.00001261,0.00000803,0.00000312,-0.00000473,0
 .00001814,-0.00000238,0.00000694,0.00000783,0.00000887,-0.00000406,-0.
 00000098,-0.00000349,0.00001032,-0.00000920,0.00000800,-0.00000275,0.0
 0000084,0.00003364,-0.00001017,0.00000867,-0.00000798,0.00000635,0.000
 02243,-0.00001121,0.00001262,-0.00000856,0.00000615,0.00000812,-0.0000
 3945,0.00006748,-0.00006975,0.00007473,-0.00002136,0.00003846,-0.00000
 677,-0.00001462,0.00004105,-0.00001069,0.00001368,-0.00001977,0.000037
 48,0.00004984,0.00002281,-0.00004058,-0.00004588,-0.00003252,0.0000030
 5,-0.00000547,-0.00000911,-0.00001170,0.00003133,-0.00000365,0.0000148
 0,-0.00001769,0.00002685,0.00000713,0.00000529,-0.00002073,-0.00001049
 ,0.00001522,0.00000444,0.00000514,0.00000481,-0.00000242,-0.00000134,0
 .00000136,-0.00000255,-0.00000035,0.00000091,-0.00000008,0.00000273,-0
 .00000034,-0.00000043,-0.00000032,0.00000289,0.00000373,0.00000257,-0.
 00000047,-0.00000285,-0.00000406,-0.00000439,-0.00000357,0.00000224,-0
 .00000022,0.00000063,0.00000196,0.00000791,0.00000424,0.00010503,0.000
 13110,-0.00034263,0.00001109,-0.00000609,-0.00001302,-0.00000571,0.000
 01528,0.00000464,-0.00000135,-0.00000336,-0.00000032,-0.00000134,0.000
 00171,-0.00000046,0.00000172,0.00000025,0.00000309,0.00000850,-0.00000
 445,0.00000199,0.00001350,0.00000550,0.00001418,-0.00000427,0.00000410
 ,-0.00000392,-0.00002332,0.00000731,0.00000267,0.00000280,-0.00000224,
 0.00000839,0.00000048,0.00000076,0.00000177,-0.00000179,-0.00000098,0.
 00000044,0.00000103,0.00000199,-0.00000066,0.00000268,-0.00000199,0.00
 000134,0.00000049,-0.00000079,-0.00000313,-0.00000174,0.00000146,0.000
 00004,0.00000150,-0.00000058,0.00000040,-0.00000195,0.00000082,-0.0000
 0076,0.00000098,0.00000110,0.00000135,0.00000136,-0.00000122,-0.000000
 80,-0.00000040,0.00000043,-0.00000141,-0.00000052,0.00000052,0.0000004
 9,0.00000020,0.00000041,0.00000101,0.00000047,0.00000002,-0.00000020,-
 0.00000075,-0.00000056,0.00000101,-0.00000070,0.00000035,-0.00000087,0
 .14806964,0.03810015,0.19446652,-0.00105839,-0.00037169,0.00164951,-0.
 00655847,-0.00464266,-0.02451284,-0.11557678,-0.05265020,-0.10898165,0
 .00914990,0.00467397,0.01040048,0.00144168,-0.00330392,0.00264104,-0.0
 0019009,0.00073680,-0.00004340,0.00001676,0.00001086,-0.00000930,-0.00
 000225,0.00001607,0.00000520,0.00001489,0.00003277,-0.00004869,-0.0000
 4573,-0.00004286,0.00000453,-0.00029399,0.00170891,0.00027206,-0.00045
 722,0.00186579,-0.00064386,0.00046549,0.00005483,0.00061663,0.00000073
 ,-0.00000540,0.00000735,-0.00000266,0.00000017,-0.00000711,0.00003243,
 -0.00002796,-0.00002516,-0.00271280,-0.00658868,0.00036764,-0.00004859
 ,-0.00007270,0.00008920,0.00028161,0.00063731,-0.00043861,-0.00006274,
 0.00011423,-0.00000428,-0.00019286,-0.00014874,0.00001696,0.00002471,-
 0.00000840,0.00003272,0.00020031,-0.00003135,0.00014404,0.00013387,-0.
 00022426,-0.00004650,-0.00008123,0.00002310,-0.00012701,0.00004237,-0.
 00008109,0.00004368,-0.00010609,0.00011490,0.00007456,0.00002697,-0.00
 007940,-0.00001965,0.00004399,-0.00003386,-0.00001614,-0.00000912,0.00
 000351,-0.00001572,-0.00001000,0.00001871,0.00003214,0.00006816,-0.000
 00608,-0.00001323,0.00002608,0.00003036,0.00000572,-0.00015527,-0.0000
 4748,-0.00004263,-0.00001218,-0.00000150,-0.00000674,0.00000177,0.0000
 0014,0.00000142,0.00000483,0.00000460,0.00000240,-0.00000208,0.0000057
 2,-0.00000018,-0.00001059,0.00000595,0.00000600,0.00000253,-0.00000179
 ,0.00000302,-0.00000623,0.00000194,-0.00000169,0.00000794,-0.00000236,
 0.00000111,-0.00001841,0.00001391,0.00001709,-0.00000749,-0.00000590,0
 .00000493,0.00000228,0.00000870,0.00000445,0.00000757,-0.00000178,-0.0
 0002062,-0.00000079,0.00001414,0.00000673,-0.00000585,0.00000307,-0.00
 000030,-0.00000284,-0.00000435,0.00000208,0.00000911,0.00000291,0.0000
 0291,-0.00001233,-0.00000154,-0.00000019,0.00000288,-0.00000088,-0.000
 00442,0.00000274,-0.00000238,0.00000090,-0.00000883,-0.00000029,0.0000
 0482,-0.00001789,0.00000194,0.00000097,-0.00000606,-0.00000867,-0.0000
 0052,0.00000251,-0.00000174,0.00000243,0.00000155,0.00000219,-0.000000
 12,-0.00000232,-0.00000905,-0.00000457,-0.00000727,-0.00000106,0.00000
 056,-0.00000125,0.00000231,-0.00000303,0.00000104,0.00000123,0.0000027
 3,-0.00000810,-0.00000739,0.00000274,0.00000133,0.00000215,-0.00000109
 ,-0.00000356,-0.00000624,-0.00000375,-0.00000001,0.00000344,0.00000271
 ,-0.00000329,-0.00000615,-0.00000139,0.00000034,-0.00000016,0.00000777
 ,-0.00000029,0.00000947,0.00000087,0.00000464,-0.00000458,-0.00000355,
 0.00000078,0.00000272,-0.00000234,-0.00000220,-0.00000039,0.00000693,0
 .00000061,-0.00000285,-0.00000168,0.00000185,0.00000071,-0.00000201,0.
 00000338,-0.00000138,0.00000449,0.00000139,-0.00000318,0.00000051,-0.0
 0000019,0.00000061,-0.00000055,-0.00000095,0.00000175,0.00000053,0.000
 00071,0.00000152,0.00000410,-0.00000237,0.00000288,-0.00000451,0.00000
 224,-0.00000420,0.00000108,0.00000013,0.00000141,0.00000002,0.00001941
 ,0.00000628,0.00004492,0.00027976,-0.00003439,-0.00036289,-0.00001629,
 0.00003014,0.00019608,-0.00018027,0.00015062,0.00000119,0.00001001,-0.
 00001644,0.00000845,-0.00015362,0.00056573,0.00000366,-0.00003307,-0.0
 0001092,0.00006178,-0.00004412,-0.00002142,-0.00002777,-0.00000538,-0.
 00000813,-0.00000034,-0.00010981,-0.00006299,0.00024392,0.00020393,-0.
 00020230,-0.00029406,-0.00015823,0.00007603,0.00015187,-0.00000686,-0.
 00000775,0.00000558,-0.00005585,0.00007829,0.00003664,0.00001870,-0.00
 002835,0.00001686,0.00000030,0.00000768,0.00001679,-0.00001666,-0.0000
 1182,-0.00000576,-0.00000497,0.00019609,0.00010385,0.00001361,-0.00003
 836,-0.00002182,0.00008304,-0.00019067,-0.00008956,0.00000138,-0.00006
 425,0.00000917,0.00000106,0.00000746,-0.00000353,0.00001230,-0.0000008
 5,-0.00002541,-0.00000738,0.00000716,-0.00000569,-0.00000357,-0.000007
 17,0.00000431,0.00000737,0.00000066,-0.00000841,0.00000024,-0.00000235
 ,0.00000340,0.00000777,-0.00001731,-0.00000797,0.11581077,-0.00009482,
 -0.00041952,0.00102754,-0.00367573,-0.00241010,-0.01413126,-0.05304890
 ,-0.06721623,-0.07344313,0.00382985,0.00438543,0.00594465,-0.00309768,
 0.00532908,0.00129681,0.00057471,-0.00111268,-0.00016553,0.00002835,0.
 00001572,0.00001234,-0.00000622,-0.00002459,-0.00001746,0.00002538,-0.
 00001985,-0.00001461,-0.00006591,0.00001023,-0.00000778,0.00170219,-0.
 00212301,0.00030802,0.00184410,-0.00257820,-0.00016729,0.00003831,0.00
 028820,0.00032096,-0.00000419,0.00000281,-0.00000228,-0.00000058,-0.00
 000032,-0.00000455,-0.00001980,0.00006579,0.00000527,-0.00661294,0.004
 38685,0.00046846,-0.00009753,0.00001795,-0.00004268,0.00055561,0.00011
 004,-0.00005992,-0.00002562,-0.00001143,0.00000670,-0.00000892,-0.0000
 8254,0.00002105,0.00008200,0.00010563,0.00010596,-0.00009280,0.0002082
 0,-0.00007522,0.00003087,-0.00005555,-0.00003969,-0.00030585,-0.000133
 39,-0.00019879,0.00016562,-0.00002597,0.00011218,-0.00001675,0.0000085
 7,0.00002473,0.00000813,0.00000489,0.00000918,0.00001615,-0.00000513,-
 0.00000809,-0.00005750,-0.00003267,-0.00007482,-0.00000436,-0.00002848
 ,-0.00001301,0.00000112,0.00000592,-0.00000498,0.00001738,0.00003849,-
 0.00000530,-0.00009403,-0.00008421,-0.00000701,0.00000370,0.00000163,0
 .00000558,0.00000149,-0.00000050,0.00000136,0.00000001,-0.00000203,-0.
 00000455,-0.00000304,-0.00000012,0.00000026,-0.00000341,-0.00000259,-0
 .00000008,0.00000085,0.00000043,0.00000101,-0.00000276,0.00000131,-0.0
 0000022,0.00000098,-0.00000102,-0.00000011,0.00000489,0.00000177,-0.00
 000930,-0.00000324,-0.00000054,0.00000317,0.00000274,0.00000015,0.0000
 0141,-0.00000444,0.00000471,0.00000107,-0.00000016,-0.00000233,-0.0000
 0177,0.00000041,0.00000019,0.00000004,-0.00000044,0.00000035,0.0000027
 1,-0.00000164,-0.00000134,-0.00000182,-0.00000339,0.00000150,-0.000002
 16,0.00000228,-0.00000042,-0.00000350,0.00000034,-0.00000218,0.0000027
 9,-0.00000167,-0.00000008,0.00000141,-0.00000175,0.00000192,0.00000275
 ,-0.00000019,-0.00000222,-0.00000035,-0.00000060,-0.00000257,0.0000039
 9,-0.00000002,-0.00000046,-0.00000355,-0.00000402,-0.00000863,0.000000
 94,-0.00000551,-0.00000145,-0.00000009,0.00000132,0.00000099,0.0000013
 6,0.00000170,0.00000088,-0.00000189,-0.00000841,-0.00000485,0.00000090
 ,0.00000172,0.00000025,0.00000192,-0.00000181,-0.00000447,-0.00000347,
 0.00000125,0.00000111,-0.00000047,0.,0.00000295,-0.00000086,0.00000067
 ,-0.00000206,0.00001043,-0.00000132,0.00000777,-0.00000019,0.00000490,
 -0.00000216,0.00000083,-0.00001556,0.00001766,-0.00000165,0.00000462,-
 0.00000513,0.00000835,0.00000306,-0.00000013,0.00000661,0.00000288,-0.
 00000941,-0.00001649,0.00000391,-0.00000075,0.00001186,-0.00000072,-0.
 00000425,-0.00000193,0.00000070,-0.00000096,-0.00000660,0.00000281,0.0
 0000598,0.00000657,0.00000973,0.00000542,0.00001083,-0.00000730,0.0000
 0047,-0.00000575,-0.00000079,-0.00000640,0.00000028,0.00000703,0.00000
 804,0.00000454,0.00002540,0.00000582,0.00007094,-0.00050666,-0.0003288
 1,-0.00070387,0.00045708,0.00004803,0.00041471,-0.00003587,-0.00009808
 ,-0.00018326,-0.00003675,0.00014573,0.00006068,0.00067477,-0.00045112,
 -0.00001435,-0.00012965,-0.00003603,0.00008140,0.00003687,0.00000056,-
 0.00005076,0.00005058,-0.00000713,-0.00001272,-0.00000354,0.00015875,0
 .00018975,0.00014197,-0.00017435,-0.00023550,-0.00031437,0.00007084,0.
 00023382,0.00012287,-0.00007661,0.00008528,-0.00001014,0.00014040,0.00
 005931,0.00003939,0.00014669,-0.00018261,0.00001638,-0.00003718,0.0000
 3227,-0.00003074,-0.00001684,0.00010600,0.00003125,0.00001482,0.000058
 85,0.00000469,-0.00000304,-0.00000231,0.00003618,0.00000746,-0.0000433
 5,-0.00003507,0.00000878,-0.00005540,0.00000239,-0.00000114,0.00002540
 ,0.00000007,-0.00000522,0.00001018,-0.00000006,0.00001282,0.00003797,-
 0.00000098,-0.00000900,-0.00001193,-0.00001699,-0.00001066,0.00000918,
 0.00000380,-0.00000215,-0.00000448,-0.00001246,0.00003041,-0.00000037,
 0.05790817,0.06184983,0.00099967,0.00058424,-0.00011390,0.00293508,0.0
 0206879,0.00550987,-0.10981113,-0.07290376,-0.24628147,-0.01585433,-0.
 00993774,-0.01669344,0.00330465,0.00144107,-0.00340013,-0.00005300,0.0
 0004095,0.00012313,-0.00000493,-0.00000895,0.00000325,-0.00001757,-0.0
 0000577,-0.00001424,-0.00001690,-0.00001448,0.00004976,0.00002351,0.00
 001113,-0.00008364,-0.00045680,-0.00002801,0.00004199,-0.00003680,0.00
 018466,0.00109528,-0.00086117,-0.00044654,-0.00081672,0.00000098,0.000
 00120,-0.00000534,-0.00000093,0.00000050,-0.00000873,-0.00002250,-0.00
 001923,0.00007486,0.00142832,0.00040445,0.00160637,-0.00005257,-0.0000
 2751,-0.00005062,-0.00020625,0.00013494,-0.00000318,-0.00006817,0.0000
 9210,-0.00000125,-0.00010415,-0.00010040,0.00002220,0.00005036,0.00001
 147,0.00003676,0.00021668,0.00010220,0.00001262,0.00016480,-0.00016689
 ,-0.00005201,-0.00019181,-0.00003370,-0.00008491,0.00011416,-0.0000512
 6,0.00005389,-0.00008853,0.00007280,0.00004440,0.00002225,-0.00004891,
 -0.00000626,0.00004313,-0.00002940,-0.00001047,-0.00002479,0.00000129,
 -0.00002848,-0.00000072,0.00000657,0.00000754,0.00004536,0.00000630,-0
 .00000305,0.00002781,0.00003662,0.00000122,-0.00011238,-0.00004753,-0.
 00001580,-0.00000831,0.00000166,-0.00000562,0.00000211,-0.00000123,-0.
 00000066,0.00000275,0.00000053,0.00000268,-0.00000353,0.00000485,0.000
 00120,-0.00000673,0.00000589,-0.00000008,0.00000279,-0.00000330,0.0000
 0226,-0.00000733,0.00000217,-0.00000016,0.00000620,-0.00000030,0.00000
 068,-0.00000726,0.00000712,0.00000571,0.00000120,-0.00000220,0.0000008
 7,-0.00000263,0.00000734,0.00000168,0.00000113,-0.00000532,-0.00000440
 ,-0.00000148,0.00000649,0.00000334,-0.00000478,0.00000332,-0.00000049,
 -0.00000072,-0.00000239,0.00000236,0.00000380,0.00000046,0.00000013,-0
 .00000747,-0.00000055,0.00000002,0.00000312,-0.00000112,-0.00000275,0.
 00000219,-0.00000055,0.00000090,-0.00000668,-0.00000053,0.00000229,-0.
 00000801,-0.00000008,0.00000153,-0.00000409,-0.00000445,-0.00000073,0.
 00000163,-0.00000128,0.00000285,0.00000112,0.00000124,-0.00000141,-0.0
 0000380,-0.00000574,-0.00000182,-0.00000571,-0.00000228,0.00000054,0.0
 0000053,0.00000183,-0.00000128,0.00000166,0.00000100,0.00000076,-0.000
 00598,-0.00000501,-0.00000085,0.00000318,0.00000105,0.00000112,-0.0000
 0400,-0.00000578,-0.00000161,0.00000007,0.00000343,0.00000057,-0.00000
 454,0.00000224,-0.00000435,0.00000201,-0.00000152,0.00000811,0.0000001
 4,0.00000632,0.00000110,0.00000459,-0.00000586,-0.00000199,-0.00001288
 ,0.00001111,-0.00000454,0.00000779,-0.00000437,0.00000689,0.00000099,-
 0.00000401,-0.00000025,-0.00000026,-0.00000003,-0.00000763,0.00000187,
 -0.00000335,0.00000685,0.00000032,-0.00000520,0.00000140,-0.00000056,0
 .00000186,-0.00000414,0.00000100,0.00000333,0.00000150,0.00000401,0.00
 000052,0.00000685,-0.00000165,0.00000244,-0.00000483,0.00000110,-0.000
 00487,0.00000256,0.00000181,0.00000345,0.00000021,0.00000716,-0.000021
 93,0.00003568,-0.00049308,-0.00033171,-0.00010580,0.00028453,0.0000550
 0,0.00011513,-0.00008903,0.00005864,-0.00023027,-0.00001968,0.00014237
 ,0.00006203,0.00015792,0.00011033,0.00011890,-0.00004438,-0.00001356,-
 0.00001163,0.00001109,-0.00000584,-0.00002110,0.00001938,-0.00000081,-
 0.00000156,0.00015494,-0.00013957,-0.00003630,0.00002384,0.00008599,-0
 .00000079,0.00011314,-0.00006576,-0.00002539,-0.00001002,-0.00005284,0
 .00004888,-0.00000109,0.00000574,-0.00000663,-0.00001173,0.00003027,-0
 .00010277,-0.00002517,-0.00000767,-0.00000308,-0.00001604,0.00001994,0
 .00006488,0.00005263,-0.00014757,-0.00003633,-0.00000434,0.00003390,0.
 00001722,0.00008331,0.00004793,-0.00000155,-0.00002739,0.00005712,-0.0
 0004133,0.00000368,-0.00001731,0.00001223,-0.00001128,0.00000707,0.000
 02806,0.00000924,-0.00001917,0.00001551,0.00000479,0.00001250,-0.00000
 457,-0.00001287,-0.00000155,0.00001091,0.00000447,0.00000438,-0.000002
 05,-0.00001008,-0.00000400,-0.00000168,0.11850401,0.07881857,0.2590765
 2\\-0.00001234,-0.00000266,-0.00000259,-0.00000464,-0.00000346,-0.0000
 0007,0.00000325,0.00000379,0.00000434,0.00000574,0.00000219,0.00000142
 ,0.00000190,-0.00000341,-0.00000044,0.00000680,-0.00000298,0.00000354,
 -0.00000484,-0.00000003,-0.00000004,0.00000021,-0.00000231,-0.00000494
 ,0.00000927,0.00000223,0.00000868,-0.00000831,-0.00000134,-0.00000720,
 0.00000190,0.00000165,-0.00000175,-0.00000081,-0.00000074,-0.00000288,
 0.00000025,0.00000146,0.00000019,0.00000183,0.00000017,-0.00000062,-0.
 00000069,-0.00000055,-0.00000381,0.00000206,-0.00000197,-0.00000028,0.
 00000251,0.00000786,0.00000392,-0.00000298,-0.00000423,0.00000592,0.00
 000341,-0.00000439,-0.00000833,-0.00000257,0.00000319,-0.00000217,0.00
 000334,-0.00000279,0.00000008,0.00000247,-0.00000043,0.00000389,-0.000
 00568,0.00000255,-0.00000269,-0.00000059,0.00000358,0.00001641,-0.0000
 1872,0.00000222,-0.00000475,0.00000465,0.00000715,0.00000717,0.0000075
 9,0.00000543,-0.00000790,0.00000410,0.00000061,0.00000211,0.00000222,0
 .00000491,-0.00000203,0.00000289,-0.00000596,-0.00000248,-0.00000504,-
 0.00001082,-0.00000809,0.00000025,0.00000751,-0.00000392,-0.00000723,-
 0.00000591,0.00000802,0.00000886,0.00000230,0.00000255,0.00000814,-0.0
 0000391,0.00000323,0.00000181,0.00000043,-0.00000319,-0.00000250,-0.00
 000018,-0.00000301,-0.00000419,0.00000274,0.00000086,-0.00000267,-0.00
 000320,-0.00000104,0.00000214,0.00000122,-0.00000406,0.00000124,-0.000
 00019,0.00000038,-0.00000018,0.00000075,0.00000087,0.00000105,-0.00000
 652,-0.00000027,0.00000046,0.00000158,-0.00000136,-0.00000129,0.000004
 81,-0.00000032,0.00000048,0.00000087,-0.00000053,-0.00000056,-0.000005
 65,-0.00000233,-0.00000228,0.00000433,-0.00000043,0.00000045,0.0000013
 6,-0.00000048,0.00000156,0.00000169,0.00000087,-0.00000616,0.00000062,
 -0.00000036,-0.00000090,-0.00000237,0.,0.00000146,-0.00000040,0.000002
 15,0.00000104,0.00000088,0.00000030,0.00000378,0.00000032,0.00000203,-
 0.00000527,-0.00000085,-0.00000094,-0.00000037,0.00000070,0.00000052,-
 0.00000123,0.00000061,-0.00000017,-0.00000038,-0.00000373,-0.00000117,
 0.00000151,0.00000248,-0.00000008,-0.00000113,0.00000127,-0.00000133,0
 .00000028,0.00000128,0.00000047,0.00000163,0.00000066,-0.00000514,-0.0
 0000041,-0.00000105,0.00000197,-0.00000102,-0.00000025,0.00000066,-0.0
 0000120,0.00000012,0.00000078,-0.00000159,0.00000585,0.00000534,0.0000
 0003,0.00000195,-0.00000136,0.00000205,0.00000087,-0.00000217,0.000001
 06,-0.00000290,-0.00000074,0.00000178,0.00000828,0.00000845,-0.0000003
 0,0.00000067,-0.00000137,-0.00000127,-0.00000379,-0.00000420,-0.000002
 68,0.00000014,-0.00000124,0.00000275,0.00000496,-0.00000154,-0.0000011
 9,-0.00000134,0.00000130,-0.00000476,-0.00000362,0.00000246,0.00000074
 ,-0.00000053,0.00000234,-0.00000377,0.00000574,0.00000070,-0.00000002,
 -0.00000095,0.00000055,0.00000222,-0.00000341,0.00000261,-0.00000017,-
 0.00000025,0.00000006,0.00000214,-0.00000004,0.00000256,-0.00000580,0.
 00000516,-0.00001110,0.00000551,0.00000122,0.00000471,0.00000800,-0.00
 000756,-0.00000321,-0.00000114,0.00000141,-0.00000114,-0.00000283,0.00
 000139,0.00000122,0.00000549,-0.00000510,0.00000883,-0.00000168,-0.000
 00785,-0.00000783,0.00000170,0.00000513,-0.00000203,0.00000322,-0.0000
 0247,0.00000923,-0.00000333,-0.00000248,-0.00000112,-0.00000048,0.0000
 0323,-0.00000056,0.00000140,0.00000007,-0.00000001,-0.00000060,0.00000
 012,-0.00000049,-0.00000084,0.00000360,0.00000413,-0.00000053,-0.00000
 243,0.00000013,0.00000099,0.00000037,0.00000007,-0.00000221,-0.0000011
 5,-0.00000102,0.00000130,-0.00000077,-0.00000002,0.00000018,-0.0000022
 5,0.00000024,0.00000556,-0.00000409,0.00000424,-0.00000323,0.00000205,
 -0.00000217,-0.00000061,-0.00000029,-0.00000083,-0.00000481,0.00000218
 ,-0.00000806,0.00000096,-0.00000136,0.00000020,0.,-0.00000163,0.000002
 83,0.00000374,-0.00000282,0.00000272,-0.00000202,0.00000068,-0.0000003
 8,-0.00000128,-0.00000122,-0.00000244\\\@
 The archive entry for this job was punched.


 Once you get people laughing, they're
 listening and you can tell them almost anything.
                                 -- Herb Gardner
 Job cpu time:       1 days 17 hours 55 minutes 22.5 seconds.
 Elapsed time:       0 days  2 hours 40 minutes 43.4 seconds.
 File lengths (MBytes):  RWF=   8594 Int=      0 D2E=      0 Chk=     49 Scr=      1
 Normal termination of Gaussian 16 at Sun Dec  8 00:28:19 2024.
