/mnt/lustre/scratch/nvme/SLURM/9663721/usccqdma.szUSSRocwu
OMP_STACKSIZE=0m
GAUSS_PDEF=16
GAUSS_MDEF=65536MB
GAUSS_RDEF=SCF=Direct
 Entering Gaussian System, Link 0=g16.exe
 Initial command:
 /opt/cesga/2020/software/Core/g16/c1/l1.exe "/mnt/lustre/scratch/nvme/SLURM/9663721/usccqdma.szUSSRocwu/Gau-4120262.inp" -scrdir="/mnt/lustre/scratch/nvme/SLURM/9663721/usccqdma.szUSSRocwu/"
 Default is to use a total of  16 processors:
                               16 via shared-memory
                                1 via Linda
 Entering Link 1 = /opt/cesga/2020/software/Core/g16/c1/l1.exe PID=   4120288.
  
 Copyright (c) 1988-2019, Gaussian, Inc.  All Rights Reserved.
  
 This is part of the Gaussian(R) 16 program.  It is based on
 the Gaussian(R) 09 system (copyright 2009, Gaussian, Inc.),
 the Gaussian(R) 03 system (copyright 2003, Gaussian, Inc.),
 the Gaussian(R) 98 system (copyright 1998, Gaussian, Inc.),
 the Gaussian(R) 94 system (copyright 1995, Gaussian, Inc.),
 the Gaussian 92(TM) system (copyright 1992, Gaussian, Inc.),
 the Gaussian 90(TM) system (copyright 1990, Gaussian, Inc.),
 the Gaussian 88(TM) system (copyright 1988, Gaussian, Inc.),
 the Gaussian 86(TM) system (copyright 1986, Carnegie Mellon
 University), and the Gaussian 82(TM) system (copyright 1983,
 Carnegie Mellon University). Gaussian is a federally registered
 trademark of Gaussian, Inc.
  
 This software contains proprietary and confidential information,
 including trade secrets, belonging to Gaussian, Inc.
  
 This software is provided under written license and may be
 used, copied, transmitted, or stored only in accord with that
 written license.
  
 The following legend is applicable only to US Government
 contracts under FAR:
  
                    RESTRICTED RIGHTS LEGEND
  
 Use, reproduction and disclosure by the US Government is
 subject to restrictions as set forth in subparagraphs (a)
 and (c) of the Commercial Computer Software - Restricted
 Rights clause in FAR 52.227-19.
  
 Gaussian, Inc.
 340 Quinnipiac St., Bldg. 40, Wallingford CT 06492
  
  
 ---------------------------------------------------------------
 Warning -- This program may not be used in any manner that
 competes with the business of Gaussian, Inc. or will provide
 assistance to any competitor of Gaussian, Inc.  The licensee
 of this program is prohibited from giving any competitor of
 Gaussian, Inc. access to this program.  By using this program,
 the user acknowledges that Gaussian, Inc. is engaged in the
 business of creating and licensing software in the field of
 computational chemistry and represents and warrants to the
 licensee that it is not a competitor of Gaussian, Inc. and that
 it will not use this program in any manner prohibited above.
 ---------------------------------------------------------------
  

 Cite this work as:
 Gaussian 16, Revision C.01,
 M. J. Frisch, G. W. Trucks, H. B. Schlegel, G. E. Scuseria, 
 M. A. Robb, J. R. Cheeseman, G. Scalmani, V. Barone, 
 G. A. Petersson, H. Nakatsuji, X. Li, M. Caricato, A. V. Marenich, 
 J. Bloino, B. G. Janesko, R. Gomperts, B. Mennucci, H. P. Hratchian, 
 J. V. Ortiz, A. F. Izmaylov, J. L. Sonnenberg, D. Williams-Young, 
 F. Ding, F. Lipparini, F. Egidi, J. Goings, B. Peng, A. Petrone, 
 T. Henderson, D. Ranasinghe, V. G. Zakrzewski, J. Gao, N. Rega, 
 G. Zheng, W. Liang, M. Hada, M. Ehara, K. Toyota, R. Fukuda, 
 J. Hasegawa, M. Ishida, T. Nakajima, Y. Honda, O. Kitao, H. Nakai, 
 T. Vreven, K. Throssell, J. A. Montgomery, Jr., J. E. Peralta, 
 F. Ogliaro, M. J. Bearpark, J. J. Heyd, E. N. Brothers, K. N. Kudin, 
 V. N. Staroverov, T. A. Keith, R. Kobayashi, J. Normand, 
 K. Raghavachari, A. P. Rendell, J. C. Burant, S. S. Iyengar, 
 J. Tomasi, M. Cossi, J. M. Millam, M. Klene, C. Adamo, R. Cammi, 
 J. W. Ochterski, R. L. Martin, K. Morokuma, O. Farkas, 
 J. B. Foresman, and D. J. Fox, Gaussian, Inc., Wallingford CT, 2019.
 
 ******************************************
 Gaussian 16:  ES64L-G16RevC.01  3-Jul-2019
                 7-Dec-2024 
 ******************************************
 Default route: SCF=Direct
 ----------------------------------------------------
 # m06/genecp scf=tight int=ultrafine 5d freq=noraman
 ----------------------------------------------------
 1/10=4,30=1,38=1/1,3;
 2/12=2,17=6,18=5,40=1/2;
 3/5=7,8=1,11=2,16=1,17=8,25=1,30=1,71=2,74=-54,75=-5,140=1/1,2,3;
 4//1;
 5/5=2,32=2,38=5,98=1/2;
 8/6=4,10=90,11=11/1;
 11/6=1,8=1,9=11,15=111,16=1/1,2,10;
 10/6=1/2;
 6/7=2,8=2,9=2,10=2,28=1/1;
 7/8=1,10=1,25=1/1,2,3,16;
 1/10=4,30=1/3;
 99//99;
 ------
 OPT-TS
 ------
 Symbolic Z-matrix:
 Charge =  0 Multiplicity = 1
 C                     2.54246  -1.22401  -1.02032 
 C                     1.58731  -2.58897   0.59704 
 C                     2.4316   -3.64424   0.27269 
 C                     3.3548   -3.46828  -0.75112 
 C                     3.40891  -2.24608  -1.4072 
 C                     2.55464   0.11408  -1.64967 
 C                     1.46398   2.14684  -1.87359 
 C                     2.48192   2.66828  -2.65898 
 C                     3.57554   1.86138  -2.94209 
 C                     3.61133   0.56934  -2.43698 
 H                     0.81809  -2.66726   1.36767 
 H                     4.02475  -4.27491  -1.04262 
 H                     4.10651  -2.09675  -2.22813 
 H                     0.5839    2.73226  -1.60448 
 H                     4.40377   2.23747  -3.53854 
 H                     4.47675  -0.06414  -2.62032 
 N                     1.64422  -1.40697  -0.03003 
 N                     1.49781   0.90549  -1.38063 
 Ir                   -0.08539   0.10929   0.03732 
 O                    -1.05283  -1.82417   2.15896 
 O                    -0.79591  -1.31051  -2.44565 
 O                    -1.51896   2.76138   0.09317 
 B                    -1.14208  -1.11956  -1.11035 
 B                    -1.29031  -0.61266   1.49002 
 B                    -1.59838   1.40269  -0.25908 
 O                    -2.80151   1.16791  -0.91968 
 O                    -2.40401   0.00878   2.05518 
 C                    -3.08335  -0.9448    2.87907 
 C                    -1.92416  -1.89391   3.29462 
 C                    -2.61738   3.4522   -0.52 
 C                    -3.64776   2.30803  -0.74611 
 C                    -1.50163  -2.47493  -2.90206 
 C                    -2.73617  -2.50345  -1.95606 
 O                    -2.19148  -1.94794  -0.75061 
 C                    -1.13927  -1.37974   4.4956 
 H                    -0.84836  -0.33003   4.35288 
 H                    -1.70979  -1.46209   5.43075 
 H                    -0.22222  -1.97389   4.60017 
 C                    -2.33312  -3.336     3.51936 
 H                    -3.0829   -3.41214   4.32037 
 H                    -2.74688  -3.77857   2.60634 
 H                    -1.45931  -3.93      3.81884 
 C                    -3.7591   -0.22023   4.0267 
 H                    -4.21353  -0.93403   4.72937 
 H                    -3.05683   0.41549   4.57741 
 H                    -4.55936   0.42258   3.63619 
 C                    -4.13091  -1.62699   2.0065 
 H                    -4.78897  -0.85368   1.58806 
 H                    -3.65809  -2.14889   1.16498 
 H                    -4.74819  -2.33269   2.57968 
 C                    -1.83007  -2.31939  -4.37227 
 H                    -2.44379  -3.16055  -4.72621 
 H                    -2.36917  -1.386    -4.56627 
 H                    -0.90397  -2.304    -4.96148 
 C                    -0.56837  -3.66248  -2.69534 
 H                    -0.33232  -3.79638  -1.63004 
 H                    -0.99399  -4.59874  -3.08141 
 H                     0.37178  -3.46621  -3.22735 
 C                    -3.86122  -1.58073  -2.4069 
 H                    -4.55529  -1.44841  -1.56482 
 H                    -3.479    -0.58579  -2.66549 
 H                    -4.41444  -1.99701  -3.26015 
 C                    -3.2815   -3.88529  -1.65688 
 H                    -3.60805  -4.38689  -2.5795 
 H                    -2.53598  -4.51516  -1.15837 
 H                    -4.15236  -3.80333  -0.99284 
 C                    -4.52327   2.03977   0.47166 
 H                    -5.07143   1.10351   0.29645 
 H                    -3.91356   1.89821   1.3731 
 H                    -5.25337   2.84376   0.63896 
 C                    -4.51917   2.46626  -1.97743 
 H                    -5.2057    1.61234  -2.05147 
 H                    -5.12458   3.38265  -1.91872 
 H                    -3.92352   2.4966   -2.89703 
 C                    -2.10047   4.04919  -1.82347 
 H                    -1.76613   3.26087  -2.51205 
 H                    -2.86118   4.65639  -2.33261 
 H                    -1.24216   4.69869  -1.59989 
 C                    -3.08016   4.56019   0.4043 
 H                    -3.32099   4.17579   1.40116 
 H                    -2.28285   5.3082    0.51385 
 H                    -3.96735   5.06778  -0.00163 
 H                     0.2459    1.77766   1.73408 
 C                     3.23134   2.43359   1.09849 
 O                     3.98154   3.04784   0.34936 
 C                     3.60228   1.06131   1.63778 
 H                     3.70127   1.11368   2.73528 
 H                     2.77394   0.3558    1.45203 
 C                     1.06309   2.24233   2.32602 
 H                     1.5386    1.47445   2.94075 
 H                     0.58      2.9646    2.99875 
 N                     2.01641   2.93398   1.48691 
 C                     1.55418   4.20067   0.95494 
 H                     0.55756   4.06923   0.50626 
 H                     1.47715   4.95139   1.75612 
 H                     2.27245   4.54883   0.20849 
 C                     4.8841    0.51672   1.03225 
 H                     4.78897   0.49684  -0.067 
 H                     5.70855   1.21264   1.24156 
 C                     5.20118  -0.88443   1.53467 
 H                     5.39466  -0.85608   2.62151 
 H                     4.30946  -1.52229   1.40369 
 C                     6.38363  -1.53547   0.82699 
 H                     6.47131  -2.58183   1.15871 
 H                     6.17009  -1.57888  -0.25586 
 C                     7.70419  -0.81674   1.05757 
 H                     7.69468   0.1968    0.636 
 H                     7.91602  -0.72306   2.13242 
 H                     8.54343  -1.35507   0.59955 
 H                     2.42082   3.69071  -3.02217 
 H                     2.35341  -4.58604   0.81005 
 

 GradGradGradGradGradGradGradGradGradGradGradGradGradGradGradGradGradGrad
 Berny optimization.
 Initialization pass.
 Trust Radius=3.00D-01 FncErr=1.00D-07 GrdErr=1.00D-07 EigMax=2.50D+02 EigMin=1.00D-04
 Number of steps in this run=      2 maximum allowed number of steps=      2.
 GradGradGradGradGradGradGradGradGradGradGradGradGradGradGradGradGradGrad

 Stoichiometry    C36H61B3IrN3O7
 Framework group  C1[X(C36H61B3IrN3O7)]
 Deg. of freedom   327
 Full point group                 C1      NOp   1
 Largest Abelian subgroup         C1      NOp   1
 Largest concise Abelian subgroup C1      NOp   1
                         Standard orientation:                         
 ---------------------------------------------------------------------
 Center     Atomic      Atomic             Coordinates (Angstroms)
 Number     Number       Type             X           Y           Z
 ---------------------------------------------------------------------
      1          6           0        2.542461   -1.224010   -1.020320
      2          6           0        1.587311   -2.588970    0.597040
      3          6           0        2.431601   -3.644240    0.272690
      4          6           0        3.354801   -3.468280   -0.751120
      5          6           0        3.408911   -2.246080   -1.407200
      6          6           0        2.554641    0.114080   -1.649670
      7          6           0        1.463981    2.146840   -1.873590
      8          6           0        2.481921    2.668280   -2.658980
      9          6           0        3.575541    1.861380   -2.942090
     10          6           0        3.611331    0.569340   -2.436980
     11          1           0        0.818091   -2.667260    1.367670
     12          1           0        4.024751   -4.274910   -1.042620
     13          1           0        4.106511   -2.096750   -2.228130
     14          1           0        0.583901    2.732260   -1.604480
     15          1           0        4.403771    2.237470   -3.538540
     16          1           0        4.476751   -0.064140   -2.620320
     17          7           0        1.644221   -1.406970   -0.030030
     18          7           0        1.497811    0.905490   -1.380630
     19         77           0       -0.085389    0.109290    0.037320
     20          8           0       -1.052829   -1.824170    2.158960
     21          8           0       -0.795909   -1.310510   -2.445650
     22          8           0       -1.518959    2.761380    0.093170
     23          5           0       -1.142079   -1.119560   -1.110350
     24          5           0       -1.290309   -0.612660    1.490020
     25          5           0       -1.598379    1.402690   -0.259080
     26          8           0       -2.801509    1.167910   -0.919680
     27          8           0       -2.404009    0.008780    2.055180
     28          6           0       -3.083349   -0.944800    2.879070
     29          6           0       -1.924159   -1.893910    3.294620
     30          6           0       -2.617379    3.452200   -0.520000
     31          6           0       -3.647759    2.308030   -0.746110
     32          6           0       -1.501629   -2.474930   -2.902060
     33          6           0       -2.736169   -2.503450   -1.956060
     34          8           0       -2.191479   -1.947940   -0.750610
     35          6           0       -1.139269   -1.379740    4.495600
     36          1           0       -0.848359   -0.330030    4.352880
     37          1           0       -1.709789   -1.462090    5.430750
     38          1           0       -0.222219   -1.973890    4.600170
     39          6           0       -2.333119   -3.336000    3.519360
     40          1           0       -3.082899   -3.412140    4.320370
     41          1           0       -2.746879   -3.778570    2.606340
     42          1           0       -1.459309   -3.930000    3.818840
     43          6           0       -3.759099   -0.220230    4.026700
     44          1           0       -4.213529   -0.934030    4.729370
     45          1           0       -3.056829    0.415490    4.577410
     46          1           0       -4.559359    0.422579    3.636190
     47          6           0       -4.130909   -1.626990    2.006500
     48          1           0       -4.788969   -0.853681    1.588060
     49          1           0       -3.658089   -2.148890    1.164980
     50          1           0       -4.748189   -2.332691    2.579680
     51          6           0       -1.830069   -2.319390   -4.372270
     52          1           0       -2.443789   -3.160550   -4.726210
     53          1           0       -2.369169   -1.386000   -4.566270
     54          1           0       -0.903969   -2.304000   -4.961480
     55          6           0       -0.568369   -3.662480   -2.695340
     56          1           0       -0.332319   -3.796380   -1.630040
     57          1           0       -0.993989   -4.598740   -3.081410
     58          1           0        0.371781   -3.466210   -3.227350
     59          6           0       -3.861219   -1.580730   -2.406900
     60          1           0       -4.555289   -1.448411   -1.564820
     61          1           0       -3.478999   -0.585790   -2.665490
     62          1           0       -4.414439   -1.997010   -3.260150
     63          6           0       -3.281499   -3.885290   -1.656880
     64          1           0       -3.608049   -4.386890   -2.579500
     65          1           0       -2.535979   -4.515160   -1.158370
     66          1           0       -4.152359   -3.803330   -0.992840
     67          6           0       -4.523269    2.039769    0.471660
     68          1           0       -5.071429    1.103509    0.296450
     69          1           0       -3.913559    1.898210    1.373100
     70          1           0       -5.253369    2.843759    0.638960
     71          6           0       -4.519169    2.466259   -1.977430
     72          1           0       -5.205699    1.612339   -2.051470
     73          1           0       -5.124579    3.382649   -1.918720
     74          1           0       -3.923519    2.496600   -2.897030
     75          6           0       -2.100469    4.049190   -1.823470
     76          1           0       -1.766129    3.260870   -2.512050
     77          1           0       -2.861179    4.656390   -2.332610
     78          1           0       -1.242159    4.698690   -1.599890
     79          6           0       -3.080159    4.560190    0.404300
     80          1           0       -3.320989    4.175790    1.401160
     81          1           0       -2.282849    5.308200    0.513850
     82          1           0       -3.967349    5.067780   -0.001630
     83          1           0        0.245901    1.777660    1.734080
     84          6           0        3.231341    2.433590    1.098490
     85          8           0        3.981541    3.047840    0.349360
     86          6           0        3.602281    1.061310    1.637780
     87          1           0        3.701271    1.113680    2.735280
     88          1           0        2.773941    0.355800    1.452030
     89          6           0        1.063091    2.242330    2.326020
     90          1           0        1.538601    1.474450    2.940750
     91          1           0        0.580001    2.964600    2.998750
     92          7           0        2.016411    2.933980    1.486910
     93          6           0        1.554181    4.200670    0.954940
     94          1           0        0.557561    4.069230    0.506260
     95          1           0        1.477151    4.951390    1.756120
     96          1           0        2.272451    4.548830    0.208490
     97          6           0        4.884101    0.516720    1.032250
     98          1           0        4.788971    0.496840   -0.067000
     99          1           0        5.708551    1.212640    1.241560
    100          6           0        5.201181   -0.884430    1.534670
    101          1           0        5.394661   -0.856080    2.621510
    102          1           0        4.309461   -1.522290    1.403690
    103          6           0        6.383631   -1.535470    0.826990
    104          1           0        6.471311   -2.581830    1.158710
    105          1           0        6.170091   -1.578880   -0.255860
    106          6           0        7.704191   -0.816739    1.057570
    107          1           0        7.694681    0.196801    0.636000
    108          1           0        7.916021   -0.723059    2.132420
    109          1           0        8.543431   -1.355069    0.599550
    110          1           0        2.420821    3.690710   -3.022170
    111          1           0        2.353411   -4.586040    0.810050
 ---------------------------------------------------------------------
 Rotational constants (GHZ):           0.0754866           0.0523131           0.0477263
 General basis read from cards:  (5D, 7F)
 ======================================================================================================
                                       Pseudopotential Parameters
 ======================================================================================================
  Center     Atomic      Valence      Angular      Power
  Number     Number     Electrons     Momentum     of R      Exponent        Coefficient   SO-Coeffient
 ======================================================================================================
    1          6
                                   No pseudopotential on this center.
    2          6
                                   No pseudopotential on this center.
    3          6
                                   No pseudopotential on this center.
    4          6
                                   No pseudopotential on this center.
    5          6
                                   No pseudopotential on this center.
    6          6
                                   No pseudopotential on this center.
    7          6
                                   No pseudopotential on this center.
    8          6
                                   No pseudopotential on this center.
    9          6
                                   No pseudopotential on this center.
   10          6
                                   No pseudopotential on this center.
   11          1
                                   No pseudopotential on this center.
   12          1
                                   No pseudopotential on this center.
   13          1
                                   No pseudopotential on this center.
   14          1
                                   No pseudopotential on this center.
   15          1
                                   No pseudopotential on this center.
   16          1
                                   No pseudopotential on this center.
   17          7
                                   No pseudopotential on this center.
   18          7
                                   No pseudopotential on this center.
   19         77           17
                                      G and up 
                                                     1      823.5880147       -0.15780140    0.00000000
                                                     2      364.6613336    -1517.52704460    0.00000000
                                                     2       55.7082801     -316.53065290    0.00000000
                                                     2       12.0464544      -91.88809410    0.00000000
                                                     2        3.5120610       -9.22417730    0.00000000
                                      S - G
                                                     0      188.0490770        3.15780140    0.00000000
                                                     1      340.4194712       26.83225770    0.00000000
                                                     2      128.2373673      800.42500070    0.00000000
                                                     2       33.8644961      369.40506830    0.00000000
                                                     2        4.7560005      242.41718990    0.00000000
                                                     2        3.9649974     -118.21732820    0.00000000
                                      P - G
                                                     0      289.7291139        2.15780140    0.00000000
                                                     1       87.4633789       61.96786100    0.00000000
                                                     2       30.4363766      269.05819860    0.00000000
                                                     2        4.0553412      231.16547930    0.00000000
                                                     2        3.5525341     -133.69526670    0.00000000
                                      D - G
                                                     0      136.4017106        3.15780140    0.00000000
                                                     1       95.0776925       45.93498030    0.00000000
                                                     2       49.2258410      359.03446680    0.00000000
                                                     2       15.0874145      176.47401190    0.00000000
                                                     2        4.0405764       54.51552860    0.00000000
                                      F - G
                                                     0      127.3507908        3.95461970    0.00000000
                                                     1       66.2364374       52.97736550    0.00000000
                                                     2       34.4299229      274.86433830    0.00000000
                                                     2       10.1995721      137.20473380    0.00000000
                                                     2        2.5409702       14.86333050    0.00000000
   20          8
                                   No pseudopotential on this center.
   21          8
                                   No pseudopotential on this center.
   22          8
                                   No pseudopotential on this center.
   23          5
                                   No pseudopotential on this center.
   24          5
                                   No pseudopotential on this center.
   25          5
                                   No pseudopotential on this center.
   26          8
                                   No pseudopotential on this center.
   27          8
                                   No pseudopotential on this center.
   28          6
                                   No pseudopotential on this center.
   29          6
                                   No pseudopotential on this center.
   30          6
                                   No pseudopotential on this center.
   31          6
                                   No pseudopotential on this center.
   32          6
                                   No pseudopotential on this center.
   33          6
                                   No pseudopotential on this center.
   34          8
                                   No pseudopotential on this center.
   35          6
                                   No pseudopotential on this center.
   36          1
                                   No pseudopotential on this center.
   37          1
                                   No pseudopotential on this center.
   38          1
                                   No pseudopotential on this center.
   39          6
                                   No pseudopotential on this center.
   40          1
                                   No pseudopotential on this center.
   41          1
                                   No pseudopotential on this center.
   42          1
                                   No pseudopotential on this center.
   43          6
                                   No pseudopotential on this center.
   44          1
                                   No pseudopotential on this center.
   45          1
                                   No pseudopotential on this center.
   46          1
                                   No pseudopotential on this center.
   47          6
                                   No pseudopotential on this center.
   48          1
                                   No pseudopotential on this center.
   49          1
                                   No pseudopotential on this center.
   50          1
                                   No pseudopotential on this center.
   51          6
                                   No pseudopotential on this center.
   52          1
                                   No pseudopotential on this center.
   53          1
                                   No pseudopotential on this center.
   54          1
                                   No pseudopotential on this center.
   55          6
                                   No pseudopotential on this center.
   56          1
                                   No pseudopotential on this center.
   57          1
                                   No pseudopotential on this center.
   58          1
                                   No pseudopotential on this center.
   59          6
                                   No pseudopotential on this center.
   60          1
                                   No pseudopotential on this center.
   61          1
                                   No pseudopotential on this center.
   62          1
                                   No pseudopotential on this center.
   63          6
                                   No pseudopotential on this center.
   64          1
                                   No pseudopotential on this center.
   65          1
                                   No pseudopotential on this center.
   66          1
                                   No pseudopotential on this center.
   67          6
                                   No pseudopotential on this center.
   68          1
                                   No pseudopotential on this center.
   69          1
                                   No pseudopotential on this center.
   70          1
                                   No pseudopotential on this center.
   71          6
                                   No pseudopotential on this center.
   72          1
                                   No pseudopotential on this center.
   73          1
                                   No pseudopotential on this center.
   74          1
                                   No pseudopotential on this center.
   75          6
                                   No pseudopotential on this center.
   76          1
                                   No pseudopotential on this center.
   77          1
                                   No pseudopotential on this center.
   78          1
                                   No pseudopotential on this center.
   79          6
                                   No pseudopotential on this center.
   80          1
                                   No pseudopotential on this center.
   81          1
                                   No pseudopotential on this center.
   82          1
                                   No pseudopotential on this center.
   83          1
                                   No pseudopotential on this center.
   84          6
                                   No pseudopotential on this center.
   85          8
                                   No pseudopotential on this center.
   86          6
                                   No pseudopotential on this center.
   87          1
                                   No pseudopotential on this center.
   88          1
                                   No pseudopotential on this center.
   89          6
                                   No pseudopotential on this center.
   90          1
                                   No pseudopotential on this center.
   91          1
                                   No pseudopotential on this center.
   92          7
                                   No pseudopotential on this center.
   93          6
                                   No pseudopotential on this center.
   94          1
                                   No pseudopotential on this center.
   95          1
                                   No pseudopotential on this center.
   96          1
                                   No pseudopotential on this center.
   97          6
                                   No pseudopotential on this center.
   98          1
                                   No pseudopotential on this center.
   99          1
                                   No pseudopotential on this center.
  100          6
                                   No pseudopotential on this center.
  101          1
                                   No pseudopotential on this center.
  102          1
                                   No pseudopotential on this center.
  103          6
                                   No pseudopotential on this center.
  104          1
                                   No pseudopotential on this center.
  105          1
                                   No pseudopotential on this center.
  106          6
                                   No pseudopotential on this center.
  107          1
                                   No pseudopotential on this center.
  108          1
                                   No pseudopotential on this center.
  109          1
                                   No pseudopotential on this center.
  110          1
                                   No pseudopotential on this center.
  111          1
                                   No pseudopotential on this center.
 ======================================================================================================
 There are   881 symmetry adapted cartesian basis functions of A   symmetry.
 There are   830 symmetry adapted basis functions of A   symmetry.
   830 basis functions,  1659 primitive gaussians,   881 cartesian basis functions
   193 alpha electrons      193 beta electrons
       nuclear repulsion energy      8158.5183808857 Hartrees.
 NAtoms=  111 NActive=  111 NUniq=  111 SFac= 1.00D+00 NAtFMM=   60 NAOKFM=T Big=T
 Integral buffers will be    131072 words long.
 Raffenetti 2 integral format.
 Two-electron integral symmetry is turned on.
 One-electron integrals computed using PRISM.
   1 Symmetry operations used in ECPInt.
 ECPInt:  NShTT=   53301 NPrTT=  320676 LenC2=   40985 LenP2D=  125924.
 LDataN:  DoStor=T MaxTD1= 6 Len=  172
 NBasis=   830 RedAO= T EigKep=  5.57D-04  NBF=   830
 NBsUse=   830 1.00D-06 EigRej= -1.00D+00 NBFU=   830
 Defaulting to unpruned grid for atomic number  77.
 ExpMin= 2.90D-02 ExpMax= 5.48D+03 ExpMxC= 8.25D+02 IAcc=3 IRadAn=         5 AccDes= 0.00D+00
 Harris functional with IExCor= 1009 and IRadAn=       5 diagonalized for initial guess.
 HarFok:  IExCor= 1009 AccDes= 0.00D+00 IRadAn=         5 IDoV= 1 UseB2=F ITyADJ=14
 ICtDFT=  3500011 ScaDFX=  1.000000  1.000000  1.000000  1.000000
 Defaulting to unpruned grid for atomic number  77.
 FoFCou: FMM=F IPFlag=           0 FMFlag=      100000 FMFlg1=        2001
         NFxFlg=           0 DoJE=T BraDBF=F KetDBF=T FulRan=T
         wScrn=  0.000000 ICntrl=       500 IOpCl=  0 I1Cent=   200000004 NGrid=           0
         NMat0=    1 NMatS0=      1 NMatT0=    0 NMatD0=    1 NMtDS0=    0 NMtDT0=    0
 Petite list used in FoFCou.
 Requested convergence on RMS density matrix=1.00D-08 within 128 cycles.
 Requested convergence on MAX density matrix=1.00D-06.
 Requested convergence on             energy=1.00D-06.
 No special actions if energy rises.
 Defaulting to unpruned grid for atomic number  77.
 Defaulting to unpruned grid for atomic number  77.
 Defaulting to unpruned grid for atomic number  77.
 Defaulting to unpruned grid for atomic number  77.
 Defaulting to unpruned grid for atomic number  77.
 Defaulting to unpruned grid for atomic number  77.
 Defaulting to unpruned grid for atomic number  77.
 Defaulting to unpruned grid for atomic number  77.
 Defaulting to unpruned grid for atomic number  77.
 Defaulting to unpruned grid for atomic number  77.
 Defaulting to unpruned grid for atomic number  77.
 Defaulting to unpruned grid for atomic number  77.
 Defaulting to unpruned grid for atomic number  77.
 Defaulting to unpruned grid for atomic number  77.
 Defaulting to unpruned grid for atomic number  77.
 Defaulting to unpruned grid for atomic number  77.
 SCF Done:  E(RM06) =  -2277.54406775     A.U. after   15 cycles
            NFock= 15  Conv=0.62D-08     -V/T= 2.0390
 DoSCS=F DFT=T ScalE2(SS,OS)=  1.000000  1.000000
 Range of M.O.s used for correlation:     1   830
 NBasis=   830 NAE=   193 NBE=   193 NFC=     0 NFV=     0
 NROrb=    830 NOA=   193 NOB=   193 NVA=   637 NVB=   637
   1 Symmetry operations used in ECPInt.
 ECPInt:  NShTT=   53301 NPrTT=  320676 LenC2=   40985 LenP2D=  125924.
 LDataN:  DoStor=T MaxTD1= 7 Len=  274
 Number of processors reduced to   8 by ecpmxn.
 Symmetrizing basis deriv contribution to polar:
 IMax=3 JMax=2 DiffMx= 0.00D+00
 G2DrvN: will do   112 centers at a time, making    1 passes.
 Calling FoFCou, ICntrl=  3107 FMM=T I1Cent=   0 AccDes= 0.00D+00.
 Defaulting to unpruned grid for atomic number  77.
 Defaulting to unpruned grid for atomic number  77.
 Defaulting to unpruned grid for atomic number  77.
 Defaulting to unpruned grid for atomic number  77.
 Defaulting to unpruned grid for atomic number  77.
 Defaulting to unpruned grid for atomic number  77.
 Defaulting to unpruned grid for atomic number  77.
 Defaulting to unpruned grid for atomic number  77.
 Defaulting to unpruned grid for atomic number  77.
 Defaulting to unpruned grid for atomic number  77.
 Defaulting to unpruned grid for atomic number  77.
 Defaulting to unpruned grid for atomic number  77.
 Defaulting to unpruned grid for atomic number  77.
 Defaulting to unpruned grid for atomic number  77.
 Defaulting to unpruned grid for atomic number  77.
 Defaulting to unpruned grid for atomic number  77.
 End of G2Drv F.D. properties file   721 does not exist.
 End of G2Drv F.D. properties file   722 does not exist.
 End of G2Drv F.D. properties file   788 does not exist.
          IDoAtm=11111111111111111111111111111111111111111111111111
          IDoAtm=11111111111111111111111111111111111111111111111111
          IDoAtm=11111111111
          Differentiating once with respect to electric field.
                with respect to dipole field.
          Differentiating once with respect to nuclear coordinates.
 Defaulting to unpruned grid for atomic number  77.
 CalDSu exits because no D1Ps are significant.
 Defaulting to unpruned grid for atomic number  77.
 Defaulting to unpruned grid for atomic number  77.
 Defaulting to unpruned grid for atomic number  77.
 Defaulting to unpruned grid for atomic number  77.
 Defaulting to unpruned grid for atomic number  77.
 Defaulting to unpruned grid for atomic number  77.
 Defaulting to unpruned grid for atomic number  77.
 Defaulting to unpruned grid for atomic number  77.
 Defaulting to unpruned grid for atomic number  77.
 Defaulting to unpruned grid for atomic number  77.
 Defaulting to unpruned grid for atomic number  77.
 Defaulting to unpruned grid for atomic number  77.
 Defaulting to unpruned grid for atomic number  77.
 Defaulting to unpruned grid for atomic number  77.
 Defaulting to unpruned grid for atomic number  77.
 Defaulting to unpruned grid for atomic number  77.
          There are   336 degrees of freedom in the 1st order CPHF.  IDoFFX=6 NUNeed=     3.
    333 vectors produced by pass  0 Test12= 1.23D-13 1.00D-09 XBig12= 4.77D+02 1.01D+01.
 AX will form    72 AO Fock derivatives at one time.
    333 vectors produced by pass  1 Test12= 1.23D-13 1.00D-09 XBig12= 7.15D+01 1.18D+00.
    333 vectors produced by pass  2 Test12= 1.23D-13 1.00D-09 XBig12= 8.89D-01 8.63D-02.
    333 vectors produced by pass  3 Test12= 1.23D-13 1.00D-09 XBig12= 5.53D-03 6.66D-03.
    333 vectors produced by pass  4 Test12= 1.23D-13 1.00D-09 XBig12= 1.57D-05 2.68D-04.
    291 vectors produced by pass  5 Test12= 1.23D-13 1.00D-09 XBig12= 2.69D-08 8.49D-06.
     73 vectors produced by pass  6 Test12= 1.23D-13 1.00D-09 XBig12= 3.60D-11 3.50D-07.
      3 vectors produced by pass  7 Test12= 1.23D-13 1.00D-09 XBig12= 4.88D-14 1.73D-08.
 InvSVY:  IOpt=1 It=  1 EMax= 2.49D-14
 Solved reduced A of dimension  2032 with   336 vectors.
 Isotropic polarizability for W=    0.000000      491.69 Bohr**3.
 End of Minotr F.D. properties file   721 does not exist.
 End of Minotr F.D. properties file   722 does not exist.
 End of Minotr F.D. properties file   788 does not exist.
 Hyperfine terms turned off by default for NAtoms > 100.

 **********************************************************************

            Population analysis using the SCF Density.

 **********************************************************************

 Orbital symmetries:
       Occupied  (A) (A) (A) (A) (A) (A) (A) (A) (A) (A) (A) (A)
                 (A) (A) (A) (A) (A) (A) (A) (A) (A) (A) (A) (A)
                 (A) (A) (A) (A) (A) (A) (A) (A) (A) (A) (A) (A)
                 (A) (A) (A) (A) (A) (A) (A) (A) (A) (A) (A) (A)
                 (A) (A) (A) (A) (A) (A) (A) (A) (A) (A) (A) (A)
                 (A) (A) (A) (A) (A) (A) (A) (A) (A) (A) (A) (A)
                 (A) (A) (A) (A) (A) (A) (A) (A) (A) (A) (A) (A)
                 (A) (A) (A) (A) (A) (A) (A) (A) (A) (A) (A) (A)
                 (A) (A) (A) (A) (A) (A) (A) (A) (A) (A) (A) (A)
                 (A) (A) (A) (A) (A) (A) (A) (A) (A) (A) (A) (A)
                 (A) (A) (A) (A) (A) (A) (A) (A) (A) (A) (A) (A)
                 (A) (A) (A) (A) (A) (A) (A) (A) (A) (A) (A) (A)
                 (A) (A) (A) (A) (A) (A) (A) (A) (A) (A) (A) (A)
                 (A) (A) (A) (A) (A) (A) (A) (A) (A) (A) (A) (A)
                 (A) (A) (A) (A) (A) (A) (A) (A) (A) (A) (A) (A)
                 (A) (A) (A) (A) (A) (A) (A) (A) (A) (A) (A) (A)
                 (A)
       Virtual   (A) (A) (A) (A) (A) (A) (A) (A) (A) (A) (A) (A)
                 (A) (A) (A) (A) (A) (A) (A) (A) (A) (A) (A) (A)
                 (A) (A) (A) (A) (A) (A) (A) (A) (A) (A) (A) (A)
                 (A) (A) (A) (A) (A) (A) (A) (A) (A) (A) (A) (A)
                 (A) (A) (A) (A) (A) (A) (A) (A) (A) (A) (A) (A)
                 (A) (A) (A) (A) (A) (A) (A) (A) (A) (A) (A) (A)
                 (A) (A) (A) (A) (A) (A) (A) (A) (A) (A) (A) (A)
                 (A) (A) (A) (A) (A) (A) (A) (A) (A) (A) (A) (A)
                 (A) (A) (A) (A) (A) (A) (A) (A) (A) (A) (A) (A)
                 (A) (A) (A) (A) (A) (A) (A) (A) (A) (A) (A) (A)
                 (A) (A) (A) (A) (A) (A) (A) (A) (A) (A) (A) (A)
                 (A) (A) (A) (A) (A) (A) (A) (A) (A) (A) (A) (A)
                 (A) (A) (A) (A) (A) (A) (A) (A) (A) (A) (A) (A)
                 (A) (A) (A) (A) (A) (A) (A) (A) (A) (A) (A) (A)
                 (A) (A) (A) (A) (A) (A) (A) (A) (A) (A) (A) (A)
                 (A) (A) (A) (A) (A) (A) (A) (A) (A) (A) (A) (A)
                 (A) (A) (A) (A) (A) (A) (A) (A) (A) (A) (A) (A)
                 (A) (A) (A) (A) (A) (A) (A) (A) (A) (A) (A) (A)
                 (A) (A) (A) (A) (A) (A) (A) (A) (A) (A) (A) (A)
                 (A) (A) (A) (A) (A) (A) (A) (A) (A) (A) (A) (A)
                 (A) (A) (A) (A) (A) (A) (A) (A) (A) (A) (A) (A)
                 (A) (A) (A) (A) (A) (A) (A) (A) (A) (A) (A) (A)
                 (A) (A) (A) (A) (A) (A) (A) (A) (A) (A) (A) (A)
                 (A) (A) (A) (A) (A) (A) (A) (A) (A) (A) (A) (A)
                 (A) (A) (A) (A) (A) (A) (A) (A) (A) (A) (A) (A)
                 (A) (A) (A) (A) (A) (A) (A) (A) (A) (A) (A) (A)
                 (A) (A) (A) (A) (A) (A) (A) (A) (A) (A) (A) (A)
                 (A) (A) (A) (A) (A) (A) (A) (A) (A) (A) (A) (A)
                 (A) (A) (A) (A) (A) (A) (A) (A) (A) (A) (A) (A)
                 (A) (A) (A) (A) (A) (A) (A) (A) (A) (A) (A) (A)
                 (A) (A) (A) (A) (A) (A) (A) (A) (A) (A) (A) (A)
                 (A) (A) (A) (A) (A) (A) (A) (A) (A) (A) (A) (A)
                 (A) (A) (A) (A) (A) (A) (A) (A) (A) (A) (A) (A)
                 (A) (A) (A) (A) (A) (A) (A) (A) (A) (A) (A) (A)
                 (A) (A) (A) (A) (A) (A) (A) (A) (A) (A) (A) (A)
                 (A) (A) (A) (A) (A) (A) (A) (A) (A) (A) (A) (A)
                 (A) (A) (A) (A) (A) (A) (A) (A) (A) (A) (A) (A)
                 (A) (A) (A) (A) (A) (A) (A) (A) (A) (A) (A) (A)
                 (A) (A) (A) (A) (A) (A) (A) (A) (A) (A) (A) (A)
                 (A) (A) (A) (A) (A) (A) (A) (A) (A) (A) (A) (A)
                 (A) (A) (A) (A) (A) (A) (A) (A) (A) (A) (A) (A)
                 (A) (A) (A) (A) (A) (A) (A) (A) (A) (A) (A) (A)
                 (A) (A) (A) (A) (A) (A) (A) (A) (A) (A) (A) (A)
                 (A) (A) (A) (A) (A) (A) (A) (A) (A) (A) (A) (A)
                 (A) (A) (A) (A) (A) (A) (A) (A) (A) (A) (A) (A)
                 (A) (A) (A) (A) (A) (A) (A) (A) (A) (A) (A) (A)
                 (A) (A) (A) (A) (A) (A) (A) (A) (A) (A) (A) (A)
                 (A) (A) (A) (A) (A) (A) (A) (A) (A) (A) (A) (A)
                 (A) (A) (A) (A) (A) (A) (A) (A) (A) (A) (A) (A)
                 (A) (A) (A) (A) (A) (A) (A) (A) (A) (A) (A) (A)
                 (A) (A) (A) (A) (A) (A) (A) (A) (A) (A) (A) (A)
                 (A) (A) (A) (A) (A) (A) (A) (A) (A) (A) (A) (A)
                 (A) (A) (A) (A) (A) (A) (A) (A) (A) (A) (A) (A)
                 (A)
 The electronic state is 1-A.
 Alpha  occ. eigenvalues --  -19.19859 -19.19747 -19.19616 -19.19303 -19.18969
 Alpha  occ. eigenvalues --  -19.18934 -19.17603 -14.44375 -14.44238 -14.41595
 Alpha  occ. eigenvalues --  -10.33478 -10.31890 -10.31724 -10.30176 -10.29905
 Alpha  occ. eigenvalues --  -10.29052 -10.28894 -10.28841 -10.28800 -10.28571
 Alpha  occ. eigenvalues --  -10.28517 -10.28455 -10.28261 -10.28236 -10.27994
 Alpha  occ. eigenvalues --  -10.27657 -10.27370 -10.26675 -10.25360 -10.24231
 Alpha  occ. eigenvalues --  -10.24104 -10.23643 -10.23293 -10.23088 -10.22527
 Alpha  occ. eigenvalues --  -10.22513 -10.22478 -10.22473 -10.22380 -10.22269
 Alpha  occ. eigenvalues --  -10.22177 -10.22117 -10.22060 -10.21269 -10.21074
 Alpha  occ. eigenvalues --  -10.20842  -6.79894  -6.77932  -6.77893  -3.59862
 Alpha  occ. eigenvalues --   -2.02619  -2.01863  -2.01387  -1.05841  -1.05166
 Alpha  occ. eigenvalues --   -1.05008  -1.03529  -0.99654  -0.98898  -0.98266
 Alpha  occ. eigenvalues --   -0.98082  -0.97162  -0.93345  -0.84050  -0.83217
 Alpha  occ. eigenvalues --   -0.82542  -0.81467  -0.79988  -0.79736  -0.79523
 Alpha  occ. eigenvalues --   -0.77181  -0.76956  -0.74493  -0.74235  -0.74010
 Alpha  occ. eigenvalues --   -0.71874  -0.70501  -0.70001  -0.69880  -0.69669
 Alpha  occ. eigenvalues --   -0.68613  -0.67593  -0.67273  -0.67216  -0.67017
 Alpha  occ. eigenvalues --   -0.66861  -0.64350  -0.63220  -0.61960  -0.61342
 Alpha  occ. eigenvalues --   -0.60837  -0.60577  -0.57272  -0.57063  -0.54296
 Alpha  occ. eigenvalues --   -0.53870  -0.53672  -0.53302  -0.53120  -0.53031
 Alpha  occ. eigenvalues --   -0.52916  -0.52496  -0.52263  -0.50537  -0.49819
 Alpha  occ. eigenvalues --   -0.49614  -0.48971  -0.47348  -0.47078  -0.46831
 Alpha  occ. eigenvalues --   -0.46626  -0.46389  -0.46190  -0.45943  -0.45819
 Alpha  occ. eigenvalues --   -0.45598  -0.45327  -0.45293  -0.44861  -0.44739
 Alpha  occ. eigenvalues --   -0.44170  -0.43780  -0.43658  -0.43647  -0.43419
 Alpha  occ. eigenvalues --   -0.43126  -0.42807  -0.42697  -0.42202  -0.41128
 Alpha  occ. eigenvalues --   -0.40489  -0.40277  -0.39950  -0.39798  -0.39762
 Alpha  occ. eigenvalues --   -0.39615  -0.39520  -0.39430  -0.39412  -0.39238
 Alpha  occ. eigenvalues --   -0.39190  -0.38947  -0.38916  -0.38651  -0.38621
 Alpha  occ. eigenvalues --   -0.38323  -0.38101  -0.38069  -0.37791  -0.37194
 Alpha  occ. eigenvalues --   -0.36948  -0.36763  -0.36635  -0.36308  -0.36124
 Alpha  occ. eigenvalues --   -0.35837  -0.35655  -0.35587  -0.35478  -0.35323
 Alpha  occ. eigenvalues --   -0.35219  -0.34579  -0.34474  -0.34269  -0.34137
 Alpha  occ. eigenvalues --   -0.34031  -0.33199  -0.32895  -0.32690  -0.32329
 Alpha  occ. eigenvalues --   -0.32170  -0.31843  -0.31622  -0.31528  -0.31016
 Alpha  occ. eigenvalues --   -0.30881  -0.30640  -0.30466  -0.29651  -0.29529
 Alpha  occ. eigenvalues --   -0.29219  -0.28878  -0.26565  -0.26307  -0.25694
 Alpha  occ. eigenvalues --   -0.25156  -0.24852  -0.24712  -0.24345  -0.23652
 Alpha  occ. eigenvalues --   -0.20666  -0.20353  -0.20081
 Alpha virt. eigenvalues --   -0.07036  -0.03816  -0.02893   0.00771   0.01731
 Alpha virt. eigenvalues --    0.03710   0.05236   0.05464   0.06821   0.07493
 Alpha virt. eigenvalues --    0.07579   0.08547   0.10136   0.10223   0.10419
 Alpha virt. eigenvalues --    0.10841   0.11089   0.11599   0.11900   0.12202
 Alpha virt. eigenvalues --    0.12640   0.12831   0.13306   0.13502   0.13859
 Alpha virt. eigenvalues --    0.14112   0.14239   0.14468   0.14632   0.14664
 Alpha virt. eigenvalues --    0.14847   0.14995   0.15342   0.15604   0.15722
 Alpha virt. eigenvalues --    0.15807   0.15970   0.16119   0.16290   0.16606
 Alpha virt. eigenvalues --    0.16689   0.16931   0.17087   0.17353   0.17415
 Alpha virt. eigenvalues --    0.17591   0.17677   0.17975   0.18187   0.18288
 Alpha virt. eigenvalues --    0.18345   0.18534   0.18749   0.18900   0.19120
 Alpha virt. eigenvalues --    0.19281   0.19419   0.19537   0.19779   0.19912
 Alpha virt. eigenvalues --    0.20190   0.20394   0.20545   0.20753   0.20951
 Alpha virt. eigenvalues --    0.21012   0.21296   0.21418   0.21669   0.21972
 Alpha virt. eigenvalues --    0.22015   0.22188   0.22639   0.22775   0.23124
 Alpha virt. eigenvalues --    0.23259   0.23384   0.23649   0.24310   0.24590
 Alpha virt. eigenvalues --    0.24599   0.24760   0.25092   0.25298   0.25457
 Alpha virt. eigenvalues --    0.25697   0.26178   0.26424   0.26521   0.27035
 Alpha virt. eigenvalues --    0.27136   0.27182   0.27551   0.27759   0.27922
 Alpha virt. eigenvalues --    0.28213   0.28582   0.28776   0.28834   0.29115
 Alpha virt. eigenvalues --    0.29235   0.29600   0.30136   0.30274   0.30584
 Alpha virt. eigenvalues --    0.31909   0.32356   0.32531   0.32988   0.33688
 Alpha virt. eigenvalues --    0.34290   0.35229   0.35807   0.36222   0.36807
 Alpha virt. eigenvalues --    0.37297   0.38027   0.38719   0.39079   0.40222
 Alpha virt. eigenvalues --    0.41255   0.41501   0.42949   0.43521   0.44053
 Alpha virt. eigenvalues --    0.46451   0.46700   0.47747   0.48840   0.49228
 Alpha virt. eigenvalues --    0.49726   0.49779   0.50523   0.51050   0.51353
 Alpha virt. eigenvalues --    0.51714   0.51758   0.52148   0.52258   0.52671
 Alpha virt. eigenvalues --    0.52989   0.53721   0.53948   0.54531   0.54881
 Alpha virt. eigenvalues --    0.55134   0.55302   0.55739   0.56157   0.56261
 Alpha virt. eigenvalues --    0.56873   0.57000   0.57428   0.57709   0.58008
 Alpha virt. eigenvalues --    0.58114   0.58327   0.58548   0.58855   0.59027
 Alpha virt. eigenvalues --    0.59556   0.59603   0.59863   0.60164   0.60395
 Alpha virt. eigenvalues --    0.60600   0.60738   0.60866   0.61246   0.61293
 Alpha virt. eigenvalues --    0.61620   0.62062   0.62875   0.62993   0.63640
 Alpha virt. eigenvalues --    0.63820   0.64165   0.64226   0.64564   0.64850
 Alpha virt. eigenvalues --    0.65405   0.65882   0.66442   0.66708   0.67017
 Alpha virt. eigenvalues --    0.67296   0.67666   0.67761   0.68220   0.68680
 Alpha virt. eigenvalues --    0.68930   0.69754   0.69872   0.70080   0.70344
 Alpha virt. eigenvalues --    0.70872   0.71100   0.71326   0.71409   0.72116
 Alpha virt. eigenvalues --    0.72307   0.72685   0.73233   0.73338   0.73605
 Alpha virt. eigenvalues --    0.73893   0.74045   0.74171   0.74720   0.75005
 Alpha virt. eigenvalues --    0.75297   0.75872   0.76158   0.76702   0.76745
 Alpha virt. eigenvalues --    0.77150   0.77466   0.78031   0.78346   0.78709
 Alpha virt. eigenvalues --    0.79024   0.79604   0.79921   0.80473   0.80875
 Alpha virt. eigenvalues --    0.81019   0.81279   0.81853   0.82014   0.82502
 Alpha virt. eigenvalues --    0.82814   0.83065   0.83298   0.83355   0.83596
 Alpha virt. eigenvalues --    0.83932   0.84421   0.84757   0.84852   0.84944
 Alpha virt. eigenvalues --    0.85220   0.85701   0.85903   0.86017   0.86247
 Alpha virt. eigenvalues --    0.86389   0.86659   0.87317   0.87724   0.87784
 Alpha virt. eigenvalues --    0.88006   0.88268   0.88378   0.88565   0.88749
 Alpha virt. eigenvalues --    0.89149   0.89378   0.89514   0.89791   0.90053
 Alpha virt. eigenvalues --    0.90395   0.90624   0.90712   0.90821   0.90944
 Alpha virt. eigenvalues --    0.91287   0.91375   0.91795   0.91910   0.92053
 Alpha virt. eigenvalues --    0.92168   0.92402   0.92708   0.92919   0.93243
 Alpha virt. eigenvalues --    0.93682   0.93914   0.93949   0.94577   0.95225
 Alpha virt. eigenvalues --    0.95440   0.95559   0.95797   0.95890   0.96479
 Alpha virt. eigenvalues --    0.96657   0.96906   0.97061   0.97521   0.97741
 Alpha virt. eigenvalues --    0.97895   0.98334   0.98595   0.99167   0.99354
 Alpha virt. eigenvalues --    0.99725   1.00052   1.00550   1.00703   1.00956
 Alpha virt. eigenvalues --    1.01269   1.02029   1.02586   1.03348   1.03650
 Alpha virt. eigenvalues --    1.04255   1.04601   1.04665   1.04995   1.05915
 Alpha virt. eigenvalues --    1.06547   1.06868   1.07543   1.08077   1.08289
 Alpha virt. eigenvalues --    1.08793   1.09160   1.09785   1.10630   1.11498
 Alpha virt. eigenvalues --    1.11811   1.12603   1.13740   1.14378   1.15388
 Alpha virt. eigenvalues --    1.15509   1.16033   1.16656   1.16956   1.18342
 Alpha virt. eigenvalues --    1.18678   1.19611   1.20267   1.20840   1.21452
 Alpha virt. eigenvalues --    1.22014   1.22326   1.23317   1.23802   1.23962
 Alpha virt. eigenvalues --    1.24125   1.24544   1.25976   1.26444   1.28098
 Alpha virt. eigenvalues --    1.28683   1.29180   1.30251   1.30733   1.31363
 Alpha virt. eigenvalues --    1.32288   1.32864   1.33842   1.34258   1.35032
 Alpha virt. eigenvalues --    1.36036   1.36627   1.36956   1.37604   1.38341
 Alpha virt. eigenvalues --    1.38865   1.39381   1.40419   1.40969   1.41134
 Alpha virt. eigenvalues --    1.41949   1.41966   1.42234   1.43173   1.43362
 Alpha virt. eigenvalues --    1.43608   1.43903   1.44841   1.45129   1.45506
 Alpha virt. eigenvalues --    1.45762   1.46510   1.46798   1.47184   1.47418
 Alpha virt. eigenvalues --    1.48649   1.49084   1.49312   1.49933   1.50827
 Alpha virt. eigenvalues --    1.51325   1.51630   1.53554   1.54333   1.55701
 Alpha virt. eigenvalues --    1.55861   1.57315   1.57448   1.58008   1.58589
 Alpha virt. eigenvalues --    1.59504   1.59698   1.60225   1.62600   1.62971
 Alpha virt. eigenvalues --    1.63787   1.64495   1.64744   1.64960   1.65492
 Alpha virt. eigenvalues --    1.65759   1.66532   1.67276   1.68375   1.68930
 Alpha virt. eigenvalues --    1.69416   1.69769   1.70687   1.71466   1.72824
 Alpha virt. eigenvalues --    1.73702   1.73882   1.74361   1.75863   1.77344
 Alpha virt. eigenvalues --    1.77774   1.78023   1.78144   1.78857   1.79308
 Alpha virt. eigenvalues --    1.80244   1.80312   1.80900   1.81461   1.81912
 Alpha virt. eigenvalues --    1.82147   1.82675   1.82723   1.82928   1.83828
 Alpha virt. eigenvalues --    1.84389   1.84993   1.85365   1.85785   1.86302
 Alpha virt. eigenvalues --    1.86472   1.86930   1.87652   1.88228   1.88538
 Alpha virt. eigenvalues --    1.88646   1.89762   1.90188   1.90630   1.91524
 Alpha virt. eigenvalues --    1.91560   1.92000   1.92136   1.92463   1.92818
 Alpha virt. eigenvalues --    1.93298   1.93329   1.93420   1.93734   1.93950
 Alpha virt. eigenvalues --    1.94216   1.94579   1.94666   1.95559   1.95975
 Alpha virt. eigenvalues --    1.96020   1.96639   1.97341   1.97607   1.97865
 Alpha virt. eigenvalues --    1.98267   1.99168   1.99287   2.00060   2.00823
 Alpha virt. eigenvalues --    2.01327   2.01747   2.02322   2.02603   2.03012
 Alpha virt. eigenvalues --    2.03290   2.04282   2.04776   2.05398   2.05889
 Alpha virt. eigenvalues --    2.06610   2.07305   2.07424   2.07898   2.08114
 Alpha virt. eigenvalues --    2.08159   2.08494   2.09012   2.09446   2.09999
 Alpha virt. eigenvalues --    2.10517   2.10918   2.11174   2.11805   2.12006
 Alpha virt. eigenvalues --    2.12901   2.13358   2.13501   2.13989   2.14714
 Alpha virt. eigenvalues --    2.15422   2.15476   2.15722   2.16357   2.16681
 Alpha virt. eigenvalues --    2.16752   2.16974   2.17787   2.18240   2.18419
 Alpha virt. eigenvalues --    2.18715   2.18955   2.19346   2.19771   2.20006
 Alpha virt. eigenvalues --    2.20196   2.20339   2.20833   2.21263   2.22062
 Alpha virt. eigenvalues --    2.22563   2.22818   2.23453   2.23650   2.23786
 Alpha virt. eigenvalues --    2.24342   2.24681   2.25872   2.26006   2.26432
 Alpha virt. eigenvalues --    2.26716   2.27074   2.27160   2.28098   2.28463
 Alpha virt. eigenvalues --    2.28805   2.29208   2.29684   2.30848   2.31401
 Alpha virt. eigenvalues --    2.31806   2.32122   2.32340   2.32588   2.33057
 Alpha virt. eigenvalues --    2.33064   2.34265   2.34562   2.34991   2.35829
 Alpha virt. eigenvalues --    2.36233   2.36912   2.37670   2.38935   2.39283
 Alpha virt. eigenvalues --    2.39708   2.39876   2.41015   2.44796   2.45022
 Alpha virt. eigenvalues --    2.46013   2.46282   2.48057   2.48712   2.48885
 Alpha virt. eigenvalues --    2.49557   2.49737   2.50167   2.50852   2.51227
 Alpha virt. eigenvalues --    2.51338   2.53972   2.55662   2.56949   2.59305
 Alpha virt. eigenvalues --    2.59541   2.59734   2.60548   2.61227   2.61326
 Alpha virt. eigenvalues --    2.62515   2.64147   2.64921   2.65134   2.65306
 Alpha virt. eigenvalues --    2.65496   2.65895   2.67070   2.68146   2.68748
 Alpha virt. eigenvalues --    2.70356   2.71739   2.72638   2.76867   2.78398
 Alpha virt. eigenvalues --    2.78552   2.78756   2.79326   2.80402   2.80754
 Alpha virt. eigenvalues --    2.81052   2.81618   2.81871   2.82236   2.82503
 Alpha virt. eigenvalues --    2.82689   2.83967   2.84716   2.85290   2.86667
 Alpha virt. eigenvalues --    2.88109   2.90317   2.92857   2.93063   2.95148
 Alpha virt. eigenvalues --    2.96874   2.97160   2.98637   2.99335   2.99453
 Alpha virt. eigenvalues --    3.04855   3.06001   3.06558   3.08091   3.12437
 Alpha virt. eigenvalues --    3.12705   3.12963   3.21297   3.23984   3.30795
 Alpha virt. eigenvalues --    3.44143  11.88927
          Condensed to atoms (all electrons):
 Mulliken charges:
               1
     1  C    0.279580
     2  C    0.025649
     3  C   -0.168669
     4  C   -0.141337
     5  C   -0.175680
     6  C    0.296702
     7  C    0.051428
     8  C   -0.144260
     9  C   -0.125533
    10  C   -0.173874
    11  H    0.240976
    12  H    0.182487
    13  H    0.172339
    14  H    0.181426
    15  H    0.185003
    16  H    0.165345
    17  N   -0.472651
    18  N   -0.478064
    19  Ir  -0.106216
    20  O   -0.544289
    21  O   -0.517328
    22  O   -0.539735
    23  B    0.523273
    24  B    0.487621
    25  B    0.433190
    26  O   -0.518404
    27  O   -0.518274
    28  C    0.293995
    29  C    0.308984
    30  C    0.302599
    31  C    0.294554
    32  C    0.299433
    33  C    0.289656
    34  O   -0.512802
    35  C   -0.508673
    36  H    0.169874
    37  H    0.149433
    38  H    0.162331
    39  C   -0.510365
    40  H    0.148090
    41  H    0.176660
    42  H    0.157970
    43  C   -0.511318
    44  H    0.146954
    45  H    0.166577
    46  H    0.165862
    47  C   -0.505969
    48  H    0.156856
    49  H    0.194410
    50  H    0.138363
    51  C   -0.511768
    52  H    0.148244
    53  H    0.177390
    54  H    0.165604
    55  C   -0.507049
    56  H    0.168900
    57  H    0.150367
    58  H    0.164470
    59  C   -0.491739
    60  H    0.160416
    61  H    0.188570
    62  H    0.139480
    63  C   -0.513198
    64  H    0.149116
    65  H    0.169932
    66  H    0.168029
    67  C   -0.499659
    68  H    0.157100
    69  H    0.190935
    70  H    0.139220
    71  C   -0.510482
    72  H    0.166761
    73  H    0.147184
    74  H    0.165666
    75  C   -0.510041
    76  H    0.172861
    77  H    0.154411
    78  H    0.152611
    79  C   -0.507505
    80  H    0.178174
    81  H    0.158247
    82  H    0.148389
    83  H    0.251756
    84  C    0.596545
    85  O   -0.524486
    86  C   -0.434954
    87  H    0.177069
    88  H    0.187736
    89  C   -0.393693
    90  H    0.183317
    91  H    0.184846
    92  N   -0.391775
    93  C   -0.385721
    94  H    0.187781
    95  H    0.167481
    96  H    0.199862
    97  C   -0.254059
    98  H    0.127451
    99  H    0.166740
   100  C   -0.278791
   101  H    0.140859
   102  H    0.133338
   103  C   -0.271946
   104  H    0.145903
   105  H    0.120549
   106  C   -0.499571
   107  H    0.168893
   108  H    0.160034
   109  H    0.162462
   110  H    0.184338
   111  H    0.183220
 Sum of Mulliken charges =  -0.00000
 Mulliken charges with hydrogens summed into heavy atoms:
               1
     1  C    0.279580
     2  C    0.266625
     3  C    0.014551
     4  C    0.041149
     5  C   -0.003342
     6  C    0.296702
     7  C    0.232854
     8  C    0.040078
     9  C    0.059470
    10  C   -0.008529
    17  N   -0.472651
    18  N   -0.478064
    19  Ir  -0.106216
    20  O   -0.544289
    21  O   -0.517328
    22  O   -0.539735
    23  B    0.523273
    24  B    0.487621
    25  B    0.433190
    26  O   -0.518404
    27  O   -0.518274
    28  C    0.293995
    29  C    0.308984
    30  C    0.302599
    31  C    0.294554
    32  C    0.299433
    33  C    0.289656
    34  O   -0.512802
    35  C   -0.027034
    39  C   -0.027645
    43  C   -0.031926
    47  C   -0.016340
    51  C   -0.020531
    55  C   -0.023311
    59  C   -0.003272
    63  C   -0.026122
    67  C   -0.012403
    71  C   -0.030870
    75  C   -0.030158
    79  C   -0.022694
    84  C    0.596545
    85  O   -0.524486
    86  C   -0.070149
    89  C    0.226227
    92  N   -0.391775
    93  C    0.169403
    97  C    0.040132
   100  C   -0.004594
   103  C   -0.005495
   106  C   -0.008181
 APT charges:
               1
     1  C    0.177509
     2  C    0.043923
     3  C   -0.037230
     4  C    0.083858
     5  C   -0.164619
     6  C    0.161206
     7  C    0.072153
     8  C   -0.039264
     9  C    0.118795
    10  C   -0.161350
    11  H    0.128558
    12  H    0.033511
    13  H    0.047492
    14  H    0.075939
    15  H    0.034626
    16  H    0.043616
    17  N   -0.171994
    18  N   -0.202650
    19  Ir  -0.574909
    20  O   -1.005655
    21  O   -0.960219
    22  O   -1.051522
    23  B    1.258560
    24  B    1.229614
    25  B    1.257242
    26  O   -0.983420
    27  O   -0.981325
    28  C    0.481760
    29  C    0.514713
    30  C    0.494171
    31  C    0.501450
    32  C    0.477336
    33  C    0.489582
    34  O   -0.968489
    35  C   -0.030854
    36  H    0.001645
    37  H   -0.027382
    38  H   -0.004570
    39  C   -0.011296
    40  H   -0.020672
    41  H    0.005438
    42  H   -0.008232
    43  C   -0.003444
    44  H   -0.021417
    45  H   -0.003091
    46  H    0.001026
    47  C   -0.045558
    48  H    0.001799
    49  H    0.042249
    50  H   -0.034291
    51  C   -0.009565
    52  H   -0.017828
    53  H    0.007406
    54  H   -0.006353
    55  C   -0.026084
    56  H   -0.005581
    57  H   -0.020422
    58  H   -0.010779
    59  C   -0.032977
    60  H    0.000100
    61  H    0.032121
    62  H   -0.032257
    63  C   -0.013061
    64  H   -0.017340
    65  H    0.002633
    66  H    0.003741
    67  C   -0.045851
    68  H    0.000292
    69  H    0.036100
    70  H   -0.034430
    71  C   -0.009020
    72  H   -0.004180
    73  H   -0.020587
    74  H    0.000313
    75  C   -0.032345
    76  H   -0.000562
    77  H   -0.023587
    78  H   -0.008893
    79  C   -0.009884
    80  H    0.009866
    81  H   -0.008817
    82  H   -0.023216
    83  H   -0.029860
    84  C    0.862414
    85  O   -0.695737
    86  C   -0.000778
    87  H   -0.016187
    88  H   -0.008847
    89  C    0.273490
    90  H    0.010900
    91  H   -0.032912
    92  N   -0.693381
    93  C    0.244805
    94  H    0.020410
    95  H   -0.043776
    96  H    0.061972
    97  C    0.061589
    98  H   -0.025865
    99  H   -0.014291
   100  C    0.147785
   101  H   -0.055730
   102  H   -0.092972
   103  C    0.124762
   104  H   -0.057573
   105  H   -0.056653
   106  C    0.048805
   107  H   -0.001499
   108  H   -0.019083
   109  H   -0.033263
   110  H    0.039959
   111  H    0.038241
 Sum of APT charges =  -0.00000
 APT charges with hydrogens summed into heavy atoms:
               1
     1  C    0.177509
     2  C    0.172481
     3  C    0.001011
     4  C    0.117369
     5  C   -0.117127
     6  C    0.161206
     7  C    0.148092
     8  C    0.000695
     9  C    0.153421
    10  C   -0.117734
    17  N   -0.171994
    18  N   -0.202650
    19  Ir  -0.574909
    20  O   -1.005655
    21  O   -0.960219
    22  O   -1.051522
    23  B    1.258560
    24  B    1.229614
    25  B    1.257242
    26  O   -0.983420
    27  O   -0.981325
    28  C    0.481760
    29  C    0.514713
    30  C    0.494171
    31  C    0.501450
    32  C    0.477336
    33  C    0.489582
    34  O   -0.968489
    35  C   -0.061162
    39  C   -0.034762
    43  C   -0.026926
    47  C   -0.035800
    51  C   -0.026340
    55  C   -0.062867
    59  C   -0.033012
    63  C   -0.024026
    67  C   -0.043888
    71  C   -0.033475
    75  C   -0.065387
    79  C   -0.032051
    84  C    0.862414
    85  O   -0.695737
    86  C   -0.025812
    89  C    0.221618
    92  N   -0.693381
    93  C    0.283412
    97  C    0.021433
   100  C   -0.000918
   103  C    0.010536
   106  C   -0.005039
 Electronic spatial extent (au):  <R**2>=          27973.2010
 Charge=             -0.0000 electrons
 Dipole moment (field-independent basis, Debye):
    X=              2.8017    Y=             -2.5118    Z=             -1.7649  Tot=              4.1561
 Quadrupole moment (field-independent basis, Debye-Ang):
   XX=           -308.8640   YY=           -299.2685   ZZ=           -301.5407
   XY=            -16.6768   XZ=             -9.5314   YZ=             -3.2967
 Traceless Quadrupole moment (field-independent basis, Debye-Ang):
   XX=             -5.6396   YY=              3.9559   ZZ=              1.6837
   XY=            -16.6768   XZ=             -9.5314   YZ=             -3.2967
 Octapole moment (field-independent basis, Debye-Ang**2):
  XXX=            -48.3616  YYY=             -9.6747  ZZZ=             14.1720  XYY=            -20.3983
  XXY=            -66.2118  XXZ=            -53.4241  XZZ=             23.2253  YZZ=             19.3080
  YYZ=            -29.1993  XYZ=             -6.8519
 Hexadecapole moment (field-independent basis, Debye-Ang**3):
 XXXX=         -18925.3556 YYYY=         -10303.3995 ZZZZ=          -8178.9314 XXXY=           -323.5366
 XXXZ=           -238.5421 YYYX=           -240.4815 YYYZ=            -41.5250 ZZZX=           -110.6880
 ZZZY=            -24.0414 XXYY=          -4880.2653 XXZZ=          -4265.8241 YYZZ=          -3005.7999
 XXYZ=            -35.9639 YYXZ=            -33.8768 ZZXY=            158.4374
 N-N= 8.158518380886D+03 E-N=-2.159559525560D+04  KE= 2.192122868763D+03
  Exact polarizability:     535.972     -27.534     506.533     -40.840     -23.394     432.559
 Approx polarizability:     723.913     -36.637     763.269     -85.827     -51.965     657.311
   1 Symmetry operations used in ECPInt.
 ECPInt:  NShTT=   53301 NPrTT=  320676 LenC2=   40985 LenP2D=  125924.
 LDataN:  DoStor=T MaxTD1= 8 Len=  415
 Calling FoFJK, ICntrl=    100127 FMM=F ISym2X=0 I1Cent= 0 IOpClX= 0 NMat=1 NMatS=1 NMatT=0.
 Defaulting to unpruned grid for atomic number  77.
 Defaulting to unpruned grid for atomic number  77.
 Defaulting to unpruned grid for atomic number  77.
 Defaulting to unpruned grid for atomic number  77.
 Defaulting to unpruned grid for atomic number  77.
 Defaulting to unpruned grid for atomic number  77.
 Defaulting to unpruned grid for atomic number  77.
 Defaulting to unpruned grid for atomic number  77.
 Defaulting to unpruned grid for atomic number  77.
 Defaulting to unpruned grid for atomic number  77.
 Defaulting to unpruned grid for atomic number  77.
 Defaulting to unpruned grid for atomic number  77.
 Defaulting to unpruned grid for atomic number  77.
 Defaulting to unpruned grid for atomic number  77.
 Defaulting to unpruned grid for atomic number  77.
 Defaulting to unpruned grid for atomic number  77.
 Full mass-weighted force constant matrix:
 Low frequencies ---   -3.1403   -0.0005   -0.0002    0.0001    4.5807    6.9705
 Low frequencies ---   12.4434   15.6111   17.6914
 Diagonal vibrational polarizability:
       88.3855178      88.8019718     103.7159598
 Harmonic frequencies (cm**-1), IR intensities (KM/Mole), Raman scattering
 activities (A**4/AMU), depolarization ratios for plane and unpolarized
 incident light, reduced masses (AMU), force constants (mDyne/A),
 and normal coordinates:
                      1                      2                      3
                      A                      A                      A
 Frequencies --     12.3181                15.2110                17.6445
 Red. masses --      4.8950                 4.1087                 4.3237
 Frc consts  --      0.0004                 0.0006                 0.0008
 IR Inten    --      0.0743                 0.1709                 0.0076
  Atom AN      X      Y      Z        X      Y      Z        X      Y      Z
     1   6    -0.00  -0.03  -0.03     0.02   0.04  -0.02     0.01   0.01  -0.04
     2   6    -0.01  -0.05  -0.06     0.03   0.03  -0.03     0.00  -0.01  -0.06
     3   6    -0.03  -0.06  -0.09     0.04   0.04  -0.02    -0.01  -0.01  -0.07
     4   6    -0.04  -0.05  -0.10     0.05   0.05  -0.01    -0.01   0.00  -0.07
     5   6    -0.02  -0.03  -0.07     0.04   0.05  -0.01     0.00   0.01  -0.05
     6   6     0.02  -0.01   0.01     0.00   0.03  -0.03     0.01   0.02  -0.02
     7   6     0.07   0.03   0.12    -0.04   0.00  -0.08     0.01   0.02  -0.01
     8   6     0.09   0.05   0.16    -0.05   0.01  -0.09     0.02   0.03   0.00
     9   6     0.07   0.04   0.12    -0.03   0.03  -0.06     0.03   0.03   0.01
    10   6     0.03   0.01   0.04    -0.00   0.04  -0.03     0.02   0.03  -0.00
    11   1    -0.00  -0.06  -0.05     0.02   0.02  -0.04     0.00  -0.01  -0.05
    12   1    -0.06  -0.05  -0.13     0.06   0.06  -0.00    -0.01   0.00  -0.08
    13   1    -0.03  -0.02  -0.07     0.05   0.06  -0.00     0.00   0.02  -0.05
    14   1     0.08   0.03   0.14    -0.06  -0.01  -0.09     0.01   0.02  -0.02
    15   1     0.08   0.06   0.15    -0.04   0.04  -0.06     0.03   0.04   0.02
    16   1     0.02   0.00   0.02     0.01   0.06  -0.01     0.03   0.03   0.00
    17   7     0.00  -0.04  -0.03     0.02   0.03  -0.03     0.00   0.00  -0.04
    18   7     0.03   0.00   0.04    -0.01   0.02  -0.05     0.01   0.01  -0.02
    19  77     0.01  -0.03  -0.00     0.01   0.01  -0.02     0.01   0.00  -0.03
    20   8    -0.01  -0.04  -0.02    -0.01  -0.02  -0.06     0.07   0.04   0.03
    21   8     0.01  -0.06   0.02     0.01  -0.05   0.01    -0.04   0.01  -0.02
    22   8     0.05  -0.01  -0.04    -0.00   0.00  -0.02    -0.00  -0.00   0.01
    23   5    -0.00  -0.03   0.02     0.00  -0.00   0.00    -0.01  -0.00  -0.01
    24   5     0.01  -0.02  -0.00     0.03   0.01  -0.01     0.02   0.00  -0.02
    25   5     0.03  -0.01  -0.01    -0.01   0.00  -0.00     0.01   0.00  -0.02
    26   8     0.02  -0.01   0.01    -0.02  -0.01   0.03     0.01   0.01  -0.03
    27   8     0.04   0.00   0.02     0.07   0.05   0.05     0.00  -0.02  -0.04
    28   6     0.02   0.01   0.01     0.04   0.04   0.02     0.05  -0.01   0.01
    29   6     0.00  -0.03  -0.01     0.00  -0.04  -0.05     0.09   0.06   0.04
    30   6     0.05  -0.00  -0.03    -0.02  -0.00   0.00    -0.00   0.00   0.01
    31   6     0.03   0.01   0.00    -0.02  -0.01   0.04     0.00   0.00  -0.01
    32   6    -0.02  -0.05   0.03    -0.00  -0.05   0.03    -0.03  -0.00  -0.01
    33   6    -0.03  -0.00   0.02    -0.01   0.00   0.02    -0.01  -0.02   0.02
    34   8    -0.03   0.00   0.02    -0.02   0.02   0.01     0.01  -0.01   0.01
    35   6     0.03  -0.07  -0.02     0.04  -0.14  -0.03     0.09   0.15   0.01
    36   1     0.06  -0.08  -0.00     0.10  -0.15   0.02     0.04   0.16  -0.05
    37   1     0.04  -0.07  -0.01     0.05  -0.16  -0.03     0.11   0.17   0.02
    38   1     0.01  -0.10  -0.03     0.02  -0.19  -0.08     0.12   0.20   0.02
    39   6    -0.04  -0.02  -0.03    -0.07  -0.03  -0.12     0.16   0.05   0.12
    40   1    -0.03  -0.01  -0.03    -0.06  -0.04  -0.12     0.17   0.06   0.14
    41   1    -0.06   0.01  -0.04    -0.10   0.04  -0.14     0.16  -0.01   0.15
    42   1    -0.05  -0.05  -0.06    -0.09  -0.09  -0.17     0.19   0.10   0.14
    43   6     0.06   0.01   0.03     0.10   0.02   0.07     0.03   0.01  -0.01
    44   1     0.05   0.02   0.03     0.08   0.01   0.04     0.07   0.03   0.03
    45   1     0.08  -0.01   0.03     0.14  -0.04   0.08     0.01   0.07  -0.05
    46   1     0.07   0.04   0.06     0.13   0.08   0.11     0.00  -0.04  -0.03
    47   6    -0.01   0.05   0.02    -0.01   0.14   0.01     0.07  -0.09   0.06
    48   1     0.01   0.08   0.04     0.01   0.19   0.07     0.04  -0.14   0.02
    49   1    -0.04   0.06   0.00    -0.06   0.17  -0.04     0.08  -0.12   0.08
    50   1    -0.02   0.06   0.02    -0.03   0.13  -0.02     0.10  -0.08   0.10
    51   6    -0.00  -0.05   0.03     0.02  -0.08   0.02    -0.07  -0.00   0.00
    52   1    -0.02  -0.04   0.03     0.01  -0.08   0.04    -0.07  -0.01   0.01
    53   1     0.02  -0.04   0.01     0.04  -0.08  -0.01    -0.08  -0.01   0.01
    54   1     0.00  -0.08   0.03     0.03  -0.11   0.04    -0.08   0.01  -0.02
    55   6    -0.06  -0.07   0.05    -0.03  -0.06   0.08    -0.01   0.01  -0.03
    56   1    -0.07  -0.07   0.05    -0.05  -0.03   0.09     0.00   0.00  -0.04
    57   1    -0.09  -0.06   0.06    -0.03  -0.06   0.09    -0.01   0.01  -0.03
    58   1    -0.05  -0.11   0.05    -0.01  -0.08   0.10    -0.03   0.02  -0.04
    59   6    -0.00   0.02  -0.00     0.01   0.01  -0.02    -0.03  -0.03   0.05
    60   1    -0.00   0.06  -0.01     0.00   0.05  -0.03    -0.02  -0.05   0.06
    61   1     0.03   0.01  -0.02     0.03  -0.00  -0.04    -0.05  -0.03   0.04
    62   1    -0.01   0.03  -0.00     0.01   0.00  -0.02    -0.05  -0.03   0.06
    63   6    -0.07   0.02   0.03    -0.05   0.02   0.05     0.01  -0.03   0.03
    64   1    -0.08   0.01   0.04    -0.05   0.01   0.06     0.00  -0.03   0.03
    65   1    -0.09   0.01   0.05    -0.06   0.02   0.07     0.03  -0.02   0.01
    66   1    -0.08   0.05   0.02    -0.05   0.06   0.04     0.02  -0.04   0.04
    67   6     0.05   0.04   0.02     0.01   0.01   0.06     0.00  -0.03  -0.02
    68   1     0.03   0.05   0.04    -0.00   0.01   0.08     0.01  -0.03  -0.04
    69   1     0.06   0.05   0.01     0.03   0.01   0.05    -0.00  -0.04  -0.02
    70   1     0.06   0.06   0.01     0.01   0.01   0.07    -0.01  -0.04  -0.01
    71   6     0.02  -0.01   0.01    -0.05  -0.02   0.05     0.01   0.02  -0.01
    72   1     0.01  -0.00   0.03    -0.04  -0.03   0.07     0.01   0.02  -0.03
    73   1     0.03   0.00  -0.00    -0.05  -0.03   0.06     0.00   0.02   0.00
    74   1     0.01  -0.03   0.00    -0.07  -0.03   0.04     0.01   0.04  -0.01
    75   6     0.04  -0.03  -0.05    -0.05  -0.01  -0.02     0.00   0.03   0.03
    76   1     0.04  -0.05  -0.04    -0.06  -0.02  -0.02     0.01   0.04   0.01
    77   1     0.04  -0.04  -0.06    -0.06  -0.02  -0.00    -0.00   0.04   0.03
    78   1     0.05  -0.03  -0.07    -0.04  -0.01  -0.04    -0.00   0.03   0.04
    79   6     0.08   0.02  -0.05     0.00   0.01   0.00    -0.01  -0.02   0.03
    80   1     0.09   0.04  -0.04     0.03   0.01   0.01    -0.02  -0.04   0.02
    81   1     0.08   0.02  -0.08     0.01   0.01  -0.02    -0.02  -0.01   0.05
    82   1     0.08   0.02  -0.05    -0.01   0.00   0.02    -0.01  -0.01   0.04
    83   1    -0.01   0.00  -0.02    -0.02   0.01   0.03    -0.04  -0.01   0.05
    84   6    -0.05   0.09   0.00    -0.02  -0.04   0.02    -0.05  -0.02   0.04
    85   8    -0.03   0.10   0.02    -0.01  -0.06   0.00    -0.04  -0.04   0.04
    86   6    -0.06   0.08  -0.01    -0.02  -0.04   0.03    -0.07  -0.02   0.05
    87   1    -0.08   0.07  -0.01    -0.03  -0.02   0.03    -0.08  -0.02   0.05
    88   1    -0.07   0.09  -0.03    -0.03  -0.03   0.04    -0.08  -0.01   0.04
    89   6    -0.05   0.08  -0.01    -0.02  -0.01   0.02    -0.05   0.01   0.04
    90   1    -0.03   0.13   0.04    -0.03  -0.01   0.02    -0.05   0.04   0.07
    91   1    -0.11   0.09  -0.07    -0.00   0.00   0.02    -0.05   0.03   0.02
    92   7    -0.06   0.08  -0.02    -0.01  -0.02   0.02    -0.04  -0.00   0.03
    93   6    -0.05   0.10   0.00     0.00  -0.03  -0.00    -0.03  -0.01   0.02
    94   1    -0.07   0.12   0.04     0.02  -0.03  -0.04    -0.03  -0.00   0.02
    95   1     0.00   0.10   0.00    -0.03  -0.03  -0.00    -0.02   0.00   0.01
    96   1    -0.07   0.08  -0.03     0.03  -0.03   0.02    -0.02  -0.02   0.02
    97   6    -0.06   0.08  -0.00    -0.02  -0.05   0.04    -0.07  -0.04   0.06
    98   1    -0.03   0.12  -0.00    -0.03  -0.08   0.04    -0.06  -0.05   0.06
    99   1    -0.05   0.06   0.04    -0.03  -0.04   0.02    -0.06  -0.05   0.06
   100   6    -0.09   0.06  -0.04    -0.02  -0.03   0.08    -0.10  -0.05   0.07
   101   1    -0.10   0.02  -0.04    -0.04  -0.00   0.08    -0.12  -0.04   0.08
   102   1    -0.11   0.08  -0.07    -0.01  -0.05   0.08    -0.10  -0.04   0.05
   103   6    -0.10   0.06  -0.05     0.01  -0.03   0.12    -0.08  -0.06   0.10
   104   1    -0.12   0.05  -0.08     0.01  -0.03   0.14    -0.11  -0.06   0.10
   105   1    -0.10   0.09  -0.05     0.04  -0.05   0.12    -0.05  -0.05   0.10
   106   6    -0.09   0.03  -0.03    -0.00  -0.02   0.15    -0.08  -0.07   0.14
   107   1    -0.07   0.04  -0.01     0.00  -0.03   0.14    -0.06  -0.07   0.15
   108   1    -0.09   0.00  -0.03    -0.03  -0.01   0.16    -0.11  -0.08   0.15
   109   1    -0.10   0.02  -0.04     0.01  -0.02   0.18    -0.07  -0.08   0.17
   110   1     0.12   0.08   0.23    -0.08  -0.00  -0.11     0.02   0.03   0.01
   111   1    -0.04  -0.07  -0.11     0.05   0.04  -0.02    -0.01  -0.01  -0.09
                      4                      5                      6
                      A                      A                      A
 Frequencies --     22.2544                29.5974                30.8855
 Red. masses --      4.0295                 4.1727                 4.2171
 Frc consts  --      0.0012                 0.0022                 0.0024
 IR Inten    --      0.1254                 0.5249                 0.3931
  Atom AN      X      Y      Z        X      Y      Z        X      Y      Z
     1   6    -0.01  -0.02   0.00    -0.00  -0.00   0.00    -0.00  -0.05  -0.00
     2   6    -0.00  -0.01   0.01    -0.00  -0.01  -0.00     0.00  -0.00   0.04
     3   6    -0.01  -0.02   0.02     0.02   0.00   0.01    -0.00  -0.02   0.05
     4   6    -0.01  -0.02   0.01     0.04   0.01   0.03    -0.01  -0.04   0.04
     5   6    -0.01  -0.03   0.01     0.02   0.01   0.02    -0.01  -0.06   0.01
     6   6    -0.01  -0.03  -0.00    -0.01  -0.00   0.00     0.01  -0.06  -0.03
     7   6    -0.00  -0.02  -0.00    -0.01  -0.00   0.02     0.04  -0.04  -0.04
     8   6    -0.01  -0.03  -0.01    -0.00   0.01   0.03     0.03  -0.08  -0.08
     9   6    -0.01  -0.04  -0.02    -0.00   0.01   0.03     0.01  -0.10  -0.09
    10   6    -0.01  -0.03  -0.02    -0.00   0.01   0.01    -0.01  -0.09  -0.06
    11   1    -0.00  -0.01   0.02    -0.01  -0.02  -0.01     0.01   0.02   0.04
    12   1    -0.01  -0.03   0.01     0.05   0.02   0.04    -0.02  -0.05   0.06
    13   1    -0.01  -0.03   0.00     0.04   0.02   0.03    -0.01  -0.08   0.01
    14   1     0.00  -0.02   0.00    -0.01  -0.01   0.03     0.06  -0.02  -0.03
    15   1    -0.02  -0.04  -0.03    -0.00   0.02   0.03    -0.00  -0.13  -0.12
    16   1    -0.02  -0.04  -0.02    -0.00   0.01   0.01    -0.02  -0.11  -0.07
    17   7    -0.00  -0.02   0.01    -0.01  -0.01  -0.01     0.01  -0.02   0.01
    18   7    -0.00  -0.02   0.00    -0.01  -0.01   0.00     0.02  -0.03  -0.02
    19  77     0.01  -0.00   0.02    -0.02  -0.02  -0.01     0.02  -0.00  -0.00
    20   8     0.01  -0.02   0.00    -0.00  -0.02  -0.01    -0.01  -0.00  -0.01
    21   8    -0.02   0.08  -0.02    -0.01  -0.05   0.00     0.03   0.00  -0.00
    22   8     0.01   0.01  -0.02     0.02  -0.01   0.04    -0.01  -0.02   0.10
    23   5     0.00   0.02  -0.00    -0.04  -0.01  -0.01     0.02   0.01  -0.01
[...]
 ,0.00008522,0.00081377,-0.00075045,-0.00048527,-0.00468163,0.01587156,
 -0.00267337,0.00351068,0.09584358,-0.07481693,0.00035665,-0.00761132,0
 .00567527,0.00392674,0.00096977,0.00495235,0.00000549,0.00000130,-0.00
 000488,-0.00000592,-0.00000093,-0.00000602,0.00003915,0.00001423,0.000
 03839,-0.00138858,-0.00116628,-0.00189184,-0.00182468,-0.00092115,-0.0
 0246264,0.00007170,-0.00038280,0.00025992,0.00008579,0.00017044,-0.000
 07587,0.00580478,0.00362189,0.00334271,-0.00032710,-0.00009726,0.00015
 550,0.00004228,0.00004931,-0.00009737,0.00002495,0.00002850,0.00000435
 ,0.00003444,-0.00021232,-0.00000274,-0.00001712,-0.00002780,-0.0000836
 5,0.00000376,0.00002832,0.00016995,-0.00018349,0.00022220,0.00002842,0
 .00003712,-0.00007987,0.00000308,0.00007795,-0.00000223,-0.00008884,-0
 .00001205,-0.00001854,0.00000597,-0.00001796,0.00000519,0.00003215,-0.
 00000497,0.00001784,-0.00006645,0.00000089,0.00004046,0.00002044,-0.00
 000118,-0.00002094,-0.00000088,-0.00001146,0.00000158,-0.00001762,0.00
 004445,0.00003364,0.00003076,0.00000529,0.00000394,-0.00000780,0.00000
 161,-0.00000229,0.00000277,-0.00000102,-0.00000115,-0.00000555,-0.0000
 0109,0.00000214,0.00000070,0.00000264,-0.00000195,-0.00000736,0.000002
 54,0.00000316,-0.00000255,-0.00000158,-0.00000204,0.00000013,-0.000001
 08,0.00000156,0.00000066,0.00000413,0.00000743,-0.00000076,0.00000256,
 -0.00000135,-0.00000374,-0.00000224,-0.00000067,-0.00000224,0.00000236
 ,-0.00000085,0.00000022,-0.00000102,0.00000407,-0.00000401,0.00000072,
 -0.00000006,0.00000037,-0.00000246,-0.00000303,0.00000080,0.00000326,0
 .00000189,-0.00000042,-0.00000188,0.00000347,0.00000064,0.00000169,0.0
 0000228,0.00000041,-0.00000429,0.00000003,0.00000161,0.00000322,-0.000
 00435,-0.00000044,-0.00000096,0.00000120,-0.00000050,0.00000103,-0.000
 00090,-0.00000085,0.00000010,0.00000175,0.00000106,0.00000093,-0.00000
 139,0.00000056,0.00000176,0.00000168,0.00000180,0.00000200,0.00000170,
 -0.00000342,-0.00000230,0.00000275,0.00000365,0.00000072,-0.00000214,0
 .00000133,0.00000415,-0.00000047,0.00000420,0.00000056,0.00000171,0.00
 000061,-0.00000102,-0.00000074,0.,0.00000170,0.00000066,-0.00000162,-0
 .00000299,-0.00001460,-0.00000548,-0.00000710,-0.00000491,0.00000102,-
 0.00000066,0.00000767,-0.00000059,0.00000544,-0.00000155,-0.00000014,-
 0.00000249,-0.00000936,0.00000148,-0.00000602,-0.00000401,0.00000048,0
 .00000544,-0.00000166,0.00000105,0.00000255,0.00000478,0.00000339,0.00
 004557,0.00006159,0.00001988,0.00000848,-0.00000144,0.00001064,-0.0000
 2734,-0.00000843,0.00000776,-0.00000225,-0.00004527,-0.00002206,0.0000
 1854,0.00000767,0.00001225,-0.00000050,0.00000130,0.00000402,-0.000004
 13,-0.00001572,-0.00000439,-0.00000320,-0.00000580,-0.00000524,-0.0000
 3148,-0.00000656,0.00000531,0.00018860,0.00022288,-0.00016154,-0.00001
 973,-0.00029109,0.00031349,0.00000308,-0.00005156,0.00001242,0.0000008
 3,-0.00000826,-0.00000136,0.00000408,-0.00003221,0.00002209,0.00014092
 ,0.00001312,-0.00002857,-0.00001064,-0.00002835,0.00002037,-0.00001695
 ,-0.00000077,-0.00001113,-0.00018385,-0.00012773,0.00005133,0.00018855
 ,0.00025614,-0.00010185,0.00006572,0.00002914,-0.00002989,-0.00004378,
 -0.00004745,0.00009509,-0.00015840,-0.00010568,-0.00014507,-0.00001093
 ,-0.00000537,0.00002550,0.00001637,-0.00000268,-0.00001341,-0.00001240
 ,0.00000445,-0.00000722,0.00001845,0.00001431,-0.00000936,-0.00000221,
 -0.00000248,-0.00000058,-0.00000731,-0.00001076,0.00000311,-0.00000377
 ,-0.00000391,0.00000856,0.00000409,-0.00000662,-0.00000007,-0.00000065
 ,0.00000258,-0.00000845,0.00000031,0.00000284,-0.00000421,-0.00000320,
 -0.00000175,0.00000329,-0.00000158,0.00000058,-0.00000073,0.00000288,-
 0.00000294,-0.00000047,-0.00589602,-0.10492220,0.06885891,-0.00150327,
 0.00018126,0.00102840,0.00536968,0.01491911,-0.01197146,-0.04929590,-0
 .01225642,0.02013953,0.00265751,-0.01933868,0.00914796,0.00074654,0.00
 144757,0.00611811,-0.00052752,-0.00024836,-0.00082366,-0.00003088,-0.0
 0013016,0.00006617,0.00010916,-0.00001451,-0.00006028,-0.00003522,0.00
 011637,-0.00004015,-0.00005332,-0.00011589,0.00008522,-0.00104748,-0.0
 0118815,-0.00149366,-0.00110313,-0.00066697,-0.00239404,0.00015588,-0.
 00091590,0.00053850,-0.00000063,0.00000055,0.00000196,-0.00000418,-0.0
 0000159,-0.00000475,0.00005430,0.00002889,0.00002817,0.00127254,0.0060
 6334,0.00383784,-0.00003080,0.00016884,-0.00002753,0.00032866,-0.00047
 909,-0.00017281,-0.00000088,-0.00018288,0.00009848,-0.00003699,-0.0000
 8655,-0.00006918,-0.00007814,0.00007507,-0.00003288,0.00012567,0.00014
 119,0.00009162,0.00005556,0.00018697,-0.00015506,0.00007471,0.00006278
 ,0.00009502,-0.00008046,0.00001983,-0.00002859,-0.00001824,-0.00008489
 ,0.00005699,-0.00000310,0.00003564,-0.00001982,0.00000885,0.00005065,0
 .00001982,0.00001972,-0.00000544,0.00001668,0.00001344,-0.00000158,-0.
 00000908,0.00000670,0.00009730,0.00004418,0.00000805,0.00004008,0.0000
 2685,-0.00005875,-0.00011687,-0.00001415,-0.00001510,-0.00000672,-0.00
 000065,-0.00000087,-0.00001243,-0.00000271,0.00000473,-0.00000042,-0.0
 0000139,0.00000961,0.00000602,0.00001074,-0.00001112,0.00001828,-0.000
 01586,0.00001601,-0.00001984,-0.00000876,-0.00003251,0.00000353,-0.000
 01015,0.00001638,-0.00000848,0.00004460,0.00000094,-0.00000821,0.00000
 555,-0.00000359,0.00000130,0.00000383,-0.00000221,-0.00000085,-0.00000
 317,0.00000502,-0.00000288,-0.00000080,-0.00000263,-0.00000486,0.00000
 568,0.00000583,-0.00000493,-0.00000008,-0.00000201,0.00000549,-0.00000
 777,-0.00000700,-0.00000140,0.00000232,0.00001063,-0.00003042,-0.00000
 285,-0.00000242,0.00000013,-0.00000632,0.00000703,-0.00000562,0.000010
 95,-0.00000231,0.00000320,-0.00000244,0.00001717,-0.00005305,-0.000070
 88,-0.00001793,0.00006278,0.00001217,-0.00000655,-0.00000571,-0.000011
 54,0.00000242,0.00000130,0.00002528,-0.00000450,-0.00001381,-0.0000101
 4,0.00000437,0.00000181,-0.00000204,0.00000210,-0.00000324,0.00000863,
 -0.00000245,0.00000103,-0.00000137,-0.00002812,0.00001987,-0.00001577,
 0.00000204,-0.00000754,0.00000641,0.00000187,-0.00001418,0.00000006,0.
 00000311,-0.00000353,0.00000117,-0.00000156,0.00000470,0.00000041,-0.0
 0000440,-0.00000247,-0.00000245,0.00000217,0.00000425,-0.00000129,-0.0
 0000182,-0.00000120,0.00000274,-0.00000232,0.00000295,0.00000448,-0.00
 000382,-0.00000200,-0.00000092,-0.00000169,-0.00000003,-0.00000264,0.0
 0000119,0.00000133,0.00000036,-0.00000730,0.00000361,-0.00000146,0.000
 00074,-0.00000224,0.00000108,0.00000012,0.00000275,-0.00000357,-0.0000
 0029,-0.00000080,0.00000088,-0.00000535,0.00000256,-0.00000665,0.00000
 112,0.00000014,0.00000088,-0.00000011,-0.00000113,0.00000082,-0.000002
 42,0.00000384,0.00000131,-0.00000827,-0.00000349,-0.00001153,0.0000276
 4,-0.00004918,0.00001988,-0.00001359,0.00002018,-0.00002170,-0.0000033
 7,0.00002673,0.00000934,0.00000978,0.00000394,-0.00000002,-0.00000011,
 -0.00000934,-0.00001816,0.00001111,-0.00000293,-0.00000449,0.00000628,
 0.00000198,-0.00000205,-0.00000203,0.00000301,0.00000013,-0.00002340,0
 .00001552,-0.00000061,-0.00000255,-0.00000557,0.00000506,-0.00000260,0
 .00000128,0.00000014,-0.00000046,0.00000304,-0.00000011,0.00000313,0.,
 0.00000140,-0.00000349,-0.00001083,0.00002514,0.00000294,0.00000706,-0
 .00000801,0.00000036,0.00000277,-0.00000670,0.00005852,0.00006961,-0.0
 0003155,-0.00002585,-0.00002397,-0.00001679,-0.00002438,-0.00007562,0.
 00003281,0.00001323,-0.00007195,0.00005603,-0.00003755,0.00003829,-0.0
 0001380,0.00000902,0.00001102,-0.00002165,-0.00001206,0.00002024,-0.00
 001757,0.00001014,0.00001458,0.00000033,-0.00000162,-0.00000454,-0.000
 00083,-0.00000005,-0.00000412,0.00000317,0.00001808,0.00000633,0.00001
 849,0.04295087,0.00079543,0.00037806,-0.00114539,-0.00592539,-0.014403
 90,0.01312613,-0.01211778,-0.26905446,0.12630001,0.00118752,0.00139463
 ,-0.00066877,0.00121606,0.00228520,0.00133545,-0.00036926,-0.00013386,
 -0.00028457,-0.00003781,-0.00000391,0.00002027,0.00002638,-0.00001990,
 -0.00001934,-0.00004443,0.00003502,-0.00000392,0.00002397,-0.00010132,
 0.00004889,-0.00076062,0.00019036,-0.00085332,-0.00110549,0.00004540,-
 0.00075773,0.00018634,0.00004010,-0.00011105,0.00000569,0.00000121,0.0
 0000627,-0.00000522,-0.00000855,0.00000217,0.00001466,0.00002436,0.000
 01956,0.00495990,-0.00214606,0.00029337,0.00005053,-0.00001784,0.00003
 928,-0.00046056,0.00024813,0.00009839,0.00005152,0.00023733,-0.0002162
 2,0.00006596,0.00009269,0.00008881,0.00008362,-0.00013521,0.00001095,-
 0.00016849,-0.00023440,-0.00014136,-0.00018836,-0.00024585,0.00030575,
 -0.00005415,0.00017866,-0.00004731,0.00016960,-0.00010043,0.00004303,0
 .00007592,0.00009806,-0.00013188,-0.00000865,-0.00006280,0.00003248,-0
 .00000154,-0.00002002,0.00006813,-0.00003041,0.00001791,-0.00001726,-0
 .00003987,0.00003892,0.00002394,-0.00002777,-0.00009062,-0.00004305,-0
 .00001318,-0.00002383,-0.00002767,0.00008585,0.00013195,0.00001375,0.0
 0003271,-0.00002113,-0.00000090,-0.00000136,0.00001095,0.00000497,-0.0
 0000799,0.00000294,-0.00000644,-0.00001571,0.00000574,-0.00001405,0.00
 002613,-0.00002753,0.00000738,-0.00001050,0.00001921,0.00000134,0.0000
 1136,-0.00000207,0.00000174,-0.00001002,0.00002110,-0.00003043,0.00000
 311,0.00001098,-0.00000687,0.00000747,0.00000071,-0.00000702,0.0000003
 2,-0.00000462,0.00000154,-0.00000649,0.00000144,0.00000012,-0.00000020
 ,0.00001315,-0.00001007,-0.00000908,0.00000311,-0.00000045,-0.00000047
 ,-0.00000803,0.00000847,0.00000957,0.00000492,-0.00000330,-0.00000463,
 0.00002220,0.00000396,0.00000384,0.00000288,0.00000612,-0.00000439,0.0
 0000165,-0.00000748,0.00000013,-0.00000296,-0.00000050,-0.00000082,0.0
 0001882,0.00007129,0.00001560,-0.00002392,-0.00000236,0.00000125,0.000
 01026,-0.00000256,-0.00000153,-0.00000200,-0.00001569,0.00000175,0.000
 00616,0.00000762,-0.00000158,-0.00000234,-0.00000089,-0.00000289,0.000
 00191,-0.00000774,0.00000351,0.00000117,0.00000351,0.00001438,-0.00001
 072,0.00000898,-0.00000073,0.00000675,-0.00000278,-0.00000222,0.000009
 74,0.00000197,0.00000228,0.00000156,-0.00000191,0.00000637,-0.00000802
 ,-0.00000153,0.00000193,0.00000340,0.00000317,-0.00000415,-0.00000225,
 0.00000223,0.00000654,-0.00000243,-0.00000476,0.00000767,-0.00000928,-
 0.00000592,0.00000204,0.00000357,0.00000121,0.00000565,-0.00000406,0.0
 0000428,-0.00000214,0.00000043,-0.00000187,0.00001011,-0.00000344,0.00
 000423,-0.00000127,-0.00000030,-0.00000507,0.00000335,-0.00000534,0.00
 000501,-0.00000179,0.00000195,-0.00000042,0.00000436,-0.00000350,0.000
 00679,-0.00000015,0.00000140,-0.00000167,-0.00000214,-0.00000130,-0.00
 000095,0.00000473,-0.00000540,-0.00000074,-0.00000174,0.00000208,0.000
 00330,0.00001902,-0.00000537,0.00000235,-0.00001937,0.00000221,-0.0000
 0994,0.00003345,0.00003463,-0.00000783,-0.00001252,-0.00001905,-0.0000
 1348,-0.00000352,-0.00000609,0.00002950,0.00002484,0.00000217,0.000010
 29,-0.00000615,0.00000122,0.00000235,-0.00000545,-0.00000888,-0.000004
 03,-0.00002627,0.00000114,-0.00001135,0.00000295,0.00000586,0.00000545
 ,-0.00000102,0.00000413,0.00000134,-0.00000039,-0.00000207,-0.00000539
 ,0.00000198,0.00000281,0.00000187,0.00001689,-0.00001911,0.00001263,0.
 00000768,0.00001316,-0.00001581,-0.00001018,0.00000829,-0.00000492,0.0
 0006547,0.00007755,-0.00001520,-0.00004395,-0.00003455,-0.00003145,-0.
 00003043,-0.00010023,0.00004540,-0.00000346,-0.00004895,0.00004097,-0.
 00003568,0.00003494,0.00000184,0.00000918,0.00001058,-0.00003028,-0.00
 000821,0.00001504,-0.00001260,0.00000924,0.00001109,-0.00000092,-0.000
 00352,-0.00000502,-0.00000378,0.00000168,-0.00000111,0.00000181,0.0000
 0406,-0.00000173,0.00001400,0.01228154,0.28135276,0.00054835,-0.000742
 68,-0.00054478,-0.00172734,-0.00801078,0.00616711,0.01984922,0.1264159
 1,-0.11692891,-0.00066921,0.02010082,-0.00658391,0.00620524,0.00094197
 ,0.00065738,-0.00070793,-0.00032073,-0.00062457,-0.00005679,-0.0000675
 4,0.00003607,0.00006055,-0.00000287,-0.00005664,-0.00009059,0.00006315
 ,0.00001195,0.00008249,-0.00008892,0.00004730,-0.00150854,-0.00043017,
 -0.00138429,-0.00218937,-0.00115858,-0.00096624,0.00001688,0.00101738,
 -0.00027969,0.00000369,0.00000626,0.00000110,-0.00000194,-0.00000195,-
 0.00000594,-0.00004374,-0.00000152,0.00005463,0.00450989,-0.00043356,0
 .00407490,0.00001152,0.00018063,0.00002234,-0.00029792,-0.00025676,-0.
 00017902,-0.00004137,0.00003771,-0.00001242,-0.00003104,-0.00012756,-0
 .00009376,-0.00007746,0.00005171,-0.00003360,0.00009301,0.00012924,0.0
 0013772,0.00000072,-0.00002003,0.00004084,0.00020803,0.00008427,0.0001
 1858,-0.00002890,-0.00002284,-0.00002185,-0.00003783,0.00000892,0.0000
 0231,0.00001914,0.00000257,0.00000164,0.00001616,0.00002605,0.00000076
 ,0.00002890,-0.00000866,0.00001838,0.00000461,0.00000284,0.00000804,-0
 .00000814,0.00013804,0.00005703,0.00001106,0.00003759,0.00005543,-0.00
 005376,-0.00009580,-0.00006832,0.00001438,-0.00001624,0.00000495,-0.00
 000341,0.00000210,-0.00000161,-0.00000461,0.00000204,0.00000107,-0.000
 00827,0.00000262,-0.00000724,0.00002552,-0.00001582,0.00001664,-0.0000
 0806,0.00000333,-0.00000173,-0.00001000,0.00000149,-0.00000493,-0.0000
 0133,0.00001137,-0.00000721,-0.00000587,0.00000115,-0.00000398,0.00000
 129,-0.00000070,0.00000115,0.00000049,-0.00000383,-0.00000242,-0.00000
 330,0.00000294,-0.00000010,-0.00000877,0.00000502,-0.00000002,-0.00000
 307,0.00000219,-0.00000225,0.00000170,-0.00000065,0.00000396,-0.000000
 67,-0.00000169,0.00000038,0.00002058,-0.00003968,-0.00000750,-0.000007
 23,-0.00000086,-0.00000580,0.00000923,-0.00000808,0.00001469,-0.000000
 59,0.00000790,-0.00000336,0.00006219,-0.00008093,-0.00008146,-0.000044
 99,0.00009058,0.00003675,-0.00002649,-0.00000957,-0.00001382,-0.000006
 56,0.00001756,0.00000767,-0.00000257,-0.00001127,-0.00001409,0.0000087
 2,-0.00000006,-0.00000211,0.00000161,-0.00000181,0.00000751,-0.0000041
 9,0.00000050,-0.00000349,-0.00002066,0.00001071,-0.00001684,-0.0000037
 2,-0.00000484,-0.00000260,-0.00000444,-0.00000625,0.00001450,0.0000119
 0,-0.00000561,0.00000234,0.00000065,0.00000259,-0.00000009,-0.00000179
 ,-0.00000197,0.00000131,0.00000092,-0.00000188,-0.00000170,-0.00000099
 ,0.00000075,0.00000016,0.00000099,-0.00000211,-0.00000016,-0.00000378,
 -0.00000186,0.00000021,0.00000011,-0.00000026,-0.00000045,0.00000138,0
 .00000205,-0.00000081,-0.00000452,0.00000329,-0.00000241,0.00000290,0.
 00000076,0.00000126,-0.00000194,0.00000286,-0.00000234,-0.00000037,-0.
 00000322,-0.00000033,-0.00000649,0.00000223,-0.00000317,0.00000115,-0.
 00000026,0.00000007,0.00000048,-0.00000180,0.,-0.00000247,0.00000320,0
 .00000049,-0.00000004,-0.00000096,-0.00000383,0.00001110,-0.00001400,-
 0.00000397,-0.00000222,0.00001306,0.00000203,0.00000828,0.00001449,0.0
 0001287,-0.00000184,-0.00000159,-0.00000028,0.00000483,0.00000252,-0.0
 0000547,-0.00000030,-0.00000868,0.00000044,0.00000224,0.00000168,0.000
 00221,0.00000067,0.00000075,0.00000190,-0.00000710,0.00001233,0.000002
 03,0.00000247,-0.00000718,0.00000124,0.,0.00000036,-0.00000016,-0.0000
 0049,0.00000207,0.00000288,0.00000082,-0.00000177,-0.00000109,-0.00000
 363,-0.00001171,-0.00001571,-0.00000016,-0.00000224,0.00000053,-0.0000
 0143,0.00000294,0.00000345,0.00004186,0.00004647,0.00000641,-0.0000170
 1,-0.00001251,-0.00000498,-0.00000482,-0.00003574,0.00000976,-0.000014
 36,0.00000277,-0.00003406,-0.00000546,-0.00000340,0.00001536,-0.000008
 73,0.00000227,0.00000721,-0.00000398,-0.00000213,0.00001156,-0.0000007
 7,0.00000029,-0.00000164,0.00000257,0.00000147,0.00000216,0.00000434,-
 0.00000082,-0.00000245,0.00000802,0.00001259,0.00002302,-0.02407746,-0
 .13742543,0.11631794\\-0.00008201,0.00009895,0.00001283,0.00003186,0.0
 0000107,0.00004024,0.00000997,0.00001300,0.00004386,0.00001181,-0.0000
 1370,-0.00002709,0.00003613,0.00001528,0.00001649,0.00001007,-0.000075
 68,0.00002106,-0.00005038,-0.00009397,-0.00004202,0.00001499,0.0000205
 7,0.00001714,0.00002205,0.00000944,0.00001069,-0.00002784,0.00000114,-
 0.00003832,-0.00001273,-0.00002961,-0.00001081,0.00000170,0.00000400,0
 .00001270,-0.00000589,-0.00001717,0.00000664,0.00008487,0.00002343,0.0
 0005546,-0.00000643,-0.00000459,-0.00000489,0.00000025,0.00000472,-0.0
 0000035,-0.00003658,-0.00025484,-0.00007847,-0.00000455,0.00014941,-0.
 00002022,-0.00015547,0.00009316,0.00009866,-0.00005696,0.00005789,0.00
 008338,-0.00000540,-0.00002861,-0.00004931,0.00007525,0.00006810,0.000
 02323,-0.00002829,-0.00001367,0.00008105,0.00000271,-0.00000822,0.0000
 4667,-0.00016553,-0.00024144,-0.00013073,0.00000164,0.00008420,0.00002
 617,-0.00000085,-0.00014471,-0.00000993,0.00001277,0.00006979,-0.00010
 421,0.00009195,0.00001530,-0.00003607,0.00000294,0.00005591,-0.0000088
 1,0.00003422,-0.00002896,-0.00002697,0.00011139,0.00008095,-0.00000834
 ,-0.00002600,-0.00006921,-0.00001173,0.00005943,0.00003724,-0.00002325
 ,0.00002316,-0.00007606,-0.00002854,-0.00003439,-0.00001717,0.00006326
 ,-0.00001623,0.00003666,0.00000564,-0.00000763,0.00002051,-0.00000966,
 -0.00000050,-0.00002533,0.00000730,-0.00000720,0.00000110,0.00001334,-
 0.00000157,0.00000115,0.00001135,0.00000306,0.00001314,0.00000083,-0.0
 0000825,0.00004135,0.00002527,-0.00000171,-0.00000227,-0.00000974,-0.0
 0001067,0.00000425,0.00000477,0.00000941,0.00000091,-0.00000467,-0.000
 05463,0.00004500,-0.00001679,-0.00000581,-0.00000601,-0.00000868,0.000
 02078,0.00001442,-0.00003277,0.00001343,0.00000862,-0.00001560,-0.0000
 0771,-0.00000400,0.00000716,0.00000705,-0.00001862,0.00000407,0.000004
 38,-0.00002221,-0.00000616,0.00001364,-0.00000357,0.00000407,-0.000081
 54,-0.00000861,0.00001928,0.00001123,0.00000113,0.00000262,0.00002410,
 -0.00000628,-0.00000394,-0.00001604,-0.00001476,-0.00001802,-0.0000097
 8,-0.00000196,0.00002810,-0.00000512,0.00000473,0.00000898,-0.00000140
 ,0.00000967,-0.00000665,0.00000293,0.00000296,0.00000161,0.00002471,0.
 00001320,0.00001835,-0.00000441,-0.00000300,0.00000059,-0.00000481,-0.
 00000045,-0.00000033,0.00000035,0.00000768,0.00002025,-0.00001813,-0.0
 0002253,-0.00001671,-0.00000154,-0.00001594,0.00000948,-0.00000195,-0.
 00000500,-0.00000399,0.00001831,-0.00000232,-0.00001327,-0.00001399,0.
 00000893,-0.00001085,0.00002344,-0.00001967,-0.00001164,0.00000515,-0.
 00000152,-0.00000668,0.00001562,0.00000001,-0.00001931,-0.00003232,-0.
 00001446,0.00001211,-0.00000982,-0.00001204,-0.00001268,-0.00001267,-0
 .00000787,-0.00002592,-0.00000302,0.00000872,-0.00001647,0.00000766,-0
 .00001535,-0.00000986,0.00000233,0.00000950,-0.00001756,-0.00000614,0.
 00001141,-0.00000844,-0.00000256,0.00000207,-0.00001212,0.00008867,0.0
 0002516,-0.00011207,-0.00008570,0.00017715,0.00001199,-0.00004570,-0.0
 0002812,-0.00001629,0.00006982,-0.00020891,0.00015592,-0.00000930,0.00
 003653,-0.00002200,0.00009792,0.00014381,-0.00006970,0.00014459,0.0001
 0375,0.00016080,-0.00012007,0.00009326,-0.00004944,0.00000367,0.000009
 64,0.00001826,-0.00001904,-0.00011687,-0.00010899,-0.00003281,-0.00004
 765,-0.00002979,-0.00001220,-0.00000528,0.00002970,-0.00001256,0.00001
 564,0.00000183,0.00000997,-0.00000642,-0.00000480,0.00002780,-0.000108
 94,0.00004702,-0.00001262,-0.00004197,-0.00008759,0.00001732,0.0000108
 8,-0.00000132,-0.00000717,0.00015561,-0.00001873,0.00000493,-0.0000268
 2,0.00001499,0.00006338,-0.00003730,0.00010025,0.00003277,0.00000493,0
 .00003484,0.00000806,-0.00000260,0.00002563,-0.00002513,0.00000489,0.0
 0000121,-0.00000187,0.00001295,-0.00000650,0.00000368,0.00001134,0.000
 00916,0.00000291,0.00001032,0.00002201,0.00000691,-0.00000055,0.000009
 90,-0.00000126,-0.00001014,-0.00000506,0.00000271,0.00000643,0.0000026
 0\\\@
 The archive entry for this job was punched.


 Ideas are like rabbits. You get a couple and learn
 how to handle them, and pretty soon you have a dozen.
                                    -- John Steinbeck
 Job cpu time:       1 days 22 hours  2 minutes 21.8 seconds.
 Elapsed time:       0 days  2 hours 56 minutes 20.2 seconds.
 File lengths (MBytes):  RWF=   8594 Int=      0 D2E=      0 Chk=     49 Scr=      1
 Normal termination of Gaussian 16 at Sun Dec  8 00:37:14 2024.
