/mnt/lustre/scratch/nvme/SLURM/9663621/usccqdma.Fk98WDfiwU
OMP_STACKSIZE=0m
GAUSS_PDEF=16
GAUSS_MDEF=65536MB
GAUSS_RDEF=SCF=Direct
 Entering Gaussian System, Link 0=g16.exe
 Initial command:
 /opt/cesga/2020/software/Core/g16/c1/l1.exe "/mnt/lustre/scratch/nvme/SLURM/9663621/usccqdma.Fk98WDfiwU/Gau-228712.inp" -scrdir="/mnt/lustre/scratch/nvme/SLURM/9663621/usccqdma.Fk98WDfiwU/"
 Default is to use a total of  16 processors:
                               16 via shared-memory
                                1 via Linda
 Entering Link 1 = /opt/cesga/2020/software/Core/g16/c1/l1.exe PID=    228738.
  
 Copyright (c) 1988-2019, Gaussian, Inc.  All Rights Reserved.
  
 This is part of the Gaussian(R) 16 program.  It is based on
 the Gaussian(R) 09 system (copyright 2009, Gaussian, Inc.),
 the Gaussian(R) 03 system (copyright 2003, Gaussian, Inc.),
 the Gaussian(R) 98 system (copyright 1998, Gaussian, Inc.),
 the Gaussian(R) 94 system (copyright 1995, Gaussian, Inc.),
 the Gaussian 92(TM) system (copyright 1992, Gaussian, Inc.),
 the Gaussian 90(TM) system (copyright 1990, Gaussian, Inc.),
 the Gaussian 88(TM) system (copyright 1988, Gaussian, Inc.),
 the Gaussian 86(TM) system (copyright 1986, Carnegie Mellon
 University), and the Gaussian 82(TM) system (copyright 1983,
 Carnegie Mellon University). Gaussian is a federally registered
 trademark of Gaussian, Inc.
  
 This software contains proprietary and confidential information,
 including trade secrets, belonging to Gaussian, Inc.
  
 This software is provided under written license and may be
 used, copied, transmitted, or stored only in accord with that
 written license.
  
 The following legend is applicable only to US Government
 contracts under FAR:
  
                    RESTRICTED RIGHTS LEGEND
  
 Use, reproduction and disclosure by the US Government is
 subject to restrictions as set forth in subparagraphs (a)
 and (c) of the Commercial Computer Software - Restricted
 Rights clause in FAR 52.227-19.
  
 Gaussian, Inc.
 340 Quinnipiac St., Bldg. 40, Wallingford CT 06492
  
  
 ---------------------------------------------------------------
 Warning -- This program may not be used in any manner that
 competes with the business of Gaussian, Inc. or will provide
 assistance to any competitor of Gaussian, Inc.  The licensee
 of this program is prohibited from giving any competitor of
 Gaussian, Inc. access to this program.  By using this program,
 the user acknowledges that Gaussian, Inc. is engaged in the
 business of creating and licensing software in the field of
 computational chemistry and represents and warrants to the
 licensee that it is not a competitor of Gaussian, Inc. and that
 it will not use this program in any manner prohibited above.
 ---------------------------------------------------------------
  

 Cite this work as:
 Gaussian 16, Revision C.01,
 M. J. Frisch, G. W. Trucks, H. B. Schlegel, G. E. Scuseria, 
 M. A. Robb, J. R. Cheeseman, G. Scalmani, V. Barone, 
 G. A. Petersson, H. Nakatsuji, X. Li, M. Caricato, A. V. Marenich, 
 J. Bloino, B. G. Janesko, R. Gomperts, B. Mennucci, H. P. Hratchian, 
 J. V. Ortiz, A. F. Izmaylov, J. L. Sonnenberg, D. Williams-Young, 
 F. Ding, F. Lipparini, F. Egidi, J. Goings, B. Peng, A. Petrone, 
 T. Henderson, D. Ranasinghe, V. G. Zakrzewski, J. Gao, N. Rega, 
 G. Zheng, W. Liang, M. Hada, M. Ehara, K. Toyota, R. Fukuda, 
 J. Hasegawa, M. Ishida, T. Nakajima, Y. Honda, O. Kitao, H. Nakai, 
 T. Vreven, K. Throssell, J. A. Montgomery, Jr., J. E. Peralta, 
 F. Ogliaro, M. J. Bearpark, J. J. Heyd, E. N. Brothers, K. N. Kudin, 
 V. N. Staroverov, T. A. Keith, R. Kobayashi, J. Normand, 
 K. Raghavachari, A. P. Rendell, J. C. Burant, S. S. Iyengar, 
 J. Tomasi, M. Cossi, J. M. Millam, M. Klene, C. Adamo, R. Cammi, 
 J. W. Ochterski, R. L. Martin, K. Morokuma, O. Farkas, 
 J. B. Foresman, and D. J. Fox, Gaussian, Inc., Wallingford CT, 2019.
 
 ******************************************
 Gaussian 16:  ES64L-G16RevC.01  3-Jul-2019
                 7-Dec-2024 
 ******************************************
 Default route: SCF=Direct
 ----------------------------------------------------
 # m06/genecp scf=tight int=ultrafine 5d freq=noraman
 ----------------------------------------------------
 1/10=4,30=1,38=1/1,3;
 2/12=2,17=6,18=5,40=1/2;
 3/5=7,8=1,11=2,16=1,17=8,25=1,30=1,71=2,74=-54,75=-5,140=1/1,2,3;
 4//1;
 5/5=2,32=2,38=5,98=1/2;
 8/6=4,10=90,11=11/1;
 11/6=1,8=1,9=11,15=111,16=1/1,2,10;
 10/6=1/2;
 6/7=2,8=2,9=2,10=2,28=1/1;
 7/8=1,10=1,25=1/1,2,3,16;
 1/10=4,30=1/3;
 99//99;
 ------
 OPT-TS
 ------
 Symbolic Z-matrix:
 Charge =  0 Multiplicity = 1
 C                    -1.72715  -1.41968  -1.68873 
 C                    -3.09841  -0.26502  -0.22249 
 C                    -4.24022  -0.66155  -0.9018 
 C                    -4.10205  -1.46103  -2.03183 
 C                    -2.8337   -1.84836  -2.42179 
 C                    -0.35074  -1.83757  -1.9926 
 C                     1.87427  -1.73575  -1.34359 
 C                     2.25725  -2.57795  -2.37178 
 C                     1.28946  -3.06138  -3.24973 
 C                    -0.02742  -2.69314  -3.0507 
 H                    -3.15183   0.35952   0.66959 
 H                    -4.98005  -1.79167  -2.58241 
 H                    -2.71107  -2.4994   -3.28216 
 H                     2.59271  -1.33822  -0.62827 
 H                     1.567    -3.72625  -4.06528 
 H                    -0.80025  -3.07552  -3.71104 
 N                    -1.87414  -0.61463  -0.61735 
 N                     0.60204  -1.36339  -1.16664 
 Ir                   -0.03035  -0.0746    0.5083 
 O                     1.91126   2.49563   0.23782 
 O                     1.58665  -0.04853   3.11509 
 O                    -1.18948   2.74206   1.05433 
 B                     1.61239  -0.09628   1.73618 
 B                     1.32602   1.35114  -0.28811 
 B                    -0.69139   1.90948   0.07164 
 O                    -1.01708   2.39134  -1.18927 
 O                     1.90109   1.03224  -1.50643 
 C                     2.76685   2.09431  -1.91698 
 C                     3.05027   2.84659  -0.57777 
 C                    -1.62216   3.96451   0.43666 
 C                    -1.90047   3.51994  -1.03158 
 C                     2.92533  -0.21515   3.60609 
 C                     3.63307  -0.93308   2.42103 
 O                     2.8952   -0.43256   1.29113 
 C                     4.29126   2.33986   0.13989 
 H                     5.20853   2.60118  -0.40436 
 H                     4.34103   2.80587   1.13369 
 H                     4.24764   1.25329   0.27532 
 C                     3.126     4.3557   -0.70248 
 H                     3.24788   4.80116   0.29327 
 H                     3.99144   4.6467   -1.31531 
 H                     2.22583   4.78406  -1.15758 
 C                     3.98415   1.47564  -2.57915 
 H                     4.46816   0.73717  -1.92786 
 H                     3.6745    0.95569  -3.49516 
 H                     4.72244   2.24159  -2.85663 
 C                     1.98955   2.92371  -2.92946 
 H                     2.58674   3.75354  -3.33078 
 H                     1.69635   2.27377  -3.76336 
 H                     1.06706   3.31806  -2.48424 
 C                     3.47164   1.17911   3.87562 
 H                     3.49226   1.77423   2.95281 
 H                     2.80218   1.68614   4.58121 
 H                     4.47968   1.15257   4.31098 
 C                     2.87638  -1.01876   4.88981 
 H                     2.36461  -0.44023   5.6692 
 H                     2.32872  -1.95876   4.7544 
 H                     3.88991  -1.24959   5.2482 
 C                     5.10341  -0.60708   2.25365 
 H                     5.28381   0.46833   2.15363 
 H                     5.67995  -0.97653   3.11377 
 H                     5.48753  -1.10235   1.35117 
 C                     3.44839  -2.44611   2.41666 
 H                     3.79668  -2.83684   1.45054 
 H                     4.02461  -2.93573   3.21286 
 H                     2.39172  -2.72448   2.5275 
 C                    -3.31876   3.01374  -1.24935 
 H                    -3.36721   2.48571  -2.21119 
 H                    -3.62385   2.31103  -0.46453 
 H                    -4.04797   3.83457  -1.26737 
 C                    -1.56935   4.55631  -2.08686 
 H                    -1.75158   4.13851  -3.08561 
 H                    -2.20302   5.44703  -1.96908 
 H                    -0.52072   4.87174  -2.03853 
 C                    -0.47312   4.95341   0.56367 
 H                     0.42523   4.57501   0.0624 
 H                    -0.73265   5.94001   0.15672 
 H                    -0.22758   5.06833   1.62651 
 C                    -2.83319   4.49037   1.18173 
 H                    -3.63219   3.74361   1.24713 
 H                    -2.54406   4.76233   2.20446 
 H                    -3.23294   5.3897    0.69139 
 H                    -0.55955   0.59917   1.85448 
 C                    -2.72026  -2.80012   1.45597 
 O                    -2.50814  -3.39795   0.40071 
 C                    -4.09933  -2.82489   2.10209 
 H                    -4.02359  -3.2827    3.10107 
 H                    -4.44146  -1.79304   2.2819 
 C                    -0.41502  -1.98811   1.54163 
 H                     0.28171  -2.14129   2.37642 
 H                    -0.29985  -2.82003   0.83798 
 N                    -1.75674  -2.08769   2.10421 
 C                    -2.01732  -1.31852   3.30361 
 H                    -2.5115   -0.35633   3.0899 
 H                    -2.63481  -1.87763   4.01612 
 H                    -1.05998  -1.08781   3.78306 
 C                    -5.10977  -3.5787    1.25985 
 H                    -5.2397   -3.10729   0.27788 
 H                    -4.77693  -4.60597   1.07661 
 C                    -5.58668  -0.17476  -0.46668 
 F                    -5.92482   0.94999  -1.11051 
 F                    -6.54025  -1.07469  -0.72441 
 F                    -5.61525   0.09463   0.84252 
 C                     3.70304  -2.90121  -2.57768 
 F                     3.87013  -4.17933  -2.93501 
 F                     4.22654  -2.15098  -3.55578 
 F                     4.42721  -2.68323  -1.47617 
 H                    -6.08717  -3.60675   1.75655 
 

 GradGradGradGradGradGradGradGradGradGradGradGradGradGradGradGradGradGrad
 Berny optimization.
 Initialization pass.
 Trust Radius=3.00D-01 FncErr=1.00D-07 GrdErr=1.00D-07 EigMax=2.50D+02 EigMin=1.00D-04
 Number of steps in this run=      2 maximum allowed number of steps=      2.
 GradGradGradGradGradGradGradGradGradGradGradGradGradGradGradGradGradGrad

 Stoichiometry    C35H53B3F6IrN3O7
 Framework group  C1[X(C35H53B3F6IrN3O7)]
 Deg. of freedom   318
 Full point group                 C1      NOp   1
 Largest Abelian subgroup         C1      NOp   1
 Largest concise Abelian subgroup C1      NOp   1
                         Standard orientation:                         
 ---------------------------------------------------------------------
 Center     Atomic      Atomic             Coordinates (Angstroms)
 Number     Number       Type             X           Y           Z
 ---------------------------------------------------------------------
      1          6           0       -1.727150   -1.419679   -1.688729
      2          6           0       -3.098410   -0.265019   -0.222489
      3          6           0       -4.240220   -0.661549   -0.901799
      4          6           0       -4.102050   -1.461029   -2.031829
      5          6           0       -2.833700   -1.848359   -2.421789
      6          6           0       -0.350740   -1.837570   -1.992599
      7          6           0        1.874270   -1.735750   -1.343589
      8          6           0        2.257250   -2.577950   -2.371779
      9          6           0        1.289460   -3.061380   -3.249729
     10          6           0       -0.027420   -2.693140   -3.050699
     11          1           0       -3.151830    0.359521    0.669591
     12          1           0       -4.980050   -1.791669   -2.582409
     13          1           0       -2.711070   -2.499399   -3.282159
     14          1           0        2.592710   -1.338220   -0.628269
     15          1           0        1.567000   -3.726250   -4.065279
     16          1           0       -0.800250   -3.075519   -3.711039
     17          7           0       -1.874140   -0.614629   -0.617349
     18          7           0        0.602040   -1.363390   -1.166639
     19         77           0       -0.030350   -0.074600    0.508301
     20          8           0        1.911260    2.495630    0.237821
     21          8           0        1.586650   -0.048530    3.115091
     22          8           0       -1.189480    2.742061    1.054331
     23          5           0        1.612390   -0.096280    1.736181
     24          5           0        1.326020    1.351140   -0.288109
     25          5           0       -0.691390    1.909480    0.071641
     26          8           0       -1.017080    2.391341   -1.189269
     27          8           0        1.901090    1.032240   -1.506429
     28          6           0        2.766850    2.094310   -1.916979
     29          6           0        3.050270    2.846590   -0.577769
     30          6           0       -1.622160    3.964511    0.436661
     31          6           0       -1.900470    3.519941   -1.031579
     32          6           0        2.925330   -0.215150    3.606091
     33          6           0        3.633070   -0.933080    2.421031
     34          8           0        2.895200   -0.432560    1.291131
     35          6           0        4.291260    2.339860    0.139891
     36          1           0        5.208530    2.601180   -0.404359
     37          1           0        4.341030    2.805870    1.133691
     38          1           0        4.247640    1.253290    0.275321
     39          6           0        3.126000    4.355700   -0.702479
     40          1           0        3.247880    4.801160    0.293271
     41          1           0        3.991440    4.646700   -1.315309
     42          1           0        2.225830    4.784060   -1.157579
     43          6           0        3.984150    1.475640   -2.579149
     44          1           0        4.468160    0.737170   -1.927859
     45          1           0        3.674500    0.955690   -3.495159
     46          1           0        4.722440    2.241590   -2.856629
     47          6           0        1.989550    2.923710   -2.929459
     48          1           0        2.586740    3.753540   -3.330779
     49          1           0        1.696350    2.273770   -3.763359
     50          1           0        1.067060    3.318060   -2.484239
     51          6           0        3.471640    1.179110    3.875621
     52          1           0        3.492260    1.774230    2.952811
     53          1           0        2.802180    1.686140    4.581211
     54          1           0        4.479680    1.152570    4.310981
     55          6           0        2.876380   -1.018760    4.889811
     56          1           0        2.364610   -0.440230    5.669201
     57          1           0        2.328720   -1.958760    4.754401
     58          1           0        3.889910   -1.249590    5.248201
     59          6           0        5.103410   -0.607080    2.253651
     60          1           0        5.283810    0.468330    2.153631
     61          1           0        5.679950   -0.976530    3.113771
     62          1           0        5.487530   -1.102350    1.351171
     63          6           0        3.448390   -2.446110    2.416661
     64          1           0        3.796680   -2.836840    1.450541
     65          1           0        4.024610   -2.935730    3.212861
     66          1           0        2.391720   -2.724480    2.527501
     67          6           0       -3.318760    3.013741   -1.249349
     68          1           0       -3.367210    2.485711   -2.211189
     69          1           0       -3.623850    2.311031   -0.464529
     70          1           0       -4.047970    3.834571   -1.267369
     71          6           0       -1.569350    4.556311   -2.086859
     72          1           0       -1.751580    4.138511   -3.085609
     73          1           0       -2.203020    5.447031   -1.969079
     74          1           0       -0.520720    4.871740   -2.038529
     75          6           0       -0.473120    4.953410    0.563671
     76          1           0        0.425230    4.575010    0.062401
     77          1           0       -0.732650    5.940011    0.156721
     78          1           0       -0.227580    5.068330    1.626511
     79          6           0       -2.833190    4.490371    1.181731
     80          1           0       -3.632190    3.743611    1.247131
     81          1           0       -2.544060    4.762331    2.204461
     82          1           0       -3.232940    5.389701    0.691391
     83          1           0       -0.559550    0.599170    1.854481
     84          6           0       -2.720260   -2.800119    1.455971
     85          8           0       -2.508140   -3.397949    0.400711
     86          6           0       -4.099330   -2.824889    2.102091
     87          1           0       -4.023590   -3.282699    3.101071
     88          1           0       -4.441460   -1.793039    2.281901
     89          6           0       -0.415020   -1.988110    1.541631
     90          1           0        0.281710   -2.141290    2.376421
     91          1           0       -0.299850   -2.820030    0.837981
     92          7           0       -1.756740   -2.087689    2.104211
     93          6           0       -2.017320   -1.318519    3.303611
     94          1           0       -2.511500   -0.356329    3.089901
     95          1           0       -2.634810   -1.877629    4.016121
     96          1           0       -1.059980   -1.087809    3.783061
     97          6           0       -5.109770   -3.578699    1.259851
     98          1           0       -5.239700   -3.107289    0.277881
     99          1           0       -4.776930   -4.605969    1.076611
    100          6           0       -5.586680   -0.174759   -0.466679
    101          9           0       -5.924820    0.949991   -1.110509
    102          9           0       -6.540250   -1.074689   -0.724409
    103          9           0       -5.615250    0.094631    0.842521
    104          6           0        3.703040   -2.901210   -2.577679
    105          9           0        3.870130   -4.179330   -2.935009
    106          9           0        4.226540   -2.150980   -3.555779
    107          9           0        4.427210   -2.683230   -1.476169
    108          1           0       -6.087170   -3.606749    1.756551
 ---------------------------------------------------------------------
 Rotational constants (GHZ):           0.0630554           0.0432328           0.0388070
 General basis read from cards:  (5D, 7F)
 ======================================================================================================
                                       Pseudopotential Parameters
 ======================================================================================================
  Center     Atomic      Valence      Angular      Power
  Number     Number     Electrons     Momentum     of R      Exponent        Coefficient   SO-Coeffient
 ======================================================================================================
    1          6
                                   No pseudopotential on this center.
    2          6
                                   No pseudopotential on this center.
    3          6
                                   No pseudopotential on this center.
    4          6
                                   No pseudopotential on this center.
    5          6
                                   No pseudopotential on this center.
    6          6
                                   No pseudopotential on this center.
    7          6
                                   No pseudopotential on this center.
    8          6
                                   No pseudopotential on this center.
    9          6
                                   No pseudopotential on this center.
   10          6
                                   No pseudopotential on this center.
   11          1
                                   No pseudopotential on this center.
   12          1
                                   No pseudopotential on this center.
   13          1
                                   No pseudopotential on this center.
   14          1
                                   No pseudopotential on this center.
   15          1
                                   No pseudopotential on this center.
   16          1
                                   No pseudopotential on this center.
   17          7
                                   No pseudopotential on this center.
   18          7
                                   No pseudopotential on this center.
   19         77           17
                                      G and up 
                                                     1      823.5880147       -0.15780140    0.00000000
                                                     2      364.6613336    -1517.52704460    0.00000000
                                                     2       55.7082801     -316.53065290    0.00000000
                                                     2       12.0464544      -91.88809410    0.00000000
                                                     2        3.5120610       -9.22417730    0.00000000
                                      S - G
                                                     0      188.0490770        3.15780140    0.00000000
                                                     1      340.4194712       26.83225770    0.00000000
                                                     2      128.2373673      800.42500070    0.00000000
                                                     2       33.8644961      369.40506830    0.00000000
                                                     2        4.7560005      242.41718990    0.00000000
                                                     2        3.9649974     -118.21732820    0.00000000
                                      P - G
                                                     0      289.7291139        2.15780140    0.00000000
                                                     1       87.4633789       61.96786100    0.00000000
                                                     2       30.4363766      269.05819860    0.00000000
                                                     2        4.0553412      231.16547930    0.00000000
                                                     2        3.5525341     -133.69526670    0.00000000
                                      D - G
                                                     0      136.4017106        3.15780140    0.00000000
                                                     1       95.0776925       45.93498030    0.00000000
                                                     2       49.2258410      359.03446680    0.00000000
                                                     2       15.0874145      176.47401190    0.00000000
                                                     2        4.0405764       54.51552860    0.00000000
                                      F - G
                                                     0      127.3507908        3.95461970    0.00000000
                                                     1       66.2364374       52.97736550    0.00000000
                                                     2       34.4299229      274.86433830    0.00000000
                                                     2       10.1995721      137.20473380    0.00000000
                                                     2        2.5409702       14.86333050    0.00000000
   20          8
                                   No pseudopotential on this center.
   21          8
                                   No pseudopotential on this center.
   22          8
                                   No pseudopotential on this center.
   23          5
                                   No pseudopotential on this center.
   24          5
                                   No pseudopotential on this center.
   25          5
                                   No pseudopotential on this center.
   26          8
                                   No pseudopotential on this center.
   27          8
                                   No pseudopotential on this center.
   28          6
                                   No pseudopotential on this center.
   29          6
                                   No pseudopotential on this center.
   30          6
                                   No pseudopotential on this center.
   31          6
                                   No pseudopotential on this center.
   32          6
                                   No pseudopotential on this center.
   33          6
                                   No pseudopotential on this center.
   34          8
                                   No pseudopotential on this center.
   35          6
                                   No pseudopotential on this center.
   36          1
                                   No pseudopotential on this center.
   37          1
                                   No pseudopotential on this center.
   38          1
                                   No pseudopotential on this center.
   39          6
                                   No pseudopotential on this center.
   40          1
                                   No pseudopotential on this center.
   41          1
                                   No pseudopotential on this center.
   42          1
                                   No pseudopotential on this center.
   43          6
                                   No pseudopotential on this center.
   44          1
                                   No pseudopotential on this center.
   45          1
                                   No pseudopotential on this center.
   46          1
                                   No pseudopotential on this center.
   47          6
                                   No pseudopotential on this center.
   48          1
                                   No pseudopotential on this center.
   49          1
                                   No pseudopotential on this center.
   50          1
                                   No pseudopotential on this center.
   51          6
                                   No pseudopotential on this center.
   52          1
                                   No pseudopotential on this center.
   53          1
                                   No pseudopotential on this center.
   54          1
                                   No pseudopotential on this center.
   55          6
                                   No pseudopotential on this center.
   56          1
                                   No pseudopotential on this center.
   57          1
                                   No pseudopotential on this center.
   58          1
                                   No pseudopotential on this center.
   59          6
                                   No pseudopotential on this center.
   60          1
                                   No pseudopotential on this center.
   61          1
                                   No pseudopotential on this center.
   62          1
                                   No pseudopotential on this center.
   63          6
                                   No pseudopotential on this center.
   64          1
                                   No pseudopotential on this center.
   65          1
                                   No pseudopotential on this center.
   66          1
                                   No pseudopotential on this center.
   67          6
                                   No pseudopotential on this center.
   68          1
                                   No pseudopotential on this center.
   69          1
                                   No pseudopotential on this center.
   70          1
                                   No pseudopotential on this center.
   71          6
                                   No pseudopotential on this center.
   72          1
                                   No pseudopotential on this center.
   73          1
                                   No pseudopotential on this center.
   74          1
                                   No pseudopotential on this center.
   75          6
                                   No pseudopotential on this center.
   76          1
                                   No pseudopotential on this center.
   77          1
                                   No pseudopotential on this center.
   78          1
                                   No pseudopotential on this center.
   79          6
                                   No pseudopotential on this center.
   80          1
                                   No pseudopotential on this center.
   81          1
                                   No pseudopotential on this center.
   82          1
                                   No pseudopotential on this center.
   83          1
                                   No pseudopotential on this center.
   84          6
                                   No pseudopotential on this center.
   85          8
                                   No pseudopotential on this center.
   86          6
                                   No pseudopotential on this center.
   87          1
                                   No pseudopotential on this center.
   88          1
                                   No pseudopotential on this center.
   89          6
                                   No pseudopotential on this center.
   90          1
                                   No pseudopotential on this center.
   91          1
                                   No pseudopotential on this center.
   92          7
                                   No pseudopotential on this center.
   93          6
                                   No pseudopotential on this center.
   94          1
                                   No pseudopotential on this center.
   95          1
                                   No pseudopotential on this center.
   96          1
                                   No pseudopotential on this center.
   97          6
                                   No pseudopotential on this center.
   98          1
                                   No pseudopotential on this center.
   99          1
                                   No pseudopotential on this center.
  100          6
                                   No pseudopotential on this center.
  101          9
                                   No pseudopotential on this center.
  102          9
                                   No pseudopotential on this center.
  103          9
                                   No pseudopotential on this center.
  104          6
                                   No pseudopotential on this center.
  105          9
                                   No pseudopotential on this center.
  106          9
                                   No pseudopotential on this center.
  107          9
                                   No pseudopotential on this center.
  108          1
                                   No pseudopotential on this center.
 ======================================================================================================
 There are   940 symmetry adapted cartesian basis functions of A   symmetry.
 There are   884 symmetry adapted basis functions of A   symmetry.
   884 basis functions,  1767 primitive gaussians,   940 cartesian basis functions
   213 alpha electrons      213 beta electrons
       nuclear repulsion energy      9749.0902658030 Hartrees.
 NAtoms=  108 NActive=  108 NUniq=  108 SFac= 1.00D+00 NAtFMM=   60 NAOKFM=T Big=T
 Integral buffers will be    131072 words long.
 Raffenetti 2 integral format.
 Two-electron integral symmetry is turned on.
 One-electron integrals computed using PRISM.
   1 Symmetry operations used in ECPInt.
 ECPInt:  NShTT=   54615 NPrTT=  339395 LenC2=   40986 LenP2D=  127050.
 LDataN:  DoStor=T MaxTD1= 6 Len=  172
 NBasis=   884 RedAO= T EigKep=  4.40D-04  NBF=   884
 NBsUse=   884 1.00D-06 EigRej= -1.00D+00 NBFU=   884
 Defaulting to unpruned grid for atomic number  77.
 ExpMin= 2.90D-02 ExpMax= 7.00D+03 ExpMxC= 1.05D+03 IAcc=3 IRadAn=         5 AccDes= 0.00D+00
 Harris functional with IExCor= 1009 and IRadAn=       5 diagonalized for initial guess.
 HarFok:  IExCor= 1009 AccDes= 0.00D+00 IRadAn=         5 IDoV= 1 UseB2=F ITyADJ=14
 ICtDFT=  3500011 ScaDFX=  1.000000  1.000000  1.000000  1.000000
 Defaulting to unpruned grid for atomic number  77.
 FoFCou: FMM=F IPFlag=           0 FMFlag=      100000 FMFlg1=        2001
         NFxFlg=           0 DoJE=T BraDBF=F KetDBF=T FulRan=T
         wScrn=  0.000000 ICntrl=       500 IOpCl=  0 I1Cent=   200000004 NGrid=           0
         NMat0=    1 NMatS0=      1 NMatT0=    0 NMatD0=    1 NMtDS0=    0 NMtDT0=    0
 Petite list used in FoFCou.
 Requested convergence on RMS density matrix=1.00D-08 within 128 cycles.
 Requested convergence on MAX density matrix=1.00D-06.
 Requested convergence on             energy=1.00D-06.
 No special actions if energy rises.
 Defaulting to unpruned grid for atomic number  77.
 Defaulting to unpruned grid for atomic number  77.
 Defaulting to unpruned grid for atomic number  77.
 Defaulting to unpruned grid for atomic number  77.
 Defaulting to unpruned grid for atomic number  77.
 Defaulting to unpruned grid for atomic number  77.
 Defaulting to unpruned grid for atomic number  77.
 Defaulting to unpruned grid for atomic number  77.
 Defaulting to unpruned grid for atomic number  77.
 Defaulting to unpruned grid for atomic number  77.
 Defaulting to unpruned grid for atomic number  77.
 Defaulting to unpruned grid for atomic number  77.
 Defaulting to unpruned grid for atomic number  77.
 Defaulting to unpruned grid for atomic number  77.
 Defaulting to unpruned grid for atomic number  77.
 Defaulting to unpruned grid for atomic number  77.
 SCF Done:  E(RM06) =  -2833.55006644     A.U. after   16 cycles
            NFock= 16  Conv=0.45D-08     -V/T= 2.0321
 DoSCS=F DFT=T ScalE2(SS,OS)=  1.000000  1.000000
 Range of M.O.s used for correlation:     1   884
 NBasis=   884 NAE=   213 NBE=   213 NFC=     0 NFV=     0
 NROrb=    884 NOA=   213 NOB=   213 NVA=   671 NVB=   671
   1 Symmetry operations used in ECPInt.
 ECPInt:  NShTT=   54615 NPrTT=  339395 LenC2=   40986 LenP2D=  127050.
 LDataN:  DoStor=T MaxTD1= 7 Len=  274
 Number of processors reduced to   7 by ecpmxn.
 Symmetrizing basis deriv contribution to polar:
 IMax=3 JMax=2 DiffMx= 0.00D+00
 G2DrvN: will do   109 centers at a time, making    1 passes.
 Calling FoFCou, ICntrl=  3107 FMM=T I1Cent=   0 AccDes= 0.00D+00.
 Defaulting to unpruned grid for atomic number  77.
 Defaulting to unpruned grid for atomic number  77.
 Defaulting to unpruned grid for atomic number  77.
 Defaulting to unpruned grid for atomic number  77.
 Defaulting to unpruned grid for atomic number  77.
 Defaulting to unpruned grid for atomic number  77.
 Defaulting to unpruned grid for atomic number  77.
 Defaulting to unpruned grid for atomic number  77.
 Defaulting to unpruned grid for atomic number  77.
 Defaulting to unpruned grid for atomic number  77.
 Defaulting to unpruned grid for atomic number  77.
 Defaulting to unpruned grid for atomic number  77.
 Defaulting to unpruned grid for atomic number  77.
 Defaulting to unpruned grid for atomic number  77.
 Defaulting to unpruned grid for atomic number  77.
 Defaulting to unpruned grid for atomic number  77.
 End of G2Drv F.D. properties file   721 does not exist.
 End of G2Drv F.D. properties file   722 does not exist.
 End of G2Drv F.D. properties file   788 does not exist.
          IDoAtm=11111111111111111111111111111111111111111111111111
          IDoAtm=11111111111111111111111111111111111111111111111111
          IDoAtm=11111111
          Differentiating once with respect to electric field.
                with respect to dipole field.
          Differentiating once with respect to nuclear coordinates.
 Defaulting to unpruned grid for atomic number  77.
 CalDSu exits because no D1Ps are significant.
 Defaulting to unpruned grid for atomic number  77.
 Defaulting to unpruned grid for atomic number  77.
 Defaulting to unpruned grid for atomic number  77.
 Defaulting to unpruned grid for atomic number  77.
 Defaulting to unpruned grid for atomic number  77.
 Defaulting to unpruned grid for atomic number  77.
 Defaulting to unpruned grid for atomic number  77.
 Defaulting to unpruned grid for atomic number  77.
 Defaulting to unpruned grid for atomic number  77.
 Defaulting to unpruned grid for atomic number  77.
 Defaulting to unpruned grid for atomic number  77.
 Defaulting to unpruned grid for atomic number  77.
 Defaulting to unpruned grid for atomic number  77.
 Defaulting to unpruned grid for atomic number  77.
 Defaulting to unpruned grid for atomic number  77.
 Defaulting to unpruned grid for atomic number  77.
          There are   327 degrees of freedom in the 1st order CPHF.  IDoFFX=6 NUNeed=     3.
    324 vectors produced by pass  0 Test12= 1.43D-13 1.00D-09 XBig12= 5.19D+02 8.06D+00.
 AX will form    72 AO Fock derivatives at one time.
    324 vectors produced by pass  1 Test12= 1.43D-13 1.00D-09 XBig12= 7.12D+01 9.94D-01.
    324 vectors produced by pass  2 Test12= 1.43D-13 1.00D-09 XBig12= 8.99D-01 9.74D-02.
    324 vectors produced by pass  3 Test12= 1.43D-13 1.00D-09 XBig12= 6.80D-03 5.89D-03.
    324 vectors produced by pass  4 Test12= 1.43D-13 1.00D-09 XBig12= 2.90D-05 3.51D-04.
    293 vectors produced by pass  5 Test12= 1.43D-13 1.00D-09 XBig12= 6.19D-08 1.55D-05.
     84 vectors produced by pass  6 Test12= 1.43D-13 1.00D-09 XBig12= 9.26D-11 5.12D-07.
      3 vectors produced by pass  7 Test12= 1.43D-13 1.00D-09 XBig12= 1.22D-13 1.82D-08.
 InvSVY:  IOpt=1 It=  1 EMax= 2.13D-14
 Solved reduced A of dimension  2000 with   327 vectors.
 Isotropic polarizability for W=    0.000000      491.11 Bohr**3.
 End of Minotr F.D. properties file   721 does not exist.
 End of Minotr F.D. properties file   722 does not exist.
 End of Minotr F.D. properties file   788 does not exist.
 Hyperfine terms turned off by default for NAtoms > 100.

 **********************************************************************

            Population analysis using the SCF Density.

 **********************************************************************

 Orbital symmetries:
       Occupied  (A) (A) (A) (A) (A) (A) (A) (A) (A) (A) (A) (A)
                 (A) (A) (A) (A) (A) (A) (A) (A) (A) (A) (A) (A)
                 (A) (A) (A) (A) (A) (A) (A) (A) (A) (A) (A) (A)
                 (A) (A) (A) (A) (A) (A) (A) (A) (A) (A) (A) (A)
                 (A) (A) (A) (A) (A) (A) (A) (A) (A) (A) (A) (A)
                 (A) (A) (A) (A) (A) (A) (A) (A) (A) (A) (A) (A)
                 (A) (A) (A) (A) (A) (A) (A) (A) (A) (A) (A) (A)
                 (A) (A) (A) (A) (A) (A) (A) (A) (A) (A) (A) (A)
                 (A) (A) (A) (A) (A) (A) (A) (A) (A) (A) (A) (A)
                 (A) (A) (A) (A) (A) (A) (A) (A) (A) (A) (A) (A)
                 (A) (A) (A) (A) (A) (A) (A) (A) (A) (A) (A) (A)
                 (A) (A) (A) (A) (A) (A) (A) (A) (A) (A) (A) (A)
                 (A) (A) (A) (A) (A) (A) (A) (A) (A) (A) (A) (A)
                 (A) (A) (A) (A) (A) (A) (A) (A) (A) (A) (A) (A)
                 (A) (A) (A) (A) (A) (A) (A) (A) (A) (A) (A) (A)
                 (A) (A) (A) (A) (A) (A) (A) (A) (A) (A) (A) (A)
                 (A) (A) (A) (A) (A) (A) (A) (A) (A) (A) (A) (A)
                 (A) (A) (A) (A) (A) (A) (A) (A) (A)
       Virtual   (A) (A) (A) (A) (A) (A) (A) (A) (A) (A) (A) (A)
                 (A) (A) (A) (A) (A) (A) (A) (A) (A) (A) (A) (A)
                 (A) (A) (A) (A) (A) (A) (A) (A) (A) (A) (A) (A)
                 (A) (A) (A) (A) (A) (A) (A) (A) (A) (A) (A) (A)
                 (A) (A) (A) (A) (A) (A) (A) (A) (A) (A) (A) (A)
                 (A) (A) (A) (A) (A) (A) (A) (A) (A) (A) (A) (A)
                 (A) (A) (A) (A) (A) (A) (A) (A) (A) (A) (A) (A)
                 (A) (A) (A) (A) (A) (A) (A) (A) (A) (A) (A) (A)
                 (A) (A) (A) (A) (A) (A) (A) (A) (A) (A) (A) (A)
                 (A) (A) (A) (A) (A) (A) (A) (A) (A) (A) (A) (A)
                 (A) (A) (A) (A) (A) (A) (A) (A) (A) (A) (A) (A)
                 (A) (A) (A) (A) (A) (A) (A) (A) (A) (A) (A) (A)
                 (A) (A) (A) (A) (A) (A) (A) (A) (A) (A) (A) (A)
                 (A) (A) (A) (A) (A) (A) (A) (A) (A) (A) (A) (A)
                 (A) (A) (A) (A) (A) (A) (A) (A) (A) (A) (A) (A)
                 (A) (A) (A) (A) (A) (A) (A) (A) (A) (A) (A) (A)
                 (A) (A) (A) (A) (A) (A) (A) (A) (A) (A) (A) (A)
                 (A) (A) (A) (A) (A) (A) (A) (A) (A) (A) (A) (A)
                 (A) (A) (A) (A) (A) (A) (A) (A) (A) (A) (A) (A)
                 (A) (A) (A) (A) (A) (A) (A) (A) (A) (A) (A) (A)
                 (A) (A) (A) (A) (A) (A) (A) (A) (A) (A) (A) (A)
                 (A) (A) (A) (A) (A) (A) (A) (A) (A) (A) (A) (A)
                 (A) (A) (A) (A) (A) (A) (A) (A) (A) (A) (A) (A)
                 (A) (A) (A) (A) (A) (A) (A) (A) (A) (A) (A) (A)
                 (A) (A) (A) (A) (A) (A) (A) (A) (A) (A) (A) (A)
                 (A) (A) (A) (A) (A) (A) (A) (A) (A) (A) (A) (A)
                 (A) (A) (A) (A) (A) (A) (A) (A) (A) (A) (A) (A)
                 (A) (A) (A) (A) (A) (A) (A) (A) (A) (A) (A) (A)
                 (A) (A) (A) (A) (A) (A) (A) (A) (A) (A) (A) (A)
                 (A) (A) (A) (A) (A) (A) (A) (A) (A) (A) (A) (A)
                 (A) (A) (A) (A) (A) (A) (A) (A) (A) (A) (A) (A)
                 (A) (A) (A) (A) (A) (A) (A) (A) (A) (A) (A) (A)
                 (A) (A) (A) (A) (A) (A) (A) (A) (A) (A) (A) (A)
                 (A) (A) (A) (A) (A) (A) (A) (A) (A) (A) (A) (A)
                 (A) (A) (A) (A) (A) (A) (A) (A) (A) (A) (A) (A)
                 (A) (A) (A) (A) (A) (A) (A) (A) (A) (A) (A) (A)
                 (A) (A) (A) (A) (A) (A) (A) (A) (A) (A) (A) (A)
                 (A) (A) (A) (A) (A) (A) (A) (A) (A) (A) (A) (A)
                 (A) (A) (A) (A) (A) (A) (A) (A) (A) (A) (A) (A)
                 (A) (A) (A) (A) (A) (A) (A) (A) (A) (A) (A) (A)
                 (A) (A) (A) (A) (A) (A) (A) (A) (A) (A) (A) (A)
                 (A) (A) (A) (A) (A) (A) (A) (A) (A) (A) (A) (A)
                 (A) (A) (A) (A) (A) (A) (A) (A) (A) (A) (A) (A)
                 (A) (A) (A) (A) (A) (A) (A) (A) (A) (A) (A) (A)
                 (A) (A) (A) (A) (A) (A) (A) (A) (A) (A) (A) (A)
                 (A) (A) (A) (A) (A) (A) (A) (A) (A) (A) (A) (A)
                 (A) (A) (A) (A) (A) (A) (A) (A) (A) (A) (A) (A)
                 (A) (A) (A) (A) (A) (A) (A) (A) (A) (A) (A) (A)
                 (A) (A) (A) (A) (A) (A) (A) (A) (A) (A) (A) (A)
                 (A) (A) (A) (A) (A) (A) (A) (A) (A) (A) (A) (A)
                 (A) (A) (A) (A) (A) (A) (A) (A) (A) (A) (A) (A)
                 (A) (A) (A) (A) (A) (A) (A) (A) (A) (A) (A) (A)
                 (A) (A) (A) (A) (A) (A) (A) (A) (A) (A) (A) (A)
                 (A) (A) (A) (A) (A) (A) (A) (A) (A) (A) (A) (A)
                 (A) (A) (A) (A) (A) (A) (A) (A) (A) (A) (A) (A)
                 (A) (A) (A) (A) (A) (A) (A) (A) (A) (A) (A)
 The electronic state is 1-A.
 Alpha  occ. eigenvalues --  -24.83838 -24.83699 -24.83263 -24.83195 -24.82986
 Alpha  occ. eigenvalues --  -24.82571 -19.21654 -19.21508 -19.21413 -19.20987
 Alpha  occ. eigenvalues --  -19.20772 -19.20745 -19.16749 -14.46160 -14.45883
 Alpha  occ. eigenvalues --  -14.40763 -10.52087 -10.51464 -10.33251 -10.33044
 Alpha  occ. eigenvalues --  -10.32365 -10.32269 -10.31066 -10.30260 -10.30211
 Alpha  occ. eigenvalues --  -10.30162 -10.30053 -10.30005 -10.29961 -10.29873
 Alpha  occ. eigenvalues --  -10.29830 -10.29770 -10.29376 -10.29316 -10.29136
 Alpha  occ. eigenvalues --  -10.25880 -10.24068 -10.23567 -10.23443 -10.23394
 Alpha  occ. eigenvalues --  -10.23251 -10.23136 -10.23098 -10.23089 -10.23085
 Alpha  occ. eigenvalues --  -10.23027 -10.22466 -10.22449 -10.22439 -10.22338
 Alpha  occ. eigenvalues --  -10.22259  -6.82136  -6.81971  -6.81023  -3.65474
 Alpha  occ. eigenvalues --   -2.07773  -2.07136  -2.06751  -1.36425  -1.35805
 Alpha  occ. eigenvalues --   -1.27937  -1.27408  -1.27317  -1.26796  -1.07246
 Alpha  occ. eigenvalues --   -1.07087  -1.06817  -1.02576  -1.01287  -1.00246
 Alpha  occ. eigenvalues --   -1.00145  -1.00119  -0.98793  -0.92125  -0.87056
 Alpha  occ. eigenvalues --   -0.86119  -0.84516  -0.81282  -0.81061  -0.80920
 Alpha  occ. eigenvalues --   -0.80767  -0.77369  -0.76051  -0.75563  -0.75436
 Alpha  occ. eigenvalues --   -0.75296  -0.72873  -0.71152  -0.70939  -0.70655
 Alpha  occ. eigenvalues --   -0.69926  -0.69633  -0.69123  -0.68165  -0.68096
 Alpha  occ. eigenvalues --   -0.67786  -0.67763  -0.66700  -0.65663  -0.62806
 Alpha  occ. eigenvalues --   -0.62484  -0.62401  -0.62232  -0.61809  -0.61776
 Alpha  occ. eigenvalues --   -0.61641  -0.61227  -0.61113  -0.60521  -0.57287
 Alpha  occ. eigenvalues --   -0.55749  -0.55593  -0.55365  -0.54959  -0.54739
 Alpha  occ. eigenvalues --   -0.54255  -0.53796  -0.51949  -0.51646  -0.50348
 Alpha  occ. eigenvalues --   -0.49959  -0.49643  -0.49410  -0.49281  -0.49028
 Alpha  occ. eigenvalues --   -0.48913  -0.48585  -0.48299  -0.48010  -0.47681
 Alpha  occ. eigenvalues --   -0.47436  -0.47043  -0.46998  -0.46824  -0.46629
 Alpha  occ. eigenvalues --   -0.46545  -0.46060  -0.45826  -0.45414  -0.45351
 Alpha  occ. eigenvalues --   -0.45265  -0.45067  -0.45021  -0.44665  -0.44553
 Alpha  occ. eigenvalues --   -0.44083  -0.43981  -0.43790  -0.43696  -0.43604
 Alpha  occ. eigenvalues --   -0.43123  -0.43010  -0.42962  -0.42145  -0.41057
 Alpha  occ. eigenvalues --   -0.40702  -0.40618  -0.40567  -0.40488  -0.40334
 Alpha  occ. eigenvalues --   -0.40286  -0.40212  -0.40110  -0.39946  -0.39883
 Alpha  occ. eigenvalues --   -0.39801  -0.39589  -0.39389  -0.38880  -0.38496
 Alpha  occ. eigenvalues --   -0.38176  -0.38104  -0.37873  -0.37483  -0.37224
 Alpha  occ. eigenvalues --   -0.37126  -0.37059  -0.37006  -0.36871  -0.36815
 Alpha  occ. eigenvalues --   -0.36604  -0.36273  -0.36166  -0.35537  -0.35337
 Alpha  occ. eigenvalues --   -0.35256  -0.34973  -0.34904  -0.34221  -0.34017
 Alpha  occ. eigenvalues --   -0.33671  -0.33532  -0.33322  -0.32681  -0.32605
 Alpha  occ. eigenvalues --   -0.32484  -0.31920  -0.31720  -0.31091  -0.30895
 Alpha  occ. eigenvalues --   -0.30379  -0.29062  -0.28523  -0.28316  -0.27573
 Alpha  occ. eigenvalues --   -0.27225  -0.27056  -0.26970  -0.26327  -0.24471
 Alpha  occ. eigenvalues --   -0.24082  -0.23105  -0.18731
 Alpha virt. eigenvalues --   -0.08597  -0.04903  -0.04004  -0.00501   0.01620
 Alpha virt. eigenvalues --    0.03567   0.04721   0.05320   0.05953   0.06652
 Alpha virt. eigenvalues --    0.07016   0.07794   0.08629   0.09091   0.09449
 Alpha virt. eigenvalues --    0.09795   0.09940   0.10881   0.11043   0.11442
 Alpha virt. eigenvalues --    0.11835   0.12092   0.12264   0.12715   0.13156
 Alpha virt. eigenvalues --    0.13536   0.13767   0.13958   0.14375   0.14511
 Alpha virt. eigenvalues --    0.14595   0.14714   0.14934   0.15078   0.15136
 Alpha virt. eigenvalues --    0.15395   0.15627   0.15837   0.16177   0.16372
 Alpha virt. eigenvalues --    0.16540   0.16653   0.16972   0.17077   0.17230
 Alpha virt. eigenvalues --    0.17629   0.17692   0.17908   0.18037   0.18202
 Alpha virt. eigenvalues --    0.18400   0.18647   0.19009   0.19217   0.19296
 Alpha virt. eigenvalues --    0.19544   0.19794   0.19975   0.20215   0.20384
 Alpha virt. eigenvalues --    0.20482   0.20671   0.21006   0.21132   0.21436
 Alpha virt. eigenvalues --    0.21742   0.21839   0.22161   0.22259   0.22744
 Alpha virt. eigenvalues --    0.22801   0.22888   0.23057   0.23345   0.23404
 Alpha virt. eigenvalues --    0.23496   0.23773   0.23846   0.24080   0.24223
 Alpha virt. eigenvalues --    0.24588   0.24877   0.25159   0.25396   0.25554
 Alpha virt. eigenvalues --    0.25868   0.25987   0.26526   0.26779   0.26910
 Alpha virt. eigenvalues --    0.27081   0.27140   0.27470   0.27574   0.28288
 Alpha virt. eigenvalues --    0.28523   0.28833   0.29652   0.30159   0.30789
 Alpha virt. eigenvalues --    0.31157   0.31488   0.31831   0.32257   0.33326
 Alpha virt. eigenvalues --    0.33754   0.34643   0.34771   0.35282   0.35979
 Alpha virt. eigenvalues --    0.36252   0.36323   0.36514   0.37191   0.38219
 Alpha virt. eigenvalues --    0.39504   0.40433   0.40579   0.40870   0.41623
 Alpha virt. eigenvalues --    0.42758   0.44738   0.45194   0.46070   0.46146
 Alpha virt. eigenvalues --    0.47405   0.47678   0.47955   0.48279   0.48758
 Alpha virt. eigenvalues --    0.49341   0.49876   0.50067   0.50469   0.50633
 Alpha virt. eigenvalues --    0.50873   0.50982   0.51681   0.51923   0.52457
 Alpha virt. eigenvalues --    0.53058   0.53796   0.54252   0.54425   0.54782
 Alpha virt. eigenvalues --    0.55488   0.55715   0.55871   0.56052   0.56304
 Alpha virt. eigenvalues --    0.56712   0.56743   0.57377   0.57503   0.57582
 Alpha virt. eigenvalues --    0.57843   0.58180   0.58525   0.58704   0.58944
 Alpha virt. eigenvalues --    0.59581   0.59674   0.59938   0.60176   0.60777
 Alpha virt. eigenvalues --    0.61091   0.61867   0.62076   0.62165   0.62523
 Alpha virt. eigenvalues --    0.62869   0.63164   0.63538   0.63612   0.64128
 Alpha virt. eigenvalues --    0.64299   0.64649   0.64868   0.65478   0.65911
 Alpha virt. eigenvalues --    0.65968   0.66287   0.66596   0.67259   0.67309
 Alpha virt. eigenvalues --    0.67504   0.67762   0.68272   0.69168   0.69420
 Alpha virt. eigenvalues --    0.69571   0.69969   0.70191   0.70695   0.71020
 Alpha virt. eigenvalues --    0.71379   0.71474   0.72145   0.72412   0.72751
 Alpha virt. eigenvalues --    0.72951   0.73341   0.73370   0.73660   0.74204
 Alpha virt. eigenvalues --    0.74502   0.74895   0.75169   0.75810   0.75995
 Alpha virt. eigenvalues --    0.76697   0.77232   0.77836   0.78055   0.78300
 Alpha virt. eigenvalues --    0.78887   0.79049   0.79377   0.79865   0.80182
 Alpha virt. eigenvalues --    0.80748   0.81025   0.81484   0.81741   0.82286
 Alpha virt. eigenvalues --    0.82295   0.82528   0.82790   0.83470   0.83775
 Alpha virt. eigenvalues --    0.84289   0.84413   0.84835   0.84910   0.85457
 Alpha virt. eigenvalues --    0.85533   0.85672   0.85922   0.86117   0.86813
 Alpha virt. eigenvalues --    0.86959   0.87117   0.87392   0.87562   0.87958
 Alpha virt. eigenvalues --    0.88226   0.88414   0.88861   0.88910   0.89124
 Alpha virt. eigenvalues --    0.89275   0.89510   0.89888   0.90135   0.90230
 Alpha virt. eigenvalues --    0.90468   0.90748   0.90997   0.91201   0.91539
 Alpha virt. eigenvalues --    0.92015   0.92210   0.92397   0.92449   0.92752
 Alpha virt. eigenvalues --    0.93023   0.93396   0.94030   0.94330   0.94822
 Alpha virt. eigenvalues --    0.94961   0.95526   0.95588   0.95700   0.96195
 Alpha virt. eigenvalues --    0.96465   0.97245   0.97596   0.97818   0.98166
 Alpha virt. eigenvalues --    0.98318   0.98946   0.99268   0.99576   1.00080
 Alpha virt. eigenvalues --    1.00554   1.00946   1.01210   1.01665   1.02140
 Alpha virt. eigenvalues --    1.02847   1.03262   1.03465   1.04976   1.05380
 Alpha virt. eigenvalues --    1.05915   1.06264   1.07123   1.07258   1.07729
 Alpha virt. eigenvalues --    1.08366   1.08883   1.09180   1.09531   1.10406
 Alpha virt. eigenvalues --    1.10970   1.11402   1.12361   1.13198   1.13289
 Alpha virt. eigenvalues --    1.13655   1.14041   1.14896   1.15584   1.15765
 Alpha virt. eigenvalues --    1.16620   1.16758   1.17223   1.17830   1.18090
 Alpha virt. eigenvalues --    1.18763   1.18782   1.18995   1.19218   1.19440
 Alpha virt. eigenvalues --    1.19901   1.20125   1.20428   1.21321   1.21891
 Alpha virt. eigenvalues --    1.22298   1.22872   1.23678   1.23939   1.24119
 Alpha virt. eigenvalues --    1.24799   1.25704   1.26099   1.26651   1.27555
 Alpha virt. eigenvalues --    1.27874   1.28326   1.28602   1.29183   1.29956
 Alpha virt. eigenvalues --    1.31327   1.31821   1.32549   1.33224   1.33453
 Alpha virt. eigenvalues --    1.34510   1.34747   1.34953   1.35540   1.35833
 Alpha virt. eigenvalues --    1.36435   1.36895   1.37770   1.38015   1.38619
 Alpha virt. eigenvalues --    1.38775   1.39020   1.39809   1.39984   1.40189
 Alpha virt. eigenvalues --    1.40548   1.40601   1.41397   1.42226   1.42623
 Alpha virt. eigenvalues --    1.42911   1.42995   1.43472   1.43981   1.44443
 Alpha virt. eigenvalues --    1.44809   1.45309   1.45521   1.45624   1.46317
 Alpha virt. eigenvalues --    1.46663   1.47150   1.47937   1.48262   1.48503
 Alpha virt. eigenvalues --    1.49304   1.49786   1.50499   1.52058   1.52384
 Alpha virt. eigenvalues --    1.52511   1.52634   1.54712   1.55110   1.55708
 Alpha virt. eigenvalues --    1.56602   1.57306   1.57973   1.59337   1.60377
 Alpha virt. eigenvalues --    1.60670   1.61816   1.63033   1.63205   1.64165
 Alpha virt. eigenvalues --    1.64463   1.64991   1.65225   1.66152   1.66562
 Alpha virt. eigenvalues --    1.67260   1.67751   1.68061   1.68164   1.69118
 Alpha virt. eigenvalues --    1.69886   1.70728   1.70903   1.71923   1.72463
 Alpha virt. eigenvalues --    1.72726   1.72790   1.73304   1.74072   1.75130
 Alpha virt. eigenvalues --    1.75285   1.76038   1.76303   1.77142   1.77608
 Alpha virt. eigenvalues --    1.77840   1.77932   1.78632   1.78895   1.79345
 Alpha virt. eigenvalues --    1.79646   1.80436   1.80555   1.81228   1.81509
 Alpha virt. eigenvalues --    1.82051   1.82847   1.83367   1.83673   1.84503
 Alpha virt. eigenvalues --    1.84645   1.84898   1.85190   1.85607   1.85884
 Alpha virt. eigenvalues --    1.86145   1.87008   1.87483   1.87686   1.87966
 Alpha virt. eigenvalues --    1.88075   1.88645   1.88749   1.89278   1.89804
 Alpha virt. eigenvalues --    1.90129   1.90296   1.90785   1.91062   1.91310
 Alpha virt. eigenvalues --    1.91871   1.91926   1.92335   1.92696   1.92887
 Alpha virt. eigenvalues --    1.93132   1.93565   1.93807   1.94485   1.94757
 Alpha virt. eigenvalues --    1.94971   1.95777   1.96176   1.96539   1.96880
 Alpha virt. eigenvalues --    1.97100   1.97879   1.97910   1.98574   1.99611
 Alpha virt. eigenvalues --    2.00368   2.00598   2.01011   2.01527   2.01736
 Alpha virt. eigenvalues --    2.02051   2.02539   2.02688   2.03114   2.03236
 Alpha virt. eigenvalues --    2.03348   2.03611   2.04272   2.04650   2.04910
 Alpha virt. eigenvalues --    2.05524   2.05792   2.06787   2.07135   2.07225
 Alpha virt. eigenvalues --    2.07573   2.08096   2.08182   2.08761   2.09120
 Alpha virt. eigenvalues --    2.09361   2.09688   2.09790   2.10287   2.10520
 Alpha virt. eigenvalues --    2.10847   2.11224   2.11749   2.12316   2.12669
 Alpha virt. eigenvalues --    2.12744   2.13330   2.13781   2.14069   2.14561
 Alpha virt. eigenvalues --    2.14756   2.15088   2.15502   2.15763   2.16743
 Alpha virt. eigenvalues --    2.16967   2.17223   2.17285   2.17881   2.18095
 Alpha virt. eigenvalues --    2.18388   2.18505   2.19053   2.19548   2.20028
 Alpha virt. eigenvalues --    2.20227   2.20554   2.21094   2.21437   2.21827
 Alpha virt. eigenvalues --    2.22505   2.22764   2.23038   2.23126   2.23536
 Alpha virt. eigenvalues --    2.24118   2.24433   2.24599   2.25157   2.25678
 Alpha virt. eigenvalues --    2.25863   2.26493   2.26628   2.27239   2.27728
 Alpha virt. eigenvalues --    2.28096   2.28250   2.28616   2.29068   2.29337
 Alpha virt. eigenvalues --    2.30577   2.31020   2.31580   2.31971   2.32334
 Alpha virt. eigenvalues --    2.33128   2.33215   2.34101   2.34854   2.35065
 Alpha virt. eigenvalues --    2.35619   2.37120   2.37742   2.38413   2.39202
 Alpha virt. eigenvalues --    2.39556   2.40324   2.40944   2.42277   2.42887
 Alpha virt. eigenvalues --    2.44686   2.45531   2.45981   2.46238   2.46410
 Alpha virt. eigenvalues --    2.47055   2.47619   2.47953   2.48681   2.48817
 Alpha virt. eigenvalues --    2.49421   2.50930   2.51544   2.53414   2.53602
 Alpha virt. eigenvalues --    2.53861   2.55064   2.55701   2.59693   2.59909
 Alpha virt. eigenvalues --    2.60351   2.61392   2.62110   2.62495   2.63434
 Alpha virt. eigenvalues --    2.64182   2.64456   2.65400   2.65590   2.66611
 Alpha virt. eigenvalues --    2.67215   2.68251   2.69346   2.70528   2.71506
 Alpha virt. eigenvalues --    2.75534   2.76351   2.76890   2.77043   2.77205
 Alpha virt. eigenvalues --    2.77500   2.77802   2.78169   2.78433   2.79127
 Alpha virt. eigenvalues --    2.79751   2.80375   2.80933   2.81256   2.81541
 Alpha virt. eigenvalues --    2.81825   2.82606   2.83048   2.84836   2.88339
 Alpha virt. eigenvalues --    2.89700   2.90381   2.91878   2.92376   2.93049
 Alpha virt. eigenvalues --    2.94520   2.94876   2.95153   2.96786   2.97884
 Alpha virt. eigenvalues --    2.99648   3.03773   3.03833   3.05207   3.06509
 Alpha virt. eigenvalues --    3.07398   3.07909   3.08614   3.09110   3.10809
 Alpha virt. eigenvalues --    3.10956   3.11562   3.12078   3.12268   3.13000
 Alpha virt. eigenvalues --    3.14046   3.21797   3.26838   3.32231   3.45623
 Alpha virt. eigenvalues --   11.40089
          Condensed to atoms (all electrons):
 Mulliken charges:
               1
     1  C    0.350975
     2  C    0.014122
     3  C   -0.052299
     4  C   -0.154440
     5  C   -0.161995
     6  C    0.329062
     7  C    0.080134
     8  C   -0.083846
     9  C   -0.153495
    10  C   -0.186331
    11  H    0.215722
    12  H    0.202592
    13  H    0.181729
    14  H    0.227776
    15  H    0.200608
    16  H    0.179657
    17  N   -0.494117
    18  N   -0.527732
    19  Ir  -0.263480
    20  O   -0.529724
    21  O   -0.502893
    22  O   -0.484746
    23  B    0.491711
    24  B    0.490290
    25  B    0.530628
    26  O   -0.505367
    27  O   -0.498681
    28  C    0.291972
    29  C    0.280406
    30  C    0.282582
    31  C    0.289407
    32  C    0.290688
    33  C    0.293662
    34  O   -0.531302
    35  C   -0.508438
    36  H    0.150511
    37  H    0.161248
    38  H    0.184396
    39  C   -0.500561
    40  H    0.174763
    41  H    0.153006
    42  H    0.157594
    43  C   -0.504493
    44  H    0.165459
    45  H    0.167665
    46  H    0.151790
    47  C   -0.498620
    48  H    0.146695
    49  H    0.170395
    50  H    0.169866
    51  C   -0.506591
    52  H    0.175467
    53  H    0.178786
    54  H    0.147742
    55  C   -0.509328
    56  H    0.173958
    57  H    0.168414
    58  H    0.151170
    59  C   -0.512145
    60  H    0.170919
    61  H    0.156610
    62  H    0.167958
    63  C   -0.511959
    64  H    0.168745
    65  H    0.156688
    66  H    0.179355
    67  C   -0.486609
    68  H    0.169236
    69  H    0.134498
    70  H    0.159768
    71  C   -0.502615
    72  H    0.172271
    73  H    0.154707
    74  H    0.162460
    75  C   -0.500409
    76  H    0.171859
    77  H    0.144727
    78  H    0.179114
    79  C   -0.510421
    80  H    0.168018
    81  H    0.177516
    82  H    0.150206
    83  H    0.200502
    84  C    0.575695
    85  O   -0.541295
    86  C   -0.409227
    87  H    0.176470
    88  H    0.160838
    89  C   -0.329811
    90  H    0.138846
    91  H    0.179194
    92  N   -0.361156
    93  C   -0.364398
    94  H    0.178241
    95  H    0.163960
    96  H    0.210188
    97  C   -0.469690
    98  H    0.140959
    99  H    0.181272
   100  C    0.969853
   101  F   -0.302979
   102  F   -0.309405
   103  F   -0.309066
   104  C    0.963548
   105  F   -0.315594
   106  F   -0.306067
   107  F   -0.310927
   108  H    0.155384
 Sum of Mulliken charges =  -0.00000
 Mulliken charges with hydrogens summed into heavy atoms:
               1
     1  C    0.350975
     2  C    0.229844
     3  C   -0.052299
     4  C    0.048152
     5  C    0.019734
     6  C    0.329062
     7  C    0.307910
     8  C   -0.083846
     9  C    0.047113
    10  C   -0.006674
    17  N   -0.494117
    18  N   -0.527732
    19  Ir  -0.062977
    20  O   -0.529724
    21  O   -0.502893
    22  O   -0.484746
    23  B    0.491711
    24  B    0.490290
    25  B    0.530628
    26  O   -0.505367
    27  O   -0.498681
    28  C    0.291972
    29  C    0.280406
    30  C    0.282582
    31  C    0.289407
    32  C    0.290688
    33  C    0.293662
    34  O   -0.531302
    35  C   -0.012283
    39  C   -0.015197
    43  C   -0.019579
    47  C   -0.011664
    51  C   -0.004597
    55  C   -0.015787
    59  C   -0.016658
    63  C   -0.007171
    67  C   -0.023108
    71  C   -0.013178
    75  C   -0.004710
    79  C   -0.014680
    84  C    0.575695
    85  O   -0.541295
    86  C   -0.071919
    89  C   -0.011771
    92  N   -0.361156
    93  C    0.187991
    97  C    0.007925
   100  C    0.969853
   101  F   -0.302979
   102  F   -0.309405
   103  F   -0.309066
   104  C    0.963548
   105  F   -0.315594
   106  F   -0.306067
   107  F   -0.310927
 APT charges:
               1
     1  C    0.186357
     2  C    0.063809
     3  C   -0.195825
     4  C    0.086633
     5  C   -0.145480
     6  C    0.205567
     7  C    0.042535
     8  C   -0.175388
     9  C    0.085284
    10  C   -0.197280
    11  H    0.081163
    12  H    0.068139
    13  H    0.045997
    14  H    0.150483
    15  H    0.060688
    16  H    0.046492
    17  N   -0.147397
    18  N   -0.044394
    19  Ir  -0.969226
    20  O   -1.010043
    21  O   -0.961799
    22  O   -0.932395
    23  B    1.290122
    24  B    1.300062
    25  B    1.255636
    26  O   -0.938692
    27  O   -0.914872
    28  C    0.492392
    29  C    0.486605
    30  C    0.491277
    31  C    0.465131
    32  C    0.496150
    33  C    0.498657
    34  O   -1.025688
    35  C   -0.064554
    36  H   -0.022648
    37  H    0.004753
    38  H    0.048495
    39  C   -0.007907
    40  H    0.004844
    41  H   -0.017773
    42  H   -0.004630
    43  C   -0.007432
    44  H    0.000862
    45  H   -0.002175
    46  H   -0.013615
    47  C   -0.033504
    48  H   -0.022220
    49  H   -0.000225
    50  H    0.018548
    51  C   -0.026886
    52  H    0.010714
    53  H    0.004430
    54  H   -0.024307
    55  C   -0.007471
    56  H    0.001900
    57  H    0.004048
    58  H   -0.015146
    59  C   -0.017562
    60  H    0.009684
    61  H   -0.015987
    62  H    0.003227
    63  C   -0.034805
    64  H   -0.000154
    65  H   -0.020450
    66  H    0.012180
    67  C   -0.033707
    68  H    0.004338
    69  H   -0.006953
    70  H   -0.013472
    71  C   -0.003777
    72  H    0.004093
    73  H   -0.017517
    74  H    0.002609
    75  C   -0.031984
    76  H    0.020810
    77  H   -0.024904
    78  H    0.005737
    79  C   -0.006931
    80  H   -0.001475
    81  H    0.004145
    82  H   -0.013231
    83  H    0.042889
    84  C    0.829272
    85  O   -0.678142
    86  C    0.008315
    87  H   -0.026832
    88  H   -0.014000
    89  C    0.360055
    90  H   -0.078036
    91  H   -0.033972
    92  N   -0.761076
    93  C    0.274396
    94  H   -0.033217
    95  H   -0.028589
    96  H    0.034303
    97  C    0.072160
    98  H   -0.009635
    99  H    0.009924
   100  C    1.772655
   101  F   -0.595982
   102  F   -0.582617
   103  F   -0.512549
   104  C    1.809418
   105  F   -0.607194
   106  F   -0.594712
   107  F   -0.516543
   108  H   -0.033003
 Sum of APT charges =  -0.00000
 APT charges with hydrogens summed into heavy atoms:
               1
     1  C    0.186357
     2  C    0.144972
     3  C   -0.195825
     4  C    0.154771
     5  C   -0.099483
     6  C    0.205567
     7  C    0.193018
     8  C   -0.175388
     9  C    0.145972
    10  C   -0.150789
    17  N   -0.147397
    18  N   -0.044394
    19  Ir  -0.926336
    20  O   -1.010043
    21  O   -0.961799
    22  O   -0.932395
    23  B    1.290122
    24  B    1.300062
    25  B    1.255636
    26  O   -0.938692
    27  O   -0.914872
    28  C    0.492392
    29  C    0.486605
    30  C    0.491277
    31  C    0.465131
    32  C    0.496150
    33  C    0.498657
    34  O   -1.025688
    35  C   -0.033954
    39  C   -0.025466
    43  C   -0.022360
    47  C   -0.037400
    51  C   -0.036049
    55  C   -0.016669
    59  C   -0.020639
    63  C   -0.043229
    67  C   -0.049793
    71  C   -0.014591
    75  C   -0.030342
    79  C   -0.017492
    84  C    0.829272
    85  O   -0.678142
    86  C   -0.032517
    89  C    0.248047
    92  N   -0.761076
    93  C    0.246893
    97  C    0.039446
   100  C    1.772655
   101  F   -0.595982
   102  F   -0.582617
   103  F   -0.512549
   104  C    1.809418
   105  F   -0.607194
   106  F   -0.594712
   107  F   -0.516543
 Electronic spatial extent (au):  <R**2>=          32150.4286
 Charge=             -0.0000 electrons
 Dipole moment (field-independent basis, Debye):
    X=             -0.1774    Y=              0.6291    Z=             -2.9853  Tot=              3.0560
 Quadrupole moment (field-independent basis, Debye-Ang):
   XX=           -329.8791   YY=           -333.4317   ZZ=           -317.1599
   XY=              1.4082   XZ=             11.7592   YZ=              3.1886
 Traceless Quadrupole moment (field-independent basis, Debye-Ang):
   XX=             -3.0555   YY=             -6.6081   ZZ=              9.6636
   XY=              1.4082   XZ=             11.7592   YZ=              3.1886
 Octapole moment (field-independent basis, Debye-Ang**2):
  XXX=             19.1184  YYY=             41.8715  ZZZ=              4.0060  XYY=            -10.2813
  XXY=             12.3681  XXZ=             36.1728  XZZ=            -32.5501  YZZ=            -87.9587
  YYZ=            -33.7099  XYZ=            -31.1807
 Hexadecapole moment (field-independent basis, Debye-Ang**3):
 XXXX=         -19796.0238 YYYY=         -12227.6077 ZZZZ=          -8467.0279 XXXY=            -22.8492
 XXXZ=             63.1767 YYYX=           -350.3711 YYYZ=            169.4060 ZZZX=            -16.3604
 ZZZY=            276.5762 XXYY=          -5262.1940 XXZZ=          -4495.3344 YYZZ=          -3315.9910
 XXYZ=            -55.0569 YYXZ=            -29.7247 ZZXY=             54.3689
 N-N= 9.749090265803D+03 E-N=-2.610388787294D+04  KE= 2.745517513366D+03
  Exact polarizability:     561.608       6.794     459.116       6.157      31.786     452.602
 Approx polarizability:     788.976      -8.423     658.573       4.749      87.900     704.605
   1 Symmetry operations used in ECPInt.
 ECPInt:  NShTT=   54615 NPrTT=  339395 LenC2=   40986 LenP2D=  127050.
 LDataN:  DoStor=T MaxTD1= 8 Len=  415
 Calling FoFJK, ICntrl=    100127 FMM=F ISym2X=0 I1Cent= 0 IOpClX= 0 NMat=1 NMatS=1 NMatT=0.
 Defaulting to unpruned grid for atomic number  77.
 Defaulting to unpruned grid for atomic number  77.
 Defaulting to unpruned grid for atomic number  77.
 Defaulting to unpruned grid for atomic number  77.
 Defaulting to unpruned grid for atomic number  77.
 Defaulting to unpruned grid for atomic number  77.
 Defaulting to unpruned grid for atomic number  77.
 Defaulting to unpruned grid for atomic number  77.
 Defaulting to unpruned grid for atomic number  77.
 Defaulting to unpruned grid for atomic number  77.
 Defaulting to unpruned grid for atomic number  77.
 Defaulting to unpruned grid for atomic number  77.
 Defaulting to unpruned grid for atomic number  77.
 Defaulting to unpruned grid for atomic number  77.
 Defaulting to unpruned grid for atomic number  77.
 Defaulting to unpruned grid for atomic number  77.
 Full mass-weighted force constant matrix:
 Low frequencies ---   -9.1207   -2.2702   -0.0004    0.0004    0.0006    3.3276
 Low frequencies ---    5.2116   22.7829   28.3367
 ******    1 imaginary frequencies (negative Signs) ****** 
 Diagonal vibrational polarizability:
     1775.4616591     759.6096685     225.1275056
 Harmonic frequencies (cm**-1), IR intensities (KM/Mole), Raman scattering
 activities (A**4/AMU), depolarization ratios for plane and unpolarized
 incident light, reduced masses (AMU), force constants (mDyne/A),
 and normal coordinates:
                      1                      2                      3
                      A                      A                      A
 Frequencies --     -0.7922                22.6994                28.1787
 Red. masses --      4.9208                 5.5828                 6.8521
 Frc consts  --      0.0000                 0.0017                 0.0032
 IR Inten    --      0.0579                 0.3258                 0.2700
  Atom AN      X      Y      Z        X      Y      Z        X      Y      Z
     1   6     0.01  -0.03  -0.01     0.01  -0.06   0.01    -0.00   0.02   0.00
     2   6     0.00  -0.00  -0.04     0.00  -0.01  -0.04     0.02   0.02   0.02
     3   6     0.01  -0.01  -0.05     0.01  -0.02  -0.03     0.01   0.06   0.01
     4   6     0.02  -0.03  -0.04     0.01  -0.07   0.00    -0.00   0.08  -0.01
     5   6     0.02  -0.04  -0.02     0.01  -0.09   0.03    -0.01   0.06  -0.01
     6   6     0.02  -0.03   0.00     0.01  -0.05   0.01    -0.01  -0.01   0.01
     7   6     0.01  -0.02   0.02     0.02   0.01  -0.02    -0.01  -0.03  -0.00
     8   6     0.02  -0.03   0.03     0.02   0.00  -0.02    -0.02  -0.05   0.01
     9   6     0.03  -0.04   0.03     0.02  -0.03   0.00    -0.03  -0.06   0.03
    10   6     0.03  -0.04   0.01     0.02  -0.06   0.02    -0.03  -0.04   0.03
    11   1    -0.00   0.00  -0.05     0.00   0.02  -0.06     0.03   0.01   0.03
    12   1     0.02  -0.03  -0.04     0.01  -0.09   0.01    -0.01   0.12  -0.02
    13   1     0.03  -0.05  -0.00     0.01  -0.13   0.05    -0.02   0.08  -0.03
    14   1     0.01  -0.01   0.02     0.02   0.03  -0.03     0.00  -0.02  -0.01
    15   1     0.04  -0.05   0.03     0.03  -0.03   0.01    -0.05  -0.09   0.04
    16   1     0.03  -0.05   0.01     0.02  -0.08   0.03    -0.04  -0.05   0.04
    17   7     0.01  -0.01  -0.03     0.01  -0.03  -0.01     0.01  -0.00   0.02
    18   7     0.01  -0.02   0.01     0.01  -0.02  -0.00    -0.00  -0.01  -0.00
    19  77    -0.00  -0.01  -0.00     0.00  -0.02  -0.01     0.01  -0.02   0.01
    20   8     0.00  -0.02  -0.04    -0.02  -0.00   0.02    -0.01  -0.00   0.03
    21   8    -0.01   0.02  -0.00     0.01  -0.03  -0.01     0.04   0.01  -0.00
    22   8     0.06  -0.00   0.09    -0.04  -0.04   0.00    -0.07  -0.06   0.00
    23   5    -0.01   0.00  -0.00     0.01  -0.02  -0.01     0.02  -0.01  -0.00
    24   5    -0.02  -0.01  -0.03    -0.00  -0.00   0.00     0.00  -0.01   0.02
    25   5    -0.00  -0.00   0.06    -0.01  -0.02  -0.00    -0.01  -0.03   0.00
    26   8    -0.05   0.02   0.08     0.00  -0.00   0.00     0.02  -0.00   0.00
    27   8    -0.05  -0.01  -0.05     0.01   0.01   0.01     0.01   0.01   0.02
    28   6    -0.06  -0.01  -0.07    -0.00   0.03   0.02    -0.03   0.03   0.01
    29   6    -0.02  -0.02  -0.07    -0.02   0.02   0.03    -0.03   0.03   0.01
    30   6     0.05   0.01   0.12    -0.03  -0.03   0.02    -0.07  -0.06   0.02
    31   6    -0.02   0.03   0.12    -0.00  -0.01   0.00    -0.00  -0.03  -0.01
    32   6     0.00   0.06  -0.01     0.01  -0.05  -0.01     0.05   0.05  -0.02
    33   6     0.01   0.04   0.01     0.01  -0.02  -0.03     0.04   0.01  -0.00
    34   8    -0.01   0.01  -0.00     0.01  -0.01  -0.02     0.02  -0.02  -0.01
    35   6     0.00  -0.04  -0.11    -0.02   0.03   0.03    -0.01   0.06  -0.01
    36   1    -0.01  -0.04  -0.13    -0.02   0.04   0.04    -0.02   0.08  -0.03
    37   1     0.03  -0.05  -0.10    -0.03   0.01   0.04    -0.00   0.06  -0.01
    38   1    -0.00  -0.04  -0.12    -0.00   0.02   0.02     0.01   0.06  -0.01
    39   6    -0.01  -0.02  -0.06    -0.03   0.02   0.04    -0.08   0.04   0.02
    40   1     0.02  -0.03  -0.06    -0.04   0.01   0.05    -0.07   0.03   0.02
    41   1    -0.03  -0.02  -0.08    -0.04   0.03   0.05    -0.10   0.07   0.00
    42   1    -0.02  -0.01  -0.03    -0.04   0.01   0.04    -0.10   0.01   0.04
    43   6    -0.08  -0.00  -0.11     0.01   0.05   0.02    -0.02   0.07  -0.01
    44   1    -0.05   0.01  -0.13     0.01   0.04   0.02     0.01   0.08  -0.01
    45   1    -0.11  -0.01  -0.10     0.02   0.05   0.01    -0.02   0.05   0.00
    46   1    -0.09   0.00  -0.14     0.00   0.06   0.03    -0.05   0.09  -0.02
    47   6    -0.09   0.00  -0.03    -0.01   0.03   0.02    -0.06   0.01   0.02
    48   1    -0.10   0.01  -0.04    -0.01   0.04   0.03    -0.09   0.03   0.02
    49   1    -0.11   0.01  -0.03     0.01   0.03   0.02    -0.05   0.01   0.02
    50   1    -0.08  -0.01  -0.00    -0.01   0.01   0.02    -0.07  -0.02   0.03
    51   6    -0.03   0.08  -0.05     0.01  -0.05   0.02     0.03   0.06  -0.08
    52   1    -0.05   0.05  -0.07     0.01  -0.03   0.03     0.00   0.03  -0.10
    53   1    -0.03   0.09  -0.06     0.01  -0.07   0.03     0.04   0.08  -0.08
    54   1    -0.02   0.12  -0.07     0.01  -0.07   0.02     0.04   0.09  -0.10
    55   6     0.03   0.10   0.02     0.00  -0.07  -0.03     0.08   0.09   0.01
    56   1     0.02   0.10   0.00     0.00  -0.09  -0.02     0.09   0.12  -0.00
    57   1     0.05   0.08   0.05    -0.00  -0.07  -0.05     0.10   0.08   0.06
    58   1     0.04   0.13   0.01    -0.00  -0.09  -0.03     0.09   0.13   0.00
    59   6     0.00   0.06  -0.01     0.01  -0.02  -0.02     0.03   0.01  -0.03
    60   1    -0.02   0.06  -0.04     0.00  -0.01  -0.00     0.03   0.01  -0.07
    61   1     0.01   0.10   0.01     0.01  -0.03  -0.03     0.05   0.04  -0.03
    62   1     0.01   0.04   0.01     0.01  -0.00  -0.03     0.02  -0.01  -0.03
    63   6     0.03   0.04   0.04     0.01  -0.02  -0.05     0.04   0.01   0.05
    64   1     0.02   0.02   0.05     0.02  -0.01  -0.06     0.01  -0.02   0.05
    65   1     0.04   0.06   0.05     0.01  -0.04  -0.06     0.05   0.04   0.05
    66   1     0.03   0.03   0.06     0.01  -0.03  -0.06     0.04   0.02   0.08
    67   6    -0.04   0.07   0.17     0.00  -0.00  -0.04     0.01  -0.05  -0.08
    68   1    -0.08   0.09   0.16     0.03   0.01  -0.05     0.07  -0.04  -0.09
    69   1    -0.02   0.06   0.16    -0.01  -0.02  -0.05    -0.01  -0.06  -0.10
    70   1    -0.02   0.08   0.21     0.00  -0.00  -0.04     0.00  -0.06  -0.10
    71   6    -0.03   0.04   0.12     0.02   0.01   0.03     0.02   0.01   0.03
    72   1    -0.08   0.06   0.13     0.04   0.03   0.02     0.07   0.03   0.02
    73   1    -0.01   0.05   0.16     0.01   0.01   0.03    -0.01  -0.01   0.03
    74   1    -0.02   0.02   0.09     0.02   0.02   0.06     0.01   0.03   0.09
    75   6     0.07  -0.01   0.09    -0.04  -0.03   0.06    -0.10  -0.04   0.09
    76   1     0.04  -0.01   0.04    -0.03  -0.01   0.07    -0.07  -0.01   0.12
    77   1     0.06   0.00   0.11    -0.04  -0.02   0.07    -0.10  -0.03   0.10
    78   1     0.11  -0.03   0.08    -0.07  -0.04   0.07    -0.15  -0.05   0.10
    79   6     0.08   0.02   0.17    -0.05  -0.05   0.00    -0.12  -0.10  -0.02
    80   1     0.08   0.03   0.19    -0.05  -0.06  -0.03    -0.10  -0.12  -0.07
    81   1     0.13  -0.00   0.17    -0.07  -0.07   0.01    -0.17  -0.12  -0.00
    82   1     0.08   0.03   0.20    -0.05  -0.05   0.01    -0.12  -0.10  -0.02
    83   1    -0.01  -0.03   0.00     0.01  -0.01  -0.01     0.03  -0.02   0.02
    84   6    -0.02   0.00  -0.01    -0.05   0.07   0.11     0.02  -0.00  -0.05
    85   8    -0.02  -0.00  -0.01    -0.11   0.03   0.12     0.05   0.00  -0.05
    86   6    -0.02   0.02  -0.02    -0.03   0.14   0.16     0.00   0.01  -0.10
    87   1    -0.04   0.01  -0.03    -0.02   0.18   0.17    -0.04   0.04  -0.08
    88   1    -0.01   0.02  -0.01     0.01   0.16   0.12    -0.00   0.02  -0.13
    89   6    -0.01  -0.01  -0.00    -0.02  -0.01  -0.00     0.03  -0.02   0.01
    90   1    -0.01  -0.01  -0.00     0.02  -0.04  -0.03     0.01  -0.01   0.03
    91   1    -0.01  -0.01  -0.00    -0.08  -0.01  -0.01     0.05  -0.02   0.02
    92   7    -0.01  -0.01  -0.01     0.01   0.04   0.06     0.01  -0.02  -0.02
    93   6    -0.01  -0.00  -0.01     0.08   0.07   0.06    -0.02  -0.02  -0.03
    94   1    -0.01  -0.00  -0.01     0.17   0.12   0.05    -0.03  -0.03  -0.03
    95   1    -0.02   0.00  -0.01     0.04   0.13   0.06    -0.01  -0.03  -0.03
    96   1    -0.02  -0.00  -0.01     0.10  -0.01   0.05    -0.03  -0.00  -0.02
    97   6    -0.03   0.04  -0.04    -0.08   0.14   0.22     0.03  -0.01  -0.11
    98   1    -0.02   0.06  -0.03    -0.10   0.10   0.21     0.08  -0.04  -0.13
    99   1    -0.04   0.04  -0.05    -0.12   0.12   0.25     0.03  -0.02  -0.06
   100   6     0.01   0.01  -0.07     0.01   0.02  -0.08     0.02   0.08   0.00
   101   9     0.04   0.02  -0.07     0.02  -0.02  -0.16    -0.03  -0.01  -0.13
   102   9    -0.00   0.03  -0.10     0.00   0.01  -0.03     0.03   0.03   0.15
   103   9    -0.01   0.00  -0.07    -0.00   0.11  -0.10     0.06   0.25  -0.03
   104   6     0.02  -0.02   0.03     0.03   0.04  -0.04    -0.02  -0.06   0.02
   105   9     0.03  -0.02   0.04     0.06   0.05  -0.05    -0.04  -0.03  -0.11
   106   9     0.02  -0.03   0.03    -0.00   0.07  -0.04     0.02   0.04   0.11
   107   9     0.02  -0.01   0.04     0.04   0.05  -0.05    -0.05  -0.19   0.06
   108   1    -0.03   0.05  -0.04    -0.06   0.19   0.26     0.01   0.02  -0.15
                      4                      5                      6
                      A                      A                      A
 Frequencies --     32.1646                35.8950                39.7441
 Red. masses --      8.2165                 4.9280                 5.0857
 Frc consts  --      0.0050                 0.0037                 0.0047
 IR Inten    --      0.0764                 1.7860                 0.2946
  Atom AN      X      Y      Z        X      Y      Z        X      Y      Z
     1   6     0.01   0.02   0.02     0.00   0.07  -0.04    -0.02  -0.06   0.05
     2   6     0.01  -0.00   0.03    -0.02  -0.01   0.01    -0.01   0.02  -0.00
     3   6     0.01   0.03   0.01    -0.01   0.03  -0.03    -0.02  -0.01   0.02
     4   6     0.01   0.05  -0.01     0.00   0.10  -0.07    -0.02  -0.06   0.06
     5   6     0.01   0.04   0.00     0.01   0.12  -0.08    -0.02  -0.09   0.07
     6   6     0.01   0.02   0.02     0.00   0.08  -0.05    -0.02  -0.07   0.06
     7   6     0.01  -0.00   0.04    -0.01  -0.01   0.02    -0.01   0.00   0.00
     8   6     0.02   0.05   0.00    -0.00   0.05  -0.03    -0.02  -0.03   0.03
     9   6     0.02   0.09  -0.03     0.01   0.14  -0.10    -0.03  -0.10   0.08
    10   6     0.02   0.07  -0.02     0.01   0.15  -0.11    -0.03  -0.12   0.10
    11   1     0.01  -0.02   0.04    -0.02  -0.06   0.05    -0.01   0.06  -0.03
    12   1     0.01   0.08  -0.02     0.01   0.14  -0.11    -0.02  -0.09   0.07
    13   1     0.01   0.06  -0.01     0.02   0.17  -0.12    -0.03  -0.13   0.10
    14   1     0.00  -0.02   0.05    -0.02  -0.07   0.06     0.00   0.05  -0.03
    15   1     0.03   0.13  -0.06     0.02   0.20  -0.14    -0.03  -0.13   0.10
    16   1     0.03   0.10  -0.04     0.02   0.22  -0.16    -0.04  -0.17   0.14
    17   7     0.01  -0.01   0.03    -0.01   0.00   0.01    -0.01  -0.01   0.02
    18   7     0.00  -0.02   0.05    -0.01   0.00   0.00    -0.01  -0.02   0.02
[...]
 0000695,0.00000292,0.00000565,0.00000725,-0.00000318,-0.00000143,-0.00
 000691,0.00000964,0.00000269,-0.00000734,-0.00000079,-0.00000104,-0.00
 000103,-0.00000105,-0.00000127,0.00000500,0.00000030,-0.00004835,-0.00
 003651,0.00000988,0.00000992,0.00000907,-0.00000292,0.00002714,0.00001
 874,0.00000069,0.00001087,0.00000630,-0.00000117,-0.01640185,-0.080488
 62,-0.02446789,-0.02761142,-0.02836296,-0.05286479,0.00910333,0.009615
 91,0.02770671,0.02920841,0.09128277,0.00030476,0.00013683,0.00016758,-
 0.00001247,0.00000380,-0.00004045,-0.00011975,0.00004299,0.00009917,0.
 00012074,0.00001327,0.00003623,-0.00014101,0.00001252,-0.00004032,0.00
 071571,0.00022633,0.00026250,0.00119927,-0.00405860,-0.00386582,-0.012
 24644,-0.00346903,-0.00807185,-0.00244241,0.00123567,0.00193998,0.0000
 6982,-0.00031727,-0.00053697,-0.00001995,0.00000201,-0.00000130,-0.000
 00185,-0.00000025,-0.00000971,0.00005758,0.00003280,0.00003052,0.00030
 461,0.00156326,0.00108538,0.00061955,0.00021496,0.00034842,-0.00026865
 ,0.00011924,0.00002041,-0.00020536,0.00010379,0.00011610,-0.00012577,0
 .00042256,0.00126189,0.00044218,-0.00019563,0.00049424,0.00026997,0.00
 010218,0.00021715,0.00072988,-0.00020115,-0.00000203,0.00004192,0.0000
 0559,0.00006747,-0.00189741,0.00047051,-0.00036462,-0.00043163,-0.0000
 7456,-0.00046845,-0.00006505,0.00005085,-0.00026182,0.00003895,0.00001
 599,0.00011946,0.00017796,0.00012492,0.00034702,0.00005009,-0.00001482
 ,0.00004912,-0.00029042,0.00001050,-0.00011972,-0.00002485,-0.00000481
 ,-0.00002988,-0.00001953,-0.00000944,-0.00002472,-0.00032198,0.0000832
 2,0.00020512,-0.00035318,0.00061523,0.00021681,0.00153483,-0.00063197,
 0.00022368,0.00008532,0.00010694,0.00002689,0.00000096,0.00000139,-0.0
 0000233,0.00000975,-0.00000869,0.00003047,-0.00005439,0.00009754,-0.00
 000004,0.00008542,-0.00000763,0.00004648,-0.00000628,0.00002666,0.0000
 1296,-0.00000948,0.00000507,-0.00001050,0.00002705,-0.00004894,0.00001
 119,-0.00044062,0.00016310,-0.00065694,0.00008186,0.00019532,-0.000119
 98,0.00021559,-0.00007124,0.00034927,0.00005979,-0.00000184,0.00010079
 ,0.00003707,-0.00002511,-0.00005659,0.00000210,-0.00000145,-0.00000202
 ,0.00003258,0.00000590,0.00005240,0.00000704,-0.00000770,0.00001905,0.
 00011976,-0.00004034,-0.00008799,-0.00003405,0.00002884,0.00000349,0.0
 0001899,-0.00005181,-0.00005205,0.00001144,0.00002219,0.00004099,0.000
 06595,-0.00005735,-0.00003713,0.00001906,-0.00003823,-0.00005840,-0.00
 005341,0.00000386,0.00004027,0.00001806,0.00000802,0.00005158,0.000206
 63,0.00000695,0.00007535,-0.00002027,-0.00007119,-0.00000139,-0.000004
 12,0.00005087,-0.00002663,-0.00026331,-0.00087419,-0.00205867,0.000002
 64,-0.00030942,0.00005111,0.00075777,-0.00013786,-0.00410877,-0.000059
 70,-0.00001687,-0.00000672,0.00004227,0.00001139,-0.00000558,-0.000002
 08,-0.00000571,0.00000133,0.00000365,-0.00000055,0.00001616,0.00000055
 ,-0.00000562,-0.00001146,0.00000294,0.00000570,-0.00000220,-0.00000250
 ,-0.00000320,-0.00000375,0.00000645,0.00000134,0.00001190,-0.00000215,
 0.00000103,0.00000095,0.00000392,0.00000156,-0.00000821,0.00000143,0.0
 0000254,0.00000586,-0.00000774,0.00000305,-0.00001191,0.00000498,-0.00
 000440,0.00000065,-0.00000351,0.00000779,0.00001200,0.00000252,0.00000
 040,0.00000236,0.00000591,0.00000088,-0.00000572,-0.00000006,0.0000054
 3,0.00000824,0.00000074,-0.00000452,0.00000021,-0.00009791,0.00004987,
 0.00005367,-0.00008058,-0.00013263,-0.00021028,0.00003227,0.00003040,0
 .00021904,-0.00000204,0.00002732,-0.00000563,0.00000460,-0.00000662,0.
 00001207,-0.00000167,0.00000300,-0.00001174,0.00000536,0.00012919,-0.0
 0033388,0.00000464,-0.00007985,0.00016825,-0.00003305,-0.00005119,-0.0
 0004110,0.00008669,-0.00001556,0.00016299,-0.00002445,-0.00000537,-0.0
 0007241,0.00000787,0.00000478,0.00001022,-0.00000656,-0.00000014,0.000
 00399,0.00000023,0.00000271,0.00001575,-0.00000037,0.00000104,-0.00001
 985,0.00000813,-0.00000199,0.00001574,-0.00000089,-0.00000023,-0.00000
 078,0.00022086,-0.00008272,-0.00014136,-0.00006960,0.00005470,0.000014
 37,-0.00005936,-0.00000075,0.00001471,-0.00004224,0.00003743,0.0000968
 7,-0.10992248,-0.02174394,-0.20901269,-0.01731377,-0.04152260,-0.02945
 047,-0.01670199,0.01908120,-0.07817413,0.15531741,0.04861880,0.3295741
 4,-0.00000743,0.00005154,-0.00002950,-0.00002755,0.00003293,-0.0000381
 8,0.00000402,-0.00001146,-0.00001186,-0.00000441,0.00000786,-0.0000064
 9,0.00000997,-0.00000903,-0.00000215,0.00005332,0.00000657,-0.00001596
 ,-0.00000916,0.00002347,0.00001596,-0.00002836,-0.00001425,-0.00003485
 ,0.00004031,0.00000692,0.00002382,-0.00003391,0.00000790,0.00001348,-0
 .00001597,0.00002322,-0.00001463,-0.00000751,0.00000450,0.00001603,-0.
 00000098,0.00000306,-0.00000417,0.00000603,0.00000252,-0.00000103,0.00
 000049,0.00000187,-0.00000003,0.00000318,0.00000287,-0.00000354,-0.000
 01229,-0.00002197,-0.00002992,0.00002804,-0.00003764,-0.00005165,-0.00
 008507,-0.00007116,0.00013575,-0.00009047,-0.00008518,0.00002125,-0.00
 009879,-0.00003194,-0.00007271,0.00006322,-0.00012335,-0.00000542,0.00
 016348,0.00008598,0.00003461,0.00013660,0.00007975,-0.00006477,-0.0000
 8695,0.00013961,-0.00001843,0.00007765,-0.00011599,0.00005149,-0.00007
 571,-0.00005201,0.00006619,0.00002581,0.00003869,-0.00002129,0.0000320
 0,0.00001710,-0.00002477,-0.00002192,0.00006019,-0.00001710,-0.0000341
 9,0.00004021,0.00000551,0.00006498,-0.00000264,0.00003543,0.00002380,-
 0.00000452,0.00002919,-0.00009714,0.00000494,-0.00002871,-0.00000666,-
 0.00000221,0.00000662,-0.00000669,-0.00000087,0.00000234,0.00000193,0.
 00000113,-0.00000234,0.00000575,0.00000104,-0.00000272,-0.00000451,-0.
 00000092,0.00000118,0.00000089,-0.00000050,-0.00000315,-0.00000345,-0.
 00000300,0.00000295,0.00000256,0.00000026,0.00000054,-0.00000305,-0.00
 000322,0.00000273,0.00000373,0.00000088,0.00000026,0.00000125,0.000003
 24,-0.00000095,-0.00000505,-0.00000417,0.00000176,-0.00000247,-0.00000
 562,0.00000315,-0.00000299,-0.00000598,0.00000353,0.00000123,0.0000025
 9,-0.00000140,0.00000108,0.00000367,-0.00000252,-0.00000938,-0.0000003
 4,-0.00000387,0.00000218,0.00000218,0.00000103,0.00000411,-0.00000002,
 -0.00000004,-0.00000897,-0.00000313,-0.00000325,-0.00000317,0.00000708
 ,-0.00000362,0.00000446,-0.00000278,-0.00000035,0.00000439,-0.00000586
 ,0.00000602,-0.00000813,0.00000059,-0.00000266,-0.00000165,-0.00000203
 ,-0.00000004,-0.00000140,-0.00000382,0.00000104,-0.00000358,0.00000154
 ,-0.00000404,0.00000074,0.00000069,0.00000303,0.00001214,0.00000758,-0
 .00000930,0.00000105,-0.00000228,0.00000279,-0.00001033,0.00000069,-0.
 00000576,0.00000274,-0.00000938,0.00000875,0.00000927,-0.00000821,-0.0
 0000146,-0.00000306,0.00000432,-0.00000229,-0.00000867,0.00000569,0.00
 000285,0.00000554,-0.00000977,0.00000181,0.00000586,-0.00000380,-0.000
 00034,-0.00000189,0.00000235,0.00000192,0.00000270,-0.00000735,0.00000
 121,-0.00000092,0.00000225,-0.00000028,0.00000371,-0.00000865,0.000003
 60,0.00000210,0.00000511,-0.00000250,-0.00000043,-0.00000836,0.0000028
 7,-0.00000135,0.00000318,-0.00000139,0.00000176,-0.00000863,-0.0000001
 4,-0.00000219,0.00000530,0.00000119,-0.00000207,0.00000137,-0.00000332
 ,0.00000344,-0.00000634,0.00000222,0.00000932,0.00004365,-0.00002733,-
 0.00020616,-0.00162914,-0.00261861,-0.00028516,-0.00070254,-0.00047748
 ,-0.01774747,0.00082075,0.01058628,0.00042795,0.00061927,-0.00002205,0
 .00068559,-0.00016923,0.00021819,0.00016036,-0.00010704,-0.00047494,-0
 .00016586,-0.00005205,0.00003936,0.00003917,-0.00002367,0.00001930,-0.
 00192909,-0.00036855,0.00055287,-0.00012208,0.00022621,0.00040386,0.00
 003568,-0.00007684,-0.00003028,0.00003823,0.00002923,-0.00001990,-0.00
 001910,-0.00002652,-0.00006076,-0.25782861,-0.00463113,0.10903708,0.00
 474778,0.00005247,-0.00261384,-0.00732867,-0.00146282,0.00332189,-0.00
 049132,-0.00011466,0.00025355,0.00009108,0.00000896,-0.00004311,0.0001
 7163,0.00005546,0.00001884,0.00011534,-0.00006198,-0.00010322,0.000104
 05,-0.00002882,-0.00004290,-0.00002709,0.00002678,0.00001432,-0.000036
 15,-0.00000655,0.00002697,-0.00002675,0.00000387,0.00000230,0.27960975
 ,-0.00000451,-0.00001864,-0.00003020,0.00010780,0.00005523,0.00002592,
 -0.00007473,-0.00001939,0.00000552,-0.00000822,-0.00004511,-0.00002073
 ,0.00004482,-0.00001871,-0.00001457,0.00001469,-0.00000566,-0.00000415
 ,-0.00000171,0.00000318,0.00000331,-0.00000708,-0.00000160,-0.00000662
 ,0.00000652,0.00000386,0.00000611,-0.00000972,0.00000491,0.00000010,-0
 .00002413,0.00000067,-0.00000507,-0.00000998,0.00001722,-0.00000638,0.
 00000181,-0.00000156,0.00000480,0.00000075,0.00000014,-0.00000211,-0.0
 0000104,-0.00000003,0.00000102,0.00000134,-0.00000213,0.00000347,-0.00
 003565,0.00001143,0.00001267,0.00000397,-0.00000974,-0.00001262,-0.000
 02992,-0.00002128,0.00003513,-0.00001731,-0.00002107,0.00000518,-0.000
 02063,-0.00001240,-0.00001681,0.00002943,-0.00004131,-0.00000655,0.000
 03964,0.00003326,0.00000342,0.00003091,0.00001916,-0.00001729,-0.00003
 634,0.00005787,0.00000095,0.00003422,-0.00004269,0.00001486,-0.0000158
 0,-0.00001078,0.00001545,0.00000402,0.00000849,-0.00000473,0.00000432,
 0.00000347,-0.00000519,-0.00001177,0.00001998,-0.00000464,-0.00002206,
 0.00001497,0.00000175,0.00001356,-0.00000042,0.00000630,0.00000459,-0.
 00000030,0.00000545,-0.00001982,-0.00000088,-0.00000257,-0.00000131,-0
 .00000087,0.00000186,-0.00000118,-0.00000016,0.00000029,0.00000028,0.0
 0000048,-0.00000030,0.00000124,0.00000010,-0.00000086,-0.00000139,0.00
 000036,-0.00000012,-0.00000028,-0.00000011,-0.00000061,-0.00000020,-0.
 00000094,0.00000032,0.00000076,-0.00000036,0.00000084,-0.00000054,-0.0
 0000129,0.00000074,0.00000081,-0.00000024,0.00000001,0.00000015,0.0000
 0056,0.,-0.00000102,-0.00000043,0.00000037,-0.00000103,-0.00000109,0.0
 0000124,-0.00000032,-0.00000109,0.00000078,0.00000015,0.00000050,-0.00
 000011,0.00000004,0.00000054,-0.00000076,-0.00000294,0.00000030,-0.000
 00058,0.00000011,0.00000044,0.00000041,0.00000061,0.00000015,-0.000000
 54,-0.00000154,-0.00000103,-0.00000073,-0.00000102,0.00000161,0.000000
 13,0.00000058,-0.00000030,-0.00000038,0.00000078,-0.00000146,0.0000009
 5,-0.00000115,0.00000005,-0.00000080,-0.00000001,-0.00000028,-0.000000
 32,-0.00000045,-0.00000080,0.00000011,-0.00000068,0.00000018,-0.000000
 47,-0.00000010,0.00000021,0.00000056,0.00000279,0.00000323,-0.00000342
 ,-0.00000108,-0.00000079,0.00000120,-0.00000255,-0.00000006,-0.0000007
 9,0.00000143,-0.00000363,0.00000187,0.00000857,-0.00000699,0.00000425,
 -0.00000199,0.00000202,-0.00000094,-0.00000810,0.00000495,-0.00000142,
 0.00000105,-0.00000641,0.00000182,0.00000519,-0.00000136,0.00000021,-0
 .00000136,0.00000027,0.00000050,0.00000033,-0.00000288,0.00000084,0.00
 000148,0.00000202,-0.00000049,0.00000373,-0.00000420,0.00000130,0.0000
 0151,0.00000192,-0.00000139,-0.00000070,-0.00000217,0.00000057,-0.0000
 0072,0.00000103,0.00000019,-0.00000288,-0.00000706,-0.00000103,0.00000
 107,0.00000355,0.00000139,-0.00000045,-0.00000011,-0.00000077,0.000001
 51,-0.00000150,-0.00000039,0.00000161,0.00001286,-0.00000956,-0.001025
 12,-0.00196917,-0.00378539,0.00086680,0.00104084,0.00032017,-0.0156272
 0,-0.00120502,0.00846839,0.00071731,0.00048582,0.00006744,0.00044615,0
 .00025850,0.00070934,-0.00002460,-0.00012663,-0.00023947,-0.00009357,-
 0.00001613,0.00002782,0.00000488,0.00000610,0.00000942,-0.00122494,0.0
 0014389,0.00069460,0.00001032,0.00013042,0.00022228,0.00000119,-0.0000
 4314,0.00000592,0.00002528,0.00004480,-0.00000908,0.00000619,-0.000014
 96,-0.00002226,-0.00458087,-0.04876088,0.00324574,-0.01350719,-0.00100
 712,0.00575308,0.02649566,0.00360568,-0.01407353,-0.00058107,-0.000157
 35,0.00052909,0.00007185,0.00009919,-0.00011417,0.00026951,0.00021536,
 -0.00024284,0.00018552,0.00009819,-0.00031570,0.00001286,-0.00000968,-
 0.00000755,-0.00000355,0.00000697,0.00000279,-0.00000468,0.00000013,0.
 00000367,-0.00000232,0.00000150,0.00000173,0.00756880,0.04720287,-0.00
 007100,0.00001264,0.00005540,-0.00014073,-0.00003952,-0.00008555,0.000
 10111,0.00001496,-0.00012140,0.00005129,0.00009837,0.00007476,-0.00005
 679,0.00005494,0.00003337,-0.00001764,0.00001520,0.00001961,-0.0000130
 6,-0.00000248,-0.00000155,0.00002292,-0.00000788,0.00000024,-0.0000050
 7,0.00001025,0.00001025,0.00001576,-0.00000102,-0.00000697,0.00001477,
 0.00000181,0.00000199,0.00004065,-0.00004212,0.00004731,-0.00000475,-0
 .00000803,0.00001656,-0.00000138,-0.00000235,-0.00000527,0.00000060,-0
 .00000177,-0.00000034,-0.00000431,0.00000214,0.00001201,-0.00000630,-0
 .00002868,-0.00002994,0.00003086,-0.00002578,-0.00002403,-0.00000138,0
 .00001296,0.00005775,0.00002905,0.00003432,-0.00000381,0.00002049,-0.0
 0000729,0.00002533,-0.00001723,0.00004520,0.00000705,-0.00002512,0.000
 02213,-0.00004212,-0.00005565,-0.00004649,0.00000710,0.00002786,-0.000
 07539,-0.00002004,-0.00002146,0.00004995,-0.00000954,0.00002967,0.0000
 2464,-0.00001889,-0.00001210,-0.00001831,0.00000835,-0.00001407,-0.000
 00709,0.00000760,0.00000954,-0.00002487,0.00000457,0.00001561,-0.00002
 436,-0.00000246,-0.00001156,-0.00000290,-0.00000554,-0.00000758,0.0000
 0586,-0.00001131,0.00003104,-0.00000788,0.00002426,0.00000218,0.000000
 81,-0.00000166,0.00000227,0.00000010,-0.00000086,-0.00000058,0.0000000
 1,0.00000126,-0.00000205,-0.00000022,0.00000008,0.00000179,0.00000062,
 0.00000019,-0.00000028,0.00000045,0.00000145,0.00000129,0.00000092,-0.
 00000117,-0.00000094,-0.00000039,-0.00000033,0.00000175,0.00000137,-0.
 00000137,-0.00000193,-0.00000068,-0.00000074,-0.00000051,-0.00000133,0
 .00000144,0.00000223,0.00000219,-0.00000071,0.00000078,0.00000225,-0.0
 0000166,0.00000166,0.00000266,-0.00000134,-0.00000068,-0.00000108,0.00
 000145,-0.00000070,-0.00000179,0.00000082,0.00000072,0.00000096,-0.000
 00005,-0.00000089,-0.00000060,-0.00000055,-0.00000117,0.00000004,0.000
 00016,0.00000207,0.00000009,0.00000078,0.00000095,0.00000004,0.0000008
 1,-0.00000137,-0.00000005,0.00000032,-0.00000043,0.00000088,-0.0000000
 8,0.00000179,-0.00000070,0.00000060,0.00000151,-0.00000127,0.00000084,
 -0.00000031,0.00000089,-0.00000045,0.00000139,-0.00000048,0.00000148,-
 0.00000077,0.00000011,-0.00000076,0.00000207,0.00000114,-0.00000055,-0
 .00000250,0.00000060,0.00000011,-0.00000009,-0.00000130,0.00000199,0.0
 0000054,-0.00000113,-0.00000049,-0.00001104,0.00000384,0.00000374,0.00
 000270,-0.00000468,0.00000463,0.00000890,-0.00000456,-0.00000759,-0.00
 000010,0.00001064,-0.00000187,-0.00000080,0.00000164,0.00000013,0.0000
 0107,-0.00000163,-0.00000024,-0.00000131,0.00000339,0.00000005,0.00000
 056,-0.00000055,-0.00000035,-0.00000159,0.00000346,-0.00000052,-0.0000
 0116,-0.00000195,0.00000088,0.00000022,0.00000343,-0.00000124,0.000000
 67,-0.00000100,0.00000075,-0.00000024,0.00000330,0.00000172,0.00000169
 ,-0.00000297,-0.00000063,0.00000037,-0.00000050,0.00000160,-0.00000081
 ,0.00000282,-0.00000136,-0.00000571,0.00000551,0.00000190,-0.00165700,
 -0.00351131,-0.00452694,0.00158919,0.00087732,0.00133978,-0.01958189,-
 0.00031099,0.00899899,0.00056488,0.00069981,0.00074002,0.00084166,0.00
 037147,0.00054245,-0.00005455,-0.00010920,-0.00027368,-0.00008710,-0.0
 0000900,0.00004620,-0.00001781,0.00001160,0.00001917,-0.00122887,0.000
 13258,0.00105757,0.00002568,0.00009961,0.00019189,0.00000346,-0.000001
 10,0.00000329,0.00001939,0.00002929,-0.00002963,0.00000776,0.00000322,
 -0.00002439,0.10986398,0.00325527,-0.10417924,0.02516085,-0.00121911,-
 0.01124915,0.00242327,0.00106570,-0.00294376,0.00078598,0.00008253,-0.
 00017698,-0.00012181,-0.00005562,0.00004184,-0.00040744,-0.00022879,0.
 00013097,-0.00015869,-0.00000415,0.00008900,-0.00006743,0.00001062,0.0
 0001505,0.00001640,-0.00001161,-0.00000664,0.00002321,0.00000440,-0.00
 001438,0.00001927,-0.00000031,0.00000489,-0.11791960,-0.00123869,0.110
 17628\\0.00000138,-0.00000166,0.00000105,0.00000099,-0.00000341,-0.000
 00324,-0.00000144,-0.00000029,0.00000341,-0.00000231,-0.00000805,-0.00
 000876,0.00000547,-0.00000357,0.00000409,0.00000564,-0.00000692,-0.000
 00152,0.00000966,0.00000057,0.00000354,0.00000007,-0.00000374,0.000002
 47,0.00000768,-0.00000171,0.00000702,-0.00000307,-0.00000752,-0.000002
 23,-0.00000028,0.00000063,-0.00000128,0.00000411,-0.00000189,0.0000006
 2,0.00000202,-0.00000518,-0.00000251,-0.00000135,-0.00000224,-0.000000
 26,0.00000163,-0.00000362,0.00000218,0.00000604,-0.00000098,0.00000514
 ,-0.00000132,-0.00000312,-0.00000245,-0.00000314,-0.00000020,0.0000051
 0,0.00000086,-0.00000307,-0.00000356,-0.00000088,0.00000034,-0.0000044
 1,-0.00000100,0.00000345,-0.00000187,-0.00000095,0.00000325,0.00000199
 ,0.00000096,0.00000031,0.00000103,0.00000065,0.00000090,-0.00000241,-0
 .00000075,-0.00000045,-0.00000499,0.00000042,-0.00000394,-0.00000263,-
 0.00000268,-0.00000251,-0.00000035,-0.00000289,0.00000037,-0.00000036,
 -0.00000380,-0.00000019,-0.00000418,-0.00000447,0.00000484,0.00000257,
 0.00000434,-0.00000299,0.00000043,-0.00000200,0.00001004,0.00000541,0.
 00000027,0.00000778,0.00000009,-0.00000444,0.00000510,0.00000421,-0.00
 000049,0.00000175,-0.00000256,-0.00000005,-0.00000122,-0.00000328,0.00
 000014,-0.00000110,-0.00000436,0.00000050,-0.00000080,-0.00000254,0.00
 000074,-0.00000356,0.00000114,0.00000006,-0.00000075,-0.00000430,0.000
 00007,-0.00000020,-0.00000410,-0.00000365,0.00000003,-0.00000420,0.000
 00112,-0.00000462,-0.00000677,-0.00000224,-0.00000014,-0.00000209,-0.0
 0000208,-0.00000437,-0.00000120,-0.00000168,0.00000125,-0.00000395,0.0
 0000010,-0.00000411,-0.00000406,-0.00000233,-0.00000022,-0.00000223,-0
 .00000315,-0.00000081,-0.00000131,-0.00000384,-0.00000054,-0.00000052,
 0.00000087,0.00000228,0.00000402,-0.00000205,0.00000414,-0.00000475,-0
 .00000180,0.00000373,-0.00000239,-0.00000555,0.00000635,-0.00000351,-0
 .00000120,0.00000337,-0.00000112,-0.00000150,0.00000572,0.00000157,0.0
 0000213,0.00000774,0.00000363,0.00000011,0.00000658,0.00000179,-0.0000
 0090,0.00000112,0.00000532,-0.00000039,0.00000668,-0.00000056,-0.00000
 041,0.00000490,0.00000128,0.00000092,0.00000167,0.00000052,0.00000238,
 0.00000017,0.00000350,0.00000011,0.00000206,0.00000533,0.00000137,0.00
 000297,0.00000354,-0.00000026,0.00000242,0.00000302,-0.00000705,0.0000
 0157,-0.00000172,-0.00000176,0.00000144,0.00000452,0.00000027,0.000001
 23,0.00000241,0.00000070,-0.00000158,0.00000308,-0.00000246,-0.0000041
 8,-0.00000329,-0.00000153,-0.00000025,0.00000198,-0.00000063,0.0000020
 9,0.00000205,-0.00000147,-0.00000020,0.00000028,-0.00000236,-0.0000070
 1,-0.00000112,0.00000159,-0.00000041,-0.00000207,0.00000043,0.00000344
 ,-0.00000104,0.00000209,0.00000029,0.00000157,0.00000953,-0.00000660,0
 .00000604,0.00000034,0.00000091,0.00000339,0.00000129,-0.00000112,-0.0
 0000210,-0.00000180,0.00000625,-0.00000084,-0.00000110,0.00000038,0.00
 000240,-0.00000423,-0.00000277,0.00000259,0.00000165,-0.00000480,-0.00
 000209,-0.00000352,0.00000151,0.00000225,-0.00000122,0.00000158,-0.000
 00359,0.00000021,-0.00000100,-0.00000076,-0.00000144,0.00000360,0.0000
 0554,-0.00000090,0.00000042,0.00000061,0.00000129,-0.00000198,-0.00000
 250,0.00000307,0.00000732,0.00000865,0.00000381,-0.00000203,-0.0000032
 1,-0.00000215,0.00000271,-0.00000096,-0.00000143,0.00000035,-0.0000003
 3,-0.00000258,0.00000108,-0.00000133,0.00000713,-0.00000397,0.00000236
 ,-0.00000128,0.00000300,-0.00000437,-0.00000188,0.00000391,-0.00000066
 ,-0.00000273,-0.00000873,-0.00000253,0.00000068,-0.00000299,-0.0000063
 8,0.00000648,0.00000107,-0.00000336,-0.00000041,-0.00000256,-0.0000092
 3,-0.00000171,-0.00000084,0.00000541,0.00000550,-0.00000859,0.00000774
 ,0.00000531,0.00000285,0.00000252,0.00000484,0.00000064,0.00000998,-0.
 00000304,0.00000115,-0.00000009\\\@
 The archive entry for this job was punched.


 NOTHING RESEMBLES A NEW PHENOMENON AS MUCH AS A MISTAKE.

                               -- ENRICO FERMI (?)
 Job cpu time:       2 days  1 hours  0 minutes 37.4 seconds.
 Elapsed time:       0 days  3 hours  7 minutes 15.2 seconds.
 File lengths (MBytes):  RWF=   9700 Int=      0 D2E=      0 Chk=     55 Scr=      1
 Normal termination of Gaussian 16 at Sat Dec  7 22:00:34 2024.
