/mnt/lustre/scratch/nvme/SLURM/9663538/usccqdma.myTwzMOdRM
OMP_STACKSIZE=0m
GAUSS_PDEF=16
GAUSS_MDEF=65536MB
GAUSS_RDEF=SCF=Direct
 Entering Gaussian System, Link 0=g16.exe
 Initial command:
 /opt/cesga/2020/software/Core/g16/c1/l1.exe "/mnt/lustre/scratch/nvme/SLURM/9663538/usccqdma.myTwzMOdRM/Gau-3953004.inp" -scrdir="/mnt/lustre/scratch/nvme/SLURM/9663538/usccqdma.myTwzMOdRM/"
 Default is to use a total of  16 processors:
                               16 via shared-memory
                                1 via Linda
 Entering Link 1 = /opt/cesga/2020/software/Core/g16/c1/l1.exe PID=   3953035.
  
 Copyright (c) 1988-2019, Gaussian, Inc.  All Rights Reserved.
  
 This is part of the Gaussian(R) 16 program.  It is based on
 the Gaussian(R) 09 system (copyright 2009, Gaussian, Inc.),
 the Gaussian(R) 03 system (copyright 2003, Gaussian, Inc.),
 the Gaussian(R) 98 system (copyright 1998, Gaussian, Inc.),
 the Gaussian(R) 94 system (copyright 1995, Gaussian, Inc.),
 the Gaussian 92(TM) system (copyright 1992, Gaussian, Inc.),
 the Gaussian 90(TM) system (copyright 1990, Gaussian, Inc.),
 the Gaussian 88(TM) system (copyright 1988, Gaussian, Inc.),
 the Gaussian 86(TM) system (copyright 1986, Carnegie Mellon
 University), and the Gaussian 82(TM) system (copyright 1983,
 Carnegie Mellon University). Gaussian is a federally registered
 trademark of Gaussian, Inc.
  
 This software contains proprietary and confidential information,
 including trade secrets, belonging to Gaussian, Inc.
  
 This software is provided under written license and may be
 used, copied, transmitted, or stored only in accord with that
 written license.
  
 The following legend is applicable only to US Government
 contracts under FAR:
  
                    RESTRICTED RIGHTS LEGEND
  
 Use, reproduction and disclosure by the US Government is
 subject to restrictions as set forth in subparagraphs (a)
 and (c) of the Commercial Computer Software - Restricted
 Rights clause in FAR 52.227-19.
  
 Gaussian, Inc.
 340 Quinnipiac St., Bldg. 40, Wallingford CT 06492
  
  
 ---------------------------------------------------------------
 Warning -- This program may not be used in any manner that
 competes with the business of Gaussian, Inc. or will provide
 assistance to any competitor of Gaussian, Inc.  The licensee
 of this program is prohibited from giving any competitor of
 Gaussian, Inc. access to this program.  By using this program,
 the user acknowledges that Gaussian, Inc. is engaged in the
 business of creating and licensing software in the field of
 computational chemistry and represents and warrants to the
 licensee that it is not a competitor of Gaussian, Inc. and that
 it will not use this program in any manner prohibited above.
 ---------------------------------------------------------------
  

 Cite this work as:
 Gaussian 16, Revision C.01,
 M. J. Frisch, G. W. Trucks, H. B. Schlegel, G. E. Scuseria, 
 M. A. Robb, J. R. Cheeseman, G. Scalmani, V. Barone, 
 G. A. Petersson, H. Nakatsuji, X. Li, M. Caricato, A. V. Marenich, 
 J. Bloino, B. G. Janesko, R. Gomperts, B. Mennucci, H. P. Hratchian, 
 J. V. Ortiz, A. F. Izmaylov, J. L. Sonnenberg, D. Williams-Young, 
 F. Ding, F. Lipparini, F. Egidi, J. Goings, B. Peng, A. Petrone, 
 T. Henderson, D. Ranasinghe, V. G. Zakrzewski, J. Gao, N. Rega, 
 G. Zheng, W. Liang, M. Hada, M. Ehara, K. Toyota, R. Fukuda, 
 J. Hasegawa, M. Ishida, T. Nakajima, Y. Honda, O. Kitao, H. Nakai, 
 T. Vreven, K. Throssell, J. A. Montgomery, Jr., J. E. Peralta, 
 F. Ogliaro, M. J. Bearpark, J. J. Heyd, E. N. Brothers, K. N. Kudin, 
 V. N. Staroverov, T. A. Keith, R. Kobayashi, J. Normand, 
 K. Raghavachari, A. P. Rendell, J. C. Burant, S. S. Iyengar, 
 J. Tomasi, M. Cossi, J. M. Millam, M. Klene, C. Adamo, R. Cammi, 
 J. W. Ochterski, R. L. Martin, K. Morokuma, O. Farkas, 
 J. B. Foresman, and D. J. Fox, Gaussian, Inc., Wallingford CT, 2019.
 
 ******************************************
 Gaussian 16:  ES64L-G16RevC.01  3-Jul-2019
                 7-Dec-2024 
 ******************************************
 Default route: SCF=Direct
 ----------------------------------------------------
 # m06/genecp scf=tight int=ultrafine 5d freq=noraman
 ----------------------------------------------------
 1/10=4,30=1,38=1/1,3;
 2/12=2,17=6,18=5,40=1/2;
 3/5=7,8=1,11=2,16=1,17=8,25=1,30=1,71=2,74=-54,75=-5,140=1/1,2,3;
 4//1;
 5/5=2,32=2,38=5,98=1/2;
 8/6=4,10=90,11=11/1;
 11/6=1,8=1,9=11,15=111,16=1/1,2,10;
 10/6=1/2;
 6/7=2,8=2,9=2,10=2,28=1/1;
 7/8=1,10=1,25=1/1,2,3,16;
 1/10=4,30=1/3;
 99//99;
 ------
 OPT-TS
 ------
 Symbolic Z-matrix:
 Charge =  0 Multiplicity = 1
 C                    -1.5255    3.47963  -0.98362 
 C                    -1.53145   4.8673   -0.9291 
 C                    -0.36159   5.52471  -0.56727 
 C                     0.76586   4.77527  -0.26103 
 C                     3.10187   2.98436   0.3134 
 C                     4.10834   2.09953   0.66868 
 C                     3.81239   0.74406   0.72475 
 C                     2.53049   0.31818   0.40426 
 H                     2.23545  -0.7343    0.44472 
 C                     1.82981   2.50199   0.00961 
 C                     0.69822   3.38469  -0.33906 
 C                     1.01867  -3.47195  -0.16544 
 C                    -0.25698  -3.76975  -1.00206 
 C                     2.29329  -3.45743  -1.00283 
 H                     2.17227  -2.82706  -1.89428 
 H                     2.59044  -4.46469  -1.32454 
 H                     3.11307  -3.04076  -0.40076 
 C                     1.21413  -4.35134   1.05289 
 H                     2.12997  -4.05266   1.58064 
 H                     1.31835  -5.40721   0.7635 
 H                     0.37688  -4.25892   1.75283 
 C                    -0.0499   -4.73414  -2.1535 
 H                    -0.99866  -4.88285  -2.68471 
 H                     0.29233  -5.71395  -1.78896 
 H                     0.68071  -4.35294  -2.87551 
 C                    -1.43107  -4.2292   -0.14589 
 H                    -1.60119  -3.53702   0.68865 
 H                    -1.28382  -5.24623   0.24335 
 H                    -2.33408  -4.22741  -0.77092 
 B                    -0.06475  -1.5097   -0.67939 
 N                    -0.43648   2.75618  -0.70732 
 N                     1.56325   1.17139   0.04545 
 O                     0.78275  -2.12459   0.26145 
 O                    -0.59042  -2.47883  -1.52443 
 Ir                   -0.33147   0.49394  -0.76072 
 B                    -2.0465    0.08729   0.16015 
 O                    -3.05998   1.03937   0.31088 
 O                    -2.40965  -1.10444   0.7735 
 C                    -4.01748   0.50552   1.23717 
 C                    -3.80983  -1.02629   1.07105 
 C                    -3.64053   1.00676   2.62526 
 C                    -5.39935   1.00398   0.86451 
 C                    -4.10251  -1.85147   2.30741 
 C                    -4.55342  -1.59994  -0.12881 
 H                    -2.65176   0.63551   2.92393 
 H                    -4.37416   0.70423   3.38475 
 H                    -3.59889   2.10323   2.60511 
 H                    -5.45766   2.08982   1.01618 
 H                    -6.1676    0.53385   1.49528 
 H                    -5.63361   0.79598  -0.18528 
 H                    -3.93191  -2.91444   2.09142 
 H                    -5.1509   -1.73415   2.61803 
 H                    -3.45378  -1.5701    3.14408 
 H                    -4.36992  -1.00281  -1.03174 
 H                    -5.63671  -1.65685   0.04488 
 H                    -4.17804  -2.61325  -0.31997 
 H                    -2.41404   2.90382  -1.23535 
 H                    -1.61872   0.11914  -1.6691 
 H                    -0.32709   6.61084  -0.51304 
 H                     1.68085   5.27434   0.04813 
 H                     3.31439   4.04865   0.2637 
 H                     5.10794   2.45741   0.90367 
 C                     4.84452  -0.2904    1.05462 
 F                     4.36926  -1.19712   1.9106 
 F                     5.22637  -0.95085  -0.04463 
 F                     5.93674   0.25838   1.5952 
 H                    -2.43931   5.41643  -1.16547 
 

 GradGradGradGradGradGradGradGradGradGradGradGradGradGradGradGradGradGrad
 Berny optimization.
 Initialization pass.
 Trust Radius=3.00D-01 FncErr=1.00D-07 GrdErr=1.00D-07 EigMax=2.50D+02 EigMin=1.00D-04
 Number of steps in this run=      2 maximum allowed number of steps=      2.
 GradGradGradGradGradGradGradGradGradGradGradGradGradGradGradGradGradGrad

 Stoichiometry    C23H32B2F3IrN2O4
 Framework group  C1[X(C23H32B2F3IrN2O4)]
 Deg. of freedom   195
 Full point group                 C1      NOp   1
 Largest Abelian subgroup         C1      NOp   1
 Largest concise Abelian subgroup C1      NOp   1
                         Standard orientation:                         
 ---------------------------------------------------------------------
 Center     Atomic      Atomic             Coordinates (Angstroms)
 Number     Number       Type             X           Y           Z
 ---------------------------------------------------------------------
      1          6           0       -1.525501    3.479629   -0.983621
      2          6           0       -1.531452    4.867298   -0.929101
      3          6           0       -0.361592    5.524709   -0.567271
      4          6           0        0.765858    4.775270   -0.261031
      5          6           0        3.101869    2.984362    0.313399
      6          6           0        4.108340    2.099532    0.668679
      7          6           0        3.812391    0.744062    0.724749
      8          6           0        2.530491    0.318181    0.404259
      9          1           0        2.235452   -0.734299    0.444719
     10          6           0        1.829810    2.501991    0.009609
     11          6           0        0.698219    3.384690   -0.339061
     12          6           0        1.018674   -3.471950   -0.165441
     13          6           0       -0.256976   -3.769751   -1.002061
     14          6           0        2.293294   -3.457429   -1.002831
     15          1           0        2.172273   -2.827059   -1.894281
     16          1           0        2.590444   -4.464689   -1.324541
     17          1           0        3.113073   -3.040758   -0.400761
     18          6           0        1.214134   -4.351340    1.052889
     19          1           0        2.129974   -4.052659    1.580639
     20          1           0        1.318355   -5.407210    0.763499
     21          1           0        0.376884   -4.258920    1.752829
     22          6           0       -0.049896   -4.734141   -2.153501
     23          1           0       -0.998655   -4.882851   -2.684711
     24          1           0        0.292335   -5.713950   -1.788961
     25          1           0        0.680714   -4.352940   -2.875511
     26          6           0       -1.431066   -4.229201   -0.145891
     27          1           0       -1.601186   -3.537022    0.688649
     28          1           0       -1.283815   -5.246231    0.243349
     29          1           0       -2.334076   -4.227412   -0.770921
     30          5           0       -0.064748   -1.509701   -0.679391
     31          7           0       -0.436480    2.756179   -0.707321
     32          7           0        1.563251    1.171391    0.045449
     33          8           0        0.782753   -2.124590    0.261449
     34          8           0       -0.590417   -2.478831   -1.524431
     35         77           0       -0.331469    0.493939   -0.760721
     36          5           0       -2.046499    0.087288    0.160149
     37          8           0       -3.059979    1.039367    0.310879
     38          8           0       -2.409648   -1.104442    0.773499
     39          6           0       -4.017479    0.505517    1.237169
     40          6           0       -3.809828   -1.026293    1.071049
     41          6           0       -3.640529    1.006757    2.625259
     42          6           0       -5.399349    1.003976    0.864509
     43          6           0       -4.102507   -1.851473    2.307409
     44          6           0       -4.553418   -1.599944   -0.128811
     45          1           0       -2.651759    0.635508    2.923929
     46          1           0       -4.374159    0.704227    3.384749
     47          1           0       -3.598890    2.103227    2.605109
     48          1           0       -5.457660    2.089816    1.016179
     49          1           0       -6.167599    0.533845    1.495279
     50          1           0       -5.633609    0.795976   -0.185281
     51          1           0       -3.931907   -2.914443    2.091419
     52          1           0       -5.150898   -1.734154    2.618029
     53          1           0       -3.453778   -1.570103    3.144079
     54          1           0       -4.369918   -1.002813   -1.031741
     55          1           0       -5.636708   -1.656854    0.044879
     56          1           0       -4.178037   -2.613253   -0.319971
     57          1           0       -2.414041    2.903818   -1.235351
     58          1           0       -1.618719    0.119138   -1.669101
     59          1           0       -0.327093    6.610839   -0.513041
     60          1           0        1.680848    5.274341    0.048129
     61          1           0        3.314389    4.048652    0.263699
     62          1           0        5.107940    2.457413    0.903669
     63          6           0        4.844522   -0.290397    1.054619
     64          9           0        4.369262   -1.197118    1.910599
     65          9           0        5.226372   -0.950847   -0.044631
     66          9           0        5.936741    0.258383    1.595199
     67          1           0       -2.439312    5.416428   -1.165471
 ---------------------------------------------------------------------
 Rotational constants (GHZ):           0.1175165           0.0935996           0.0611307
 General basis read from cards:  (5D, 7F)
 ======================================================================================================
                                       Pseudopotential Parameters
 ======================================================================================================
  Center     Atomic      Valence      Angular      Power
  Number     Number     Electrons     Momentum     of R      Exponent        Coefficient   SO-Coeffient
 ======================================================================================================
    1          6
                                   No pseudopotential on this center.
    2          6
                                   No pseudopotential on this center.
    3          6
                                   No pseudopotential on this center.
    4          6
                                   No pseudopotential on this center.
    5          6
                                   No pseudopotential on this center.
    6          6
                                   No pseudopotential on this center.
    7          6
                                   No pseudopotential on this center.
    8          6
                                   No pseudopotential on this center.
    9          1
                                   No pseudopotential on this center.
   10          6
                                   No pseudopotential on this center.
   11          6
                                   No pseudopotential on this center.
   12          6
                                   No pseudopotential on this center.
   13          6
                                   No pseudopotential on this center.
   14          6
                                   No pseudopotential on this center.
   15          1
                                   No pseudopotential on this center.
   16          1
                                   No pseudopotential on this center.
   17          1
                                   No pseudopotential on this center.
   18          6
                                   No pseudopotential on this center.
   19          1
                                   No pseudopotential on this center.
   20          1
                                   No pseudopotential on this center.
   21          1
                                   No pseudopotential on this center.
   22          6
                                   No pseudopotential on this center.
   23          1
                                   No pseudopotential on this center.
   24          1
                                   No pseudopotential on this center.
   25          1
                                   No pseudopotential on this center.
   26          6
                                   No pseudopotential on this center.
   27          1
                                   No pseudopotential on this center.
   28          1
                                   No pseudopotential on this center.
   29          1
                                   No pseudopotential on this center.
   30          5
                                   No pseudopotential on this center.
   31          7
                                   No pseudopotential on this center.
   32          7
                                   No pseudopotential on this center.
   33          8
                                   No pseudopotential on this center.
   34          8
                                   No pseudopotential on this center.
   35         77           17
                                      G and up 
                                                     1      823.5880147       -0.15780140    0.00000000
                                                     2      364.6613336    -1517.52704460    0.00000000
                                                     2       55.7082801     -316.53065290    0.00000000
                                                     2       12.0464544      -91.88809410    0.00000000
                                                     2        3.5120610       -9.22417730    0.00000000
                                      S - G
                                                     0      188.0490770        3.15780140    0.00000000
                                                     1      340.4194712       26.83225770    0.00000000
                                                     2      128.2373673      800.42500070    0.00000000
                                                     2       33.8644961      369.40506830    0.00000000
                                                     2        4.7560005      242.41718990    0.00000000
                                                     2        3.9649974     -118.21732820    0.00000000
                                      P - G
                                                     0      289.7291139        2.15780140    0.00000000
                                                     1       87.4633789       61.96786100    0.00000000
                                                     2       30.4363766      269.05819860    0.00000000
                                                     2        4.0553412      231.16547930    0.00000000
                                                     2        3.5525341     -133.69526670    0.00000000
                                      D - G
                                                     0      136.4017106        3.15780140    0.00000000
                                                     1       95.0776925       45.93498030    0.00000000
                                                     2       49.2258410      359.03446680    0.00000000
                                                     2       15.0874145      176.47401190    0.00000000
                                                     2        4.0405764       54.51552860    0.00000000
                                      F - G
                                                     0      127.3507908        3.95461970    0.00000000
                                                     1       66.2364374       52.97736550    0.00000000
                                                     2       34.4299229      274.86433830    0.00000000
                                                     2       10.1995721      137.20473380    0.00000000
                                                     2        2.5409702       14.86333050    0.00000000
   36          5
                                   No pseudopotential on this center.
   37          8
                                   No pseudopotential on this center.
   38          8
                                   No pseudopotential on this center.
   39          6
                                   No pseudopotential on this center.
   40          6
                                   No pseudopotential on this center.
   41          6
                                   No pseudopotential on this center.
   42          6
                                   No pseudopotential on this center.
   43          6
                                   No pseudopotential on this center.
   44          6
                                   No pseudopotential on this center.
   45          1
                                   No pseudopotential on this center.
   46          1
                                   No pseudopotential on this center.
   47          1
                                   No pseudopotential on this center.
   48          1
                                   No pseudopotential on this center.
   49          1
                                   No pseudopotential on this center.
   50          1
                                   No pseudopotential on this center.
   51          1
                                   No pseudopotential on this center.
   52          1
                                   No pseudopotential on this center.
   53          1
                                   No pseudopotential on this center.
   54          1
                                   No pseudopotential on this center.
   55          1
                                   No pseudopotential on this center.
   56          1
                                   No pseudopotential on this center.
   57          1
                                   No pseudopotential on this center.
   58          1
                                   No pseudopotential on this center.
   59          1
                                   No pseudopotential on this center.
   60          1
                                   No pseudopotential on this center.
   61          1
                                   No pseudopotential on this center.
   62          1
                                   No pseudopotential on this center.
   63          6
                                   No pseudopotential on this center.
   64          9
                                   No pseudopotential on this center.
   65          9
                                   No pseudopotential on this center.
   66          9
                                   No pseudopotential on this center.
   67          1
                                   No pseudopotential on this center.
 ======================================================================================================
 There are   598 symmetry adapted cartesian basis functions of A   symmetry.
 There are   562 symmetry adapted basis functions of A   symmetry.
   562 basis functions,  1123 primitive gaussians,   598 cartesian basis functions
   135 alpha electrons      135 beta electrons
       nuclear repulsion energy      4345.0484559322 Hartrees.
 NAtoms=   67 NActive=   67 NUniq=   67 SFac= 1.00D+00 NAtFMM=   60 NAOKFM=T Big=T
 Integral buffers will be    131072 words long.
 Raffenetti 2 integral format.
 Two-electron integral symmetry is turned on.
 One-electron integrals computed using PRISM.
   1 Symmetry operations used in ECPInt.
 ECPInt:  NShTT=   21736 NPrTT=  135140 LenC2=   17129 LenP2D=   57010.
 LDataN:  DoStor=T MaxTD1= 6 Len=  172
 NBasis=   562 RedAO= T EigKep=  5.02D-04  NBF=   562
 NBsUse=   562 1.00D-06 EigRej= -1.00D+00 NBFU=   562
 Defaulting to unpruned grid for atomic number  77.
 ExpMin= 2.90D-02 ExpMax= 7.00D+03 ExpMxC= 1.05D+03 IAcc=3 IRadAn=         5 AccDes= 0.00D+00
 Harris functional with IExCor= 1009 and IRadAn=       5 diagonalized for initial guess.
 HarFok:  IExCor= 1009 AccDes= 0.00D+00 IRadAn=         5 IDoV= 1 UseB2=F ITyADJ=14
 ICtDFT=  3500011 ScaDFX=  1.000000  1.000000  1.000000  1.000000
 Defaulting to unpruned grid for atomic number  77.
 FoFCou: FMM=F IPFlag=           0 FMFlag=      100000 FMFlg1=        2001
         NFxFlg=           0 DoJE=T BraDBF=F KetDBF=T FulRan=T
         wScrn=  0.000000 ICntrl=       500 IOpCl=  0 I1Cent=   200000004 NGrid=           0
         NMat0=    1 NMatS0=      1 NMatT0=    0 NMatD0=    1 NMtDS0=    0 NMtDT0=    0
 Petite list used in FoFCou.
 Requested convergence on RMS density matrix=1.00D-08 within 128 cycles.
 Requested convergence on MAX density matrix=1.00D-06.
 Requested convergence on             energy=1.00D-06.
 No special actions if energy rises.
 Defaulting to unpruned grid for atomic number  77.
 Defaulting to unpruned grid for atomic number  77.
 Defaulting to unpruned grid for atomic number  77.
 Defaulting to unpruned grid for atomic number  77.
 Defaulting to unpruned grid for atomic number  77.
 Defaulting to unpruned grid for atomic number  77.
 Defaulting to unpruned grid for atomic number  77.
 Defaulting to unpruned grid for atomic number  77.
 Defaulting to unpruned grid for atomic number  77.
 Defaulting to unpruned grid for atomic number  77.
 Defaulting to unpruned grid for atomic number  77.
 Defaulting to unpruned grid for atomic number  77.
 Defaulting to unpruned grid for atomic number  77.
 Defaulting to unpruned grid for atomic number  77.
 Defaulting to unpruned grid for atomic number  77.
 Defaulting to unpruned grid for atomic number  77.
 EnCoef did     8 forward-backward iterations
 EnCoef did     4 forward-backward iterations
 SCF Done:  E(RM06) =  -1759.26588201     A.U. after   18 cycles
            NFock= 18  Conv=0.78D-08     -V/T= 2.0486
 DoSCS=F DFT=T ScalE2(SS,OS)=  1.000000  1.000000
 Range of M.O.s used for correlation:     1   562
 NBasis=   562 NAE=   135 NBE=   135 NFC=     0 NFV=     0
 NROrb=    562 NOA=   135 NOB=   135 NVA=   427 NVB=   427
   1 Symmetry operations used in ECPInt.
 ECPInt:  NShTT=   21736 NPrTT=  135140 LenC2=   17129 LenP2D=   57010.
 LDataN:  DoStor=T MaxTD1= 7 Len=  274
 Number of processors reduced to  15 by ecpmxn.
 Symmetrizing basis deriv contribution to polar:
 IMax=3 JMax=2 DiffMx= 0.00D+00
 G2DrvN: will do    68 centers at a time, making    1 passes.
 Calling FoFCou, ICntrl=  3107 FMM=T I1Cent=   0 AccDes= 0.00D+00.
 Defaulting to unpruned grid for atomic number  77.
 Defaulting to unpruned grid for atomic number  77.
 Defaulting to unpruned grid for atomic number  77.
 Defaulting to unpruned grid for atomic number  77.
 Defaulting to unpruned grid for atomic number  77.
 Defaulting to unpruned grid for atomic number  77.
 Defaulting to unpruned grid for atomic number  77.
 Defaulting to unpruned grid for atomic number  77.
 Defaulting to unpruned grid for atomic number  77.
 Defaulting to unpruned grid for atomic number  77.
 Defaulting to unpruned grid for atomic number  77.
 Defaulting to unpruned grid for atomic number  77.
 Defaulting to unpruned grid for atomic number  77.
 Defaulting to unpruned grid for atomic number  77.
 Defaulting to unpruned grid for atomic number  77.
 Defaulting to unpruned grid for atomic number  77.
 End of G2Drv F.D. properties file   721 does not exist.
 End of G2Drv F.D. properties file   722 does not exist.
 End of G2Drv F.D. properties file   788 does not exist.
          IDoAtm=11111111111111111111111111111111111111111111111111
          IDoAtm=11111111111111111
          Differentiating once with respect to electric field.
                with respect to dipole field.
          Differentiating once with respect to nuclear coordinates.
 Defaulting to unpruned grid for atomic number  77.
 CalDSu exits because no D1Ps are significant.
 Defaulting to unpruned grid for atomic number  77.
 Defaulting to unpruned grid for atomic number  77.
 Defaulting to unpruned grid for atomic number  77.
 Defaulting to unpruned grid for atomic number  77.
 Defaulting to unpruned grid for atomic number  77.
 Defaulting to unpruned grid for atomic number  77.
 Defaulting to unpruned grid for atomic number  77.
 Defaulting to unpruned grid for atomic number  77.
 Defaulting to unpruned grid for atomic number  77.
 Defaulting to unpruned grid for atomic number  77.
 Defaulting to unpruned grid for atomic number  77.
 Defaulting to unpruned grid for atomic number  77.
 Defaulting to unpruned grid for atomic number  77.
 Defaulting to unpruned grid for atomic number  77.
 Defaulting to unpruned grid for atomic number  77.
 Defaulting to unpruned grid for atomic number  77.
          There are   204 degrees of freedom in the 1st order CPHF.  IDoFFX=6 NUNeed=     3.
    201 vectors produced by pass  0 Test12= 5.76D-14 1.00D-09 XBig12= 4.80D+02 9.23D+00.
 AX will form    72 AO Fock derivatives at one time.
    201 vectors produced by pass  1 Test12= 5.76D-14 1.00D-09 XBig12= 5.72D+01 1.19D+00.
    201 vectors produced by pass  2 Test12= 5.76D-14 1.00D-09 XBig12= 8.81D-01 1.36D-01.
    201 vectors produced by pass  3 Test12= 5.76D-14 1.00D-09 XBig12= 6.20D-03 8.41D-03.
    201 vectors produced by pass  4 Test12= 5.76D-14 1.00D-09 XBig12= 2.29D-05 4.49D-04.
    187 vectors produced by pass  5 Test12= 5.76D-14 1.00D-09 XBig12= 5.62D-08 2.22D-05.
     66 vectors produced by pass  6 Test12= 5.76D-14 1.00D-09 XBig12= 8.59D-11 6.64D-07.
      3 vectors produced by pass  7 Test12= 5.76D-14 1.00D-09 XBig12= 1.24D-13 2.78D-08.
 InvSVY:  IOpt=1 It=  1 EMax= 1.42D-14
 Solved reduced A of dimension  1261 with   204 vectors.
 Isotropic polarizability for W=    0.000000      348.60 Bohr**3.
 End of Minotr F.D. properties file   721 does not exist.
 End of Minotr F.D. properties file   722 does not exist.
 End of Minotr F.D. properties file   788 does not exist.

 **********************************************************************

            Population analysis using the SCF Density.

 **********************************************************************

 Orbital symmetries:
       Occupied  (A) (A) (A) (A) (A) (A) (A) (A) (A) (A) (A) (A)
                 (A) (A) (A) (A) (A) (A) (A) (A) (A) (A) (A) (A)
                 (A) (A) (A) (A) (A) (A) (A) (A) (A) (A) (A) (A)
                 (A) (A) (A) (A) (A) (A) (A) (A) (A) (A) (A) (A)
                 (A) (A) (A) (A) (A) (A) (A) (A) (A) (A) (A) (A)
                 (A) (A) (A) (A) (A) (A) (A) (A) (A) (A) (A) (A)
                 (A) (A) (A) (A) (A) (A) (A) (A) (A) (A) (A) (A)
                 (A) (A) (A) (A) (A) (A) (A) (A) (A) (A) (A) (A)
                 (A) (A) (A) (A) (A) (A) (A) (A) (A) (A) (A) (A)
                 (A) (A) (A) (A) (A) (A) (A) (A) (A) (A) (A) (A)
                 (A) (A) (A) (A) (A) (A) (A) (A) (A) (A) (A) (A)
                 (A) (A) (A)
       Virtual   (A) (A) (A) (A) (A) (A) (A) (A) (A) (A) (A) (A)
                 (A) (A) (A) (A) (A) (A) (A) (A) (A) (A) (A) (A)
                 (A) (A) (A) (A) (A) (A) (A) (A) (A) (A) (A) (A)
                 (A) (A) (A) (A) (A) (A) (A) (A) (A) (A) (A) (A)
                 (A) (A) (A) (A) (A) (A) (A) (A) (A) (A) (A) (A)
                 (A) (A) (A) (A) (A) (A) (A) (A) (A) (A) (A) (A)
                 (A) (A) (A) (A) (A) (A) (A) (A) (A) (A) (A) (A)
                 (A) (A) (A) (A) (A) (A) (A) (A) (A) (A) (A) (A)
                 (A) (A) (A) (A) (A) (A) (A) (A) (A) (A) (A) (A)
                 (A) (A) (A) (A) (A) (A) (A) (A) (A) (A) (A) (A)
                 (A) (A) (A) (A) (A) (A) (A) (A) (A) (A) (A) (A)
                 (A) (A) (A) (A) (A) (A) (A) (A) (A) (A) (A) (A)
                 (A) (A) (A) (A) (A) (A) (A) (A) (A) (A) (A) (A)
                 (A) (A) (A) (A) (A) (A) (A) (A) (A) (A) (A) (A)
                 (A) (A) (A) (A) (A) (A) (A) (A) (A) (A) (A) (A)
                 (A) (A) (A) (A) (A) (A) (A) (A) (A) (A) (A) (A)
                 (A) (A) (A) (A) (A) (A) (A) (A) (A) (A) (A) (A)
                 (A) (A) (A) (A) (A) (A) (A) (A) (A) (A) (A) (A)
                 (A) (A) (A) (A) (A) (A) (A) (A) (A) (A) (A) (A)
                 (A) (A) (A) (A) (A) (A) (A) (A) (A) (A) (A) (A)
                 (A) (A) (A) (A) (A) (A) (A) (A) (A) (A) (A) (A)
                 (A) (A) (A) (A) (A) (A) (A) (A) (A) (A) (A) (A)
                 (A) (A) (A) (A) (A) (A) (A) (A) (A) (A) (A) (A)
                 (A) (A) (A) (A) (A) (A) (A) (A) (A) (A) (A) (A)
                 (A) (A) (A) (A) (A) (A) (A) (A) (A) (A) (A) (A)
                 (A) (A) (A) (A) (A) (A) (A) (A) (A) (A) (A) (A)
                 (A) (A) (A) (A) (A) (A) (A) (A) (A) (A) (A) (A)
                 (A) (A) (A) (A) (A) (A) (A) (A) (A) (A) (A) (A)
                 (A) (A) (A) (A) (A) (A) (A) (A) (A) (A) (A) (A)
                 (A) (A) (A) (A) (A) (A) (A) (A) (A) (A) (A) (A)
                 (A) (A) (A) (A) (A) (A) (A) (A) (A) (A) (A) (A)
                 (A) (A) (A) (A) (A) (A) (A) (A) (A) (A) (A) (A)
                 (A) (A) (A) (A) (A) (A) (A) (A) (A) (A) (A) (A)
                 (A) (A) (A) (A) (A) (A) (A) (A) (A) (A) (A) (A)
                 (A) (A) (A) (A) (A) (A) (A) (A) (A) (A) (A) (A)
                 (A) (A) (A) (A) (A) (A) (A)
 The electronic state is 1-A.
 Alpha  occ. eigenvalues --  -24.83609 -24.83068 -24.82833 -19.19888 -19.19580
 Alpha  occ. eigenvalues --  -19.19055 -19.18323 -14.46693 -14.44958 -10.51764
 Alpha  occ. eigenvalues --  -10.33784 -10.32685 -10.31666 -10.30800 -10.30729
 Alpha  occ. eigenvalues --  -10.30017 -10.29808 -10.29500 -10.29125 -10.29097
 Alpha  occ. eigenvalues --  -10.28893 -10.28368 -10.28250 -10.27865 -10.22707
 Alpha  occ. eigenvalues --  -10.22378 -10.22227 -10.21856 -10.21832 -10.21762
 Alpha  occ. eigenvalues --  -10.21570 -10.20754  -6.80367  -6.77291  -3.60013
 Alpha  occ. eigenvalues --   -2.03443  -2.01607  -2.01084  -1.36098  -1.27627
 Alpha  occ. eigenvalues --   -1.27033  -1.05790  -1.04677  -1.01195  -0.98861
 Alpha  occ. eigenvalues --   -0.98421  -0.97705  -0.87040  -0.84610  -0.84248
 Alpha  occ. eigenvalues --   -0.80069  -0.79763  -0.79172  -0.74560  -0.74326
 Alpha  occ. eigenvalues --   -0.73685  -0.70088  -0.69476  -0.69336  -0.69302
 Alpha  occ. eigenvalues --   -0.67380  -0.66543  -0.65961  -0.64958  -0.62079
 Alpha  occ. eigenvalues --   -0.61994  -0.61386  -0.61163  -0.60291  -0.57709
 Alpha  occ. eigenvalues --   -0.54631  -0.54266  -0.53287  -0.53171  -0.52811
 Alpha  occ. eigenvalues --   -0.51943  -0.50996  -0.49645  -0.49558  -0.49250
 Alpha  occ. eigenvalues --   -0.48043  -0.47604  -0.47261  -0.46637  -0.46034
 Alpha  occ. eigenvalues --   -0.45814  -0.45569  -0.45279  -0.45095  -0.45044
 Alpha  occ. eigenvalues --   -0.44400  -0.44119  -0.43417  -0.43323  -0.43270
 Alpha  occ. eigenvalues --   -0.43079  -0.42301  -0.40679  -0.40586  -0.40166
 Alpha  occ. eigenvalues --   -0.39794  -0.39385  -0.38960  -0.38877  -0.38778
 Alpha  occ. eigenvalues --   -0.38400  -0.38112  -0.37616  -0.37221  -0.36400
 Alpha  occ. eigenvalues --   -0.36314  -0.35726  -0.35443  -0.35308  -0.34929
 Alpha  occ. eigenvalues --   -0.34807  -0.34608  -0.33729  -0.33356  -0.33053
 Alpha  occ. eigenvalues --   -0.32472  -0.31686  -0.30765  -0.30315  -0.30177
 Alpha  occ. eigenvalues --   -0.29754  -0.28906  -0.27938  -0.26860  -0.25822
 Alpha  occ. eigenvalues --   -0.24910  -0.23855  -0.20942  -0.19336  -0.19084
 Alpha virt. eigenvalues --   -0.08869  -0.05436  -0.03835  -0.00313   0.00069
 Alpha virt. eigenvalues --    0.02526   0.03856   0.05951   0.07119   0.07873
 Alpha virt. eigenvalues --    0.08997   0.09841   0.10197   0.10722   0.11908
 Alpha virt. eigenvalues --    0.12497   0.12930   0.13648   0.13828   0.14667
 Alpha virt. eigenvalues --    0.14836   0.15062   0.15368   0.15463   0.15528
 Alpha virt. eigenvalues --    0.16005   0.16308   0.16392   0.16985   0.17129
 Alpha virt. eigenvalues --    0.17724   0.18030   0.18302   0.18682   0.18778
 Alpha virt. eigenvalues --    0.19208   0.19467   0.19650   0.19768   0.20224
 Alpha virt. eigenvalues --    0.20434   0.20790   0.21031   0.21301   0.21549
 Alpha virt. eigenvalues --    0.22212   0.22286   0.22784   0.23361   0.23750
 Alpha virt. eigenvalues --    0.24134   0.24407   0.24780   0.25226   0.25609
 Alpha virt. eigenvalues --    0.26448   0.26751   0.26882   0.27114   0.27577
 Alpha virt. eigenvalues --    0.28042   0.28535   0.28921   0.29281   0.29888
 Alpha virt. eigenvalues --    0.30594   0.31763   0.32413   0.32848   0.34050
 Alpha virt. eigenvalues --    0.35061   0.35699   0.36259   0.36735   0.37367
 Alpha virt. eigenvalues --    0.38290   0.39356   0.40371   0.42140   0.43129
 Alpha virt. eigenvalues --    0.44490   0.46778   0.47030   0.47421   0.49229
 Alpha virt. eigenvalues --    0.49326   0.50432   0.50988   0.51228   0.51399
 Alpha virt. eigenvalues --    0.51754   0.52302   0.52624   0.53558   0.54310
 Alpha virt. eigenvalues --    0.55080   0.55807   0.56035   0.56316   0.56896
 Alpha virt. eigenvalues --    0.57241   0.57438   0.57716   0.57986   0.58380
 Alpha virt. eigenvalues --    0.58732   0.59114   0.59265   0.59834   0.60138
 Alpha virt. eigenvalues --    0.60262   0.60585   0.60766   0.61598   0.61959
 Alpha virt. eigenvalues --    0.62768   0.63141   0.63501   0.64009   0.64354
 Alpha virt. eigenvalues --    0.64724   0.65496   0.66624   0.67176   0.67697
 Alpha virt. eigenvalues --    0.68224   0.69135   0.69973   0.70437   0.70756
 Alpha virt. eigenvalues --    0.71224   0.71769   0.72464   0.72844   0.73533
 Alpha virt. eigenvalues --    0.73806   0.74476   0.74591   0.75381   0.75762
 Alpha virt. eigenvalues --    0.76318   0.76661   0.77504   0.77837   0.78415
 Alpha virt. eigenvalues --    0.79051   0.80221   0.80780   0.81093   0.81372
 Alpha virt. eigenvalues --    0.82317   0.83412   0.83982   0.84456   0.84811
 Alpha virt. eigenvalues --    0.85099   0.85361   0.85803   0.86368   0.86564
 Alpha virt. eigenvalues --    0.87088   0.87644   0.88032   0.88391   0.88908
 Alpha virt. eigenvalues --    0.89174   0.89367   0.90195   0.90500   0.90798
 Alpha virt. eigenvalues --    0.90929   0.91417   0.91984   0.92299   0.92886
 Alpha virt. eigenvalues --    0.93068   0.94052   0.94323   0.94745   0.95075
 Alpha virt. eigenvalues --    0.95503   0.95947   0.96216   0.96586   0.97269
 Alpha virt. eigenvalues --    0.97916   0.98058   0.98391   0.98657   0.99847
 Alpha virt. eigenvalues --    1.00496   1.01107   1.02086   1.02902   1.03569
 Alpha virt. eigenvalues --    1.05388   1.06426   1.06800   1.07351   1.07993
 Alpha virt. eigenvalues --    1.08854   1.09266   1.10454   1.11704   1.12946
 Alpha virt. eigenvalues --    1.13841   1.14494   1.15868   1.16280   1.16950
 Alpha virt. eigenvalues --    1.17653   1.18247   1.18972   1.19449   1.20469
 Alpha virt. eigenvalues --    1.20807   1.21860   1.22562   1.23360   1.23945
 Alpha virt. eigenvalues --    1.24267   1.25000   1.26398   1.27216   1.27972
 Alpha virt. eigenvalues --    1.30448   1.30659   1.32386   1.32776   1.33739
 Alpha virt. eigenvalues --    1.34511   1.34928   1.35755   1.37041   1.37406
 Alpha virt. eigenvalues --    1.38200   1.39310   1.39392   1.39760   1.40617
 Alpha virt. eigenvalues --    1.40915   1.41806   1.42942   1.43345   1.44366
 Alpha virt. eigenvalues --    1.44522   1.45286   1.45481   1.45953   1.47566
 Alpha virt. eigenvalues --    1.47842   1.48593   1.50019   1.50968   1.52524
 Alpha virt. eigenvalues --    1.53844   1.55367   1.56066   1.58264   1.59288
 Alpha virt. eigenvalues --    1.59950   1.62389   1.62573   1.63757   1.64630
 Alpha virt. eigenvalues --    1.65031   1.66614   1.67919   1.68044   1.68875
 Alpha virt. eigenvalues --    1.69285   1.70010   1.71389   1.72102   1.72410
 Alpha virt. eigenvalues --    1.73135   1.74853   1.75277   1.76439   1.76906
 Alpha virt. eigenvalues --    1.78352   1.78576   1.78964   1.79533   1.79919
 Alpha virt. eigenvalues --    1.80877   1.82161   1.83035   1.83120   1.84508
 Alpha virt. eigenvalues --    1.85303   1.85541   1.85924   1.86374   1.87673
 Alpha virt. eigenvalues --    1.87881   1.88064   1.89636   1.90617   1.91329
 Alpha virt. eigenvalues --    1.91979   1.92602   1.92984   1.93271   1.93452
 Alpha virt. eigenvalues --    1.94434   1.94618   1.95263   1.95837   1.97217
 Alpha virt. eigenvalues --    1.98157   1.99254   2.00028   2.00647   2.01900
 Alpha virt. eigenvalues --    2.02008   2.02504   2.02933   2.03614   2.03770
 Alpha virt. eigenvalues --    2.04796   2.06022   2.06807   2.07198   2.08051
 Alpha virt. eigenvalues --    2.08282   2.08410   2.08749   2.09476   2.10032
 Alpha virt. eigenvalues --    2.10413   2.11499   2.11782   2.12112   2.12706
 Alpha virt. eigenvalues --    2.13624   2.14049   2.14308   2.14914   2.16038
 Alpha virt. eigenvalues --    2.16205   2.16827   2.17974   2.19151   2.19194
 Alpha virt. eigenvalues --    2.19385   2.19972   2.21154   2.22298   2.22422
 Alpha virt. eigenvalues --    2.22944   2.23856   2.24263   2.24692   2.25846
 Alpha virt. eigenvalues --    2.26159   2.26984   2.27315   2.27763   2.28550
 Alpha virt. eigenvalues --    2.29507   2.31368   2.32014   2.32492   2.33118
 Alpha virt. eigenvalues --    2.33999   2.35146   2.35339   2.38884   2.39154
 Alpha virt. eigenvalues --    2.39666   2.42979   2.43888   2.43972   2.45511
 Alpha virt. eigenvalues --    2.47306   2.48209   2.48840   2.49512   2.49837
 Alpha virt. eigenvalues --    2.50176   2.51680   2.56078   2.58704   2.59008
 Alpha virt. eigenvalues --    2.59705   2.60669   2.61284   2.63141   2.64472
 Alpha virt. eigenvalues --    2.64894   2.65801   2.67332   2.68271   2.69896
 Alpha virt. eigenvalues --    2.76340   2.77483   2.77937   2.78519   2.79004
 Alpha virt. eigenvalues --    2.79671   2.80401   2.80972   2.81383   2.81643
 Alpha virt. eigenvalues --    2.84166   2.85427   2.87105   2.87264   2.88616
 Alpha virt. eigenvalues --    2.88946   2.91786   2.93946   2.95627   2.96859
 Alpha virt. eigenvalues --    3.03716   3.04527   3.05338   3.06446   3.08647
 Alpha virt. eigenvalues --    3.10590   3.11542   3.14863   3.24817   3.29234
 Alpha virt. eigenvalues --    3.43304   8.38463
          Condensed to atoms (all electrons):
 Mulliken charges:
               1
     1  C    0.064521
     2  C   -0.176905
     3  C   -0.137166
     4  C   -0.184964
     5  C   -0.198668
     6  C   -0.146115
     7  C   -0.079995
     8  C    0.047561
     9  H    0.254341
    10  C    0.323731
    11  C    0.298334
    12  C    0.307491
    13  C    0.297143
    14  C   -0.515621
    15  H    0.176115
    16  H    0.153354
    17  H    0.152585
    18  C   -0.508192
    19  H    0.161393
    20  H    0.147259
    21  H    0.175829
    22  C   -0.509846
    23  H    0.169378
    24  H    0.143926
    25  H    0.167764
    26  C   -0.506882
    27  H    0.185947
    28  H    0.139704
    29  H    0.160263
    30  B    0.387233
    31  N   -0.507507
    32  N   -0.610004
    33  O   -0.529601
    34  O   -0.503406
    35  Ir  -0.020318
    36  B    0.449362
    37  O   -0.535505
    38  O   -0.508147
    39  C    0.303839
    40  C    0.296661
    41  C   -0.512448
    42  C   -0.511991
    43  C   -0.512099
    44  C   -0.505345
    45  H    0.180850
    46  H    0.149550
    47  H    0.164352
    48  H    0.161970
    49  H    0.151073
    50  H    0.172427
    51  H    0.169228
    52  H    0.148404
    53  H    0.172527
    54  H    0.179757
    55  H    0.146007
    56  H    0.170303
    57  H    0.220905
    58  H    0.104560
    59  H    0.184138
    60  H    0.171070
    61  H    0.179354
    62  H    0.203457
    63  C    0.971914
    64  F   -0.307383
    65  F   -0.305302
    66  F   -0.318227
    67  H    0.186058
 Sum of Mulliken charges =  -0.00000
 Mulliken charges with hydrogens summed into heavy atoms:
               1
     1  C    0.285426
     2  C    0.009154
     3  C    0.046973
     4  C   -0.013894
     5  C   -0.019314
     6  C    0.057342
     7  C   -0.079995
     8  C    0.301901
    10  C    0.323731
    11  C    0.298334
    12  C    0.307491
    13  C    0.297143
    14  C   -0.033567
    18  C   -0.023711
    22  C   -0.028778
    26  C   -0.020967
    30  B    0.387233
    31  N   -0.507507
    32  N   -0.610004
    33  O   -0.529601
    34  O   -0.503406
    35  Ir   0.084242
    36  B    0.449362
    37  O   -0.535505
    38  O   -0.508147
    39  C    0.303839
    40  C    0.296661
    41  C   -0.017697
    42  C   -0.026521
    43  C   -0.021941
    44  C   -0.009278
    63  C    0.971914
    64  F   -0.307383
    65  F   -0.305302
    66  F   -0.318227
 APT charges:
               1
     1  C    0.008044
     2  C    0.023782
     3  C    0.045973
     4  C   -0.155977
     5  C   -0.215939
     6  C    0.088142
     7  C   -0.178249
     8  C    0.012945
     9  H    0.184580
    10  C    0.225855
    11  C    0.099037
    12  C    0.521230
    13  C    0.505557
    14  C   -0.042441
    15  H    0.005469
    16  H   -0.021915
    17  H   -0.014324
    18  C   -0.013010
    19  H   -0.003952
    20  H   -0.021895
    21  H    0.004451
    22  C   -0.004592
    23  H   -0.004902
    24  H   -0.024044
    25  H   -0.002623
    26  C   -0.050453
    27  H    0.032209
    28  H   -0.034065
    29  H    0.000133
    30  B    1.311334
    31  N   -0.058920
    32  N   -0.059564
    33  O   -1.030881
    34  O   -1.026773
    35  Ir  -0.636983
    36  B    1.371022
    37  O   -1.024916
    38  O   -1.033220
    39  C    0.533414
    40  C    0.519976
    41  C   -0.043632
    42  C   -0.017682
    43  C   -0.016274
    44  C   -0.039957
    45  H    0.008157
    46  H   -0.017793
    47  H   -0.003922
    48  H   -0.006957
    49  H   -0.017120
    50  H    0.004592
    51  H    0.002648
    52  H   -0.019022
    53  H    0.005069
    54  H    0.011093
    55  H   -0.026336
    56  H    0.003066
    57  H    0.081590
    58  H   -0.066337
    59  H    0.032320
    60  H    0.040427
    61  H    0.045368
    62  H    0.069297
    63  C    1.809665
    64  F   -0.540386
    65  F   -0.579043
    66  F   -0.591168
    67  H    0.038821
 Sum of APT charges =   0.00000
 APT charges with hydrogens summed into heavy atoms:
               1
     1  C    0.089634
     2  C    0.062603
     3  C    0.078293
     4  C   -0.115550
     5  C   -0.170571
     6  C    0.157439
     7  C   -0.178249
     8  C    0.197525
    10  C    0.225855
    11  C    0.099037
    12  C    0.521230
    13  C    0.505557
    14  C   -0.073211
    18  C   -0.034406
    22  C   -0.036161
    26  C   -0.052176
    30  B    1.311334
    31  N   -0.058920
    32  N   -0.059564
    33  O   -1.030881
    34  O   -1.026773
    35  Ir  -0.703320
    36  B    1.371022
    37  O   -1.024916
    38  O   -1.033220
    39  C    0.533414
    40  C    0.519976
    41  C   -0.057190
    42  C   -0.037166
    43  C   -0.027579
    44  C   -0.052134
    63  C    1.809665
    64  F   -0.540386
    65  F   -0.579043
    66  F   -0.591168
 Electronic spatial extent (au):  <R**2>=          17581.5661
 Charge=             -0.0000 electrons
 Dipole moment (field-independent basis, Debye):
    X=              1.5164    Y=              7.2874    Z=              1.3191  Tot=              7.5595
 Quadrupole moment (field-independent basis, Debye-Ang):
   XX=           -206.4566   YY=           -180.1916   ZZ=           -227.3954
   XY=              8.6355   XZ=             -3.1503   YZ=             -2.2130
 Traceless Quadrupole moment (field-independent basis, Debye-Ang):
   XX=             -1.7754   YY=             24.4896   ZZ=            -22.7142
   XY=              8.6355   XZ=             -3.1503   YZ=             -2.2130
 Octapole moment (field-independent basis, Debye-Ang**2):
  XXX=             -3.0347  YYY=            201.5410  ZZZ=            -52.6422  XYY=             36.3548
  XXY=             71.7843  XXZ=            -11.8641  XZZ=              6.7398  YZZ=             10.8500
  YYZ=            -37.9152  XYZ=             21.8480
 Hexadecapole moment (field-independent basis, Debye-Ang**3):
 XXXX=         -10991.4539 YYYY=          -8467.9755 ZZZZ=          -1926.2826 XXXY=            145.8807
 XXXZ=             72.8942 YYYX=           -111.7565 YYYZ=           -120.9641 ZZZX=            120.9931
 ZZZY=            -55.5105 XXYY=          -3260.5043 XXZZ=          -2164.5403 YYZZ=          -1999.5087
 XXYZ=            -12.2360 YYXZ=            113.6436 ZZXY=            -43.3231
 N-N= 4.345048455932D+03 E-N=-1.277602365452D+04  KE= 1.677651343441D+03
  Exact polarizability:     396.035       0.521     428.132      21.021      -1.130     221.640
 Approx polarizability:     560.634      -4.301     592.460      52.220      -1.746     361.526
   1 Symmetry operations used in ECPInt.
 ECPInt:  NShTT=   21736 NPrTT=  135140 LenC2=   17129 LenP2D=   57010.
 LDataN:  DoStor=T MaxTD1= 8 Len=  415
 Calling FoFJK, ICntrl=    100127 FMM=F ISym2X=0 I1Cent= 0 IOpClX= 0 NMat=1 NMatS=1 NMatT=0.
 Defaulting to unpruned grid for atomic number  77.
 Defaulting to unpruned grid for atomic number  77.
 Defaulting to unpruned grid for atomic number  77.
 Defaulting to unpruned grid for atomic number  77.
 Defaulting to unpruned grid for atomic number  77.
 Defaulting to unpruned grid for atomic number  77.
 Defaulting to unpruned grid for atomic number  77.
 Defaulting to unpruned grid for atomic number  77.
 Defaulting to unpruned grid for atomic number  77.
 Defaulting to unpruned grid for atomic number  77.
 Defaulting to unpruned grid for atomic number  77.
 Defaulting to unpruned grid for atomic number  77.
 Defaulting to unpruned grid for atomic number  77.
 Defaulting to unpruned grid for atomic number  77.
 Defaulting to unpruned grid for atomic number  77.
 Defaulting to unpruned grid for atomic number  77.
 Full mass-weighted force constant matrix:
 Low frequencies ---   -3.9465   -1.0368   -0.0006   -0.0004    0.0002    5.8201
 Low frequencies ---   12.5931   17.7941   25.5717
 Diagonal vibrational polarizability:
       68.8128820      57.5363746     156.5310215
 Harmonic frequencies (cm**-1), IR intensities (KM/Mole), Raman scattering
 activities (A**4/AMU), depolarization ratios for plane and unpolarized
 incident light, reduced masses (AMU), force constants (mDyne/A),
 and normal coordinates:
                      1                      2                      3
                      A                      A                      A
 Frequencies --     12.4235                17.7367                25.5052
 Red. masses --      6.6547                 4.8594                 3.9953
 Frc consts  --      0.0006                 0.0009                 0.0015
 IR Inten    --      0.1568                 1.0933                 0.3390
  Atom AN      X      Y      Z        X      Y      Z        X      Y      Z
     1   6    -0.00   0.00   0.10     0.00  -0.01  -0.02    -0.01  -0.02  -0.02
     2   6     0.01   0.00   0.08    -0.04  -0.01   0.09    -0.04  -0.02   0.03
     3   6     0.02   0.00   0.02    -0.08  -0.01   0.22    -0.06  -0.01   0.09
     4   6     0.03   0.00  -0.01    -0.08  -0.01   0.22    -0.05  -0.01   0.09
     5   6     0.04  -0.00  -0.07    -0.03   0.01   0.10    -0.02   0.01   0.02
     6   6     0.05  -0.00  -0.10    -0.02   0.01   0.06    -0.01   0.02   0.00
     7   6     0.05   0.00  -0.07    -0.00   0.00   0.01     0.00   0.02  -0.02
     8   6     0.04   0.00  -0.02     0.00  -0.00  -0.01     0.01   0.01  -0.02
     9   1     0.03   0.00   0.00     0.02  -0.01  -0.04     0.02   0.00  -0.03
    10   6     0.03   0.00  -0.01    -0.03   0.00   0.08    -0.02   0.00   0.02
    11   6     0.02   0.00   0.02    -0.03  -0.00   0.10    -0.03  -0.00   0.03
    12   6     0.02  -0.00   0.04    -0.01  -0.00   0.03    -0.02  -0.01   0.07
    13   6    -0.00   0.00   0.07    -0.02  -0.02   0.05    -0.00  -0.01   0.04
    14   6    -0.00  -0.00   0.01    -0.02  -0.03   0.01     0.00  -0.04   0.11
    15   1    -0.02  -0.00   0.01    -0.03  -0.05  -0.00     0.04  -0.06   0.09
    16   1    -0.01  -0.00   0.00    -0.03  -0.04   0.03    -0.00  -0.06   0.13
    17   1     0.01  -0.01  -0.01    -0.01  -0.02  -0.01    -0.01  -0.04   0.12
    18   6     0.04  -0.00   0.03    -0.00   0.03   0.05    -0.07   0.02   0.10
    19   1     0.06  -0.01   0.01     0.01   0.03   0.03    -0.08   0.02   0.12
    20   1     0.03  -0.00   0.03    -0.01   0.02   0.07    -0.07   0.01   0.12
    21   1     0.06  -0.00   0.05     0.01   0.05   0.05    -0.09   0.04   0.07
    22   6    -0.03   0.00   0.06    -0.04  -0.05   0.07     0.02  -0.04   0.07
    23   1    -0.04   0.01   0.09    -0.04  -0.05   0.08     0.03  -0.04   0.04
    24   1    -0.03   0.00   0.06    -0.04  -0.04   0.08     0.00  -0.03   0.10
    25   1    -0.05  -0.00   0.05    -0.04  -0.07   0.05     0.04  -0.06   0.08
    26   6     0.02   0.01   0.10    -0.01   0.00   0.07    -0.03   0.01   0.01
    27   1     0.04   0.01   0.10    -0.01   0.03   0.05    -0.04   0.02   0.01
    28   1     0.02   0.01   0.09    -0.00   0.02   0.10    -0.06   0.01   0.03
    29   1     0.00   0.02   0.12    -0.02  -0.02   0.08    -0.02   0.03  -0.01
    30   5     0.01   0.00   0.06    -0.01  -0.01  -0.01     0.01  -0.01   0.00
    31   7     0.00   0.00   0.07     0.00  -0.00  -0.02    -0.01  -0.01  -0.02
    32   7     0.03   0.00   0.01    -0.01  -0.00   0.03    -0.00  -0.00  -0.01
    33   8     0.03  -0.00   0.05     0.00   0.01  -0.01    -0.02   0.00   0.03
    34   8    -0.01   0.00   0.07    -0.03  -0.03   0.02     0.03  -0.02   0.00
    35  77     0.01   0.00   0.07     0.01  -0.01  -0.05     0.01  -0.01  -0.03
    36   5    -0.05  -0.00  -0.03     0.03   0.02  -0.02     0.02   0.00  -0.01
    37   8    -0.06  -0.01  -0.08     0.00   0.01  -0.08     0.06   0.04   0.07
    38   8    -0.07  -0.00  -0.05     0.05   0.05   0.06    -0.03  -0.02  -0.08
    39   6    -0.10  -0.01  -0.12     0.00   0.04  -0.07     0.05   0.01   0.05
    40   6    -0.09  -0.01  -0.11     0.04   0.03   0.03    -0.02   0.02  -0.07
    41   6    -0.16  -0.01  -0.10    -0.03   0.14  -0.09     0.09  -0.11   0.08
    42   6    -0.09  -0.02  -0.18    -0.00  -0.01  -0.12     0.07   0.11   0.10
    43   6    -0.14  -0.02  -0.13     0.04   0.11   0.08    -0.06  -0.07  -0.14
    44   6    -0.03  -0.01  -0.15     0.07  -0.06   0.06    -0.05   0.15  -0.12
    45   1    -0.18  -0.01  -0.06    -0.03   0.18  -0.05     0.08  -0.19   0.04
    46   1    -0.20  -0.02  -0.13    -0.04   0.17  -0.08     0.09  -0.13   0.07
    47   1    -0.17  -0.01  -0.10    -0.06   0.14  -0.16     0.15  -0.11   0.16
    48   1    -0.10  -0.02  -0.18    -0.03  -0.01  -0.19     0.12   0.10   0.18
    49   1    -0.11  -0.02  -0.21    -0.00   0.01  -0.11     0.05   0.10   0.08
    50   1    -0.04  -0.02  -0.19     0.02  -0.08  -0.11     0.04   0.20   0.09
    51   1    -0.13  -0.01  -0.12     0.08   0.10   0.15    -0.12  -0.06  -0.23
    52   1    -0.16  -0.02  -0.18     0.03   0.10   0.06    -0.05  -0.04  -0.12
    53   1    -0.18  -0.02  -0.10     0.02   0.18   0.07    -0.04  -0.17  -0.12
    54   1     0.00  -0.00  -0.14     0.07  -0.11   0.02    -0.04   0.21  -0.07
    55   1    -0.04  -0.02  -0.20     0.07  -0.07   0.04    -0.05   0.17  -0.12
    56   1    -0.01  -0.01  -0.14     0.09  -0.06   0.13    -0.09   0.15  -0.20
    57   1    -0.02   0.00   0.14     0.03  -0.01  -0.12     0.00  -0.02  -0.07
    58   1    -0.00  -0.00   0.08     0.05  -0.02  -0.10     0.01  -0.02  -0.03
    59   1     0.03   0.00   0.00    -0.11  -0.02   0.32    -0.08  -0.01   0.14
    60   1     0.05   0.00  -0.05    -0.11  -0.01   0.33    -0.07  -0.00   0.13
    61   1     0.04  -0.00  -0.09    -0.05   0.01   0.13    -0.04   0.02   0.03
    62   1     0.06  -0.00  -0.14    -0.02   0.01   0.07    -0.02   0.03   0.01
    63   6     0.06   0.00  -0.11     0.01  -0.00  -0.04     0.01   0.02  -0.02
    64   9     0.10   0.01  -0.08     0.04  -0.01  -0.03     0.04   0.05   0.02
    65   9     0.02  -0.00  -0.12    -0.03   0.01  -0.06    -0.03  -0.01  -0.02
    66   9     0.08   0.01  -0.15     0.03  -0.01  -0.07     0.03   0.03  -0.08
    67   1     0.00   0.01   0.10    -0.04  -0.02   0.08    -0.04  -0.02   0.03
                      4                      5                      6
                      A                      A                      A
 Frequencies --     35.4851                40.2114                47.0975
 Red. masses --      4.0389                 4.6393                 6.0430
 Frc consts  --      0.0030                 0.0044                 0.0079
 IR Inten    --      0.1016                 0.3065                 0.2399
  Atom AN      X      Y      Z        X      Y      Z        X      Y      Z
     1   6     0.02  -0.00  -0.07     0.03   0.05   0.00    -0.04   0.01   0.15
     2   6     0.02  -0.00  -0.07     0.04   0.05   0.03    -0.05   0.00   0.25
     3   6     0.00  -0.00  -0.03     0.05   0.03   0.03    -0.03  -0.01   0.19
     4   6    -0.01   0.00   0.01     0.05   0.02   0.00     0.01  -0.02   0.04
     5   6    -0.02   0.00   0.08     0.04  -0.01  -0.07     0.06  -0.03  -0.23
     6   6    -0.02   0.00   0.08     0.03  -0.02  -0.06     0.05  -0.03  -0.20
     7   6    -0.01  -0.00   0.04     0.00  -0.01  -0.02     0.01  -0.02  -0.07
     8   6    -0.01  -0.00   0.01    -0.01   0.01   0.00     0.00  -0.01  -0.04
     9   1    -0.00  -0.00  -0.02    -0.02   0.01   0.02    -0.01  -0.00   0.02
    10   6    -0.01   0.00   0.04     0.03   0.01  -0.03     0.03  -0.02  -0.14
    11   6    -0.00   0.00   0.01     0.04   0.02  -0.02     0.01  -0.01  -0.04
    12   6     0.05   0.02  -0.05    -0.06   0.03   0.04     0.04   0.02  -0.00
    13   6    -0.02  -0.01   0.07    -0.06   0.02   0.05     0.02  -0.01   0.03
    14   6    -0.03   0.05  -0.16    -0.05  -0.01   0.05     0.02   0.04  -0.04
    15   1    -0.13   0.03  -0.16    -0.04  -0.02   0.03    -0.02   0.03  -0.04
    16   1    -0.02   0.05  -0.17    -0.07  -0.02   0.07     0.03   0.04  -0.04
    17   1     0.02   0.09  -0.24    -0.05  -0.01   0.04     0.03   0.06  -0.07
    18   6     0.18   0.03  -0.06    -0.07   0.06   0.07     0.09   0.03  -0.00
    19   1     0.22   0.04  -0.15    -0.07   0.07   0.06     0.10   0.06  -0.03
    20   1     0.17   0.03  -0.07    -0.08   0.05   0.10     0.10   0.03   0.00
    21   1     0.24   0.01   0.02    -0.07   0.09   0.06     0.11   0.02   0.02
    22   6    -0.11  -0.04   0.07    -0.06   0.00   0.06     0.01  -0.03   0.05
    23   1    -0.16  -0.05   0.16    -0.06   0.00   0.06    -0.01  -0.05   0.08
    24   1    -0.07  -0.03   0.07    -0.06   0.01   0.07     0.03  -0.02   0.06
    25   1    -0.17  -0.05   0.01    -0.06  -0.01   0.05    -0.02  -0.04   0.02
    26   6     0.06  -0.00   0.19    -0.06   0.02   0.05     0.05  -0.00   0.07
    27   1     0.14   0.01   0.19    -0.07   0.04   0.03     0.07   0.01   0.07
    28   1     0.11   0.00   0.19    -0.04   0.03   0.08     0.07   0.00   0.08
    29   1     0.00  -0.02   0.28    -0.05  -0.01   0.05     0.03  -0.01   0.10
    30   5    -0.01  -0.00   0.01    -0.04   0.03  -0.00     0.00  -0.00  -0.01
    31   7     0.01  -0.00  -0.03     0.03   0.04  -0.02    -0.01  -0.00   0.01
    32   7    -0.01   0.00   0.01     0.01   0.02  -0.01     0.01  -0.01  -0.07
    33   8     0.05   0.01  -0.03    -0.04   0.04   0.01     0.02   0.02  -0.01
    34   8    -0.07  -0.02   0.07    -0.06   0.01   0.03     0.00  -0.02   0.02
    35  77    -0.00  -0.00  -0.01    -0.01   0.03  -0.03    -0.01  -0.00  -0.02
    36   5     0.01   0.01   0.03     0.05   0.02   0.07    -0.02  -0.01  -0.05
    37   8     0.03   0.03   0.05     0.02  -0.02   0.08    -0.01   0.00  -0.04
    38   8     0.00   0.01   0.01     0.11   0.00   0.07    -0.03  -0.00  -0.05
    39   6     0.01   0.01   0.02    -0.00  -0.10   0.02     0.00   0.02  -0.01
    40   6    -0.01   0.01  -0.03     0.08  -0.08  -0.01    -0.02   0.02  -0.01
    41   6    -0.01  -0.04   0.04    -0.10  -0.12   0.05     0.05   0.02  -0.03
    42   6     0.02   0.04   0.01    -0.01  -0.16  -0.04     0.00   0.04   0.02
    43   6    -0.05  -0.03  -0.07     0.05  -0.14  -0.05    -0.00   0.03  -0.00
    44   6     0.02   0.06  -0.07     0.19  -0.08  -0.08    -0.06   0.02   0.01
    45   1    -0.02  -0.07   0.05    -0.10  -0.08   0.10     0.05   0.01  -0.05
    46   1    -0.03  -0.06   0.02    -0.13  -0.18   0.01     0.07   0.04  -0.00
    47   1     0.01  -0.04   0.08    -0.16  -0.12   0.09     0.07   0.02  -0.03
    48   1     0.03   0.03   0.05    -0.08  -0.17  -0.01     0.02   0.04   0.02
    49   1     0.00   0.02  -0.01    -0.02  -0.23  -0.09     0.01   0.06   0.05
    50   1     0.03   0.07   0.00     0.06  -0.14  -0.06    -0.03   0.04   0.03
    51   1    -0.06  -0.02  -0.10     0.13  -0.12  -0.08    -0.02   0.02  -0.00
    52   1    -0.06  -0.03  -0.09     0.03  -0.21  -0.12     0.01   0.05   0.03
    53   1    -0.07  -0.07  -0.04    -0.02  -0.13  -0.00     0.03   0.02  -0.02
    54   1     0.04   0.10  -0.04     0.21  -0.05  -0.04    -0.08   0.02   0.00
    55   1     0.02   0.06  -0.10     0.18  -0.15  -0.14    -0.06   0.04   0.04
    56   1     0.03   0.07  -0.11     0.26  -0.06  -0.09    -0.08   0.02   0.00
    57   1     0.03  -0.00  -0.10     0.02   0.06  -0.00    -0.06   0.02   0.19
    58   1     0.00  -0.01  -0.01     0.01   0.05  -0.05    -0.02  -0.01  -0.00
    59   1    -0.00  -0.00  -0.03     0.05   0.03   0.05    -0.04  -0.01   0.27
    60   1    -0.02   0.00   0.04     0.05   0.01   0.01     0.03  -0.03   0.00
    61   1    -0.03   0.01   0.11     0.06  -0.01  -0.10     0.09  -0.04  -0.32
    62   1    -0.03   0.00   0.11     0.04  -0.03  -0.08     0.06  -0.03  -0.25
    63   6    -0.01  -0.01   0.01    -0.02  -0.02   0.01    -0.02  -0.01   0.06
    64   9    -0.03  -0.08  -0.08    -0.04   0.01   0.03    -0.11   0.02   0.03
    65   9     0.04   0.08  -0.03    -0.02  -0.05   0.03     0.11  -0.03   0.12
    66   9    -0.04  -0.03   0.09    -0.01  -0.03   0.00    -0.08   0.01   0.16
    67   1     0.02  -0.00  -0.11     0.04   0.06   0.05    -0.08   0.01   0.38
                      7                      8                      9
                      A                      A                      A
 Frequencies --     58.9466                71.7648                78.0086
 Red. masses --      4.4805                 8.1048                 4.2378
 Frc consts  --      0.0092                 0.0246                 0.0152
 IR Inten    --      1.4237                 0.0203                 0.7977
  Atom AN      X      Y      Z        X      Y      Z        X      Y      Z
     1   6     0.00  -0.03  -0.05    -0.02  -0.03   0.04    -0.09  -0.04   0.21
     2   6    -0.02  -0.03  -0.02    -0.03  -0.03   0.02    -0.08  -0.03   0.12
     3   6    -0.04  -0.03   0.04    -0.03  -0.01  -0.02    -0.03  -0.01  -0.09
     4   6    -0.03  -0.02   0.04    -0.02   0.00  -0.03     0.00   0.01  -0.16
     5   6     0.01  -0.01  -0.10    -0.01   0.03   0.03    -0.04   0.03   0.09
     6   6     0.02   0.00  -0.09    -0.01   0.04   0.05    -0.04   0.03   0.10
     7   6     0.01   0.01  -0.01     0.02   0.03   0.00    -0.00   0.02  -0.01
     8   6    -0.01  -0.00   0.05     0.03   0.01  -0.04     0.02   0.01  -0.09
     9   1    -0.01   0.00   0.10     0.05   0.01  -0.07     0.05   0.00  -0.15
    10   6    -0.00  -0.01  -0.02     0.00   0.01  -0.01    -0.01   0.02  -0.02
    11   6    -0.01  -0.02  -0.01    -0.01   0.00  -0.01    -0.02   0.00  -0.02
    12   6     0.00  -0.01  -0.04     0.00  -0.03  -0.10     0.00  -0.03  -0.01
    13   6     0.02  -0.02  -0.06    -0.07  -0.00  -0.00     0.00  -0.02  -0.01
    14   6     0.01   0.05  -0.03    -0.06  -0.02  -0.19     0.02  -0.12   0.01
    15   1     0.00   0.09  -0.00    -0.11  -0.02  -0.18     0.05  -0.17  -0.03
    16   1     0.04   0.08  -0.07    -0.07  -0.02  -0.21    -0.01  -0.15   0.08
    17   1    -0.01   0.05  -0.00    -0.04  -0.01  -0.22     0.02  -0.10  -0.00
    18   6     0.02  -0.06  -0.07     0.09  -0.05  -0.13    -0.05   0.02   0.04
    19   1     0.01  -0.06  -0.05     0.14  -0.08  -0.20    -0.05   0.01   0.03
    20   1     0.04  -0.05  -0.12     0.04  -0.05  -0.16    -0.09   0.00   0.09
    21   1     0.01  -0.11  -0.07     0.15  -0.05  -0.06    -0.06   0.10   0.02
    22   6     0.05   0.03  -0.09    -0.19  -0.00  -0.02    -0.02  -0.06   0.02
    23   1     0.06   0.03  -0.11    -0.23   0.03   0.05    -0.01  -0.05   0.01
    24   1     0.07   0.03  -0.12    -0.19  -0.02  -0.05    -0.06  -0.06   0.06
    25   1     0.05   0.08  -0.07    -0.23  -0.02  -0.07     0.01  -0.12   0.02
    26   6     0.02  -0.07  -0.08    -0.01   0.02   0.10    -0.02   0.04  -0.01
    27   1    -0.02  -0.08  -0.08     0.08   0.02   0.12    -0.02   0.08  -0.04
    28   1     0.04  -0.07  -0.09     0.00   0.02   0.08    -0.05   0.05   0.04
    29   1     0.03  -0.09  -0.10    -0.06   0.05   0.18    -0.01   0.03  -0.03
    30   5    -0.03  -0.02   0.02     0.00  -0.01  -0.01     0.05  -0.01  -0.07
    31   7     0.00  -0.02  -0.05    -0.01  -0.01   0.02    -0.06  -0.02   0.12
    32   7    -0.01  -0.01   0.04     0.03   0.00  -0.04     0.02   0.01  -0.09
    33   8    -0.03  -0.04   0.01     0.06  -0.03  -0.07     0.05  -0.00  -0.07
    34   8    -0.01  -0.01  -0.01    -0.08   0.01   0.03     0.03  -0.02  -0.05
    35  77    -0.01  -0.03   0.00     0.02  -0.00   0.00     0.02  -0.01  -0.01
    36   5     0.06   0.03   0.14     0.00  -0.00  -0.02     0.04   0.02   0.05
    37   8     0.09   0.06   0.12    -0.00  -0.01  -0.03     0.05   0.03   0.05
    38   8     0.03   0.05   0.16     0.01  -0.00  -0.02     0.03   0.03   0.07
    39   6    -0.00   0.06   0.03     0.01  -0.00  -0.01     0.01   0.03   0.01
    40   6    -0.00   0.06   0.03     0.01  -0.00  -0.01     0.02   0.03   0.01
    41   6    -0.14   0.05   0.07     0.03  -0.00  -0.02    -0.06   0.03   0.03
    42   6     0.04   0.08  -0.10     0.01  -0.00   0.01     0.03   0.03  -0.06
    43   6    -0.13   0.05  -0.01     0.02  -0.00  -0.01    -0.04   0.03  -0.01
    44   6     0.11   0.08  -0.05    -0.00  -0.00  -0.01     0.08   0.04  -0.03
    45   1    -0.17   0.03   0.17     0.04  -0.00  -0.03    -0.07   0.03   0.07
    46   1    -0.22   0.05  -0.00     0.04   0.00  -0.01    -0.10   0.03  -0.01
    47   1    -0.13   0.05   0.09     0.04  -0.00  -0.02    -0.06   0.03   0.03
    48   1     0.03   0.08  -0.10     0.01  -0.00   0.01     0.02   0.03  -0.06
    49   1    -0.03   0.08  -0.18     0.02  -0.00   0.02    -0.00   0.03  -0.10
    50   1     0.14   0.09  -0.13    -0.01  -0.01   0.01     0.08   0.04  -0.07
    51   1    -0.13   0.05   0.00     0.02  -0.00  -0.01    -0.03   0.03  -0.00
    52   1    -0.16   0.07  -0.11     0.02  -0.01  -0.00    -0.05   0.03  -0.06
    53   1    -0.21   0.04   0.06     0.03  -0.00  -0.01    -0.08   0.03   0.02
    54   1     0.20   0.10  -0.02    -0.01  -0.00  -0.01     0.12   0.04  -0.02
    55   1     0.10   0.08  -0.16     0.00  -0.00   0.00     0.07   0.04  -0.08
    56   1     0.13   0.09  -0.03    -0.00  -0.00  -0.01     0.09   0.04  -0.02
    57   1     0.01  -0.03  -0.09    -0.02  -0.04   0.07    -0.12  -0.05   0.36
    58   1     0.03  -0.04  -0.04    -0.01  -0.00   0.04    -0.04  -0.02   0.07
    59   1    -0.05  -0.03   0.08    -0.04  -0.01  -0.03    -0.01  -0.00  -0.20
    60   1    -0.05  -0.02   0.08    -0.01   0.02  -0.07     0.05   0.03  -0.33
    61   1     0.02  -0.01  -0.17    -0.03   0.03   0.07    -0.06   0.04   0.19
    62   1     0.03   0.00  -0.15    -0.02   0.05   0.09    -0.06   0.04   0.19
    63   6     0.02   0.03   0.02    -0.00   0.03   0.07    -0.02   0.01  -0.01
    64   9     0.03   0.04   0.04     0.04   0.22   0.30    -0.05  -0.01  -0.04
    65   9     0.03   0.00   0.03    -0.17  -0.20   0.16    -0.01   0.03  -0.02
    66   9     0.01   0.06  -0.00     0.09   0.07  -0.16    -0.03  -0.02   0.03
    67   1    -0.02  -0.04  -0.02    -0.04  -0.04   0.04    -0.11  -0.05   0.20
                     10                     11                     12
                      A                      A                      A
 Frequencies --     85.5224                95.0584               102.1250
 Red. masses --      5.7122                10.2437                 5.2238
 Frc consts  --      0.0246                 0.0545                 0.0321
 IR Inten    --      0.6805                 0.2131                 0.9210
  Atom AN      X      Y      Z        X      Y      Z        X      Y      Z
     1   6    -0.03  -0.06  -0.06     0.02  -0.01   0.09    -0.04   0.02   0.12
     2   6    -0.09  -0.07  -0.03     0.06  -0.01   0.05     0.00   0.03   0.04
     3   6    -0.12  -0.02   0.01     0.09  -0.03  -0.02     0.04   0.02  -0.07
     4   6    -0.10   0.02   0.01     0.08  -0.05  -0.04     0.03   0.00  -0.06
     5   6     0.00   0.05  -0.10     0.01  -0.02   0.07     0.02  -0.02  -0.11
     6   6     0.01   0.05  -0.10     0.02   0.01   0.08     0.01  -0.02  -0.10
     7   6    -0.01   0.06  -0.00     0.07  -0.00   0.04    -0.06   0.00   0.13
     8   6    -0.02   0.05   0.06     0.08  -0.04   0.00    -0.10   0.01   0.31
     9   1    -0.02   0.05   0.11     0.10  -0.05  -0.02    -0.14   0.03   0.41
    10   6    -0.01   0.04  -0.02     0.03  -0.05   0.02    -0.03  -0.01   0.07
    11   6    -0.04   0.02  -0.02     0.04  -0.05   0.01    -0.02   0.00   0.03
    12   6    -0.08  -0.08  -0.01    -0.12  -0.00  -0.02     0.01   0.01  -0.02
    13   6    -0.11   0.02  -0.01    -0.13  -0.01  -0.01     0.01  -0.02  -0.01
    14   6    -0.08  -0.10  -0.02    -0.12   0.04  -0.02     0.00  -0.01  -0.03
    15   1    -0.09  -0.12  -0.03    -0.17  -0.03  -0.06    -0.01  -0.06  -0.07
    16   1    -0.09  -0.11  -0.01    -0.04   0.04   0.04     0.02  -0.02   0.02
    17   1    -0.08  -0.08  -0.04    -0.15   0.16  -0.06    -0.01   0.04  -0.06
    18   6    -0.12  -0.14  -0.05    -0.11  -0.00  -0.03     0.02   0.05   0.00
    19   1    -0.09  -0.24  -0.05    -0.11  -0.01  -0.03     0.03   0.06  -0.02
    20   1    -0.21  -0.14  -0.10    -0.12  -0.00  -0.03     0.02   0.04   0.04
    21   1    -0.10  -0.11  -0.03    -0.11   0.00  -0.02     0.03   0.07   0.01
    22   6    -0.18   0.04  -0.04    -0.14  -0.05   0.01    -0.01  -0.08   0.05
    23   1    -0.20   0.13  -0.04    -0.14  -0.05   0.01    -0.01  -0.10   0.05
    24   1    -0.26  -0.00  -0.07    -0.16  -0.05   0.04    -0.02  -0.06   0.10
    25   1    -0.16   0.00  -0.03    -0.12  -0.09   0.01    -0.00  -0.13   0.02
    26   6    -0.13   0.06  -0.01    -0.13   0.01  -0.00     0.01   0.04   0.02
    27   1    -0.08   0.04   0.02    -0.12   0.03  -0.02     0.02   0.07  -0.00
    28   1    -0.19   0.04  -0.05    -0.14   0.02   0.01    -0.01   0.05   0.06
    29   1    -0.13   0.15  -0.00    -0.13   0.01  -0.01    -0.00   0.03   0.03
    30   5     0.03  -0.00   0.06    -0.10  -0.02  -0.06     0.01  -0.01  -0.08
    31   7    -0.01  -0.02  -0.04     0.02  -0.03   0.05    -0.04   0.01   0.10
    32   7    -0.01   0.04   0.04     0.06  -0.06  -0.00    -0.09   0.01   0.25
    33   8    -0.00  -0.07   0.04    -0.13  -0.00  -0.03     0.00   0.02  -0.06
    34   8    -0.03   0.05   0.03    -0.11  -0.02  -0.04     0.02  -0.03  -0.06
    35  77     0.06   0.00   0.04    -0.03  -0.02  -0.03    -0.00  -0.00  -0.02
    36   5     0.04  -0.01  -0.02    -0.02  -0.01  -0.02     0.03  -0.02  -0.01
    37   8     0.03  -0.02  -0.04    -0.03  -0.01  -0.01     0.03  -0.02  -0.04
    38   8     0.04  -0.01  -0.02    -0.02  -0.01  -0.02     0.02  -0.01  -0.00
    39   6     0.04  -0.01  -0.03    -0.02  -0.01   0.00     0.04   0.00  -0.02
    40   6     0.04  -0.01  -0.02    -0.02  -0.01   0.00     0.02   0.00  -0.01
    41   6     0.07  -0.01  -0.04     0.00  -0.01  -0.01     0.07   0.01  -0.03
    42   6     0.04  -0.01  -0.01    -0.03  -0.02   0.02     0.04   0.02   0.00
    43   6     0.04  -0.01  -0.02     0.01  -0.01   0.01     0.00   0.01  -0.01
    44   6     0.04  -0.01  -0.02    -0.04  -0.02   0.02     0.02   0.01  -0.02
    45   1     0.08  -0.01  -0.05     0.01  -0.01  -0.02     0.07  -0.01  -0.04
    46   1     0.08   0.00  -0.02     0.01  -0.01   0.01     0.08   0.03  -0.01
    47   1     0.08  -0.01  -0.04    -0.00  -0.01  -0.01     0.09   0.01  -0.04
    48   1     0.04  -0.01  -0.01    -0.03  -0.02   0.03     0.06   0.02  -0.01
    49   1     0.05  -0.01   0.01    -0.01  -0.03   0.04     0.04   0.04   0.02
    50   1     0.02  -0.02  -0.00    -0.05  -0.02   0.03     0.02   0.01   0.01
    51   1     0.05  -0.01  -0.02     0.01  -0.01   0.01    -0.01   0.01  -0.00
    52   1     0.04  -0.01  -0.02     0.01  -0.02   0.03     0.00   0.02  -0.02
    53   1     0.05  -0.01  -0.02     0.02  -0.01  -0.00     0.00   0.01  -0.01
    54   1     0.04  -0.01  -0.02    -0.06  -0.02   0.01     0.04   0.01  -0.01
    55   1     0.04  -0.00  -0.02    -0.04  -0.02   0.04     0.02   0.02  -0.02
    56   1     0.03  -0.02  -0.02    -0.05  -0.02   0.01     0.01   0.01  -0.01
    57   1    -0.00  -0.10  -0.08     0.00   0.00   0.13    -0.06   0.03   0.19
    58   1     0.07  -0.04   0.03    -0.00   0.06  -0.07     0.16  -0.00  -0.23
    59   1    -0.17  -0.02   0.04     0.12  -0.03  -0.07     0.08   0.02  -0.15
    60   1    -0.12   0.05   0.05     0.10  -0.05  -0.10     0.06  -0.00  -0.13
    61   1     0.01   0.04  -0.18    -0.02  -0.01   0.10     0.07  -0.04  -0.30
    62   1     0.02   0.06  -0.16    -0.00   0.04   0.13     0.06  -0.04  -0.28
    63   6    -0.02   0.05   0.00     0.18   0.11   0.06    -0.02   0.00   0.03
    64   9    -0.07  -0.00  -0.08     0.30   0.03   0.03     0.07  -0.04   0.03
    65   9     0.03   0.11  -0.02     0.31   0.18   0.06    -0.11   0.06  -0.04
    66   9    -0.05   0.02   0.09     0.09   0.26   0.10     0.02  -0.00  -0.05
    67   1    -0.11  -0.10  -0.04     0.06   0.00   0.08     0.00   0.04   0.05
                     13                     14                     15
                      A                      A                      A
 Frequencies --    116.9226               130.2784               131.0276
 Red. masses --      4.1641                 6.1571                 4.0067
 Frc consts  --      0.0335                 0.0616                 0.0405
 IR Inten    --      0.5030                 0.9600                 1.1564
  Atom AN      X      Y      Z        X      Y      Z        X      Y      Z
     1   6    -0.04  -0.04   0.09    -0.05  -0.17  -0.03     0.02   0.08  -0.01
     2   6    -0.06  -0.04   0.11    -0.08  -0.17  -0.11     0.06   0.08  -0.04
     3   6    -0.03  -0.03  -0.02    -0.12  -0.14  -0.07     0.06   0.06   0.00
     4   6     0.01  -0.01  -0.11    -0.11  -0.09   0.03     0.03   0.03   0.05
     5   6    -0.01  -0.01   0.04    -0.01  -0.07  -0.01    -0.00   0.02   0.01
     6   6    -0.03  -0.01   0.07     0.01  -0.08  -0.07     0.01   0.02  -0.02
     7   6    -0.03  -0.01   0.05     0.03  -0.08  -0.05     0.01   0.02  -0.05
     8   6    -0.02  -0.01   0.01     0.01  -0.08  -0.00     0.01   0.02  -0.04
     9   1    -0.03  -0.01   0.02     0.01  -0.08   0.01     0.02   0.02  -0.06
    10   6     0.00  -0.01  -0.03    -0.03  -0.07   0.05    -0.01   0.02   0.02
    11   6     0.01  -0.01  -0.07    -0.06  -0.09   0.07    -0.00   0.03   0.05
    12   6    -0.04   0.03   0.05     0.01   0.05  -0.02     0.01  -0.03  -0.02
    13   6    -0.02  -0.01   0.03     0.02   0.03  -0.02    -0.00  -0.03  -0.01
    14   6    -0.05   0.17   0.04     0.02   0.02  -0.01     0.02  -0.11   0.00
    15   1    -0.08   0.27   0.11     0.03  -0.00  -0.02     0.05  -0.15  -0.03
    16   1    -0.02   0.22  -0.09     0.01   0.01   0.02     0.00  -0.13   0.06
    17   1    -0.05   0.11   0.07     0.02   0.02  -0.01     0.02  -0.09  -0.01
    18   6     0.03  -0.05  -0.02     0.01   0.09   0.02    -0.03   0.02   0.03
    19   1     0.01  -0.01   0.01    -0.00   0.12   0.02    -0.02   0.01   0.02
    20   1     0.13  -0.02  -0.10     0.02   0.08   0.07    -0.07   0.00   0.09
    21   1     0.02  -0.17  -0.01    -0.00   0.12   0.01    -0.03   0.09   0.02
    22   6     0.06   0.09  -0.04     0.02  -0.02   0.03     0.00   0.00  -0.04
    23   1     0.07   0.05  -0.04     0.02  -0.03   0.02     0.00   0.02  -0.04
    24   1     0.15   0.10  -0.12     0.00  -0.00   0.07     0.01  -0.01  -0.07
    25   1     0.01   0.22  -0.02     0.03  -0.06   0.02     0.00   0.03  -0.03
    26   6     0.01  -0.14  -0.00     0.01   0.08  -0.00     0.02  -0.08  -0.01
    27   1    -0.04  -0.20   0.03     0.00   0.13  -0.04    -0.03  -0.07  -0.03
    28   1     0.10  -0.15  -0.05    -0.00   0.10   0.05     0.07  -0.06   0.01
    29   1     0.02  -0.19  -0.00     0.02   0.05  -0.01     0.02  -0.15  -0.02
    30   5    -0.07  -0.00   0.09     0.00   0.03  -0.05    -0.00  -0.02  -0.02
    31   7    -0.00  -0.02  -0.01    -0.04  -0.12   0.06    -0.01   0.05   0.03
    32   7    -0.00  -0.01  -0.02    -0.00  -0.08   0.04    -0.00   0.02  -0.01
    33   8    -0.12  -0.01   0.13     0.01   0.05  -0.05     0.06  -0.01  -0.07
    34   8    -0.09   0.00   0.10     0.04   0.02  -0.06    -0.04  -0.03   0.02
    35  77     0.01   0.00  -0.01    -0.00   0.05   0.02    -0.02  -0.02   0.01
    36   5     0.01   0.03  -0.03    -0.03   0.11  -0.02    -0.01  -0.02   0.01
    37   8    -0.02   0.00  -0.08    -0.09   0.06  -0.05    -0.07  -0.06  -0.13
    38   8     0.05   0.04   0.02     0.05   0.11   0.03     0.04   0.02   0.13
    39   6     0.03   0.01  -0.02    -0.03   0.03   0.01     0.01  -0.00  -0.02
    40   6     0.04   0.02  -0.02     0.03   0.04  -0.01     0.00   0.01   0.00
    41   6     0.11   0.02  -0.05     0.04   0.04  -0.02     0.17   0.03  -0.07
    42   6     0.00  -0.01   0.05    -0.08  -0.05   0.11    -0.03  -0.02   0.12
    43   6     0.01   0.01  -0.04     0.03  -0.00  -0.05    -0.14   0.01  -0.03
    44   6     0.09   0.03  -0.06     0.11   0.05  -0.06     0.13   0.03  -0.09
    45   1     0.12   0.01  -0.09     0.07   0.07  -0.07     0.18  -0.02  -0.15
    46   1     0.14   0.04  -0.00     0.09   0.02   0.02     0.23   0.11   0.01
    47   1     0.12   0.02  -0.06     0.01   0.04  -0.02     0.24   0.03  -0.13
    48   1    -0.01  -0.01   0.05    -0.14  -0.06   0.13    -0.02  -0.02   0.09
    49   1     0.04  -0.01   0.10    -0.00  -0.11   0.15     0.05  -0.01   0.22
    50   1    -0.06  -0.02   0.07    -0.14  -0.04   0.12    -0.14  -0.06   0.15
    51   1     0.02   0.01  -0.04     0.11   0.01  -0.07    -0.15   0.01  -0.01
    52   1    -0.00  -0.00  -0.07     0.02  -0.07  -0.08    -0.17   0.04  -0.15
    53   1    -0.02   0.01  -0.02    -0.01   0.02  -0.02    -0.23  -0.00   0.04
    54   1     0.08   0.07  -0.03     0.08   0.12  -0.03     0.17   0.09  -0.04
    55   1     0.08  -0.03  -0.08     0.11  -0.04  -0.10     0.12  -0.05  -0.18
    56   1     0.14   0.05  -0.09     0.19   0.09  -0.11     0.21   0.06  -0.11
    57   1    -0.05  -0.06   0.15    -0.02  -0.21  -0.04     0.01   0.10  -0.02
    58   1     0.00   0.01  -0.00    -0.03   0.12   0.01     0.01  -0.04  -0.00
    59   1    -0.03  -0.02  -0.04    -0.15  -0.13  -0.11     0.08   0.06  -0.00
    60   1     0.03   0.01  -0.21    -0.14  -0.05   0.05     0.03   0.01   0.08
    61   1    -0.01  -0.01   0.06    -0.02  -0.07  -0.02    -0.01   0.03   0.02
    62   1    -0.04  -0.01   0.12     0.02  -0.07  -0.11     0.01   0.02  -0.02
    63   6    -0.02  -0.02   0.00     0.05  -0.06  -0.00    -0.00   0.03  -0.01
    64   9     0.02  -0.04  -0.00     0.04  -0.04   0.02    -0.04   0.04  -0.01
    65   9    -0.06   0.02  -0.03     0.10  -0.10   0.04     0.03   0.00   0.01
    66   9     0.01  -0.03  -0.03     0.02  -0.02   0.01    -0.02   0.03   0.01
[...]
 03624,-0.00002069,0.00000537,-0.00000518,-0.00002120,0.00002218,0.0000
 2693,0.00000639,-0.00003006,-0.00001912,0.00001781,0.00001381,-0.00001
 208,0.00000346,0.00001033,0.00002860,0.00000740,-0.00001500,-0.0000086
 5,-0.00000739,0.00000853,0.00000545,0.00003135,0.00000210,0.00001239,0
 .00000739,-0.00001558,-0.00000245,-0.00001629,0.00000258,-0.00001790,-
 0.00000683,-0.00002130,0.00002699,0.00000944,0.00000478,-0.00000294,0.
 00002328,0.00000057,0.00000783,-0.00001549,0.00001074,0.00005883,0.000
 07794,0.00030209,0.00001595,-0.00005356,-0.00000265,-0.00002437,0.0000
 8569,-0.00000127,0.00014792,-0.00023259,0.00010911,0.00001128,0.000112
 48,-0.00098952,0.04603643,-0.14388911,-0.09417812,-0.00995095,0.022428
 89,0.02025235,-0.04202541,0.16328091,-0.00001854,-0.00007982,0.0000153
 0,0.00004277,-0.00001354,0.00001722,0.00004913,0.00007490,0.00002790,0
 .00005558,0.00001517,0.00004472,0.00019693,-0.00054703,0.00051388,0.00
 184626,-0.00009586,0.00005761,0.00669893,-0.01151697,-0.00244337,-0.00
 135332,-0.00072071,-0.00034901,0.00018990,-0.00019853,-0.00065428,-0.0
 0018366,0.00056736,-0.00039296,0.00016245,-0.00002845,-0.00005985,0.00
 055303,-0.00056107,-0.00076722,0.00009121,-0.00017008,0.00019521,-0.00
 004645,0.00006365,0.00063048,0.00024883,0.00002875,0.00019615,-0.00009
 773,-0.00002725,0.00002170,-0.00055663,-0.00039399,-0.00101898,-0.0002
 9184,0.00007633,0.00004047,0.00009590,-0.00007514,-0.00008577,0.000049
 87,0.00006584,0.00002453,-0.00007445,-0.00006039,0.00008894,0.00002126
 ,0.00004521,-0.00004293,-0.00004215,-0.00000651,0.00001292,0.00001037,
 0.00003128,0.00000097,0.00000080,-0.00001485,0.00008291,-0.00008829,0.
 00005564,-0.00007070,-0.00000727,-0.00000786,0.00002771,0.00000706,0.0
 0000104,-0.00000944,-0.00003896,-0.00002463,0.00001096,0.00018792,-0.0
 0086420,-0.00008055,0.00003030,-0.00012468,0.00002923,0.00079911,-0.00
 070459,0.00113889,-0.00026225,0.00079714,0.00038640,-0.00010720,0.0005
 3348,0.00020147,-0.00000506,-0.00002997,-0.00041048,-0.00011029,-0.000
 06400,0.00022599,0.00006286,0.00003611,-0.00002667,0.00008551,0.000121
 33,-0.00002100,-0.00004624,-0.00004058,-0.00001989,-0.00004846,-0.0000
 1335,-0.00002553,-0.00000686,0.00002252,-0.00000091,0.00000323,0.00000
 272,0.00000857,-0.00000153,-0.00001170,-0.00000904,0.00000507,-0.00000
 848,0.00000924,0.00000510,-0.00001600,0.00000019,0.00000572,0.00000144
 ,-0.00000448,-0.00000592,0.00000942,0.00000141,-0.00000466,0.00000322,
 -0.00000070,0.00000340,0.00000157,-0.00000516,0.00000443,-0.00000164,0
 .00000999,0.00000179,0.00001032,-0.00000338,0.00000464,0.00000132,-0.0
 0000085,0.00000057,0.00000163,0.00001206,-0.00000175,-0.00000811,-0.00
 000312,0.00000593,0.00000405,0.00000101,0.00000278,0.00001461,-0.00000
 327,0.00000403,-0.00000420,-0.00000956,0.00003224,0.00002809,0.0001439
 3,0.00000649,-0.00001670,-0.00000852,-0.00000053,0.00005140,-0.0000180
 1,0.00012717,-0.00016789,0.00007530,-0.00001927,0.00035239,-0.00052980
 ,0.05822571,-0.09023300,-0.20383196,0.03671744,0.00225790,-0.06993368,
 -0.08357935,0.14277352,0.31909535,0.00005099,0.00034238,0.00000328,-0.
 00020473,-0.00010133,-0.00006940,0.00011134,-0.00010802,0.00001532,-0.
 00038293,0.00013741,-0.00010605,-0.00076473,0.00081854,0.00021292,-0.0
 0168927,-0.00450357,0.00026941,-0.03927480,-0.01576134,-0.02251681,-0.
 00145962,0.00784419,-0.00250841,0.00082417,0.00037587,0.00012767,0.000
 37939,-0.00093897,0.00010843,0.00020993,-0.00002424,-0.00004910,-0.000
 05316,0.00049472,0.00008075,0.00004546,0.00027174,-0.00000896,0.000182
 53,-0.00000483,0.00009112,-0.00001193,0.00002812,0.00004043,-0.0000575
 8,-0.00012903,-0.00005516,-0.00020292,-0.00001584,-0.00010212,0.000100
 59,-0.00003924,0.00005882,-0.00003315,0.00010377,-0.00004660,-0.000031
 81,-0.00008440,-0.00003410,-0.00002840,0.00000911,0.00000438,-0.000051
 65,-0.00001662,-0.00001539,-0.00003859,-0.00000905,-0.00002835,0.00001
 919,-0.00003135,0.00000984,0.00001158,0.00001799,0.00002247,-0.0000263
 2,-0.00003066,-0.00001750,0.00002895,0.00001881,-0.00001973,0.00000150
 ,-0.00004453,0.00002586,-0.00003673,0.00000678,-0.00001469,0.00050753,
 0.00057147,0.00038169,0.00002209,0.00018024,-0.00005683,-0.00306319,-0
 .00009833,-0.00013618,-0.00049355,-0.00069202,-0.00025991,-0.00019653,
 -0.00065061,-0.00027242,-0.00001837,0.00023058,0.00084675,0.00113242,0
 .00026620,-0.00080726,-0.00072390,0.00004870,0.00039649,-0.00062096,-0
 .00031186,0.00037216,0.00025482,0.00010962,-0.00025942,0.00035319,0.00
 001633,-0.00007313,-0.00001930,-0.00001240,0.00004839,-0.00002718,0.00
 000009,0.00003339,-0.00003543,-0.00001791,0.00000430,-0.00004634,0.000
 00012,-0.00000713,0.00000232,0.00000380,-0.00003760,-0.00003456,-0.000
 01228,0.00004039,0.00001455,0.00000644,-0.00002037,0.00000815,0.000019
 04,-0.00001005,-0.00003666,-0.00001355,0.00001654,0.00001612,-0.000000
 33,-0.00000601,0.00001817,-0.00001063,-0.00000423,-0.00003834,0.000000
 52,0.00001864,0.00001658,0.00000565,-0.00000867,0.00002996,0.00000133,
 0.00002143,-0.00005273,-0.00000488,0.00000299,0.00002497,0.00000155,-0
 .00000136,-0.00000651,-0.00001201,-0.00000552,-0.00025419,-0.00010286,
 -0.00023851,-0.00002107,0.00006247,-0.00000413,0.00003925,-0.00004360,
 0.00001540,-0.00012035,0.00022635,-0.00008192,-0.00005245,0.00240060,-
 0.00062208,-0.24632783,-0.05238929,-0.08191797,-0.03457254,-0.04249280
 ,0.00927294,0.01193949,-0.01438859,-0.01965450,0.31479669,-0.00003419,
 0.00000089,0.00001255,0.00002119,-0.00002846,0.00000669,0.00004197,0.0
 0005891,0.00001184,0.00001422,-0.00003006,0.00000402,0.00060286,0.0015
 2397,0.00010324,0.00024419,-0.00362002,0.00112617,0.01426151,0.0105380
 1,0.00581540,-0.00028737,-0.00257912,0.00062120,0.00037138,-0.00017435
 ,0.00020463,0.00030901,0.00050899,-0.00002580,0.00001855,0.00021846,0.
 00001747,0.00028925,-0.00035104,-0.00019549,0.00015789,-0.00012844,0.0
 0018607,0.00015542,0.00013617,0.00028721,0.00000877,-0.00000753,-0.000
 03278,-0.00006789,-0.00001796,-0.00000544,-0.00011480,-0.00007344,-0.0
 0018255,0.00009731,0.00005868,0.00011623,-0.00005767,0.00004840,-0.000
 08680,-0.00002827,0.00000112,-0.00004727,-0.00003674,-0.00001633,0.000
 01815,-0.00002590,0.00002667,-0.00002844,-0.00003663,-0.00001338,-0.00
 000794,0.00000848,0.00003674,0.00000919,0.00001232,-0.00000738,0.00003
 986,-0.00006864,0.00003728,-0.00005940,0.00002515,-0.00002536,0.000019
 95,0.00001755,0.00003246,-0.00000345,-0.00004321,-0.00001777,-0.000016
 61,0.00037793,-0.00113713,0.00034189,0.00018744,-0.00006420,0.00007190
 ,0.00146022,-0.00026986,0.00026939,-0.00047841,0.00087096,-0.00029743,
 -0.00020173,0.00052152,-0.00008281,0.00010981,0.00010235,-0.00052319,-
 0.00034969,-0.00023393,0.00036461,0.00016099,0.00006481,-0.00011566,0.
 00013400,0.00021799,-0.00014385,-0.00006742,-0.00005588,0.00005730,-0.
 00004805,-0.00001506,0.00000625,0.00001606,0.00000516,-0.00000910,0.00
 000789,0.00000562,-0.00000959,0.00001029,-0.00000267,0.00000511,0.0000
 1284,-0.00001329,-0.00000017,-0.00000448,-0.00001043,0.00000598,0.0000
 0816,0.00000002,-0.00001083,-0.00000799,0.00001172,0.00000271,-0.00000
 442,0.00000588,0.00000398,0.00001030,0.00000058,-0.00000468,-0.0000031
 2,-0.00000425,0.00000185,0.00000847,0.00001717,0.00000191,-0.00000257,
 0.00000572,-0.00000698,0.00000277,-0.00001149,-0.00000452,-0.00000531,
 -0.00000193,-0.00000996,0.00000436,0.00000469,0.00000361,0.00000367,0.
 00001296,0.00000093,0.00000320,-0.00001125,0.00000517,0.00003489,0.000
 03001,0.00014556,0.00000096,-0.00000993,-0.00000068,-0.00000219,0.0000
 5750,0.00000577,-0.00012441,0.00003205,-0.00004262,0.00216579,0.001218
 62,0.00039181,-0.05823222,-0.10280708,-0.02814116,-0.05375146,-0.02924
 446,0.00181186,-0.02576095,-0.01713155,-0.04119529,0.11845958,0.141705
 40,0.00001642,0.00012245,0.00001195,-0.00007567,-0.00004202,-0.0000232
 1,0.00004977,-0.00003152,0.00001261,-0.00015287,0.00006571,-0.00002672
 ,-0.00049274,0.00030038,0.00000693,-0.00043677,-0.00190847,-0.00013906
 ,-0.01908509,-0.00666925,0.00074736,-0.00127485,0.00373583,0.00050877,
 0.00019199,0.00017465,-0.00014930,0.00029445,-0.00018141,-0.00000591,0
 .00008051,-0.00001761,0.00004715,0.00009709,0.00008246,-0.00020175,0.0
 0002086,0.00008237,0.00002578,0.00005812,0.00000352,0.00022887,0.00005
 985,0.00001082,0.00007843,-0.00004371,-0.00005627,-0.00001799,-0.00007
 432,0.00005425,-0.00030690,-0.00007011,-0.00000112,0.00001879,0.000032
 04,0.00000422,-0.00003668,0.00001001,-0.00001264,0.00000422,-0.0000348
 1,-0.00001414,0.00002754,-0.00001051,0.00000281,-0.00001465,-0.0000245
 5,-0.00000365,-0.00000649,0.00001088,-0.00000961,0.00000227,0.00000256
 ,0.00000339,0.00003143,-0.00003008,-0.00000178,-0.00002116,0.00000524,
 0.00001069,-0.00000257,-0.00000032,-0.00002549,0.00000850,-0.00002148,
 -0.00000230,0.00000054,0.00020336,0.00021188,0.00007685,0.00000596,0.0
 0005938,-0.00002775,-0.00098667,-0.00062102,-0.00081611,-0.00021485,-0
 .00022453,0.00007703,-0.00008179,-0.00020604,-0.00003106,-0.00012763,0
 .00010705,0.00030575,0.00054836,0.00012975,-0.00037230,-0.00034263,0.0
 0002701,0.00020156,-0.00028161,-0.00014073,0.00019833,0.00011144,0.000
 04479,-0.00014254,0.00015313,0.00000376,-0.00004430,-0.00001576,0.0000
 0319,0.00002492,-0.00001274,0.,0.00002211,-0.00002013,-0.00001222,-0.0
 0000327,-0.00002239,0.00000013,0.00000085,0.00000453,-0.00000451,-0.00
 001881,-0.00001502,-0.00000490,0.00001913,0.00000470,0.00000520,-0.000
 00958,0.00000233,0.00000892,-0.00000589,-0.00001767,-0.00000559,0.0000
 0615,0.00001010,0.00000003,0.00000158,0.00000712,-0.00000399,-0.000003
 32,-0.00001510,-0.00000085,0.00000978,0.00000748,0.00000537,0.00000221
 ,0.00001389,-0.00000240,0.00001124,-0.00002234,-0.00000186,0.00000083,
 0.00001143,0.00000402,-0.00000184,-0.00000058,-0.00000531,-0.00000761,
 -0.00009731,-0.00006425,-0.00007969,-0.00000669,0.00002400,-0.00000607
 ,0.00001906,-0.00001713,-0.00000598,-0.00004250,0.00008909,-0.00003755
 ,-0.00009896,0.00079960,-0.00056710,-0.08161775,-0.02514328,-0.1144304
 9,0.02053678,0.01026276,0.01883873,-0.03422195,-0.04020533,-0.04250215
 ,0.11753105,0.05919412,0.13851277,0.00355088,-0.00229871,0.00067065,-0
 .25446420,0.12070279,-0.05736220,-0.01546222,0.01544900,-0.00454469,-0
 .00201124,-0.00338316,-0.00286154,-0.00011081,-0.00000547,-0.00004210,
 0.00004771,-0.00003708,0.00002778,0.00000765,0.00006041,-0.00000405,-0
 .00002940,0.00002239,-0.00000792,-0.00000733,-0.00001046,-0.00000207,-
 0.00002599,0.00002059,0.00043835,0.00003596,-0.00101830,0.00004983,0.0
 0000628,-0.00004297,-0.00001328,0.00000293,-0.00003379,0.00000876,-0.0
 0000388,0.00000729,0.00000114,0.00000120,-0.00000179,-0.00000317,-0.00
 000256,0.00000567,0.00000245,0.00000257,-0.00000233,0.00000097,-0.0000
 0286,0.00000512,0.00000208,-0.00000025,-0.00000194,-0.00000054,-0.0000
 0066,0.00000546,-0.00000077,0.00000084,-0.00000143,0.00000002,0.000001
 19,0.00000417,-0.00000148,0.00000277,0.00000023,0.00000166,-0.00000150
 ,0.00000398,0.00000046,-0.00000116,-0.00000152,-0.00000081,-0.00000161
 ,0.00000570,-0.00000188,-0.00000133,-0.00000230,0.00000241,0.00000098,
 0.00000496,-0.00000277,0.00000175,-0.00000120,0.00000123,0.00001655,-0
 .00019257,-0.00006958,0.00226744,-0.00085079,-0.00173523,0.00000023,0.
 00004186,-0.00001170,-0.00002468,0.00010911,-0.00000983,0.00001029,0.0
 0009741,0.00002661,0.00005332,-0.00001356,0.00005871,-0.00018665,0.000
 02509,0.00007601,0.00005942,-0.00003884,-0.00003198,0.00008525,0.00002
 960,-0.00004296,-0.00000697,-0.00000948,0.00002581,-0.00004420,-0.0000
 0114,0.00000332,-0.00000259,0.00001022,-0.00000469,0.00000228,-0.00000
 383,-0.00000717,0.00000690,-0.00000045,-0.00000052,0.00000625,-0.00000
 080,0.00000033,-0.00000066,-0.00000048,0.00000238,0.00000240,-0.000001
 59,-0.00000317,0.00000226,-0.00000303,0.00000071,0.00000225,0.00000165
 ,0.00000818,0.00000246,0.00000412,-0.00000262,-0.00000262,-0.00000438,
 -0.00000197,-0.00000183,0.00000047,0.00000024,0.00000372,0.00000101,-0
 .00000244,-0.00000194,0.00000007,0.00000052,-0.00000257,-0.00000056,-0
 .00000227,0.00000480,0.00000036,0.00000025,-0.00000289,-0.00000019,-0.
 00000068,-0.00004477,0.00024758,0.00088042,0.00001249,0.00000771,0.000
 02510,0.00068565,-0.00000438,0.00128635,-0.00072955,0.00081482,-0.0002
 4553,0.00006663,0.00002072,-0.00001580,-0.00000338,-0.00000062,0.00000
 411,0.00008385,-0.00006782,0.00000826,-0.00001456,0.00003159,-0.000015
 95,-0.00002349,0.00002533,0.00001145,-0.00003158,0.00000905,-0.0000105
 8,0.26621477,0.02785453,-0.00723866,0.00764041,0.12041675,-0.13178325,
 0.03037131,-0.01406665,0.01209398,-0.00356644,-0.00302634,-0.00085469,
 -0.00119110,-0.00002738,-0.00006768,0.00000786,0.00005461,0.00001409,0
 .00001438,0.00002815,0.00001153,0.00000507,-0.00003568,0.00004555,-0.0
 0000908,-0.00000725,-0.00000566,0.00000011,0.00014376,0.00010927,0.000
 07809,-0.00181398,-0.00133690,-0.00055762,-0.00001241,0.00003965,0.000
 01995,0.00000644,0.00004515,-0.00003242,0.00000077,-0.00001079,-0.0000
 0342,-0.00000305,0.00000150,0.00000365,0.00000508,-0.00000562,-0.00000
 268,-0.00000066,0.00000202,0.00000064,0.00000465,-0.00000776,-0.000006
 75,0.00000087,0.00000118,0.00000176,0.00000143,-0.00000720,0.00000284,
 -0.00000130,0.00000125,0.00000097,0.00000018,-0.00001152,0.00001033,-0
 .00000359,-0.00000090,-0.00000310,0.00000196,-0.00000780,-0.00000384,0
 .00000055,0.00000215,0.00000169,0.00000384,-0.00001010,0.00000415,0.00
 000612,0.00000195,-0.00000015,-0.00000463,-0.00000593,0.00000480,-0.00
 000301,-0.00000142,-0.00000527,-0.00010964,0.00008876,-0.00001485,0.00
 069549,-0.00687364,-0.00054685,-0.00000018,-0.00007034,0.00003735,0.00
 005334,-0.00015659,0.00002827,0.00000007,-0.00021357,-0.00001963,0.000
 17417,0.00072601,0.00011513,0.00044130,-0.00009208,-0.00015528,-0.0002
 8107,0.00014649,0.00005465,-0.00019344,0.00001736,0.00007178,0.0000503
 5,-0.00001868,-0.00001883,0.00007486,-0.00003510,-0.00000455,-0.000012
 50,-0.00002464,0.00000139,0.00000996,-0.00003490,-0.00000304,-0.000015
 28,0.00000586,0.00000147,-0.00001405,0.00000343,0.00000635,-0.00000736
 ,0.00000924,-0.00001156,0.00000038,0.00000603,0.00000302,0.00000722,0.
 00001115,0.00001599,-0.00002216,0.00002642,0.00003639,-0.00000629,0.00
 002538,-0.00001205,-0.00000905,-0.00002243,-0.00000838,0.00000255,0.00
 000644,-0.00000041,-0.00000695,-0.00000539,0.00000661,0.00000203,-0.00
 000258,-0.00000280,0.00000970,-0.00000446,-0.00000471,-0.00001091,-0.0
 0000605,-0.00000010,0.00000159,0.00001059,-0.00000147,-0.00039071,0.00
 073400,0.00007350,-0.00003654,0.00002670,-0.00001951,0.00055962,0.0006
 7305,0.00032548,-0.00078660,0.00049101,-0.00025404,0.00002725,0.000018
 67,-0.00000195,0.00000523,-0.00000260,0.00000052,-0.00002831,0.0000238
 6,-0.00001297,0.00000528,-0.00000632,0.00000531,0.00000866,-0.00000841
 ,-0.00000233,0.00001682,-0.00000243,0.00000764,-0.12973858,0.13351634,
 0.00190481,-0.00138954,0.00156847,-0.05724357,0.03077732,-0.05080201,-
 0.00580219,0.00465548,0.00126196,-0.00287612,-0.00119964,0.00658510,0.
 00009961,-0.00008399,0.00011716,-0.00003009,0.00013181,-0.00004197,-0.
 00006208,-0.00009694,-0.00002392,0.00010304,-0.00000820,0.00003256,0.0
 0000543,0.00000654,0.00000424,0.00037604,0.00008711,-0.00147740,0.0002
 5760,-0.00022541,-0.00021812,0.00000942,-0.00000166,0.00000108,0.00001
 880,-0.00003121,0.00001968,0.00000103,-0.00000157,0.00000202,0.0000018
 2,0.00000028,-0.00000217,-0.00000021,0.00000130,-0.00000025,-0.0000015
 0,-0.00000076,-0.00000109,-0.00000220,-0.00000030,0.00000031,-0.000001
 78,0.00000016,-0.00000128,0.00000003,0.00000106,-0.00000024,0.00000149
 ,0.00000033,-0.00000034,-0.00000118,0.00000612,-0.00000459,-0.00000027
 ,-0.00000131,0.00000079,-0.00000102,0.00000406,0.00000117,0.00000175,-
 0.00000131,-0.00000049,-0.00000235,0.00001037,-0.00000315,-0.00000197,
 -0.00000052,-0.00000093,0.00000328,0.00000335,-0.00000321,-0.00000048,
 -0.00000011,0.00000221,0.00000676,-0.00009202,0.00036381,-0.00188114,-
 0.00092050,0.00766844,-0.00009758,0.00001760,0.00004599,-0.00001091,0.
 00000167,-0.00004043,-0.00000973,0.00012764,-0.00004023,0.00002779,0.0
 0017815,-0.00053934,-0.00011409,-0.00011842,0.00009743,0.00022133,0.00
 000244,-0.00017001,0.00005456,0.00001120,-0.00003989,-0.00008827,0.000
 02030,0.00009229,-0.00001595,0.00003029,0.00000433,0.00000700,0.000044
 09,-0.00001020,-0.00000163,0.00004603,0.00000545,-0.00000013,0.0000028
 2,0.00000150,0.00000676,-0.00001215,0.00000024,0.00000143,-0.00000771,
 0.00000454,-0.00000033,-0.00000747,-0.00000906,-0.00000106,-0.00001377
 ,-0.00001019,0.00001572,-0.00001720,-0.00000616,0.00000680,-0.00001294
 ,-0.00000021,-0.00000328,-0.00000746,-0.00000397,-0.00000049,-0.000003
 43,-0.00000299,0.00000451,0.00000248,-0.00000118,-0.00000371,0.0000032
 3,-0.00000314,-0.00000354,0.00000229,-0.00000068,0.00000505,0.00000355
 ,0.00000009,-0.00000034,-0.00000540,-0.00000151,0.00068509,0.00013437,
 -0.00286845,-0.00002065,0.00003121,-0.00001746,0.00130677,0.00018119,-
 0.00341408,-0.00028939,0.00020353,0.00010576,0.00000591,0.00001364,0.0
 0006796,0.00000368,-0.00000021,-0.00001406,-0.00001949,0.00001188,0.00
 004948,0.00000650,-0.00001303,-0.00000192,-0.00000275,0.00000203,-0.00
 000539,0.00000431,-0.00000108,-0.00000515,0.06343740,-0.03248167,0.041
 68279\\-0.00000311,-0.00001233,-0.00000199,0.00000396,0.00000585,-0.00
 000023,0.00000422,-0.00000509,-0.00000043,-0.00000211,-0.00000238,-0.0
 0000159,-0.00000380,0.00000392,0.00000094,0.00000685,-0.00001087,-0.00
 000028,-0.00001168,0.00000428,0.00000024,0.00001644,-0.00000209,0.0000
 0171,-0.00000131,-0.00000298,0.00000240,0.00000220,0.00000491,-0.00000
 029,0.00000916,0.00000660,0.00000234,-0.00000843,0.00000400,-0.0000023
 0,0.00000579,-0.00000622,-0.00000255,0.00000332,-0.00000084,0.00000410
 ,-0.00000013,-0.00000043,0.00000053,-0.00000053,0.00000090,0.00000085,
 -0.00000114,-0.00000288,-0.00000114,0.00000140,-0.00000458,0.00000105,
 -0.00000381,-0.00000038,0.00000048,-0.00000164,0.00000391,0.00000265,0
 .00000171,-0.00000080,0.00000046,-0.00000425,0.00000930,-0.00000421,0.
 00000319,0.00000038,0.00000228,0.00000181,-0.00000650,0.00000273,-0.00
 000181,-0.00000234,0.00000254,-0.00000250,0.00000380,0.00000039,-0.000
 00138,-0.00000171,-0.00000069,0.,0.00000016,-0.00000037,-0.00000130,-0
 .00000025,0.00000085,-0.00000722,-0.00000357,0.00000259,-0.00000221,-0
 .00000177,-0.00000144,-0.00000881,0.00000278,-0.00000255,0.00000428,-0
 .00000451,0.00000064,0.00000155,0.00000464,0.00000155,-0.00000160,0.00
 000846,-0.00000017,0.00000511,-0.00000965,0.00000234,-0.00000168,0.000
 00002,-0.00000063,-0.00000051,0.00000052,-0.00000166,0.00000840,0.0000
 0658,-0.00000436,-0.00000036,0.00000182,0.00000434,-0.00000356,0.00000
 280,0.00000229,-0.00000677,0.00000424,-0.00000177,-0.00000217,-0.00000
 258,0.00000223,-0.00000575,-0.00000576,-0.00000204,0.00000032,-0.00000
 021,-0.00000099,0.00000050,0.00000046,-0.00000238,0.00000007,-0.000002
 72,-0.00000166,0.00000122,-0.00000188,-0.00000176,0.00000132,0.0000012
 7,-0.00000314,0.00000030,0.00000019,0.00000057,-0.00000059,0.00000192,
 -0.00000085,-0.00000023,0.00000092,-0.00000205,-0.00000037,0.00000137,
 -0.00000214,0.00000106,0.00000190,-0.00000386,0.00000374,0.00000204,-0
 .00000094,0.00000019,0.00000268,0.00000031,0.00000447,0.00000256,0.000
 00095,-0.00000176,0.00000012,-0.00000206,0.00000040,0.00000286,-0.0000
 0045,-0.00000058,-0.00000085,0.,-0.00000004,-0.00000160,0.00000157,-0.
 00000176,-0.00000055,0.00000157,-0.00000128,0.00000154,0.00000653,-0.0
 0000150,0.00000138,0.00000314,0.00000510,-0.00000123,-0.00000225,0.000
 00140,-0.00000239,-0.00000090,-0.00000180,0.00000084,-0.00000106\\\@
 The archive entry for this job was punched.


 The chemist is a guest at the physicist's table and
 frequently dines well.
                   -- Richard Bersohn
 Job cpu time:       0 days  9 hours  9 minutes 58.5 seconds.
 Elapsed time:       0 days  0 hours 35 minutes 12.6 seconds.
 File lengths (MBytes):  RWF=   2427 Int=      0 D2E=      0 Chk=     23 Scr=      1
 Normal termination of Gaussian 16 at Sat Dec  7 19:24:16 2024.
