/mnt/lustre/scratch/nvme/SLURM/9663640/usccqdma.vJKtWMXF3Q
OMP_STACKSIZE=0m
GAUSS_PDEF=16
GAUSS_MDEF=65536MB
GAUSS_RDEF=SCF=Direct
 Entering Gaussian System, Link 0=g16.exe
 Initial command:
 /opt/cesga/2020/software/Core/g16/c1/l1.exe "/mnt/lustre/scratch/nvme/SLURM/9663640/usccqdma.vJKtWMXF3Q/Gau-1881109.inp" -scrdir="/mnt/lustre/scratch/nvme/SLURM/9663640/usccqdma.vJKtWMXF3Q/"
 Default is to use a total of  16 processors:
                               16 via shared-memory
                                1 via Linda
 Entering Link 1 = /opt/cesga/2020/software/Core/g16/c1/l1.exe PID=   1881135.
  
 Copyright (c) 1988-2019, Gaussian, Inc.  All Rights Reserved.
  
 This is part of the Gaussian(R) 16 program.  It is based on
 the Gaussian(R) 09 system (copyright 2009, Gaussian, Inc.),
 the Gaussian(R) 03 system (copyright 2003, Gaussian, Inc.),
 the Gaussian(R) 98 system (copyright 1998, Gaussian, Inc.),
 the Gaussian(R) 94 system (copyright 1995, Gaussian, Inc.),
 the Gaussian 92(TM) system (copyright 1992, Gaussian, Inc.),
 the Gaussian 90(TM) system (copyright 1990, Gaussian, Inc.),
 the Gaussian 88(TM) system (copyright 1988, Gaussian, Inc.),
 the Gaussian 86(TM) system (copyright 1986, Carnegie Mellon
 University), and the Gaussian 82(TM) system (copyright 1983,
 Carnegie Mellon University). Gaussian is a federally registered
 trademark of Gaussian, Inc.
  
 This software contains proprietary and confidential information,
 including trade secrets, belonging to Gaussian, Inc.
  
 This software is provided under written license and may be
 used, copied, transmitted, or stored only in accord with that
 written license.
  
 The following legend is applicable only to US Government
 contracts under FAR:
  
                    RESTRICTED RIGHTS LEGEND
  
 Use, reproduction and disclosure by the US Government is
 subject to restrictions as set forth in subparagraphs (a)
 and (c) of the Commercial Computer Software - Restricted
 Rights clause in FAR 52.227-19.
  
 Gaussian, Inc.
 340 Quinnipiac St., Bldg. 40, Wallingford CT 06492
  
  
 ---------------------------------------------------------------
 Warning -- This program may not be used in any manner that
 competes with the business of Gaussian, Inc. or will provide
 assistance to any competitor of Gaussian, Inc.  The licensee
 of this program is prohibited from giving any competitor of
 Gaussian, Inc. access to this program.  By using this program,
 the user acknowledges that Gaussian, Inc. is engaged in the
 business of creating and licensing software in the field of
 computational chemistry and represents and warrants to the
 licensee that it is not a competitor of Gaussian, Inc. and that
 it will not use this program in any manner prohibited above.
 ---------------------------------------------------------------
  

 Cite this work as:
 Gaussian 16, Revision C.01,
 M. J. Frisch, G. W. Trucks, H. B. Schlegel, G. E. Scuseria, 
 M. A. Robb, J. R. Cheeseman, G. Scalmani, V. Barone, 
 G. A. Petersson, H. Nakatsuji, X. Li, M. Caricato, A. V. Marenich, 
 J. Bloino, B. G. Janesko, R. Gomperts, B. Mennucci, H. P. Hratchian, 
 J. V. Ortiz, A. F. Izmaylov, J. L. Sonnenberg, D. Williams-Young, 
 F. Ding, F. Lipparini, F. Egidi, J. Goings, B. Peng, A. Petrone, 
 T. Henderson, D. Ranasinghe, V. G. Zakrzewski, J. Gao, N. Rega, 
 G. Zheng, W. Liang, M. Hada, M. Ehara, K. Toyota, R. Fukuda, 
 J. Hasegawa, M. Ishida, T. Nakajima, Y. Honda, O. Kitao, H. Nakai, 
 T. Vreven, K. Throssell, J. A. Montgomery, Jr., J. E. Peralta, 
 F. Ogliaro, M. J. Bearpark, J. J. Heyd, E. N. Brothers, K. N. Kudin, 
 V. N. Staroverov, T. A. Keith, R. Kobayashi, J. Normand, 
 K. Raghavachari, A. P. Rendell, J. C. Burant, S. S. Iyengar, 
 J. Tomasi, M. Cossi, J. M. Millam, M. Klene, C. Adamo, R. Cammi, 
 J. W. Ochterski, R. L. Martin, K. Morokuma, O. Farkas, 
 J. B. Foresman, and D. J. Fox, Gaussian, Inc., Wallingford CT, 2019.
 
 ******************************************
 Gaussian 16:  ES64L-G16RevC.01  3-Jul-2019
                 7-Dec-2024 
 ******************************************
 Default route: SCF=Direct
 ----------------------------------------------------
 # m06/genecp scf=tight int=ultrafine 5d freq=noraman
 ----------------------------------------------------
 1/10=4,30=1,38=1/1,3;
 2/12=2,17=6,18=5,40=1/2;
 3/5=7,8=1,11=2,16=1,17=8,25=1,30=1,71=2,74=-54,75=-5,140=1/1,2,3;
 4//1;
 5/5=2,32=2,38=5,98=1/2;
 8/6=4,10=90,11=11/1;
 11/6=1,8=1,9=11,15=111,16=1/1,2,10;
 10/6=1/2;
 6/7=2,8=2,9=2,10=2,28=1/1;
 7/8=1,10=1,25=1/1,2,3,16;
 1/10=4,30=1/3;
 99//99;
 ------
 OPT-TS
 ------
 Symbolic Z-matrix:
 Charge =  0 Multiplicity = 1
 C                     2.14711  -1.92403   0.89315 
 C                     2.75977   0.29502   0.65072 
 C                     4.06041   0.02879   1.05252 
 C                     4.39487  -1.27122   1.42172 
 C                     3.42635  -2.25486   1.34462 
 C                     1.08023  -2.92481   0.71814 
 C                    -1.04027  -3.37217  -0.10636 
 C                    -0.99514  -4.68126   0.34964 
 C                     0.13958  -5.11341   1.02447 
 C                     1.18508  -4.22376   1.21377 
 H                     2.42517   1.30105   0.39889 
 H                     5.40846  -1.51043   1.73823 
 H                     3.68135  -3.28244   1.5862 
 H                    -1.92276  -2.96192  -0.59752 
 H                     0.20836  -6.12923   1.40826 
 H                     2.07075  -4.53573   1.76048 
 N                     1.83051  -0.65718   0.56689 
 N                    -0.02639  -2.51602   0.06353 
 Ir                   -0.18419  -0.35235  -0.43748 
 O                    -2.31971   0.72335   1.59737 
 O                    -2.36482   0.39335  -2.45301 
 O                     0.42527   2.33131   0.80474 
 B                    -2.00647  -0.31291  -1.31493 
 B                    -1.36208  -0.23519   1.2881 
 B                    -0.38335   1.6745   -0.12628 
 O                    -1.18639   2.58479  -0.78737 
 O                    -1.3317   -1.213     2.27757 
 C                    -2.50373  -1.04914   3.09214 
 C                    -2.80898   0.46536   2.92091 
 C                     0.3065    3.74436   0.57452 
 C                    -1.07862   3.85301  -0.1295 
 C                    -3.79573   0.4005   -2.51774 
 C                    -4.15544  -0.94666  -1.8352 
 O                    -3.09855  -1.07696  -0.87198 
 C                    -4.27742   0.83596   2.97066 
 H                    -4.84415   0.32302   2.18488 
 H                    -4.71833   0.58427   3.94623 
 H                    -4.39136   1.91728   2.81458 
 C                    -2.01121   1.34066   3.87995 
 H                    -2.33898   1.21517   4.92077 
 H                    -0.93785   1.11769   3.81457 
 H                    -2.15191   2.3952    3.60862 
 C                    -3.58141  -1.94753   2.49705 
 H                    -4.50624  -1.93178   3.09 
 H                    -3.80696  -1.65543   1.46201 
 H                    -3.20261  -2.97881   2.47929 
 C                    -2.18719  -1.48337   4.50874 
 H                    -1.30654  -0.96542   4.90414 
 H                    -3.03875  -1.29076   5.17757 
 H                    -1.98062  -2.56134   4.52684 
 C                    -4.27307   1.60919  -1.71934 
 H                    -3.76823   2.50144  -2.11111 
 H                    -5.36017   1.74958  -1.79832 
 H                    -3.99565   1.51803  -0.65895 
 C                    -4.23081   0.52238  -3.9634 
 H                    -5.32352   0.4365   -4.05338 
 H                    -3.93494   1.50383  -4.35508 
 H                    -3.7651   -0.24479  -4.59219 
 C                    -5.4861   -0.96349  -1.11052 
 H                    -6.31523  -0.76277  -1.80447 
 H                    -5.6542   -1.95084  -0.65932 
 H                    -5.51222  -0.21648  -0.30862 
 C                    -4.05872  -2.13775  -2.77943 
 H                    -4.87203  -2.1463   -3.51758 
 H                    -3.09947  -2.13925  -3.31437 
 H                    -4.12513  -3.06407  -2.19254 
 C                    -2.24092   3.96476   0.84721 
 H                    -3.18024   3.84464   0.29118 
 H                    -2.19681   3.16277   1.59227 
 H                    -2.25969   4.94032   1.35196 
 C                    -1.18064   4.95295  -1.16902 
 H                    -2.1848    4.94464  -1.61244 
 H                    -1.02037   5.94076  -0.71281 
 H                    -0.45715   4.81844  -1.98049 
 C                     1.46382   4.14585  -0.33139 
 H                     1.49443   5.22877  -0.51132 
 H                     2.41058   3.85502   0.14443 
 H                     1.39627   3.63486  -1.30223 
 C                     0.41299   4.46974   1.90043 
 H                     0.24169   5.54837   1.77259 
 H                    -0.30952   4.08332   2.62811 
 H                     1.41872   4.33381   2.31894 
 H                     0.2183    0.56666  -1.72468 
 C                     3.33012  -1.06051  -2.27005 
 O                     3.17553  -2.2155   -1.88398 
 C                     4.72029  -0.45393  -2.40451 
 H                     4.88715  -0.17308  -3.4567 
 H                     4.76849   0.49254  -1.84216 
 C                     0.91933  -0.73843  -2.46614 
 H                     0.34443  -0.48708  -3.36602 
 H                     0.96051  -1.82576  -2.37055 
 N                     2.27832  -0.25415  -2.61091 
 C                     2.44642   1.14702  -2.93299 
 H                     1.52868   1.51359  -3.4071 
 H                     2.63402   1.76462  -2.03677 
 H                     3.26907   1.3076   -3.63853 
 C                     5.80823  -1.40174  -1.93908 
 H                     5.69056  -1.64434  -0.87516 
 H                     5.76789  -2.34698  -2.49075 
 C                     5.07437   1.12639   1.10822 
 F                     4.77343   2.11695   0.25696 
 F                     5.16156   1.66354   2.32846 
 F                     6.29274   0.67526   0.78665 
 H                    -1.84388  -5.34021   0.18476 
 H                     6.79859  -0.95188  -2.07811 
 

 GradGradGradGradGradGradGradGradGradGradGradGradGradGradGradGradGradGrad
 Berny optimization.
 Initialization pass.
 Trust Radius=3.00D-01 FncErr=1.00D-07 GrdErr=1.00D-07 EigMax=2.50D+02 EigMin=1.00D-04
 Number of steps in this run=      2 maximum allowed number of steps=      2.
 GradGradGradGradGradGradGradGradGradGradGradGradGradGradGradGradGradGrad

 Stoichiometry    C34H54B3F3IrN3O7
 Framework group  C1[X(C34H54B3F3IrN3O7)]
 Deg. of freedom   309
 Full point group                 C1      NOp   1
 Largest Abelian subgroup         C1      NOp   1
 Largest concise Abelian subgroup C1      NOp   1
                         Standard orientation:                         
 ---------------------------------------------------------------------
 Center     Atomic      Atomic             Coordinates (Angstroms)
 Number     Number       Type             X           Y           Z
 ---------------------------------------------------------------------
      1          6           0        2.147110   -1.924030    0.893149
      2          6           0        2.759770    0.295020    0.650719
      3          6           0        4.060410    0.028789    1.052519
      4          6           0        4.394870   -1.271221    1.421719
      5          6           0        3.426350   -2.254860    1.344619
      6          6           0        1.080229   -2.924810    0.718139
      7          6           0       -1.040271   -3.372170   -0.106361
      8          6           0       -0.995141   -4.681260    0.349639
      9          6           0        0.139579   -5.113410    1.024469
     10          6           0        1.185079   -4.223760    1.213769
     11          1           0        2.425170    1.301050    0.398889
     12          1           0        5.408460   -1.510431    1.738229
     13          1           0        3.681349   -3.282441    1.586199
     14          1           0       -1.922761   -2.961920   -0.597521
     15          1           0        0.208359   -6.129230    1.408259
     16          1           0        2.070749   -4.535730    1.760479
     17          7           0        1.830510   -0.657180    0.566889
     18          7           0       -0.026390   -2.516020    0.063529
     19         77           0       -0.184190   -0.352350   -0.437481
     20          8           0       -2.319710    0.723350    1.597369
     21          8           0       -2.364820    0.393350   -2.453011
     22          8           0        0.425270    2.331310    0.804739
     23          5           0       -2.006470   -0.312910   -1.314931
     24          5           0       -1.362080   -0.235190    1.288099
     25          5           0       -0.383350    1.674500   -0.126281
     26          8           0       -1.186390    2.584790   -0.787371
     27          8           0       -1.331700   -1.213000    2.277569
     28          6           0       -2.503730   -1.049140    3.092139
     29          6           0       -2.808980    0.465361    2.920909
     30          6           0        0.306501    3.744360    0.574519
     31          6           0       -1.078619    3.853010   -0.129501
     32          6           0       -3.795730    0.400501   -2.517741
     33          6           0       -4.155440   -0.946659   -1.835201
     34          8           0       -3.098550   -1.076959   -0.871981
     35          6           0       -4.277420    0.835961    2.970659
     36          1           0       -4.844150    0.323021    2.184879
     37          1           0       -4.718330    0.584271    3.946229
     38          1           0       -4.391360    1.917281    2.814579
     39          6           0       -2.011210    1.340660    3.879949
     40          1           0       -2.338980    1.215170    4.920769
     41          1           0       -0.937850    1.117690    3.814569
     42          1           0       -2.151910    2.395200    3.608619
     43          6           0       -3.581410   -1.947529    2.497049
     44          1           0       -4.506240   -1.931779    3.089999
     45          1           0       -3.806960   -1.655429    1.462009
     46          1           0       -3.202611   -2.978809    2.479289
     47          6           0       -2.187190   -1.483370    4.508739
     48          1           0       -1.306540   -0.965420    4.904139
     49          1           0       -3.038750   -1.290759    5.177569
     50          1           0       -1.980621   -2.561340    4.526839
     51          6           0       -4.273070    1.609191   -1.719341
     52          1           0       -3.768230    2.501441   -2.111111
     53          1           0       -5.360170    1.749581   -1.798321
     54          1           0       -3.995650    1.518031   -0.658951
     55          6           0       -4.230810    0.522381   -3.963401
     56          1           0       -5.323520    0.436501   -4.053381
     57          1           0       -3.934940    1.503831   -4.355081
     58          1           0       -3.765100   -0.244789   -4.592191
     59          6           0       -5.486100   -0.963489   -1.110521
     60          1           0       -6.315230   -0.762769   -1.804471
     61          1           0       -5.654200   -1.950839   -0.659321
     62          1           0       -5.512220   -0.216479   -0.308621
     63          6           0       -4.058720   -2.137749   -2.779431
     64          1           0       -4.872030   -2.146299   -3.517581
     65          1           0       -3.099470   -2.139249   -3.314371
     66          1           0       -4.125131   -3.064069   -2.192541
     67          6           0       -2.240919    3.964760    0.847209
     68          1           0       -3.180239    3.844641    0.291179
     69          1           0       -2.196810    3.162770    1.592269
     70          1           0       -2.259689    4.940320    1.351959
     71          6           0       -1.180639    4.952950   -1.169021
     72          1           0       -2.184799    4.944640   -1.612441
     73          1           0       -1.020369    5.940760   -0.712811
     74          1           0       -0.457149    4.818440   -1.980491
     75          6           0        1.463821    4.145850   -0.331391
     76          1           0        1.494431    5.228770   -0.511321
     77          1           0        2.410581    3.855020    0.144429
     78          1           0        1.396270    3.634860   -1.302231
     79          6           0        0.412991    4.469740    1.900429
     80          1           0        0.241691    5.548370    1.772589
     81          1           0       -0.309519    4.083320    2.628109
     82          1           0        1.418721    4.333810    2.318939
     83          1           0        0.218300    0.566660   -1.724681
     84          6           0        3.330120   -1.060510   -2.270051
     85          8           0        3.175530   -2.215500   -1.883981
     86          6           0        4.720290   -0.453931   -2.404511
     87          1           0        4.887150   -0.173081   -3.456701
     88          1           0        4.768490    0.492539   -1.842161
     89          6           0        0.919330   -0.738430   -2.466141
     90          1           0        0.344430   -0.487080   -3.366021
     91          1           0        0.960510   -1.825760   -2.370551
     92          7           0        2.278320   -0.254150   -2.610911
     93          6           0        2.446420    1.147020   -2.932991
     94          1           0        1.528680    1.513590   -3.407101
     95          1           0        2.634020    1.764620   -2.036771
     96          1           0        3.269070    1.307600   -3.638531
     97          6           0        5.808230   -1.401741   -1.939081
     98          1           0        5.690560   -1.644341   -0.875161
     99          1           0        5.767890   -2.346981   -2.490751
    100          6           0        5.074370    1.126389    1.108219
    101          9           0        4.773430    2.116949    0.256959
    102          9           0        5.161560    1.663539    2.328459
    103          9           0        6.292740    0.675259    0.786649
    104          1           0       -1.843881   -5.340210    0.184759
    105          1           0        6.798590   -0.951881   -2.078111
 ---------------------------------------------------------------------
 Rotational constants (GHZ):           0.0762384           0.0503746           0.0457338
 General basis read from cards:  (5D, 7F)
 ======================================================================================================
                                       Pseudopotential Parameters
 ======================================================================================================
  Center     Atomic      Valence      Angular      Power
  Number     Number     Electrons     Momentum     of R      Exponent        Coefficient   SO-Coeffient
 ======================================================================================================
    1          6
                                   No pseudopotential on this center.
    2          6
                                   No pseudopotential on this center.
    3          6
                                   No pseudopotential on this center.
    4          6
                                   No pseudopotential on this center.
    5          6
                                   No pseudopotential on this center.
    6          6
                                   No pseudopotential on this center.
    7          6
                                   No pseudopotential on this center.
    8          6
                                   No pseudopotential on this center.
    9          6
                                   No pseudopotential on this center.
   10          6
                                   No pseudopotential on this center.
   11          1
                                   No pseudopotential on this center.
   12          1
                                   No pseudopotential on this center.
   13          1
                                   No pseudopotential on this center.
   14          1
                                   No pseudopotential on this center.
   15          1
                                   No pseudopotential on this center.
   16          1
                                   No pseudopotential on this center.
   17          7
                                   No pseudopotential on this center.
   18          7
                                   No pseudopotential on this center.
   19         77           17
                                      G and up 
                                                     1      823.5880147       -0.15780140    0.00000000
                                                     2      364.6613336    -1517.52704460    0.00000000
                                                     2       55.7082801     -316.53065290    0.00000000
                                                     2       12.0464544      -91.88809410    0.00000000
                                                     2        3.5120610       -9.22417730    0.00000000
                                      S - G
                                                     0      188.0490770        3.15780140    0.00000000
                                                     1      340.4194712       26.83225770    0.00000000
                                                     2      128.2373673      800.42500070    0.00000000
                                                     2       33.8644961      369.40506830    0.00000000
                                                     2        4.7560005      242.41718990    0.00000000
                                                     2        3.9649974     -118.21732820    0.00000000
                                      P - G
                                                     0      289.7291139        2.15780140    0.00000000
                                                     1       87.4633789       61.96786100    0.00000000
                                                     2       30.4363766      269.05819860    0.00000000
                                                     2        4.0553412      231.16547930    0.00000000
                                                     2        3.5525341     -133.69526670    0.00000000
                                      D - G
                                                     0      136.4017106        3.15780140    0.00000000
                                                     1       95.0776925       45.93498030    0.00000000
                                                     2       49.2258410      359.03446680    0.00000000
                                                     2       15.0874145      176.47401190    0.00000000
                                                     2        4.0405764       54.51552860    0.00000000
                                      F - G
                                                     0      127.3507908        3.95461970    0.00000000
                                                     1       66.2364374       52.97736550    0.00000000
                                                     2       34.4299229      274.86433830    0.00000000
                                                     2       10.1995721      137.20473380    0.00000000
                                                     2        2.5409702       14.86333050    0.00000000
   20          8
                                   No pseudopotential on this center.
   21          8
                                   No pseudopotential on this center.
   22          8
                                   No pseudopotential on this center.
   23          5
                                   No pseudopotential on this center.
   24          5
                                   No pseudopotential on this center.
   25          5
                                   No pseudopotential on this center.
   26          8
                                   No pseudopotential on this center.
   27          8
                                   No pseudopotential on this center.
   28          6
                                   No pseudopotential on this center.
   29          6
                                   No pseudopotential on this center.
   30          6
                                   No pseudopotential on this center.
   31          6
                                   No pseudopotential on this center.
   32          6
                                   No pseudopotential on this center.
   33          6
                                   No pseudopotential on this center.
   34          8
                                   No pseudopotential on this center.
   35          6
                                   No pseudopotential on this center.
   36          1
                                   No pseudopotential on this center.
   37          1
                                   No pseudopotential on this center.
   38          1
                                   No pseudopotential on this center.
   39          6
                                   No pseudopotential on this center.
   40          1
                                   No pseudopotential on this center.
   41          1
                                   No pseudopotential on this center.
   42          1
                                   No pseudopotential on this center.
   43          6
                                   No pseudopotential on this center.
   44          1
                                   No pseudopotential on this center.
   45          1
                                   No pseudopotential on this center.
   46          1
                                   No pseudopotential on this center.
   47          6
                                   No pseudopotential on this center.
   48          1
                                   No pseudopotential on this center.
   49          1
                                   No pseudopotential on this center.
   50          1
                                   No pseudopotential on this center.
   51          6
                                   No pseudopotential on this center.
   52          1
                                   No pseudopotential on this center.
   53          1
                                   No pseudopotential on this center.
   54          1
                                   No pseudopotential on this center.
   55          6
                                   No pseudopotential on this center.
   56          1
                                   No pseudopotential on this center.
   57          1
                                   No pseudopotential on this center.
   58          1
                                   No pseudopotential on this center.
   59          6
                                   No pseudopotential on this center.
   60          1
                                   No pseudopotential on this center.
   61          1
                                   No pseudopotential on this center.
   62          1
                                   No pseudopotential on this center.
   63          6
                                   No pseudopotential on this center.
   64          1
                                   No pseudopotential on this center.
   65          1
                                   No pseudopotential on this center.
   66          1
                                   No pseudopotential on this center.
   67          6
                                   No pseudopotential on this center.
   68          1
                                   No pseudopotential on this center.
   69          1
                                   No pseudopotential on this center.
   70          1
                                   No pseudopotential on this center.
   71          6
                                   No pseudopotential on this center.
   72          1
                                   No pseudopotential on this center.
   73          1
                                   No pseudopotential on this center.
   74          1
                                   No pseudopotential on this center.
   75          6
                                   No pseudopotential on this center.
   76          1
                                   No pseudopotential on this center.
   77          1
                                   No pseudopotential on this center.
   78          1
                                   No pseudopotential on this center.
   79          6
                                   No pseudopotential on this center.
   80          1
                                   No pseudopotential on this center.
   81          1
                                   No pseudopotential on this center.
   82          1
                                   No pseudopotential on this center.
   83          1
                                   No pseudopotential on this center.
   84          6
                                   No pseudopotential on this center.
   85          8
                                   No pseudopotential on this center.
   86          6
                                   No pseudopotential on this center.
   87          1
                                   No pseudopotential on this center.
   88          1
                                   No pseudopotential on this center.
   89          6
                                   No pseudopotential on this center.
   90          1
                                   No pseudopotential on this center.
   91          1
                                   No pseudopotential on this center.
   92          7
                                   No pseudopotential on this center.
   93          6
                                   No pseudopotential on this center.
   94          1
                                   No pseudopotential on this center.
   95          1
                                   No pseudopotential on this center.
   96          1
                                   No pseudopotential on this center.
   97          6
                                   No pseudopotential on this center.
   98          1
                                   No pseudopotential on this center.
   99          1
                                   No pseudopotential on this center.
  100          6
                                   No pseudopotential on this center.
  101          9
                                   No pseudopotential on this center.
  102          9
                                   No pseudopotential on this center.
  103          9
                                   No pseudopotential on this center.
  104          1
                                   No pseudopotential on this center.
  105          1
                                   No pseudopotential on this center.
 ======================================================================================================
 There are   882 symmetry adapted cartesian basis functions of A   symmetry.
 There are   830 symmetry adapted basis functions of A   symmetry.
   830 basis functions,  1659 primitive gaussians,   882 cartesian basis functions
   197 alpha electrons      197 beta electrons
       nuclear repulsion energy      8576.4968324155 Hartrees.
 NAtoms=  105 NActive=  105 NUniq=  105 SFac= 1.00D+00 NAtFMM=   60 NAOKFM=T Big=T
 Integral buffers will be    131072 words long.
 Raffenetti 2 integral format.
 Two-electron integral symmetry is turned on.
 One-electron integrals computed using PRISM.
   1 Symmetry operations used in ECPInt.
 ECPInt:  NShTT=   50086 NPrTT=  307226 LenC2=   38679 LenP2D=  120398.
 LDataN:  DoStor=T MaxTD1= 6 Len=  172
 NBasis=   830 RedAO= T EigKep=  4.75D-04  NBF=   830
 NBsUse=   830 1.00D-06 EigRej= -1.00D+00 NBFU=   830
 Defaulting to unpruned grid for atomic number  77.
 ExpMin= 2.90D-02 ExpMax= 7.00D+03 ExpMxC= 1.05D+03 IAcc=3 IRadAn=         5 AccDes= 0.00D+00
 Harris functional with IExCor= 1009 and IRadAn=       5 diagonalized for initial guess.
 HarFok:  IExCor= 1009 AccDes= 0.00D+00 IRadAn=         5 IDoV= 1 UseB2=F ITyADJ=14
 ICtDFT=  3500011 ScaDFX=  1.000000  1.000000  1.000000  1.000000
 Defaulting to unpruned grid for atomic number  77.
 FoFCou: FMM=F IPFlag=           0 FMFlag=      100000 FMFlg1=        2001
         NFxFlg=           0 DoJE=T BraDBF=F KetDBF=T FulRan=T
         wScrn=  0.000000 ICntrl=       500 IOpCl=  0 I1Cent=   200000004 NGrid=           0
         NMat0=    1 NMatS0=      1 NMatT0=    0 NMatD0=    1 NMtDS0=    0 NMtDT0=    0
 Petite list used in FoFCou.
 Requested convergence on RMS density matrix=1.00D-08 within 128 cycles.
 Requested convergence on MAX density matrix=1.00D-06.
 Requested convergence on             energy=1.00D-06.
 No special actions if energy rises.
 Defaulting to unpruned grid for atomic number  77.
 Defaulting to unpruned grid for atomic number  77.
 Defaulting to unpruned grid for atomic number  77.
 Defaulting to unpruned grid for atomic number  77.
 Defaulting to unpruned grid for atomic number  77.
 Defaulting to unpruned grid for atomic number  77.
 Defaulting to unpruned grid for atomic number  77.
 Defaulting to unpruned grid for atomic number  77.
 Defaulting to unpruned grid for atomic number  77.
 Defaulting to unpruned grid for atomic number  77.
 Defaulting to unpruned grid for atomic number  77.
 Defaulting to unpruned grid for atomic number  77.
 Defaulting to unpruned grid for atomic number  77.
 Defaulting to unpruned grid for atomic number  77.
 Defaulting to unpruned grid for atomic number  77.
 Defaulting to unpruned grid for atomic number  77.
 SCF Done:  E(RM06) =  -2496.60460203     A.U. after   15 cycles
            NFock= 15  Conv=0.70D-08     -V/T= 2.0359
 DoSCS=F DFT=T ScalE2(SS,OS)=  1.000000  1.000000
 Range of M.O.s used for correlation:     1   830
 NBasis=   830 NAE=   197 NBE=   197 NFC=     0 NFV=     0
 NROrb=    830 NOA=   197 NOB=   197 NVA=   633 NVB=   633

 **** Warning!!: The largest alpha MO coefficient is  0.12096012D+02

   1 Symmetry operations used in ECPInt.
 ECPInt:  NShTT=   50086 NPrTT=  307226 LenC2=   38679 LenP2D=  120398.
 LDataN:  DoStor=T MaxTD1= 7 Len=  274
 Number of processors reduced to   8 by ecpmxn.
 Symmetrizing basis deriv contribution to polar:
 IMax=3 JMax=2 DiffMx= 0.00D+00
 G2DrvN: will do   106 centers at a time, making    1 passes.
 Calling FoFCou, ICntrl=  3107 FMM=T I1Cent=   0 AccDes= 0.00D+00.
 Defaulting to unpruned grid for atomic number  77.
 Defaulting to unpruned grid for atomic number  77.
 Defaulting to unpruned grid for atomic number  77.
 Defaulting to unpruned grid for atomic number  77.
 Defaulting to unpruned grid for atomic number  77.
 Defaulting to unpruned grid for atomic number  77.
 Defaulting to unpruned grid for atomic number  77.
 Defaulting to unpruned grid for atomic number  77.
 Defaulting to unpruned grid for atomic number  77.
 Defaulting to unpruned grid for atomic number  77.
 Defaulting to unpruned grid for atomic number  77.
 Defaulting to unpruned grid for atomic number  77.
 Defaulting to unpruned grid for atomic number  77.
 Defaulting to unpruned grid for atomic number  77.
 Defaulting to unpruned grid for atomic number  77.
 Defaulting to unpruned grid for atomic number  77.
 End of G2Drv F.D. properties file   721 does not exist.
 End of G2Drv F.D. properties file   722 does not exist.
 End of G2Drv F.D. properties file   788 does not exist.
          IDoAtm=11111111111111111111111111111111111111111111111111
          IDoAtm=11111111111111111111111111111111111111111111111111
          IDoAtm=11111
          Differentiating once with respect to electric field.
                with respect to dipole field.
          Differentiating once with respect to nuclear coordinates.
 Defaulting to unpruned grid for atomic number  77.
 CalDSu exits because no D1Ps are significant.
 Defaulting to unpruned grid for atomic number  77.
 Defaulting to unpruned grid for atomic number  77.
 Defaulting to unpruned grid for atomic number  77.
 Defaulting to unpruned grid for atomic number  77.
 Defaulting to unpruned grid for atomic number  77.
 Defaulting to unpruned grid for atomic number  77.
 Defaulting to unpruned grid for atomic number  77.
 Defaulting to unpruned grid for atomic number  77.
 Defaulting to unpruned grid for atomic number  77.
 Defaulting to unpruned grid for atomic number  77.
 Defaulting to unpruned grid for atomic number  77.
 Defaulting to unpruned grid for atomic number  77.
 Defaulting to unpruned grid for atomic number  77.
 Defaulting to unpruned grid for atomic number  77.
 Defaulting to unpruned grid for atomic number  77.
 Defaulting to unpruned grid for atomic number  77.
          There are   318 degrees of freedom in the 1st order CPHF.  IDoFFX=6 NUNeed=     3.
    315 vectors produced by pass  0 Test12= 1.25D-13 1.00D-09 XBig12= 4.65D+02 7.21D+00.
 AX will form    72 AO Fock derivatives at one time.
    315 vectors produced by pass  1 Test12= 1.25D-13 1.00D-09 XBig12= 7.96D+01 1.09D+00.
    315 vectors produced by pass  2 Test12= 1.25D-13 1.00D-09 XBig12= 8.62D-01 7.91D-02.
    315 vectors produced by pass  3 Test12= 1.25D-13 1.00D-09 XBig12= 5.22D-03 4.92D-03.
    315 vectors produced by pass  4 Test12= 1.25D-13 1.00D-09 XBig12= 1.91D-05 4.23D-04.
    281 vectors produced by pass  5 Test12= 1.25D-13 1.00D-09 XBig12= 3.72D-08 1.28D-05.
     79 vectors produced by pass  6 Test12= 1.25D-13 1.00D-09 XBig12= 5.47D-11 4.58D-07.
      3 vectors produced by pass  7 Test12= 1.25D-13 1.00D-09 XBig12= 7.26D-14 1.76D-08.
 InvSVY:  IOpt=1 It=  1 EMax= 1.78D-14
 Solved reduced A of dimension  1938 with   318 vectors.
 Isotropic polarizability for W=    0.000000      474.94 Bohr**3.
 End of Minotr F.D. properties file   721 does not exist.
 End of Minotr F.D. properties file   722 does not exist.
 End of Minotr F.D. properties file   788 does not exist.
 Hyperfine terms turned off by default for NAtoms > 100.

 **********************************************************************

            Population analysis using the SCF Density.

 **********************************************************************

 Orbital symmetries:
       Occupied  (A) (A) (A) (A) (A) (A) (A) (A) (A) (A) (A) (A)
                 (A) (A) (A) (A) (A) (A) (A) (A) (A) (A) (A) (A)
                 (A) (A) (A) (A) (A) (A) (A) (A) (A) (A) (A) (A)
                 (A) (A) (A) (A) (A) (A) (A) (A) (A) (A) (A) (A)
                 (A) (A) (A) (A) (A) (A) (A) (A) (A) (A) (A) (A)
                 (A) (A) (A) (A) (A) (A) (A) (A) (A) (A) (A) (A)
                 (A) (A) (A) (A) (A) (A) (A) (A) (A) (A) (A) (A)
                 (A) (A) (A) (A) (A) (A) (A) (A) (A) (A) (A) (A)
                 (A) (A) (A) (A) (A) (A) (A) (A) (A) (A) (A) (A)
                 (A) (A) (A) (A) (A) (A) (A) (A) (A) (A) (A) (A)
                 (A) (A) (A) (A) (A) (A) (A) (A) (A) (A) (A) (A)
                 (A) (A) (A) (A) (A) (A) (A) (A) (A) (A) (A) (A)
                 (A) (A) (A) (A) (A) (A) (A) (A) (A) (A) (A) (A)
                 (A) (A) (A) (A) (A) (A) (A) (A) (A) (A) (A) (A)
                 (A) (A) (A) (A) (A) (A) (A) (A) (A) (A) (A) (A)
                 (A) (A) (A) (A) (A) (A) (A) (A) (A) (A) (A) (A)
                 (A) (A) (A) (A) (A)
       Virtual   (A) (A) (A) (A) (A) (A) (A) (A) (A) (A) (A) (A)
                 (A) (A) (A) (A) (A) (A) (A) (A) (A) (A) (A) (A)
                 (A) (A) (A) (A) (A) (A) (A) (A) (A) (A) (A) (A)
                 (A) (A) (A) (A) (A) (A) (A) (A) (A) (A) (A) (A)
                 (A) (A) (A) (A) (A) (A) (A) (A) (A) (A) (A) (A)
                 (A) (A) (A) (A) (A) (A) (A) (A) (A) (A) (A) (A)
                 (A) (A) (A) (A) (A) (A) (A) (A) (A) (A) (A) (A)
                 (A) (A) (A) (A) (A) (A) (A) (A) (A) (A) (A) (A)
                 (A) (A) (A) (A) (A) (A) (A) (A) (A) (A) (A) (A)
                 (A) (A) (A) (A) (A) (A) (A) (A) (A) (A) (A) (A)
                 (A) (A) (A) (A) (A) (A) (A) (A) (A) (A) (A) (A)
                 (A) (A) (A) (A) (A) (A) (A) (A) (A) (A) (A) (A)
                 (A) (A) (A) (A) (A) (A) (A) (A) (A) (A) (A) (A)
                 (A) (A) (A) (A) (A) (A) (A) (A) (A) (A) (A) (A)
                 (A) (A) (A) (A) (A) (A) (A) (A) (A) (A) (A) (A)
                 (A) (A) (A) (A) (A) (A) (A) (A) (A) (A) (A) (A)
                 (A) (A) (A) (A) (A) (A) (A) (A) (A) (A) (A) (A)
                 (A) (A) (A) (A) (A) (A) (A) (A) (A) (A) (A) (A)
                 (A) (A) (A) (A) (A) (A) (A) (A) (A) (A) (A) (A)
                 (A) (A) (A) (A) (A) (A) (A) (A) (A) (A) (A) (A)
                 (A) (A) (A) (A) (A) (A) (A) (A) (A) (A) (A) (A)
                 (A) (A) (A) (A) (A) (A) (A) (A) (A) (A) (A) (A)
                 (A) (A) (A) (A) (A) (A) (A) (A) (A) (A) (A) (A)
                 (A) (A) (A) (A) (A) (A) (A) (A) (A) (A) (A) (A)
                 (A) (A) (A) (A) (A) (A) (A) (A) (A) (A) (A) (A)
                 (A) (A) (A) (A) (A) (A) (A) (A) (A) (A) (A) (A)
                 (A) (A) (A) (A) (A) (A) (A) (A) (A) (A) (A) (A)
                 (A) (A) (A) (A) (A) (A) (A) (A) (A) (A) (A) (A)
                 (A) (A) (A) (A) (A) (A) (A) (A) (A) (A) (A) (A)
                 (A) (A) (A) (A) (A) (A) (A) (A) (A) (A) (A) (A)
                 (A) (A) (A) (A) (A) (A) (A) (A) (A) (A) (A) (A)
                 (A) (A) (A) (A) (A) (A) (A) (A) (A) (A) (A) (A)
                 (A) (A) (A) (A) (A) (A) (A) (A) (A) (A) (A) (A)
                 (A) (A) (A) (A) (A) (A) (A) (A) (A) (A) (A) (A)
                 (A) (A) (A) (A) (A) (A) (A) (A) (A) (A) (A) (A)
                 (A) (A) (A) (A) (A) (A) (A) (A) (A) (A) (A) (A)
                 (A) (A) (A) (A) (A) (A) (A) (A) (A) (A) (A) (A)
                 (A) (A) (A) (A) (A) (A) (A) (A) (A) (A) (A) (A)
                 (A) (A) (A) (A) (A) (A) (A) (A) (A) (A) (A) (A)
                 (A) (A) (A) (A) (A) (A) (A) (A) (A) (A) (A) (A)
                 (A) (A) (A) (A) (A) (A) (A) (A) (A) (A) (A) (A)
                 (A) (A) (A) (A) (A) (A) (A) (A) (A) (A) (A) (A)
                 (A) (A) (A) (A) (A) (A) (A) (A) (A) (A) (A) (A)
                 (A) (A) (A) (A) (A) (A) (A) (A) (A) (A) (A) (A)
                 (A) (A) (A) (A) (A) (A) (A) (A) (A) (A) (A) (A)
                 (A) (A) (A) (A) (A) (A) (A) (A) (A) (A) (A) (A)
                 (A) (A) (A) (A) (A) (A) (A) (A) (A) (A) (A) (A)
                 (A) (A) (A) (A) (A) (A) (A) (A) (A) (A) (A) (A)
                 (A) (A) (A) (A) (A) (A) (A) (A) (A) (A) (A) (A)
                 (A) (A) (A) (A) (A) (A) (A) (A) (A) (A) (A) (A)
                 (A) (A) (A) (A) (A) (A) (A) (A) (A) (A) (A) (A)
                 (A) (A) (A) (A) (A) (A) (A) (A) (A) (A) (A) (A)
                 (A) (A) (A) (A) (A) (A) (A) (A) (A)
 The electronic state is 1-A.
 Alpha  occ. eigenvalues --  -24.83398 -24.83152 -24.82696 -19.20317 -19.20165
 Alpha  occ. eigenvalues --  -19.20016 -19.20000 -19.19700 -19.19233 -19.17767
 Alpha  occ. eigenvalues --  -14.44812 -14.44767 -14.41770 -10.51539 -10.33352
 Alpha  occ. eigenvalues --  -10.32386 -10.31791 -10.30990 -10.29906 -10.29638
 Alpha  occ. eigenvalues --  -10.29356 -10.29241 -10.29131 -10.29082 -10.29070
 Alpha  occ. eigenvalues --  -10.28969 -10.28677 -10.28640 -10.28496 -10.28040
 Alpha  occ. eigenvalues --  -10.27502 -10.27319 -10.25734 -10.24690 -10.22892
 Alpha  occ. eigenvalues --  -10.22764 -10.22763 -10.22725 -10.22725 -10.22667
 Alpha  occ. eigenvalues --  -10.22652 -10.22479 -10.22341 -10.22307 -10.21895
 Alpha  occ. eigenvalues --  -10.21500 -10.21229  -6.80443  -6.79364  -6.78930
 Alpha  occ. eigenvalues --   -3.63331  -2.05832  -2.05347  -2.04535  -1.35910
 Alpha  occ. eigenvalues --   -1.27351  -1.26986  -1.06096  -1.05896  -1.05710
 Alpha  occ. eigenvalues --   -1.03570  -1.00143  -0.99094  -0.99000  -0.98696
 Alpha  occ. eigenvalues --   -0.97610  -0.93352  -0.86085  -0.83790  -0.83177
 Alpha  occ. eigenvalues --   -0.80323  -0.80182  -0.80008  -0.78890  -0.78015
 Alpha  occ. eigenvalues --   -0.74721  -0.74668  -0.74456  -0.73761  -0.71314
 Alpha  occ. eigenvalues --   -0.70345  -0.70243  -0.70076  -0.68933  -0.68690
 Alpha  occ. eigenvalues --   -0.68425  -0.67492  -0.67424  -0.67252  -0.65202
 Alpha  occ. eigenvalues --   -0.64205  -0.62236  -0.61956  -0.61714  -0.61677
 Alpha  occ. eigenvalues --   -0.61170  -0.61065  -0.60337  -0.57043  -0.54631
 Alpha  occ. eigenvalues --   -0.54509  -0.54087  -0.53706  -0.53642  -0.53038
 Alpha  occ. eigenvalues --   -0.52901  -0.52734  -0.52200  -0.50193  -0.50118
 Alpha  occ. eigenvalues --   -0.49437  -0.49193  -0.48812  -0.48592  -0.47682
 Alpha  occ. eigenvalues --   -0.47406  -0.46976  -0.46713  -0.46557  -0.46240
 Alpha  occ. eigenvalues --   -0.46110  -0.45891  -0.45807  -0.45529  -0.45327
 Alpha  occ. eigenvalues --   -0.45060  -0.44553  -0.44377  -0.44336  -0.43988
 Alpha  occ. eigenvalues --   -0.43926  -0.43836  -0.43420  -0.43297  -0.43244
 Alpha  occ. eigenvalues --   -0.43124  -0.42515  -0.42234  -0.40837  -0.40202
 Alpha  occ. eigenvalues --   -0.40118  -0.40036  -0.39960  -0.39899  -0.39790
 Alpha  occ. eigenvalues --   -0.39755  -0.39616  -0.39456  -0.39371  -0.39206
 Alpha  occ. eigenvalues --   -0.38977  -0.38941  -0.38679  -0.38393  -0.38243
 Alpha  occ. eigenvalues --   -0.37583  -0.37439  -0.37212  -0.37099  -0.36956
 Alpha  occ. eigenvalues --   -0.36570  -0.36408  -0.36160  -0.35917  -0.35862
 Alpha  occ. eigenvalues --   -0.35782  -0.35669  -0.35574  -0.35265  -0.34750
 Alpha  occ. eigenvalues --   -0.34537  -0.34360  -0.34186  -0.33292  -0.33006
 Alpha  occ. eigenvalues --   -0.32608  -0.32018  -0.31954  -0.31598  -0.31399
 Alpha  occ. eigenvalues --   -0.31155  -0.30811  -0.30289  -0.29734  -0.29646
 Alpha  occ. eigenvalues --   -0.28122  -0.27147  -0.27015  -0.26354  -0.26068
 Alpha  occ. eigenvalues --   -0.25856  -0.25712  -0.25048  -0.24979  -0.22778
 Alpha  occ. eigenvalues --   -0.22518  -0.18819
 Alpha virt. eigenvalues --   -0.07395  -0.03949  -0.03068   0.00906   0.02632
 Alpha virt. eigenvalues --    0.03438   0.04843   0.06044   0.07053   0.07146
 Alpha virt. eigenvalues --    0.07878   0.08660   0.09537   0.09866   0.09969
 Alpha virt. eigenvalues --    0.10377   0.10557   0.10828   0.11627   0.11831
 Alpha virt. eigenvalues --    0.12063   0.12469   0.12716   0.13045   0.13093
 Alpha virt. eigenvalues --    0.13639   0.13797   0.14245   0.14268   0.14596
 Alpha virt. eigenvalues --    0.14811   0.15259   0.15314   0.15480   0.15716
 Alpha virt. eigenvalues --    0.15882   0.15951   0.16101   0.16405   0.16586
 Alpha virt. eigenvalues --    0.16689   0.17028   0.17243   0.17610   0.17812
 Alpha virt. eigenvalues --    0.17830   0.17988   0.18301   0.18530   0.18843
 Alpha virt. eigenvalues --    0.18908   0.19133   0.19280   0.19455   0.19763
 Alpha virt. eigenvalues --    0.20036   0.20180   0.20386   0.20570   0.20810
 Alpha virt. eigenvalues --    0.20906   0.21072   0.21287   0.21451   0.21854
 Alpha virt. eigenvalues --    0.22051   0.22137   0.22513   0.22694   0.22839
 Alpha virt. eigenvalues --    0.23249   0.23580   0.23886   0.24074   0.24256
 Alpha virt. eigenvalues --    0.24481   0.24676   0.24826   0.25148   0.25502
 Alpha virt. eigenvalues --    0.25581   0.25765   0.26191   0.26406   0.26502
 Alpha virt. eigenvalues --    0.26785   0.27062   0.27332   0.27627   0.27882
 Alpha virt. eigenvalues --    0.28025   0.28808   0.28925   0.29187   0.29599
 Alpha virt. eigenvalues --    0.29800   0.30270   0.30982   0.31652   0.31767
 Alpha virt. eigenvalues --    0.32399   0.32662   0.33543   0.33813   0.34681
 Alpha virt. eigenvalues --    0.35333   0.36091   0.36211   0.36653   0.37385
 Alpha virt. eigenvalues --    0.37729   0.38553   0.38900   0.39918   0.40928
 Alpha virt. eigenvalues --    0.41469   0.42543   0.44349   0.45342   0.45842
 Alpha virt. eigenvalues --    0.46878   0.47116   0.47557   0.48833   0.49213
 Alpha virt. eigenvalues --    0.49509   0.49810   0.50937   0.51045   0.51347
 Alpha virt. eigenvalues --    0.51681   0.51826   0.52362   0.52632   0.53017
 Alpha virt. eigenvalues --    0.53328   0.53704   0.54146   0.55041   0.55231
 Alpha virt. eigenvalues --    0.55618   0.55827   0.56331   0.56672   0.56876
 Alpha virt. eigenvalues --    0.57329   0.57414   0.57670   0.57816   0.58359
 Alpha virt. eigenvalues --    0.58560   0.58747   0.58971   0.59190   0.59495
 Alpha virt. eigenvalues --    0.59784   0.60040   0.60154   0.60448   0.60818
 Alpha virt. eigenvalues --    0.61169   0.61461   0.61811   0.62111   0.62481
 Alpha virt. eigenvalues --    0.62897   0.63051   0.63705   0.64079   0.64403
 Alpha virt. eigenvalues --    0.64833   0.65302   0.65773   0.65985   0.66545
 Alpha virt. eigenvalues --    0.66852   0.66954   0.67151   0.67411   0.67606
 Alpha virt. eigenvalues --    0.67768   0.68249   0.68699   0.69022   0.69284
 Alpha virt. eigenvalues --    0.69898   0.70434   0.70633   0.71330   0.71480
 Alpha virt. eigenvalues --    0.72038   0.72280   0.72474   0.72626   0.72826
 Alpha virt. eigenvalues --    0.73204   0.73436   0.74191   0.74299   0.74553
 Alpha virt. eigenvalues --    0.75053   0.75299   0.75456   0.76080   0.76112
 Alpha virt. eigenvalues --    0.77443   0.77647   0.77764   0.78295   0.78669
 Alpha virt. eigenvalues --    0.78805   0.79208   0.79406   0.80040   0.80449
 Alpha virt. eigenvalues --    0.81397   0.81743   0.82261   0.82449   0.82882
 Alpha virt. eigenvalues --    0.82999   0.83732   0.83900   0.84123   0.84191
 Alpha virt. eigenvalues --    0.84522   0.84894   0.85157   0.85481   0.85715
 Alpha virt. eigenvalues --    0.85861   0.86158   0.86445   0.86729   0.86916
 Alpha virt. eigenvalues --    0.87419   0.87750   0.87886   0.88135   0.88281
 Alpha virt. eigenvalues --    0.88371   0.88719   0.89087   0.89256   0.89622
 Alpha virt. eigenvalues --    0.89865   0.90130   0.90182   0.90332   0.90822
 Alpha virt. eigenvalues --    0.91073   0.91236   0.91465   0.91585   0.92037
 Alpha virt. eigenvalues --    0.92175   0.92484   0.92923   0.93071   0.93618
 Alpha virt. eigenvalues --    0.94025   0.94256   0.94503   0.94687   0.94981
 Alpha virt. eigenvalues --    0.95175   0.95588   0.95872   0.96370   0.96801
 Alpha virt. eigenvalues --    0.97058   0.97224   0.97541   0.97989   0.98307
 Alpha virt. eigenvalues --    0.98829   0.99468   0.99797   1.00140   1.01258
 Alpha virt. eigenvalues --    1.01351   1.01966   1.02662   1.03126   1.03422
 Alpha virt. eigenvalues --    1.03797   1.04052   1.04652   1.05139   1.05894
 Alpha virt. eigenvalues --    1.06220   1.06414   1.07072   1.08136   1.08387
 Alpha virt. eigenvalues --    1.08843   1.09245   1.09563   1.09795   1.10972
 Alpha virt. eigenvalues --    1.11495   1.11695   1.12594   1.13536   1.13631
 Alpha virt. eigenvalues --    1.14186   1.15234   1.15935   1.16413   1.16700
 Alpha virt. eigenvalues --    1.16905   1.17837   1.18323   1.19007   1.19568
 Alpha virt. eigenvalues --    1.19781   1.20331   1.20651   1.21118   1.21773
 Alpha virt. eigenvalues --    1.22387   1.22794   1.23075   1.23916   1.24322
 Alpha virt. eigenvalues --    1.24765   1.25466   1.26067   1.26425   1.26971
 Alpha virt. eigenvalues --    1.27689   1.28035   1.28875   1.29618   1.30579
 Alpha virt. eigenvalues --    1.31085   1.31511   1.31968   1.33597   1.34051
 Alpha virt. eigenvalues --    1.34776   1.34931   1.35538   1.36124   1.36371
 Alpha virt. eigenvalues --    1.36771   1.37497   1.38200   1.38797   1.39184
 Alpha virt. eigenvalues --    1.39403   1.40319   1.40880   1.41227   1.41845
 Alpha virt. eigenvalues --    1.42594   1.42792   1.43182   1.43893   1.44258
 Alpha virt. eigenvalues --    1.44565   1.44884   1.45037   1.45703   1.46128
 Alpha virt. eigenvalues --    1.46868   1.47077   1.47903   1.48205   1.49094
 Alpha virt. eigenvalues --    1.49588   1.50520   1.50768   1.51297   1.52401
 Alpha virt. eigenvalues --    1.53523   1.54227   1.54410   1.56181   1.56714
 Alpha virt. eigenvalues --    1.57067   1.58116   1.58886   1.59618   1.60834
 Alpha virt. eigenvalues --    1.61405   1.61745   1.63777   1.63958   1.64169
 Alpha virt. eigenvalues --    1.65236   1.65502   1.65835   1.66471   1.67370
 Alpha virt. eigenvalues --    1.68107   1.68465   1.68894   1.69753   1.70213
 Alpha virt. eigenvalues --    1.70301   1.71510   1.72234   1.72857   1.73377
 Alpha virt. eigenvalues --    1.74306   1.74754   1.75795   1.76186   1.76638
 Alpha virt. eigenvalues --    1.77613   1.77956   1.78269   1.78486   1.79118
 Alpha virt. eigenvalues --    1.79458   1.80700   1.81646   1.81724   1.81917
 Alpha virt. eigenvalues --    1.82397   1.82904   1.83715   1.84240   1.84704
 Alpha virt. eigenvalues --    1.84777   1.85315   1.85559   1.86642   1.86803
 Alpha virt. eigenvalues --    1.86892   1.87326   1.87883   1.88007   1.88285
 Alpha virt. eigenvalues --    1.88565   1.89317   1.89979   1.90797   1.90941
 Alpha virt. eigenvalues --    1.91381   1.91761   1.91901   1.92210   1.92288
 Alpha virt. eigenvalues --    1.92534   1.92753   1.92960   1.93321   1.93837
 Alpha virt. eigenvalues --    1.94032   1.94204   1.94577   1.94910   1.95606
 Alpha virt. eigenvalues --    1.96650   1.97206   1.97593   1.97911   1.98425
 Alpha virt. eigenvalues --    1.99294   1.99818   1.99986   2.00913   2.01090
 Alpha virt. eigenvalues --    2.01916   2.02113   2.02537   2.02783   2.03079
 Alpha virt. eigenvalues --    2.03373   2.03702   2.03985   2.04346   2.05047
 Alpha virt. eigenvalues --    2.05888   2.06649   2.06894   2.07422   2.07763
 Alpha virt. eigenvalues --    2.08243   2.08641   2.08946   2.09437   2.09508
 Alpha virt. eigenvalues --    2.09701   2.10266   2.10703   2.10892   2.11453
 Alpha virt. eigenvalues --    2.11895   2.12363   2.12866   2.13585   2.13873
 Alpha virt. eigenvalues --    2.14266   2.14546   2.14941   2.15137   2.15304
 Alpha virt. eigenvalues --    2.15750   2.16358   2.16724   2.17078   2.17564
 Alpha virt. eigenvalues --    2.18211   2.18610   2.18762   2.19260   2.19458
 Alpha virt. eigenvalues --    2.19567   2.19753   2.20195   2.20486   2.20928
 Alpha virt. eigenvalues --    2.21378   2.22105   2.22410   2.22696   2.22813
 Alpha virt. eigenvalues --    2.23641   2.23790   2.24366   2.24608   2.24857
 Alpha virt. eigenvalues --    2.25817   2.26078   2.26378   2.26773   2.26960
 Alpha virt. eigenvalues --    2.27138   2.27793   2.27976   2.28072   2.28819
 Alpha virt. eigenvalues --    2.29287   2.30167   2.31800   2.32000   2.32234
 Alpha virt. eigenvalues --    2.32349   2.32945   2.33597   2.33818   2.34835
 Alpha virt. eigenvalues --    2.35196   2.36080   2.37710   2.38400   2.39096
 Alpha virt. eigenvalues --    2.39589   2.39915   2.40768   2.42180   2.43723
 Alpha virt. eigenvalues --    2.44510   2.45060   2.45265   2.46040   2.47858
 Alpha virt. eigenvalues --    2.48514   2.48994   2.49515   2.49732   2.49945
 Alpha virt. eigenvalues --    2.50235   2.52488   2.53402   2.53937   2.54676
 Alpha virt. eigenvalues --    2.55301   2.59030   2.59721   2.60577   2.60999
 Alpha virt. eigenvalues --    2.61410   2.61452   2.61964   2.64269   2.64498
 Alpha virt. eigenvalues --    2.65080   2.65381   2.66400   2.68012   2.68759
 Alpha virt. eigenvalues --    2.69862   2.70426   2.70676   2.72075   2.77055
 Alpha virt. eigenvalues --    2.77839   2.77924   2.78230   2.79118   2.79361
 Alpha virt. eigenvalues --    2.79631   2.80368   2.80898   2.81137   2.81416
 Alpha virt. eigenvalues --    2.82171   2.82434   2.83673   2.84038   2.85405
 Alpha virt. eigenvalues --    2.85546   2.88855   2.91028   2.91772   2.92465
 Alpha virt. eigenvalues --    2.92834   2.95397   2.95740   2.96757   2.97110
 Alpha virt. eigenvalues --    2.98304   2.98978   3.03413   3.05892   3.06733
 Alpha virt. eigenvalues --    3.07674   3.08113   3.08312   3.11123   3.12166
 Alpha virt. eigenvalues --    3.12650   3.12879   3.14409   3.20451   3.25886
 Alpha virt. eigenvalues --    3.31829   3.45343  13.35699
          Condensed to atoms (all electrons):
 Mulliken charges:
               1
     1  C    0.319664
     2  C    0.040914
     3  C   -0.075942
     4  C   -0.165532
     5  C   -0.165723
     6  C    0.338776
     7  C    0.067119
     8  C   -0.173569
     9  C   -0.138180
    10  C   -0.173888
    11  H    0.200502
    12  H    0.198445
    13  H    0.180850
    14  H    0.212277
    15  H    0.181605
    16  H    0.170635
    17  N   -0.480062
    18  N   -0.507315
    19  Ir  -0.285468
    20  O   -0.526767
    21  O   -0.510335
    22  O   -0.530357
    23  B    0.488308
    24  B    0.515454
    25  B    0.537704
    26  O   -0.493797
    27  O   -0.521320
    28  C    0.293472
    29  C    0.295400
    30  C    0.299118
    31  C    0.291019
    32  C    0.290501
    33  C    0.307517
    34  O   -0.537230
    35  C   -0.505019
    36  H    0.168406
    37  H    0.149437
    38  H    0.164983
    39  C   -0.509160
    40  H    0.150703
    41  H    0.182774
    42  H    0.158922
    43  C   -0.511598
    44  H    0.145330
    45  H    0.189138
    46  H    0.155549
    47  C   -0.512075
    48  H    0.171233
    49  H    0.148938
    50  H    0.164913
    51  C   -0.495178
    52  H    0.171820
    53  H    0.138676
    54  H    0.178325
    55  C   -0.516416
    56  H    0.146710
    57  H    0.173283
    58  H    0.167909
    59  C   -0.510080
    60  H    0.152704
    61  H    0.160976
    62  H    0.171719
    63  C   -0.517058
    64  H    0.155137
    65  H    0.179106
    66  H    0.156649
    67  C   -0.497353
    68  H    0.162001
    69  H    0.176864
    70  H    0.141655
    71  C   -0.508179
    72  H    0.169192
    73  H    0.147162
    74  H    0.167980
    75  C   -0.508639
    76  H    0.157850
    77  H    0.160026
    78  H    0.160557
    79  C   -0.505321
    80  H    0.150083
    81  H    0.169780
    82  H    0.167691
    83  H    0.199284
    84  C    0.580487
    85  O   -0.519701
    86  C   -0.410974
    87  H    0.178936
    88  H    0.158427
    89  C   -0.342605
    90  H    0.194065
    91  H    0.229278
    92  N   -0.358979
    93  C   -0.364134
    94  H    0.201009
    95  H    0.159230
    96  H    0.178506
    97  C   -0.466507
    98  H    0.144293
    99  H    0.181717
   100  C    0.970770
   101  F   -0.314583
   102  F   -0.303471
   103  F   -0.315442
   104  H    0.181214
   105  H    0.157279
 Sum of Mulliken charges =  -0.00000
 Mulliken charges with hydrogens summed into heavy atoms:
               1
     1  C    0.319664
     2  C    0.241416
     3  C   -0.075942
     4  C    0.032913
     5  C    0.015127
     6  C    0.338776
     7  C    0.279396
     8  C    0.007645
     9  C    0.043425
    10  C   -0.003253
    17  N   -0.480062
    18  N   -0.507315
    19  Ir  -0.086184
    20  O   -0.526767
    21  O   -0.510335
    22  O   -0.530357
    23  B    0.488308
    24  B    0.515454
    25  B    0.537704
    26  O   -0.493797
    27  O   -0.521320
    28  C    0.293472
    29  C    0.295400
    30  C    0.299118
    31  C    0.291019
    32  C    0.290501
    33  C    0.307517
    34  O   -0.537230
    35  C   -0.022193
    39  C   -0.016761
    43  C   -0.021582
    47  C   -0.026990
    51  C   -0.006357
    55  C   -0.028514
    59  C   -0.024681
    63  C   -0.026166
    67  C   -0.016833
    71  C   -0.023845
    75  C   -0.030206
    79  C   -0.017766
    84  C    0.580487
    85  O   -0.519701
    86  C   -0.073611
    89  C    0.080738
    92  N   -0.358979
    93  C    0.174612
    97  C    0.016782
   100  C    0.970770
   101  F   -0.314583
   102  F   -0.303471
   103  F   -0.315442
 APT charges:
               1
     1  C    0.246236
     2  C    0.082036
     3  C   -0.238423
     4  C    0.106730
     5  C   -0.175057
     6  C    0.158359
     7  C    0.023904
     8  C   -0.047787
     9  C    0.109969
    10  C   -0.165801
    11  H    0.113454
    12  H    0.062210
    13  H    0.046660
    14  H    0.112313
    15  H    0.028724
    16  H    0.041227
    17  N   -0.204683
    18  N   -0.084162
    19  Ir  -1.094856
    20  O   -0.965151
    21  O   -0.975566
    22  O   -0.960057
    23  B    1.262244
    24  B    1.239613
    25  B    1.286499
    26  O   -0.933403
    27  O   -0.928261
    28  C    0.465774
    29  C    0.466628
    30  C    0.486976
    31  C    0.479230
    32  C    0.494670
    33  C    0.506282
    34  O   -1.022540
    35  C    0.001057
    36  H    0.001482
    37  H   -0.020774
    38  H    0.000499
    39  C   -0.031535
    40  H   -0.025185
    41  H    0.002615
    42  H    0.002058
    43  C   -0.035462
    44  H   -0.024725
    45  H    0.034663
    46  H   -0.014148
    47  C   -0.010448
    48  H    0.002584
    49  H   -0.016867
    50  H   -0.004230
    51  C   -0.031846
    52  H    0.002934
    53  H   -0.031675
    54  H    0.012336
    55  C   -0.004852
    56  H   -0.019532
    57  H    0.000434
    58  H   -0.001879
    59  C   -0.011269
    60  H   -0.021031
    61  H   -0.001019
    62  H    0.001162
    63  C   -0.038546
    64  H   -0.021686
    65  H    0.006596
    66  H   -0.003805
    67  C   -0.035535
    68  H    0.002500
    69  H    0.029553
    70  H   -0.028093
    71  C   -0.001492
    72  H    0.002071
    73  H   -0.018194
    74  H   -0.002191
    75  C   -0.037656
    76  H   -0.019729
    77  H    0.003845
    78  H    0.002658
    79  C   -0.007977
    80  H   -0.017428
    81  H    0.004572
    82  H   -0.001686
    83  H    0.284332
    84  C    0.824971
    85  O   -0.656094
    86  C    0.003883
    87  H   -0.022365
    88  H   -0.012448
    89  C    0.395346
    90  H   -0.048609
    91  H    0.001044
    92  N   -0.774774
    93  C    0.270619
    94  H    0.033544
    95  H   -0.034307
    96  H   -0.018158
    97  C    0.063682
    98  H   -0.007562
    99  H    0.011145
   100  C    1.766174
   101  F   -0.519988
   102  F   -0.594492
   103  F   -0.575135
   104  H    0.039181
   105  H   -0.027104
 Sum of APT charges =  -0.00000
 APT charges with hydrogens summed into heavy atoms:
               1
     1  C    0.246236
     2  C    0.195490
     3  C   -0.238423
     4  C    0.168941
     5  C   -0.128398
     6  C    0.158359
     7  C    0.136216
     8  C   -0.008606
     9  C    0.138693
    10  C   -0.124574
    17  N   -0.204683
    18  N   -0.084162
    19  Ir  -0.810524
    20  O   -0.965151
    21  O   -0.975566
    22  O   -0.960057
    23  B    1.262244
    24  B    1.239613
    25  B    1.286499
    26  O   -0.933403
    27  O   -0.928261
    28  C    0.465774
    29  C    0.466628
    30  C    0.486976
    31  C    0.479230
    32  C    0.494670
    33  C    0.506282
    34  O   -1.022540
    35  C   -0.017737
    39  C   -0.052046
    43  C   -0.039673
    47  C   -0.028961
    51  C   -0.048250
    55  C   -0.025829
    59  C   -0.032157
    63  C   -0.057440
    67  C   -0.031576
    71  C   -0.019807
    75  C   -0.050881
    79  C   -0.022518
    84  C    0.824971
    85  O   -0.656094
    86  C   -0.030930
    89  C    0.347782
    92  N   -0.774774
    93  C    0.251698
    97  C    0.040160
   100  C    1.766174
   101  F   -0.519988
   102  F   -0.594492
   103  F   -0.575135
 Electronic spatial extent (au):  <R**2>=          27818.2183
 Charge=             -0.0000 electrons
 Dipole moment (field-independent basis, Debye):
    X=              0.2284    Y=             -2.6370    Z=              1.8882  Tot=              3.2513
 Quadrupole moment (field-independent basis, Debye-Ang):
   XX=           -305.8692   YY=           -290.3104   ZZ=           -312.2621
   XY=              1.3795   XZ=              1.9319   YZ=            -13.0128
 Traceless Quadrupole moment (field-independent basis, Debye-Ang):
   XX=             -3.0553   YY=             12.5035   ZZ=             -9.4482
   XY=              1.3795   XZ=              1.9319   YZ=            -13.0128
 Octapole moment (field-independent basis, Debye-Ang**2):
  XXX=             22.3651  YYY=            -95.5891  ZZZ=            -40.3988  XYY=              6.5344
  XXY=            -41.5350  XXZ=            -16.9744  XZZ=             16.2379  YZZ=              1.4814
  YYZ=             39.0090  XYZ=            -53.8979
 Hexadecapole moment (field-independent basis, Debye-Ang**3):
 XXXX=         -17866.7097 YYYY=          -9469.2250 ZZZZ=          -7706.1757 XXXY=             -5.9544
 XXXZ=            198.7293 YYYX=            185.1851 YYYZ=           -175.0597 ZZZX=            -24.3854
 ZZZY=             26.4197 XXYY=          -4733.5087 XXZZ=          -4098.0955 YYZZ=          -3058.2795
 XXYZ=           -137.6303 YYXZ=            151.0996 ZZXY=             52.5725
 N-N= 8.576496832415D+03 E-N=-2.295914410774D+04  KE= 2.410172473020D+03
  Exact polarizability:     533.349       8.199     493.444      11.275     -26.899     398.012
 Approx polarizability:     738.802      23.475     740.970      39.747     -52.370     592.686
   1 Symmetry operations used in ECPInt.
 ECPInt:  NShTT=   50086 NPrTT=  307226 LenC2=   38679 LenP2D=  120398.
 LDataN:  DoStor=T MaxTD1= 8 Len=  415
 Calling FoFJK, ICntrl=    100127 FMM=F ISym2X=0 I1Cent= 0 IOpClX= 0 NMat=1 NMatS=1 NMatT=0.
 Defaulting to unpruned grid for atomic number  77.
 Defaulting to unpruned grid for atomic number  77.
 Defaulting to unpruned grid for atomic number  77.
 Defaulting to unpruned grid for atomic number  77.
 Defaulting to unpruned grid for atomic number  77.
 Defaulting to unpruned grid for atomic number  77.
 Defaulting to unpruned grid for atomic number  77.
 Defaulting to unpruned grid for atomic number  77.
 Defaulting to unpruned grid for atomic number  77.
 Defaulting to unpruned grid for atomic number  77.
 Defaulting to unpruned grid for atomic number  77.
 Defaulting to unpruned grid for atomic number  77.
 Defaulting to unpruned grid for atomic number  77.
 Defaulting to unpruned grid for atomic number  77.
 Defaulting to unpruned grid for atomic number  77.
 Defaulting to unpruned grid for atomic number  77.
 Full mass-weighted force constant matrix:
 Low frequencies --- -779.4668   -4.1675   -0.0004    0.0002    0.0003    1.8880
 Low frequencies ---    6.5757   22.4075   29.3139
 ******    1 imaginary frequencies (negative Signs) ****** 
 Diagonal vibrational polarizability:
       91.8520100      63.4430102     101.1992519
 Harmonic frequencies (cm**-1), IR intensities (KM/Mole), Raman scattering
 activities (A**4/AMU), depolarization ratios for plane and unpolarized
 incident light, reduced masses (AMU), force constants (mDyne/A),
 and normal coordinates:
                      1                      2                      3
                      A                      A                      A
 Frequencies --   -779.4667                22.3856                29.3003
 Red. masses --      1.1260                 5.6392                 4.2974
 Frc consts  --      0.4031                 0.0017                 0.0022
 IR Inten    --    377.0108                 0.0909                 0.2603
  Atom AN      X      Y      Z        X      Y      Z        X      Y      Z
     1   6    -0.00   0.00   0.00    -0.03  -0.01  -0.01     0.01  -0.04  -0.05
     2   6     0.00  -0.00  -0.00    -0.02  -0.01   0.03    -0.00  -0.03   0.01
     3   6    -0.00  -0.00   0.00    -0.04  -0.01   0.07     0.01  -0.04  -0.02
     4   6     0.00  -0.00  -0.00    -0.05  -0.01   0.07     0.03  -0.05  -0.08
     5   6    -0.00   0.00  -0.00    -0.04  -0.01   0.04     0.03  -0.05  -0.10
     6   6     0.00   0.01  -0.00    -0.02  -0.01  -0.05     0.01  -0.03  -0.03
     7   6    -0.00   0.00  -0.00    -0.01  -0.00  -0.08    -0.03  -0.00   0.05
     8   6     0.00   0.00  -0.00    -0.01  -0.01  -0.11    -0.02  -0.01   0.03
     9   6     0.00   0.00  -0.00    -0.02  -0.03  -0.11     0.00  -0.03  -0.03
    10   6    -0.00   0.00  -0.00    -0.02  -0.03  -0.08     0.02  -0.04  -0.06
    11   1     0.01  -0.00  -0.01    -0.02  -0.01   0.02    -0.01  -0.02   0.05
    12   1     0.00  -0.00  -0.00    -0.06  -0.01   0.11     0.03  -0.06  -0.12
    13   1     0.00  -0.00  -0.00    -0.05  -0.01   0.04     0.04  -0.06  -0.15
    14   1    -0.00   0.00   0.00    -0.01   0.01  -0.07    -0.05   0.01   0.09
    15   1    -0.00   0.00   0.00    -0.02  -0.04  -0.14     0.01  -0.04  -0.05
    16   1     0.00   0.00  -0.01    -0.03  -0.04  -0.08     0.04  -0.06  -0.10
    17   7     0.00   0.00   0.00    -0.02  -0.01  -0.01     0.00  -0.03  -0.00
    18   7    -0.01   0.02   0.01    -0.02  -0.00  -0.05    -0.02  -0.02   0.01
    19  77     0.01  -0.00  -0.01    -0.01   0.00  -0.04    -0.00  -0.02   0.01
    20   8    -0.00   0.00   0.00     0.02  -0.01   0.01    -0.01   0.02  -0.01
    21   8     0.00   0.00   0.00    -0.04  -0.01  -0.01     0.01  -0.05  -0.02
    22   8     0.00  -0.00   0.00     0.01   0.01  -0.07    -0.02  -0.02   0.03
    23   5    -0.00  -0.01  -0.01    -0.02   0.00  -0.01    -0.00  -0.02   0.01
    24   5    -0.01   0.00   0.01     0.03   0.01  -0.01    -0.01   0.01   0.01
    25   5    -0.01   0.01   0.02    -0.00   0.00  -0.05     0.01  -0.02   0.00
    26   8    -0.00  -0.00   0.00    -0.01  -0.00  -0.05     0.05  -0.01  -0.04
    27   8    -0.00   0.00   0.00     0.10   0.02   0.00    -0.02   0.03   0.03
    28   6    -0.00   0.00   0.00     0.12   0.00   0.04    -0.02   0.05   0.02
    29   6    -0.00   0.00   0.00     0.08  -0.01   0.03    -0.00   0.05  -0.01
    30   6     0.00   0.00  -0.00     0.01   0.01  -0.09    -0.01  -0.02   0.03
    31   6    -0.00   0.00   0.00    -0.00   0.00  -0.06     0.03  -0.01  -0.04
    32   6    -0.00   0.00   0.00    -0.05  -0.01   0.02     0.02  -0.03  -0.03
    33   6    -0.00  -0.00  -0.00    -0.04   0.01   0.05    -0.01  -0.00   0.02
    34   8     0.00  -0.00   0.00    -0.01   0.01   0.02    -0.02   0.01   0.03
    35   6    -0.00   0.00   0.00     0.07  -0.04   0.08    -0.00   0.07  -0.01
    36   1    -0.00  -0.00   0.00     0.05  -0.07   0.11    -0.01   0.05   0.01
    37   1    -0.00   0.00   0.00     0.11  -0.03   0.10     0.00   0.09   0.00
    38   1    -0.00   0.00   0.00     0.04  -0.04   0.07     0.01   0.06  -0.03
    39   6    -0.00   0.00   0.00     0.09   0.02  -0.00     0.01   0.07  -0.03
    40   1     0.00   0.00   0.00     0.12   0.03   0.01    -0.01   0.11  -0.03
    41   1    -0.00  -0.00  -0.00     0.09   0.04  -0.03     0.00   0.04  -0.01
    42   1    -0.00   0.00   0.00     0.06   0.02  -0.01     0.03   0.06  -0.07
    43   6    -0.00  -0.00   0.00     0.12  -0.03   0.08    -0.02   0.05   0.04
    44   1    -0.00  -0.00  -0.00     0.14  -0.05   0.11    -0.02   0.07   0.05
    45   1    -0.00   0.00   0.00     0.08  -0.04   0.08    -0.03   0.04   0.04
    46   1     0.00   0.00   0.00     0.15  -0.02   0.07    -0.03   0.05   0.05
    47   6    -0.00  -0.00   0.00     0.17   0.03   0.03    -0.02   0.08   0.03
    48   1     0.00  -0.00  -0.00     0.17   0.05   0.00    -0.02   0.08   0.02
    49   1     0.00  -0.00   0.00     0.19   0.01   0.06    -0.02   0.10   0.03
    50   1     0.00   0.00   0.00     0.20   0.03   0.04    -0.03   0.08   0.06
    51   6    -0.00   0.00   0.00    -0.02   0.01   0.01     0.03   0.00  -0.08
    52   1    -0.00   0.00  -0.00    -0.02   0.00  -0.02     0.05  -0.02  -0.11
    53   1    -0.00   0.00   0.00    -0.02   0.02   0.03     0.03   0.02  -0.09
    54   1    -0.00   0.00   0.00    -0.00   0.02   0.00     0.02   0.04  -0.07
    55   6     0.00  -0.00   0.00    -0.08  -0.03   0.03     0.03  -0.08  -0.03
    56   1     0.00  -0.00   0.00    -0.08  -0.02   0.05     0.03  -0.07  -0.04
    57   1     0.00  -0.00   0.00    -0.08  -0.04   0.00     0.05  -0.10  -0.07
    58   1     0.00   0.00   0.00    -0.10  -0.04   0.03     0.02  -0.12  -0.00
    59   6     0.00  -0.00   0.00    -0.02   0.03   0.09    -0.01   0.05   0.02
    60   1     0.00   0.00  -0.00    -0.04   0.03   0.12    -0.01   0.04   0.01
    61   1    -0.00  -0.00  -0.00    -0.01   0.04   0.11    -0.04   0.07   0.05
    62   1    -0.00  -0.00   0.00     0.02   0.04   0.08     0.00   0.08  -0.00
    63   6     0.00  -0.00  -0.00    -0.08  -0.01   0.07    -0.03  -0.04   0.07
    64   1     0.00   0.00   0.00    -0.10  -0.01   0.09    -0.03  -0.05   0.07
    65   1     0.00  -0.00  -0.00    -0.10  -0.03   0.04    -0.03  -0.08   0.07
    66   1    -0.00   0.00  -0.00    -0.08   0.00   0.09    -0.05  -0.02   0.10
    67   6    -0.00  -0.00   0.00     0.02   0.00  -0.03    -0.02   0.01  -0.10
    68   1    -0.00   0.00   0.00     0.00  -0.00  -0.01     0.01   0.03  -0.15
    69   1    -0.00   0.00   0.00     0.03   0.01  -0.03    -0.07   0.01  -0.10
    70   1     0.00  -0.00  -0.00     0.02   0.00  -0.03    -0.03   0.01  -0.10
    71   6    -0.00  -0.00  -0.00    -0.03  -0.00  -0.06     0.09  -0.02  -0.06
    72   1    -0.00  -0.00   0.00    -0.04  -0.01  -0.04     0.12  -0.01  -0.11
    73   1     0.00  -0.00   0.00    -0.02  -0.00  -0.07     0.08  -0.01  -0.06
    74   1    -0.00  -0.00  -0.00    -0.05  -0.01  -0.07     0.13  -0.03  -0.02
    75   6     0.00  -0.00  -0.00    -0.01  -0.00  -0.12     0.04  -0.02   0.09
    76   1    -0.00  -0.00   0.00    -0.01  -0.01  -0.13     0.05  -0.02   0.10
    77   1     0.00   0.00  -0.00     0.00  -0.01  -0.14     0.02  -0.01   0.15
    78   1     0.00  -0.00  -0.00    -0.03  -0.01  -0.11     0.10  -0.02   0.09
    79   6     0.00  -0.00   0.00     0.04   0.03  -0.10    -0.07  -0.02   0.04
    80   1    -0.00  -0.00  -0.00     0.04   0.03  -0.11    -0.06  -0.02   0.03
    81   1    -0.00  -0.00   0.00     0.06   0.04  -0.08    -0.12  -0.02  -0.00
    82   1     0.00   0.00  -0.00     0.05   0.03  -0.12    -0.10  -0.03   0.09
    83   1    -0.33   0.71   0.53    -0.02   0.00  -0.04    -0.02  -0.01   0.02
    84   6    -0.00   0.00  -0.00     0.01   0.02   0.03     0.02   0.08  -0.03
    85   8     0.01  -0.00   0.00     0.01   0.01   0.01     0.07   0.07  -0.05
    86   6     0.00   0.00  -0.00     0.01   0.03   0.08    -0.00   0.14  -0.03
    87   1     0.01   0.00  -0.00     0.04   0.05   0.09    -0.04   0.19  -0.03
    88   1     0.00   0.00  -0.00    -0.01   0.02   0.10    -0.03   0.12   0.00
    89   6    -0.00  -0.07   0.04     0.02   0.01  -0.02     0.01  -0.00   0.02
    90   1    -0.07   0.13   0.15     0.04   0.01  -0.04    -0.01  -0.03   0.02
    91   1     0.06  -0.08  -0.19     0.02   0.01  -0.03     0.05  -0.00   0.02
    92   7    -0.01  -0.01   0.01     0.02   0.02   0.02    -0.01   0.05   0.01
    93   6    -0.01  -0.01   0.00     0.02   0.02   0.04    -0.07   0.07   0.04
    94   1    -0.01  -0.01   0.00     0.03   0.03   0.05    -0.10   0.06   0.10
    95   1    -0.00   0.00   0.00     0.02   0.01   0.05    -0.03   0.04   0.05
    96   1    -0.01  -0.01   0.00     0.03   0.03   0.05    -0.11   0.11   0.00
    97   6    -0.00   0.00  -0.00     0.01   0.03   0.09     0.04   0.16  -0.10
    98   1    -0.00  -0.00  -0.00    -0.02   0.01   0.09     0.07   0.11  -0.11
    99   1    -0.00  -0.00   0.00     0.03   0.04   0.08     0.07   0.18  -0.14
   100   6     0.00  -0.00  -0.00    -0.04  -0.01   0.11    -0.01  -0.03   0.02
   101   9    -0.00   0.00   0.00    -0.02  -0.00   0.11    -0.02   0.01   0.06
   102   9    -0.00  -0.00   0.00    -0.07  -0.03   0.12    -0.01  -0.08   0.04
   103   9    -0.00   0.00   0.00    -0.03  -0.01   0.14     0.00   0.01  -0.00
   104   1     0.00   0.00  -0.01    -0.01  -0.01  -0.13    -0.04  -0.00   0.05
   105   1     0.00  -0.00   0.00     0.01   0.03   0.12     0.02   0.20  -0.10
                      4                      5                      6
                      A                      A                      A
 Frequencies --     31.0201                36.2708                40.2044
 Red. masses --      3.8509                 4.5212                 3.9510
 Frc consts  --      0.0022                 0.0035                 0.0038
 IR Inten    --      0.1191                 0.7534                 0.2974
  Atom AN      X      Y      Z        X      Y      Z        X      Y      Z
     1   6    -0.01   0.01   0.01     0.01  -0.01  -0.02     0.01  -0.01  -0.01
     2   6    -0.00   0.01  -0.01     0.01  -0.00   0.04     0.01  -0.00   0.02
     3   6    -0.01   0.01  -0.00     0.02  -0.02  -0.01     0.01  -0.01   0.01
     4   6    -0.01   0.01   0.02     0.02  -0.03  -0.05     0.01  -0.01  -0.01
     5   6    -0.02   0.02   0.03     0.02  -0.03  -0.06     0.01  -0.01  -0.02
     6   6    -0.01   0.01   0.01     0.01  -0.01  -0.03     0.02  -0.01  -0.03
     7   6     0.00   0.01  -0.03    -0.01   0.02  -0.00     0.01  -0.00  -0.02
     8   6    -0.00   0.01  -0.03     0.00   0.00  -0.06     0.04  -0.02  -0.08
     9   6    -0.01   0.01  -0.01     0.02  -0.02  -0.10     0.05  -0.04  -0.13
    10   6    -0.02   0.02   0.01     0.02  -0.03  -0.09     0.04  -0.04  -0.10
    11   1     0.00   0.01  -0.02    -0.00   0.01   0.08     0.00  -0.00   0.03
    12   1    -0.02   0.01   0.03     0.03  -0.05  -0.09     0.01  -0.01  -0.01
    13   1    -0.03   0.02   0.05     0.02  -0.04  -0.10     0.01  -0.01  -0.03
    14   1     0.01   0.01  -0.04    -0.02   0.04   0.03    -0.00   0.01   0.01
    15   1    -0.02   0.01  -0.01     0.03  -0.04  -0.15     0.08  -0.06  -0.18
    16   1    -0.03   0.02   0.02     0.03  -0.05  -0.12     0.06  -0.05  -0.14
    17   7    -0.01   0.01  -0.00     0.00   0.00   0.03     0.01  -0.00   0.01
    18   7    -0.00   0.01  -0.01    -0.01   0.02   0.01     0.00   0.00   0.00
    19  77    -0.00   0.01  -0.01    -0.00   0.02   0.04     0.00   0.01   0.01
    20   8    -0.03  -0.03  -0.00    -0.02   0.00   0.04    -0.03   0.01  -0.03
    21   8     0.03  -0.02  -0.04     0.05  -0.03  -0.02    -0.03   0.04   0.06
    22   8    -0.05  -0.00   0.05     0.01   0.05  -0.02    -0.01   0.01   0.00
    23   5     0.00   0.01  -0.01     0.01   0.02   0.01    -0.01   0.00   0.03
    24   5     0.02   0.01   0.01    -0.01   0.01   0.04     0.00   0.03   0.01
    25   5    -0.01   0.01   0.01    -0.02   0.02   0.02     0.00   0.01  -0.00
    26   8     0.02   0.02  -0.01    -0.07  -0.01   0.04     0.02   0.01  -0.02
    27   8     0.08   0.04   0.03    -0.01   0.01   0.03     0.03   0.07   0.05
    28   6     0.08  -0.01   0.04    -0.01  -0.01   0.03     0.00   0.05   0.02
    29   6    -0.00  -0.03   0.01    -0.03  -0.01   0.04    -0.06   0.03  -0.04
    30   6    -0.05   0.00   0.08    -0.02   0.05  -0.07     0.00   0.01  -0.00
    31   6    -0.01   0.01   0.01    -0.06   0.01   0.01     0.01   0.01  -0.03
    32   6     0.03  -0.01  -0.06     0.05  -0.03  -0.07    -0.03   0.00   0.07
    33   6     0.00   0.02  -0.01     0.03   0.00  -0.03     0.02  -0.05  -0.00
    34   8    -0.01   0.04  -0.00    -0.01   0.04   0.01     0.02  -0.05  -0.00
    35   6    -0.02  -0.11   0.01    -0.03  -0.03   0.03    -0.08  -0.03  -0.11
    36   1    -0.00  -0.16   0.03    -0.02  -0.03   0.03    -0.02  -0.08  -0.12
    37   1     0.00  -0.11   0.03    -0.03  -0.04   0.03    -0.11  -0.02  -0.12
    38   1    -0.09  -0.12  -0.01    -0.04  -0.03   0.04    -0.12  -0.04  -0.15
    39   6    -0.05   0.04  -0.01    -0.04  -0.01   0.05    -0.14   0.10  -0.04
    40   1    -0.05   0.05  -0.01    -0.03  -0.04   0.05    -0.16   0.11  -0.05
    41   1    -0.04   0.09   0.00    -0.04   0.02   0.03    -0.12   0.15  -0.01
    42   1    -0.10   0.02  -0.05    -0.07  -0.01   0.07    -0.18   0.09  -0.07
    43   6     0.13  -0.08   0.07    -0.00  -0.02   0.02     0.05  -0.02   0.03
    44   1     0.13  -0.11   0.08    -0.00  -0.03   0.02     0.04  -0.04   0.01
    45   1     0.10  -0.11   0.07    -0.01  -0.01   0.02     0.06  -0.06   0.01
    46   1     0.18  -0.06   0.10     0.01  -0.01   0.01     0.10  -0.00   0.07
[...]
 51,-0.00000763,0.00000341,-0.00000208,-0.00000559,0.00000065,0.0000012
 1,0.00000195,0.00000055,0.00000076,0.00000321,-0.00000474,-0.00000188,
 -0.00000854,0.00000519,-0.00000002,-0.00000535,-0.00000373,0.00000105,
 0.00000070,-0.00000166,-0.00000048,0.00000088,-0.00000073,0.00007661,-
 0.00018166,-0.00009039,0.00004157,-0.00001622,0.00000600,-0.00002748,0
 .00000977,0.00000497,-0.00000325,-0.00000266,-0.00000154,-0.00000218,-
 0.00000135,0.00000178,-0.00000249,-0.00000010,-0.00000023,0.00003003,0
 .00022841,-0.00004753,-0.00000289,-0.00002453,0.00001054,-0.00003879,-
 0.00002859,0.00004556,-0.00002732,-0.00001664,0.00000332,-0.00000880,0
 .00000757,-0.00001339,0.00000340,0.00000107,-0.00000474,0.00000082,-0.
 00000519,0.00000538,-0.00000657,-0.00000075,0.00000320,-0.00000023,-0.
 00000212,0.00000051,0.00000111,0.00000018,0.00000024,0.00000119,0.0000
 0106,-0.00000008,0.00001908,0.00003166,0.00002660,-0.00000601,-0.00000
 864,-0.00000270,-0.00000383,-0.00000962,-0.00001205,-0.00001589,-0.000
 00638,-0.00000197,0.14843525,0.16505462,0.00052326,-0.00041225,-0.0010
 2491,0.00009368,0.00001771,0.00001844,-0.00006852,0.00004551,-0.000046
 63,0.00002173,-0.00012314,0.00000327,0.00003261,0.00013121,0.00004091,
 -0.00016985,0.00058405,-0.00065632,0.00987304,0.00561303,0.00330953,-0
 .04111762,-0.02032290,-0.04716430,-0.01092747,-0.01036175,0.00119941,-
 0.00451523,0.00308293,0.00410732,-0.00000429,0.00000116,-0.00000151,0.
 00000473,-0.00000168,-0.00001326,0.00002173,-0.00001338,0.00007273,0.0
 0089690,-0.00103956,-0.00246377,0.00186235,-0.00109359,-0.00249141,-0.
 00056761,-0.00046722,0.00007249,-0.00013308,-0.00006705,0.00003064,-0.
 00264533,0.00448362,0.00576084,0.00022159,-0.00023682,-0.00007154,0.00
 004639,0.00003702,-0.00009291,-0.00003561,-0.00001195,-0.00003898,0.00
 001118,0.00000011,-0.00000286,0.00011954,0.00001089,0.00005368,-0.0000
 3191,-0.00014758,0.00011693,-0.00003944,0.00000137,-0.00000788,-0.0000
 0199,0.00001610,-0.00000577,0.00007840,0.00006639,-0.00012531,-0.00015
 908,-0.00001827,0.00002652,0.00002147,-0.00003495,0.00005677,-0.000005
 81,-0.00000123,0.00000430,-0.00000513,0.00000320,0.00000384,0.00002849
 ,0.00001110,-0.00000884,0.00000206,0.00001525,0.00009623,-0.00002592,-
 0.00006498,-0.00002394,0.00000346,0.00000995,-0.00000767,0.00000539,-0
 .00000859,0.00001073,0.00000407,-0.00000551,-0.00000746,0.00000113,0.0
 0001155,0.00000300,-0.00000524,0.00002141,-0.00001384,0.00000149,-0.00
 000401,-0.00000472,0.00000075,-0.00000344,0.00000318,0.00000146,0.0000
 1152,0.00000399,0.00009771,-0.00014960,0.00005257,-0.00000066,0.000036
 06,0.00000772,-0.00000360,0.00000066,0.00001517,-0.00005945,0.00005145
 ,-0.00005296,0.00002118,-0.00001977,0.00000077,0.00000631,0.00001312,0
 .00000989,-0.00000005,0.00000128,-0.00000538,-0.00001891,0.00001164,-0
 .00001355,-0.00000976,-0.00001048,0.00000785,0.00000194,-0.00000616,-0
 .00000149,0.00000122,0.00000012,0.00000073,0.00000047,-0.00000005,-0.0
 0000198,-0.00000758,-0.00000244,0.00000268,-0.00000130,0.00000242,-0.0
 0000114,0.00000017,-0.00000529,0.00000061,0.00000487,-0.00000006,-0.00
 000877,-0.00000995,-0.00001688,-0.00001102,-0.00000108,0.00000400,-0.0
 0000515,0.00000069,0.00001005,0.00001480,0.00000868,-0.00001695,-0.000
 00829,0.00002964,0.00002951,-0.00005997,0.00000174,-0.00001975,0.00000
 457,0.00001585,0.00002023,-0.00001287,-0.00005039,-0.00002570,0.000046
 84,0.00000494,-0.00000156,0.00000210,-0.00000039,0.00000080,0.00000091
 ,-0.00000215,-0.00000123,-0.00000077,-0.00000046,0.00000018,-0.0000004
 6,0.00000282,-0.00000020,0.00000033,-0.00000096,0.00000081,0.00000062,
 -0.00000061,0.00000012,-0.00000057,0.00000148,0.00000075,-0.00000166,0
 .00000111,-0.00000047,-0.00000128,0.00000061,0.00000017,-0.00000006,0.
 00000083,0.00000073,0.00000139,-0.00000189,-0.00000053,-0.00000132,-0.
 00000168,0.00000020,0.00000047,0.00000013,0.00000049,-0.00000051,0.000
 00101,-0.00000070,-0.00000124,0.00000008,0.,0.00000038,0.00001039,0.00
 009386,-0.00002643,0.00001679,-0.00000674,0.00001030,0.00001303,-0.000
 00155,-0.00001268,0.00000009,0.00000169,-0.00000359,0.00000126,0.00000
 085,-0.00000051,-0.00000131,-0.00000299,-0.00000326,0.00006474,0.00003
 647,-0.00006491,-0.00000493,0.00001487,0.00000368,-0.00000695,0.000012
 53,0.00005386,-0.00004368,-0.00000452,-0.00001602,0.00000183,0.0000130
 4,-0.00000250,-0.00000015,0.00000128,0.00000459,-0.00000459,-0.0000064
 0,-0.00000330,0.00000010,-0.00000259,-0.00000030,-0.00000004,0.0000006
 7,0.00000180,0.00000046,0.00000180,-0.00000048,0.00000174,-0.00000050,
 -0.00000143,0.00000250,0.00003616,0.00005242,-0.00000214,-0.00001773,-
 0.00000336,0.00000347,-0.00000418,-0.00000730,-0.00000862,-0.00000722,
 -0.00000754,0.04650735,0.02020018,0.03932580,0.00002090,-0.00000780,-0
 .00006754,0.00000711,-0.00000375,-0.00003352,0.00002486,-0.00001698,-0
 .00000147,-0.00007620,-0.00000503,0.00001402,0.00004803,0.00004214,0.0
 0002058,0.00003921,0.00002160,-0.00001185,0.00000602,-0.00002873,0.000
 00653,-0.00001248,0.00002717,-0.00000862,0.00002990,-0.00000190,0.0000
 1422,-0.00002527,-0.00001664,0.00000595,-0.00000309,-0.00001641,-0.000
 01766,-0.00002025,-0.00003563,0.00000742,-0.00000151,0.00000359,-0.000
 01056,0.00000600,-0.00000165,-0.00000217,0.00000062,-0.00000496,0.0000
 0062,0.00000440,0.00000064,-0.00000175,-0.00003668,0.00003361,0.000000
 24,0.00001509,0.00005771,-0.00003762,-0.00015174,0.00010120,0.00020694
 ,-0.00008056,0.00003488,0.00008579,-0.00010340,0.00002422,-0.00003864,
 0.00001907,0.00012879,0.00004533,0.00016379,-0.00000693,0.00003551,0.0
 0011305,-0.00005519,-0.00009628,0.00002958,-0.00020697,-0.00005496,-0.
 00003035,0.00011789,0.00001358,-0.00007753,-0.00001345,0.00011163,0.00
 003885,-0.00000464,-0.00002680,0.00001123,-0.00000393,-0.00004179,0.00
 000441,-0.00005822,0.00000752,0.00000066,-0.00005164,-0.00002756,0.000
 06198,-0.00000544,0.00000880,0.00003344,-0.00000315,0.00002729,-0.0001
 0388,-0.00001457,-0.00002086,-0.00000066,0.00000135,0.00000495,0.00000
 236,-0.00000046,-0.00000113,-0.00000419,-0.00000104,0.00000473,-0.0000
 0050,0.00000322,-0.00000222,-0.00000021,0.00000039,0.00000669,-0.00000
 165,0.00000035,0.00000748,-0.00000174,-0.00000232,-0.00000439,-0.00000
 006,0.00000243,-0.00000267,-0.00000571,-0.00000036,0.00000542,-0.00000
 799,-0.00000047,0.00000372,0.00000555,0.00000011,-0.00000136,0.0000025
 7,0.00000208,-0.00000323,-0.00000674,-0.00000100,0.00000333,0.00000238
 ,0.00000091,-0.00000137,-0.00000428,0.00000034,0.00000650,0.00000213,-
 0.00000140,-0.00000186,-0.00000782,0.00000151,0.00000082,0.00000398,-0
 .00000040,-0.00000002,-0.00000847,0.00000263,0.00000089,0.00000315,-0.
 00000202,-0.00000138,-0.00000477,0.00000033,-0.00000225,-0.00000696,-0
 .00000043,-0.00000125,0.00000342,0.00000140,-0.00000047,0.00000322,0.0
 0000065,0.00000256,-0.00000305,-0.00000104,-0.00000197,-0.00000520,0.0
 0000100,-0.00000268,0.00000077,-0.00000211,0.00000229,0.00000157,0.000
 00078,0.00000152,-0.00000043,-0.00000035,-0.00000755,-0.00000647,-0.00
 000006,-0.00000459,0.00000077,0.00000190,0.00000621,0.00000265,0.00000
 043,0.00000195,0.00000139,0.00000633,0.00000449,0.00000035,-0.00000280
 ,-0.00000119,0.00000074,-0.00000463,-0.00000358,-0.00000221,0.00000746
 ,0.00000478,0.00000050,0.00000547,-0.00000059,-0.00000121,-0.00000211,
 -0.00000163,-0.00000034,0.00000765,0.00000280,-0.00000030,-0.00000519,
 -0.00000001,-0.00000867,0.00001081,-0.00002143,-0.00000344,0.00001379,
 0.00000310,-0.00000219,-0.00000849,0.00000144,0.00000765,-0.00001022,0
 .00001018,-0.00000514,0.00000405,-0.00000056,-0.00000150,0.00000708,0.
 00000145,-0.00000011,-0.00000162,0.00000072,0.00000413,-0.00000325,0.0
 0000264,0.00008657,-0.00010975,-0.00014740,-0.00046129,0.00331999,-0.0
 0143122,-0.00021022,0.00056350,-0.00014158,-0.01952872,-0.01072185,0.0
 0342632,0.00073543,-0.00037356,-0.00028142,0.00057151,0.00000989,0.000
 56161,0.00017931,0.00049205,-0.00029928,-0.00017716,-0.00000972,0.0000
 3894,0.00003803,0.00001931,0.00004668,-0.00208285,-0.00048210,0.000103
 51,-0.00009295,-0.00046335,0.00013570,-0.00002176,0.00006313,-0.000028
 98,0.00001540,0.00007843,0.00003669,0.00005030,-0.00001163,-0.00002165
 ,-0.26363067,-0.10034766,0.03151567,-0.00204411,-0.00055751,-0.0003019
 7,0.00036148,0.00082900,-0.00007052,-0.00108446,0.00002090,0.00024774,
 0.00019091,0.00000021,0.00000093,0.00017596,0.00000275,-0.00009825,0.0
 0057968,-0.00002424,-0.00010986,-0.00000339,-0.00000344,-0.00000170,0.
 28645047,0.00006821,0.00001240,0.00000216,-0.00000856,-0.00001367,0.00
 000859,0.00000959,-0.00005287,0.00003094,-0.00007476,0.00003286,0.0000
 1765,-0.00001326,0.00001748,0.00001930,0.00000436,0.00001072,-0.000007
 32,0.00000712,-0.00000259,0.00000028,-0.00000410,-0.00000041,-0.000001
 78,0.00000018,0.00001682,-0.00000298,-0.00001027,-0.00000442,0.0000041
 3,0.00000933,-0.00000513,0.00000134,-0.00003199,-0.00000293,-0.0000240
 5,0.00000422,0.00001136,-0.00003226,0.00000200,-0.00000383,0.00000122,
 0.00000074,-0.00000194,-0.00000110,0.00000168,0.00000603,-0.00001249,0
 .00002548,0.00000670,0.00000381,-0.00000498,-0.00002675,0.00000862,-0.
 00000743,0.00000544,-0.00001882,-0.00001709,0.00000783,0.00001423,-0.0
 0001883,0.00000649,-0.00001827,-0.00001818,0.00001477,-0.00000076,0.00
 003040,-0.00001034,0.00002181,0.00003439,-0.00000974,-0.00002656,0.000
 02362,-0.00001452,0.00000783,-0.00001276,0.00001841,-0.00000399,-0.000
 01546,0.00000358,0.00001384,0.00001205,-0.00000109,-0.00001064,0.00000
 444,0.00000021,-0.00000866,0.00000399,-0.00000996,-0.00000384,0.000003
 82,-0.00000714,-0.00000067,0.00000820,-0.00000194,0.00000063,0.0000099
 9,-0.00000080,0.00000845,-0.00002654,0.00000382,-0.00001015,-0.0000005
 1,0.00000076,0.00000003,0.00000031,-0.00000039,-0.00000038,-0.00000067
 ,-0.00000053,0.00000126,0.00000014,0.00000095,-0.00000054,0.00000092,0
 .00000017,0.00000069,-0.00000077,-0.00000042,0.00000179,-0.00000088,-0
 .00000007,-0.00000099,0.00000044,0.00000049,-0.00000084,-0.00000093,-0
 .00000215,0.00000110,-0.00000227,0.00000067,0.00000137,0.00000144,-0.0
 0000039,-0.00000032,0.00000063,0.00000171,-0.00000144,-0.00000007,-0.0
 0000066,0.00000132,0.00000057,-0.00000020,-0.00000095,-0.00000179,0.00
 000060,0.00000112,0.00000089,0.00000014,-0.00000100,-0.00000006,0.0000
 0068,0.,0.00000104,0.00000002,0.00000069,-0.00000200,0.00000009,-0.000
 00011,0.00000099,-0.00000030,-0.00000065,-0.00000056,0.00000070,-0.000
 00055,-0.00000146,-0.00000030,-0.00000033,0.00000063,0.00000083,-0.000
 00018,0.00000031,-0.00000051,0.00000030,-0.00000121,0.00000020,-0.0000
 0047,-0.00000158,0.00000034,-0.00000096,0.00000075,-0.00000031,0.00000
 043,0.00000056,0.00000007,0.00000042,-0.00000095,-0.00000051,-0.000000
 75,-0.00000174,0.00000034,-0.00000151,-0.00000055,-0.00000098,0.000001
 72,0.00000193,0.00000085,-0.00000027,-0.00000156,0.00000007,-0.0000005
 6,-0.00000143,-0.00000042,-0.00000042,0.00000066,-0.00000052,-0.000000
 51,0.00000014,0.00000142,0.00000100,-0.00000097,0.00000010,-0.00000106
 ,-0.00000197,-0.00000014,-0.00000068,0.00000074,0.00000087,0.00000048,
 0.00000066,-0.00000045,0.00000133,0.00000196,-0.00000108,0.00000440,-0
 .00000102,0.00000210,-0.00000035,-0.00000188,-0.00000198,-0.00000506,0
 .00000259,-0.00000023,0.00000255,0.00000018,0.00000008,0.00000183,-0.0
 0000042,0.00000198,-0.00000048,-0.00000085,-0.00000064,0.00000102,-0.0
 0000035,-0.00000125,-0.00000158,0.00000029,0.00001952,0.00002320,0.002
 13116,-0.00564256,0.00244400,-0.00181600,0.00152766,-0.00047126,0.0219
 1097,0.00904024,-0.00301790,-0.00093512,0.00076866,-0.00020686,-0.0007
 5453,0.00072759,-0.00061149,0.00009848,-0.00027340,0.00015349,0.000103
 11,0.00002985,-0.00001988,0.00001438,0.00001279,0.00000313,0.00138224,
 0.00108043,-0.00031970,-0.00004780,0.00024564,-0.00009815,-0.00001506,
 -0.00002158,0.00001079,0.00001024,-0.00001074,-0.00002069,-0.00003776,
 0.00001267,0.00004143,-0.10119362,-0.09435974,0.01378353,-0.00462200,-
 0.00362651,-0.00060814,-0.02397203,-0.00913028,0.00608992,0.00005917,-
 0.00003728,-0.00021541,-0.00001223,-0.00001112,0.00006823,0.00000787,0
 .00002806,0.00007416,0.00005688,-0.00013117,-0.00018356,-0.00000145,-0
 .00000063,-0.00000119,0.10764317,0.09974527,-0.00020147,-0.00001730,-0
 .00003393,-0.00004921,0.00002108,0.00000902,0.00001533,0.00003434,-0.0
 0014296,0.00007297,-0.00002755,0.00004964,0.00007855,-0.00006640,-0.00
 009549,-0.00000390,-0.00001817,0.00000363,-0.00000088,0.00000258,0.000
 00046,0.00000642,0.00000428,0.00000313,0.00000171,-0.00001383,0.000004
 29,0.00000886,0.00000997,-0.00000121,0.00001021,0.00000183,-0.00000248
 ,0.00006903,0.00005037,0.00001742,-0.00001737,-0.00001954,0.00003866,0
 .00000038,0.00000221,-0.00000104,0.00000071,0.00000219,-0.00000026,-0.
 00000149,-0.00000839,0.00000829,0.00001251,-0.00007031,0.00001781,0.00
 000765,0.00002919,-0.00000960,-0.00001569,-0.00000813,0.00003840,0.000
 00699,-0.00000749,-0.00000670,0.00000703,-0.00000449,0.00000996,0.0000
 0151,-0.00002668,-0.00000347,-0.00001113,0.00000984,-0.00001187,-0.000
 02464,0.00000684,0.00001758,-0.00000498,0.00002363,-0.00000133,0.00000
 042,-0.00001548,-0.00000069,0.00000632,-0.00000449,-0.00000276,-0.0000
 0629,0.00000160,0.00000723,-0.00000090,0.00000068,0.00000492,0.0000045
 0,0.00001992,-0.00000492,0.00000258,0.00000288,0.00000528,-0.00000052,
 0.00000117,0.00000187,-0.00000366,0.00000010,-0.00000378,0.00001194,-0
 .00000312,0.00000493,-0.00000003,-0.00000042,-0.00000029,-0.00000049,-
 0.00000001,-0.00000014,0.00000031,0.00000020,-0.00000031,0.00000031,-0
 .00000057,0.00000022,-0.00000088,-0.00000050,-0.00000077,0.00000045,0.
 00000005,-0.00000072,0.00000004,0.00000104,0.00000082,0.00000064,-0.00
 000073,0.00000027,0.00000078,0.00000097,-0.00000096,0.00000096,-0.0000
 0032,-0.00000047,-0.00000074,0.00000038,0.00000017,-0.00000024,-0.0000
 0135,0.00000076,0.00000012,0.00000055,-0.00000077,-0.00000062,0.000000
 14,0.00000045,0.00000089,-0.00000020,-0.00000034,-0.00000041,-0.000000
 50,0.00000059,0.00000020,-0.00000018,-0.00000039,-0.00000007,-0.000000
 42,0.00000044,0.00000033,-0.00000021,0.,-0.00000022,0.00000060,-0.0000
 0013,0.00000037,-0.00000058,-0.00000047,0.00000022,0.00000011,0.000000
 33,-0.00000004,-0.00000013,0.00000047,0.00000019,-0.00000007,0.,0.0000
 0069,0.00000005,0.00000087,0.00000063,-0.00000005,0.00000015,-0.000000
 30,0.,-0.00000006,-0.00000019,-0.00000012,-0.00000025,0.00000132,0.000
 00018,0.00000001,0.00000016,0.,0.00000062,0.00000028,0.00000028,-0.000
 00032,-0.00000074,-0.00000047,0.00000008,-0.00000120,-0.00000043,-0.00
 000136,-0.00000086,0.00000030,-0.00000003,0.00000026,0.00000093,0.0000
 0051,0.00000047,-0.00000108,-0.00000027,0.00000012,-0.00000014,-0.0000
 0036,-0.00000092,0.00000008,0.00000023,0.00000028,-0.00000107,-0.00000
 005,0.00000049,-0.00000010,0.00000096,0.00000222,-0.00000361,0.0000049
 8,-0.00000037,-0.00000094,0.00000135,0.00000079,0.00000112,-0.00000319
 ,0.00000037,-0.00000064,-0.00000074,0.00000178,-0.00000258,0.00000149,
 0.00000029,-0.00000108,-0.00000054,-0.00000074,0.00000045,0.00000070,-
 0.00000123,0.00000102,-0.00000132,0.00001292,-0.00001496,-0.00003185,-
 0.00107894,0.00252737,-0.00045398,0.00042742,-0.00020712,0.00069389,-0
 .01035346,-0.00510259,0.00036510,0.00017398,-0.00064282,0.00019643,0.0
 0055491,-0.00004291,0.00013416,0.00002182,0.00016715,-0.00012495,-0.00
 006055,-0.00000890,0.00002393,-0.00000291,-0.00000224,0.00000372,-0.00
 079244,-0.00041266,0.00021905,-0.00001456,-0.00013519,0.00005253,0.000
 00021,0.00001265,-0.00001769,0.00001351,0.00000854,-0.00000625,0.00001
 094,0.00001795,-0.00001607,0.03210929,0.01384480,-0.05309729,0.0282062
 1,0.01265659,-0.00184829,-0.01611882,-0.00558052,0.00217594,0.00123056
 ,-0.00009077,-0.00032342,-0.00019175,0.00003331,0.00000316,-0.00020106
 ,0.00001718,0.00013265,-0.00062442,-0.00004807,-0.00024559,0.00000147,
 0.,0.00000025,-0.03331349,-0.01690007,0.05224230\\0.00000130,-0.000006
 18,-0.00000216,0.00001036,0.00000518,-0.00000331,-0.00000455,-0.000011
 49,-0.00000890,0.00000283,-0.00000272,-0.00000745,-0.00000232,-0.00000
 174,-0.00000821,-0.00000268,-0.00000243,-0.00000164,-0.00000094,-0.000
 00180,0.00000503,-0.00000844,0.00000063,-0.00000014,-0.00000037,-0.000
 00142,0.00000243,-0.00000356,0.00000378,-0.00000427,-0.00000024,-0.000
 00275,-0.00000253,-0.00000022,-0.00000115,-0.00000493,-0.00000025,-0.0
 0000140,-0.00000222,-0.00000316,0.00000164,0.00000016,-0.00000220,-0.0
 0000086,0.00000061,0.00000177,-0.00000225,0.00000062,-0.00000652,-0.00
 000500,-0.00000568,-0.00000007,0.00000305,0.00000011,-0.00000303,-0.00
 000127,0.00000414,0.00000334,0.00000774,0.00000171,-0.00000805,0.00000
 259,0.00000611,0.00000675,0.00000143,-0.00000002,-0.00000585,0.0000010
 9,-0.00000028,0.00000420,-0.00000202,0.00000252,-0.00000062,-0.0000015
 8,-0.00000194,0.00000091,0.00000059,0.00000045,0.00000600,0.00000204,0
 .00000102,0.00000073,0.00000563,0.00000608,0.00000289,-0.00000241,0.00
 000588,-0.00000085,-0.00000600,-0.00000177,0.00000304,0.00000313,0.000
 00032,-0.00000181,-0.00000106,0.00000547,-0.00000406,0.00000796,0.0000
 0872,-0.00000206,0.00000381,0.00000797,0.00000792,-0.00000040,0.000005
 49,0.00000187,0.00000274,0.00000366,0.00000295,0.00000213,0.00000539,0
 .00000188,0.00000628,0.00000254,0.00001110,0.00000828,-0.00000039,0.00
 000394,0.00000156,0.00000335,0.00000159,0.00000017,0.00000219,0.000003
 31,-0.00000286,0.00000324,0.00000119,0.00000364,0.00000944,0.00000239,
 0.00000290,0.00000309,-0.00000013,0.00000213,0.00000125,0.00000119,0.0
 0000075,0.00000244,0.00001153,0.00000710,0.00000655,-0.00000046,-0.000
 00066,-0.00000070,0.00000245,0.00000211,0.00000239,0.00000330,-0.00000
 292,0.00000167,-0.00000616,0.00000259,0.00000142,0.00000036,0.00000244
 ,0.00000198,0.00000127,0.00000151,0.00000400,0.00000192,0.00000102,0.0
 0000877,-0.00000595,0.00000498,0.00000711,-0.00000212,0.00000158,0.000
 00401,-0.00000364,-0.00000057,0.00000300,-0.00000441,0.00000183,0.0000
 0381,-0.00000045,0.00000071,0.00000959,-0.00000299,0.00000215,0.000004
 11,-0.00000239,0.00000291,0.00000347,-0.00000002,0.00000424,0.00000586
 ,-0.00001318,-0.00000288,0.00000803,-0.00000230,0.00000203,0.00000540,
 0.00000014,0.00000158,0.00000091,-0.00000259,0.00000389,0.00000180,0.0
 0001015,-0.00000161,0.00000439,-0.00000144,0.00000070,0.00000014,0.000
 00278,0.00000317,-0.00000102,0.00000251,0.00000370,0.00000260,-0.00000
 027,-0.00000173,0.00000476,-0.00000005,0.00000075,0.00000086,0.0000019
 3,0.00000176,-0.00000002,0.00000261,-0.00000064,-0.00000319,0.00000624
 ,0.00000207,-0.00000857,0.00000159,-0.00000265,-0.00000119,0.00000216,
 -0.00000144,-0.00000261,-0.00000002,-0.00000019,0.00000067,0.00000873,
 0.00000188,-0.00000174,0.00000327,0.00000033,-0.00000044,0.00000295,-0
 .00000010,0.00000118,0.00000343,-0.00000056,-0.00000216,-0.00000154,0.
 00000145,-0.00000165,-0.00001155,-0.00000955,-0.00000399,-0.00000676,-
 0.00000409,-0.00000670,-0.00000519,-0.00000469,-0.00001236,-0.00000193
 ,-0.00000136,-0.00000734,0.00000159,0.00000338,0.00000397,-0.00000912,
 0.00000191,-0.00000486,-0.00000099,-0.00000124,0.00000232,-0.00000196,
 -0.00000520,-0.00000046,0.00000085,0.00000209,-0.00000748,-0.00000587,
 -0.00000741,-0.00000182,-0.00000340,-0.00000006,-0.00000302,-0.0000001
 7,-0.00000080,-0.00000280,-0.00000233,-0.00000188,-0.00000333,-0.00000
 338,-0.00000375,-0.00000125,-0.00000034,-0.00000047,-0.00000607,-0.000
 00394,-0.00000921,-0.00000802,0.00000605,-0.00000910,-0.00001500,-0.00
 000010,0.00000187,-0.00001809,0.00000721,-0.00000119,-0.00000045,0.000
 00366,-0.00001162,-0.00002044,-0.00000146,0.00000066,0.00000231,-0.000
 00171,-0.00000296,-0.00000587\\\@
 The archive entry for this job was punched.


 HOW IS IT THAT THE SKY FEEDS THE STARS?

                           -- LUCRETIUS
 Job cpu time:       1 days 21 hours 32 minutes  7.4 seconds.
 Elapsed time:       0 days  2 hours 53 minutes 54.7 seconds.
 File lengths (MBytes):  RWF=   8253 Int=      0 D2E=      0 Chk=     49 Scr=      1
 Normal termination of Gaussian 16 at Sat Dec  7 22:30:45 2024.
