/mnt/lustre/scratch/nvme/SLURM/9663798/usccqdma.KH6gepmzlS
OMP_STACKSIZE=0m
GAUSS_PDEF=16
GAUSS_MDEF=65536MB
GAUSS_RDEF=SCF=Direct
 Entering Gaussian System, Link 0=g16.exe
 Initial command:
 /opt/cesga/2020/software/Core/g16/c1/l1.exe "/mnt/lustre/scratch/nvme/SLURM/9663798/usccqdma.KH6gepmzlS/Gau-1009156.inp" -scrdir="/mnt/lustre/scratch/nvme/SLURM/9663798/usccqdma.KH6gepmzlS/"
 Default is to use a total of  16 processors:
                               16 via shared-memory
                                1 via Linda
 Entering Link 1 = /opt/cesga/2020/software/Core/g16/c1/l1.exe PID=   1009182.
  
 Copyright (c) 1988-2019, Gaussian, Inc.  All Rights Reserved.
  
 This is part of the Gaussian(R) 16 program.  It is based on
 the Gaussian(R) 09 system (copyright 2009, Gaussian, Inc.),
 the Gaussian(R) 03 system (copyright 2003, Gaussian, Inc.),
 the Gaussian(R) 98 system (copyright 1998, Gaussian, Inc.),
 the Gaussian(R) 94 system (copyright 1995, Gaussian, Inc.),
 the Gaussian 92(TM) system (copyright 1992, Gaussian, Inc.),
 the Gaussian 90(TM) system (copyright 1990, Gaussian, Inc.),
 the Gaussian 88(TM) system (copyright 1988, Gaussian, Inc.),
 the Gaussian 86(TM) system (copyright 1986, Carnegie Mellon
 University), and the Gaussian 82(TM) system (copyright 1983,
 Carnegie Mellon University). Gaussian is a federally registered
 trademark of Gaussian, Inc.
  
 This software contains proprietary and confidential information,
 including trade secrets, belonging to Gaussian, Inc.
  
 This software is provided under written license and may be
 used, copied, transmitted, or stored only in accord with that
 written license.
  
 The following legend is applicable only to US Government
 contracts under FAR:
  
                    RESTRICTED RIGHTS LEGEND
  
 Use, reproduction and disclosure by the US Government is
 subject to restrictions as set forth in subparagraphs (a)
 and (c) of the Commercial Computer Software - Restricted
 Rights clause in FAR 52.227-19.
  
 Gaussian, Inc.
 340 Quinnipiac St., Bldg. 40, Wallingford CT 06492
  
  
 ---------------------------------------------------------------
 Warning -- This program may not be used in any manner that
 competes with the business of Gaussian, Inc. or will provide
 assistance to any competitor of Gaussian, Inc.  The licensee
 of this program is prohibited from giving any competitor of
 Gaussian, Inc. access to this program.  By using this program,
 the user acknowledges that Gaussian, Inc. is engaged in the
 business of creating and licensing software in the field of
 computational chemistry and represents and warrants to the
 licensee that it is not a competitor of Gaussian, Inc. and that
 it will not use this program in any manner prohibited above.
 ---------------------------------------------------------------
  

 Cite this work as:
 Gaussian 16, Revision C.01,
 M. J. Frisch, G. W. Trucks, H. B. Schlegel, G. E. Scuseria, 
 M. A. Robb, J. R. Cheeseman, G. Scalmani, V. Barone, 
 G. A. Petersson, H. Nakatsuji, X. Li, M. Caricato, A. V. Marenich, 
 J. Bloino, B. G. Janesko, R. Gomperts, B. Mennucci, H. P. Hratchian, 
 J. V. Ortiz, A. F. Izmaylov, J. L. Sonnenberg, D. Williams-Young, 
 F. Ding, F. Lipparini, F. Egidi, J. Goings, B. Peng, A. Petrone, 
 T. Henderson, D. Ranasinghe, V. G. Zakrzewski, J. Gao, N. Rega, 
 G. Zheng, W. Liang, M. Hada, M. Ehara, K. Toyota, R. Fukuda, 
 J. Hasegawa, M. Ishida, T. Nakajima, Y. Honda, O. Kitao, H. Nakai, 
 T. Vreven, K. Throssell, J. A. Montgomery, Jr., J. E. Peralta, 
 F. Ogliaro, M. J. Bearpark, J. J. Heyd, E. N. Brothers, K. N. Kudin, 
 V. N. Staroverov, T. A. Keith, R. Kobayashi, J. Normand, 
 K. Raghavachari, A. P. Rendell, J. C. Burant, S. S. Iyengar, 
 J. Tomasi, M. Cossi, J. M. Millam, M. Klene, C. Adamo, R. Cammi, 
 J. W. Ochterski, R. L. Martin, K. Morokuma, O. Farkas, 
 J. B. Foresman, and D. J. Fox, Gaussian, Inc., Wallingford CT, 2019.
 
 ******************************************
 Gaussian 16:  ES64L-G16RevC.01  3-Jul-2019
                 7-Dec-2024 
 ******************************************
 Default route: SCF=Direct
 -
 #
 -
 1/38=1,172=1/1;
 2/12=2,17=6,18=5,40=1/2;
 3/11=9,25=1,30=1/1,2,3;
 4//1;
 5/5=2,38=5/2;
 6/7=2,8=2,9=2,10=2,28=1/1;
 99/5=1,9=1/99;
 ----------------------------------------------------------------------
 /Users/danielmarcosatanes/Desktop/Tesis/sp3/Estructuras_supporting_gjf
 /44f/C-CH3/bis-5-CF3-Bipy/OA/σ-(R-H)Ir(Bpin)3/L28-σ-(R-H)Ir(Bpin)3.l
 og
 ----------------------------------------------------------------------
 Symbolic Z-matrix:
 Charge =  0 Multiplicity = 1
 C                     0.67067  -3.04138  -0.05519 
 C                     2.50594  -1.88005  -0.85589 
 C                     3.33629  -2.97891  -0.66769 
 C                     2.79711  -4.15334  -0.16008 
 C                     1.44338  -4.1848    0.14419 
 C                    -0.76136  -2.97123   0.30172 
 C                    -2.55516  -1.58596   0.7496 
 C                    -3.38917  -2.66646   0.99546 
 C                    -2.87724  -3.94946   0.86172 
 C                    -1.5448   -4.10459   0.5119 
 H                     2.87332  -0.92979  -1.255 
 H                     3.42632  -5.0249    0.00402 
 H                     1.00248  -5.08272   0.56973 
 H                    -2.91742  -0.56195   0.8152 
 H                    -3.516    -4.81525   1.02613 
 H                    -1.12666  -5.09972   0.38314 
 N                     1.20783  -1.9096   -0.55472 
 N                    -1.27554  -1.73178   0.41603 
 Ir                    0.01428   0.03659  -0.19018 
 O                     1.34316   2.79777  -0.72972 
 O                     1.96097   1.244     1.82789 
 O                    -2.08861   2.22166  -0.32648 
 B                     1.04271   0.26125   1.49754 
 B                     1.28555   1.42524  -0.92266 
 B                    -1.03018   1.64699   0.4017 
 O                    -0.88671   2.32094   1.61191 
 O                     2.33857   1.0336   -1.77139 
 C                     3.29391   2.10419  -1.80079 
 C                     2.38896   3.34303  -1.54103 
 C                    -2.39681   3.48734   0.28513 
 C                    -1.96242   3.24844   1.75805 
 C                     2.34095   1.0333    3.19469 
 C                     2.12364  -0.4969    3.34957 
 O                     1.00453  -0.72927   2.47881 
 C                     3.05515   4.46892  -0.77539 
 H                     3.36746   4.13659   0.22135 
 H                     3.93212   4.85384  -1.31612 
 H                     2.34558   5.29729  -0.64578 
 C                     1.73973   3.88038  -2.80998 
 H                     2.46385   4.38381  -3.46509 
 H                     1.25469   3.07277  -3.37503 
 H                     0.96592   4.60708  -2.53028 
 C                     4.28725   1.83709  -0.67432 
 H                     5.09492   2.58144  -0.64964 
 H                     3.77855   1.82357   0.29921 
 H                     4.74399   0.84867  -0.83202 
 C                     4.00974   2.09656  -3.13606 
 H                     4.60493   1.17827  -3.22956 
 H                     3.30594   2.12878  -3.97519 
 H                     4.6947    2.95285  -3.21868 
 C                     3.7695    1.50041   3.38715 
 H                     4.45654   1.01726   2.68276 
 H                     3.82571   2.58465   3.22194 
 H                     4.11504   1.29456   4.41059 
 C                     1.3984    1.86448   4.05614 
 H                     1.45207   2.9072    3.71815 
 H                     0.35716   1.53946   3.93322 
 H                     1.67202   1.82298   5.11935 
 C                     3.28677  -1.31478   2.79867 
 H                     4.16983  -1.27407   3.4507 
 H                     2.96897  -2.36338   2.7151 
 H                     3.57882  -0.96686   1.79628 
 C                     1.77362  -0.9555    4.7493 
 H                     0.84198  -0.49705   5.09818 
 H                     1.64111  -2.04524   4.76419 
 H                     2.57704  -0.70196   5.45598 
 C                    -1.45228   4.47972   2.48119 
 H                    -0.55985   4.88519   1.99195 
 H                    -2.22278   5.26329   2.52557 
 H                    -1.1792    4.21393   3.5112 
 C                    -3.03823   2.56738   2.5968 
 H                    -2.58438   2.22649   3.5364 
 H                    -3.86733   3.24573   2.84052 
 H                    -3.44927   1.68559   2.08504 
 C                    -3.86933   3.80229   0.10479 
 H                    -4.13052   4.73167   0.63172 
 H                    -4.09782   3.94878  -0.95998 
 H                    -4.51545   3.00091   0.48162 
 C                    -1.55387   4.5438   -0.4193 
 H                    -1.77777   5.55587  -0.05483 
 H                    -0.48246   4.3379   -0.29564 
 H                    -1.77823   4.51016  -1.4949 
 C                    -3.19388  -0.75777  -2.64603 
 O                    -3.32499  -1.74283  -1.92216 
 N                    -3.95314   0.36519  -2.47162 
 C                    -0.90418  -0.02829  -3.20779 
 C                    -2.1411   -0.74676  -3.74652 
 C                    -1.7915   -2.16642  -4.16165 
 C                    -4.8408   -2.46037   1.28722 
 C                     4.79492  -2.81805  -0.96227 
 C                    -3.7182    1.64482  -3.11101 
 C                    -4.82154   0.4184   -1.31181 
 H                    -1.11583   0.97569  -2.81416 
 H                    -0.11443   0.05773  -3.96602 
 H                    -0.47487  -0.64312  -2.39212 
 H                    -5.13536  -0.59372  -1.04929 
 H                    -5.70443   1.02746  -1.54595 
 H                    -4.29549   0.87946  -0.46027 
 H                    -3.23545   1.52778  -4.08402 
 H                    -3.09206   2.28625  -2.47203 
 H                    -4.6834    2.14281  -3.27655 
 H                    -2.66728  -2.70889  -4.53727 
 H                    -1.40196  -2.72646  -3.30165 
 H                    -1.02479  -2.15407  -4.94727 
 H                    -2.5199   -0.20521  -4.626 
 F                    -5.26526  -3.29397   2.24475 
 F                    -5.58789  -2.69893   0.20384 
 F                    -5.09805  -1.21106   1.68548 
 F                     4.99169  -2.29228  -2.17453 
 F                     5.44578  -3.983    -0.90692 
 F                     5.37106  -1.98908  -0.08142 
 
 Stoichiometry    C36H55B3F6IrN3O7
 Framework group  C1[X(C36H55B3F6IrN3O7)]
 Deg. of freedom   327
 Full point group                 C1      NOp   1
 Largest Abelian subgroup         C1      NOp   1
 Largest concise Abelian subgroup C1      NOp   1
                         Standard orientation:                         
 ---------------------------------------------------------------------
 Center     Atomic      Atomic             Coordinates (Angstroms)
 Number     Number       Type             X           Y           Z
 ---------------------------------------------------------------------
      1          6           0        0.670671   -3.041380   -0.055191
      2          6           0        2.505940   -1.880049   -0.855891
      3          6           0        3.336291   -2.978909   -0.667691
      4          6           0        2.797111   -4.153339   -0.160081
      5          6           0        1.443381   -4.184800    0.144189
      6          6           0       -0.761359   -2.971231    0.301719
      7          6           0       -2.555160   -1.585962    0.749599
      8          6           0       -3.389169   -2.666462    0.995459
      9          6           0       -2.877239   -3.949462    0.861719
     10          6           0       -1.544799   -4.104591    0.511899
     11          1           0        2.873320   -0.929789   -1.255001
     12          1           0        3.426322   -5.024899    0.004019
     13          1           0        1.002482   -5.082720    0.569729
     14          1           0       -2.917420   -0.561952    0.815199
     15          1           0       -3.515998   -4.815252    1.026129
     16          1           0       -1.126658   -5.099721    0.383139
     17          7           0        1.207830   -1.909600   -0.554721
     18          7           0       -1.275540   -1.731781    0.416029
     19         77           0        0.014279    0.036590   -0.190181
     20          8           0        1.343158    2.797770   -0.729721
     21          8           0        1.960969    1.244001    1.827889
     22          8           0       -2.088612    2.221659   -0.326481
     23          5           0        1.042709    0.261250    1.497539
     24          5           0        1.285549    1.425240   -0.922661
     25          5           0       -1.030182    1.646989    0.401699
     26          8           0       -0.886712    2.320939    1.611909
     27          8           0        2.338569    1.033601   -1.771391
     28          6           0        3.293908    2.104191   -1.800791
     29          6           0        2.388958    3.343031   -1.541031
     30          6           0       -2.396813    3.487338    0.285129
     31          6           0       -1.962422    3.248439    1.758049
     32          6           0        2.340949    1.033301    3.194689
     33          6           0        2.123640   -0.496899    3.349569
     34          8           0        1.004530   -0.729270    2.478809
     35          6           0        3.055147    4.468921   -0.775391
     36          1           0        3.367457    4.136591    0.221349
     37          1           0        3.932117    4.853842   -1.316121
     38          1           0        2.345577    5.297291   -0.645781
     39          6           0        1.739727    3.880381   -2.809981
     40          1           0        2.463847    4.383811   -3.465091
     41          1           0        1.254688    3.072770   -3.375031
     42          1           0        0.965917    4.607080   -2.530281
     43          6           0        4.287248    1.837092   -0.674321
     44          1           0        5.094918    2.581442   -0.649641
     45          1           0        3.778548    1.823572    0.299209
     46          1           0        4.743989    0.848672   -0.832021
     47          6           0        4.009738    2.096562   -3.136061
     48          1           0        4.604929    1.178272   -3.229561
     49          1           0        3.305938    2.128781   -3.975191
     50          1           0        4.694698    2.952852   -3.218681
     51          6           0        3.769498    1.500412    3.387149
     52          1           0        4.456539    1.017262    2.682759
     53          1           0        3.825708    2.584652    3.221939
     54          1           0        4.115039    1.294562    4.410589
     55          6           0        1.398398    1.864480    4.056139
     56          1           0        1.452068    2.907200    3.718149
     57          1           0        0.357158    1.539460    3.933219
     58          1           0        1.672018    1.822981    5.119349
     59          6           0        3.286770   -1.314779    2.798669
     60          1           0        4.169830   -1.274068    3.450699
     61          1           0        2.968970   -2.363379    2.715099
     62          1           0        3.578820   -0.966859    1.796279
     63          6           0        1.773620   -0.955499    4.749299
     64          1           0        0.841980   -0.497050    5.098179
     65          1           0        1.641110   -2.045239    4.764189
     66          1           0        2.577040   -0.701959    5.455979
     67          6           0       -1.452283    4.479719    2.481189
     68          1           0       -0.559853    4.885189    1.991949
     69          1           0       -2.222783    5.263289    2.525569
     70          1           0       -1.179203    4.213929    3.511199
     71          6           0       -3.038232    2.567378    2.596799
     72          1           0       -2.584382    2.226488    3.536399
     73          1           0       -3.867332    3.245728    2.840519
     74          1           0       -3.449272    1.685588    2.085039
     75          6           0       -3.869333    3.802288    0.104789
     76          1           0       -4.130523    4.731668    0.631719
     77          1           0       -4.097823    3.948778   -0.959981
     78          1           0       -4.515452    3.000907    0.481619
     79          6           0       -1.553873    4.543799   -0.419301
     80          1           0       -1.777774    5.555869   -0.054831
     81          1           0       -0.482463    4.337899   -0.295641
     82          1           0       -1.778233    4.510159   -1.494901
     83          6           0       -3.193880   -0.757772   -2.646031
     84          8           0       -3.324990   -1.742832   -1.922161
     85          7           0       -3.953141    0.365188   -2.471621
     86          6           0       -0.904181   -0.028291   -3.207791
     87          6           0       -2.141100   -0.746761   -3.746521
     88          6           0       -1.791500   -2.166421   -4.161651
     89          6           0       -4.840800   -2.460373    1.287219
     90          6           0        4.794921   -2.818048   -0.962271
     91          6           0       -3.718202    1.644818   -3.111011
     92          6           0       -4.821541    0.418397   -1.311811
     93          1           0       -1.115831    0.975689   -2.814161
     94          1           0       -0.114431    0.057730   -3.966021
     95          1           0       -0.474870   -0.643121   -2.392121
     96          1           0       -5.135360   -0.593723   -1.049291
     97          1           0       -5.704431    1.027457   -1.545951
     98          1           0       -4.295491    0.879458   -0.460271
     99          1           0       -3.235452    1.527778   -4.084021
    100          1           0       -3.092062    2.286248   -2.472031
    101          1           0       -4.683402    2.142807   -3.276551
    102          1           0       -2.667279   -2.708892   -4.537271
    103          1           0       -1.401959   -2.726461   -3.301651
    104          1           0       -1.024790   -2.154071   -4.947271
    105          1           0       -2.519901   -0.205212   -4.626001
    106          9           0       -5.265259   -3.293973    2.244749
    107          9           0       -5.587889   -2.698933    0.203839
    108          9           0       -5.098050   -1.211063    1.685479
    109          9           0        4.991690   -2.292278   -2.174531
    110          9           0        5.445781   -3.982998   -0.906921
    111          9           0        5.371060   -1.989078   -0.081421
 ---------------------------------------------------------------------
 Rotational constants (GHZ):           0.0580450           0.0438271           0.0376625
 Standard basis: STO-3G (5D, 7F)
 IA out of range in STO.
 Error termination via Lnk1e in /opt/cesga/2020/software/Core/g16/c1/l301.exe at Sat Dec  7 22:08:04 2024.
 Job cpu time:       0 days  0 hours  0 minutes  0.4 seconds.
 Elapsed time:       0 days  0 hours  0 minutes  0.1 seconds.
 File lengths (MBytes):  RWF=      6 Int=      0 D2E=      0 Chk=      1 Scr=      1
