/mnt/lustre/scratch/nvme/SLURM/9663786/usccqdma.nnBVcNnOfj
OMP_STACKSIZE=0m
GAUSS_PDEF=16
GAUSS_MDEF=65536MB
GAUSS_RDEF=SCF=Direct
 Entering Gaussian System, Link 0=g16.exe
 Initial command:
 /opt/cesga/2020/software/Core/g16/c1/l1.exe "/mnt/lustre/scratch/nvme/SLURM/9663786/usccqdma.nnBVcNnOfj/Gau-216969.inp" -scrdir="/mnt/lustre/scratch/nvme/SLURM/9663786/usccqdma.nnBVcNnOfj/"
 Default is to use a total of  16 processors:
                               16 via shared-memory
                                1 via Linda
 Entering Link 1 = /opt/cesga/2020/software/Core/g16/c1/l1.exe PID=    216995.
  
 Copyright (c) 1988-2019, Gaussian, Inc.  All Rights Reserved.
  
 This is part of the Gaussian(R) 16 program.  It is based on
 the Gaussian(R) 09 system (copyright 2009, Gaussian, Inc.),
 the Gaussian(R) 03 system (copyright 2003, Gaussian, Inc.),
 the Gaussian(R) 98 system (copyright 1998, Gaussian, Inc.),
 the Gaussian(R) 94 system (copyright 1995, Gaussian, Inc.),
 the Gaussian 92(TM) system (copyright 1992, Gaussian, Inc.),
 the Gaussian 90(TM) system (copyright 1990, Gaussian, Inc.),
 the Gaussian 88(TM) system (copyright 1988, Gaussian, Inc.),
 the Gaussian 86(TM) system (copyright 1986, Carnegie Mellon
 University), and the Gaussian 82(TM) system (copyright 1983,
 Carnegie Mellon University). Gaussian is a federally registered
 trademark of Gaussian, Inc.
  
 This software contains proprietary and confidential information,
 including trade secrets, belonging to Gaussian, Inc.
  
 This software is provided under written license and may be
 used, copied, transmitted, or stored only in accord with that
 written license.
  
 The following legend is applicable only to US Government
 contracts under FAR:
  
                    RESTRICTED RIGHTS LEGEND
  
 Use, reproduction and disclosure by the US Government is
 subject to restrictions as set forth in subparagraphs (a)
 and (c) of the Commercial Computer Software - Restricted
 Rights clause in FAR 52.227-19.
  
 Gaussian, Inc.
 340 Quinnipiac St., Bldg. 40, Wallingford CT 06492
  
  
 ---------------------------------------------------------------
 Warning -- This program may not be used in any manner that
 competes with the business of Gaussian, Inc. or will provide
 assistance to any competitor of Gaussian, Inc.  The licensee
 of this program is prohibited from giving any competitor of
 Gaussian, Inc. access to this program.  By using this program,
 the user acknowledges that Gaussian, Inc. is engaged in the
 business of creating and licensing software in the field of
 computational chemistry and represents and warrants to the
 licensee that it is not a competitor of Gaussian, Inc. and that
 it will not use this program in any manner prohibited above.
 ---------------------------------------------------------------
  

 Cite this work as:
 Gaussian 16, Revision C.01,
 M. J. Frisch, G. W. Trucks, H. B. Schlegel, G. E. Scuseria, 
 M. A. Robb, J. R. Cheeseman, G. Scalmani, V. Barone, 
 G. A. Petersson, H. Nakatsuji, X. Li, M. Caricato, A. V. Marenich, 
 J. Bloino, B. G. Janesko, R. Gomperts, B. Mennucci, H. P. Hratchian, 
 J. V. Ortiz, A. F. Izmaylov, J. L. Sonnenberg, D. Williams-Young, 
 F. Ding, F. Lipparini, F. Egidi, J. Goings, B. Peng, A. Petrone, 
 T. Henderson, D. Ranasinghe, V. G. Zakrzewski, J. Gao, N. Rega, 
 G. Zheng, W. Liang, M. Hada, M. Ehara, K. Toyota, R. Fukuda, 
 J. Hasegawa, M. Ishida, T. Nakajima, Y. Honda, O. Kitao, H. Nakai, 
 T. Vreven, K. Throssell, J. A. Montgomery, Jr., J. E. Peralta, 
 F. Ogliaro, M. J. Bearpark, J. J. Heyd, E. N. Brothers, K. N. Kudin, 
 V. N. Staroverov, T. A. Keith, R. Kobayashi, J. Normand, 
 K. Raghavachari, A. P. Rendell, J. C. Burant, S. S. Iyengar, 
 J. Tomasi, M. Cossi, J. M. Millam, M. Klene, C. Adamo, R. Cammi, 
 J. W. Ochterski, R. L. Martin, K. Morokuma, O. Farkas, 
 J. B. Foresman, and D. J. Fox, Gaussian, Inc., Wallingford CT, 2019.
 
 ******************************************
 Gaussian 16:  ES64L-G16RevC.01  3-Jul-2019
                 7-Dec-2024 
 ******************************************
 Default route: SCF=Direct
 -
 #
 -
 1/38=1,172=1/1;
 2/12=2,17=6,18=5,40=1/2;
 3/11=9,25=1,30=1/1,2,3;
 4//1;
 5/5=2,38=5/2;
 6/7=2,8=2,9=2,10=2,28=1/1;
 99/5=1,9=1/99;
 ----------------------------------------------------------------------
 /Users/danielmarcosatanes/Desktop/Tesis/sp3/Estructuras_supporting_gjf
 /44f/N-CH3/bis-5-CF3-Bipy/OA/σ-(R-H)Ir(Bpin)3/L28-σ-(R-H)Ir(Bpin)3.l
 og
 ----------------------------------------------------------------------
 Symbolic Z-matrix:
 Charge =  0 Multiplicity = 1
 C                    -0.00839  -2.67045   0.86553 
 C                     2.02728  -2.28854  -0.18393 
 C                     2.59626  -3.39243   0.43568 
 C                     1.82026  -4.16032   1.29911 
 C                     0.50116  -3.79657   1.51408 
 C                    -1.39058  -2.1884    1.07066 
 C                    -2.87368  -0.43651   0.76429 
 C                    -3.92931  -1.18249   1.27043 
 C                    -3.68419  -2.47489   1.71497 
 C                    -2.39649  -2.98008   1.62353 
 H                     2.58469  -1.63599  -0.86081 
 H                     2.24949  -5.02582   1.80064 
 H                    -0.11533  -4.36353   2.20695 
 H                    -3.00807   0.58768   0.41209 
 H                    -4.49567  -3.08568   2.10285 
 H                    -2.19078  -4.00068   1.93763 
 N                     0.75196  -1.94076   0.02292 
 N                    -1.64059  -0.93037   0.65873 
 Ir                    0.04325   0.23118  -0.32134 
 O                     2.54147   0.18847  -1.95826 
 O                     0.53626   0.55048   2.59012 
 O                    -1.82394   2.50682  -0.85152 
 B                     1.07902   0.67552   1.31892 
 B                     1.63192   1.0292   -1.29169 
 B                    -0.64993   2.1082   -0.188 
 O                    -0.19337   3.14518   0.61571 
 O                     2.03625   2.34783  -1.42845 
 C                     3.16236   2.40346  -2.31001 
 C                     3.72437   0.95219  -2.24353 
 C                    -2.23798   3.76763  -0.29801 
 C                    -0.89752   4.33687   0.2454 
 C                     1.5123    1.06055   3.51653 
 C                     2.84361   0.81785   2.75027 
 O                     2.43209   0.96876   1.38338 
 C                     4.344     0.44195  -3.52931 
 H                     5.21226   1.05309  -3.81552 
 H                     4.69125  -0.59002  -3.38533 
 H                     3.62683   0.44356  -4.35754 
 C                     4.69001   0.73223  -1.08442 
 H                     4.89206  -0.34468  -0.99358 
 H                     5.64912   1.2425   -1.2475 
 H                     4.25031   1.07404  -0.13908 
 C                     2.63358   2.77431  -3.68987 
 H                     2.07688   3.71688  -3.61046 
 H                     3.44226   2.91322  -4.42028 
 H                     1.94542   2.00684  -4.06829 
 C                     4.11198   3.47657  -1.81473 
 H                     5.03624   3.49581  -2.41058 
 H                     3.63121   4.45999  -1.90091 
 H                     4.37087   3.32115  -0.76122 
 C                     1.20697   2.53867   3.719 
 H                     1.29459   3.092     2.77514 
 H                     0.16872   2.63566   4.06207 
 H                     1.8651    2.9927    4.47237 
 C                     1.38962   0.31331   4.8282 
 H                     1.44684  -0.77168   4.68406 
 H                     2.1836    0.61666   5.52587 
 H                     0.42353   0.54185   5.29604 
 C                     3.94554   1.81402   3.04775 
 H                     4.84782   1.55292   2.47859 
 H                     3.6505    2.83046   2.76531 
 H                     4.20629   1.80432   4.11595 
 C                     3.37045  -0.60501   2.89322 
 H                     2.57367  -1.34168   2.71209 
 H                     4.15571  -0.76889   2.14252 
 H                     3.79903  -0.79231   3.88709 
 C                    -0.0677    5.0339   -0.82608 
 H                     0.03712   4.40305  -1.71832 
 H                    -0.49877   6.00252  -1.11434 
 H                     0.94099   5.2014   -0.42822 
 C                    -1.03305   5.23274   1.46026 
 H                    -0.04093   5.58607   1.77033 
 H                    -1.64926   6.11444   1.23141 
 H                    -1.48063   4.70196   2.30818 
 C                    -3.24516   3.46001   0.80364 
 H                    -4.06603   2.864     0.37895 
 H                    -2.78047   2.87931   1.61314 
 H                    -3.6795    4.37179   1.23519 
 C                    -2.89633   4.59202  -1.38499 
 H                    -3.15455   5.59501  -1.01558 
 H                    -2.24624   4.69763  -2.26018 
 H                    -3.82466   4.10274  -1.71014 
 C                    -3.1982   -2.13751  -2.06233 
 O                    -4.304    -2.39394  -1.59868 
 C                    -2.18507  -3.25135  -2.32722 
 C                    -1.53912  -0.42531  -2.85483 
 N                    -2.8454   -0.85993  -2.41811 
 C                    -3.8541    0.18581  -2.4304 
 C                    -5.29395  -0.57303   1.36954 
 C                     4.0449   -3.7207    0.24913 
 C                    -2.60653  -4.53153  -1.62488 
 H                    -1.19291  -2.95393  -1.94947 
 C                    -2.08987  -3.49409  -3.83568 
 H                    -1.24222   0.47866  -2.28203 
 H                    -1.54346  -0.12283  -3.91475 
 H                    -0.77563  -1.19717  -2.72605 
 H                    -1.40667  -4.32665  -4.04785 
 H                    -1.73539  -2.61745  -4.39098 
 H                    -3.07948  -3.76397  -4.23043 
 H                    -3.58135  -4.86951  -1.99609 
 H                    -2.70852  -4.38759  -0.54263 
 H                    -1.86719  -5.32306  -1.80568 
 H                    -3.50244   1.05717  -1.85824 
 H                    -4.7757   -0.20818  -1.99943 
 H                    -4.04452   0.51046  -3.46501 
 F                     4.56808  -3.10627  -0.81205 
 F                     4.22233  -5.03794   0.09274 
 F                     4.75764  -3.35716   1.32271 
 F                    -5.42164   0.11671   2.51092 
 F                    -6.24803  -1.50296   1.35532 
 F                    -5.5279    0.28066   0.36929 
 
 Stoichiometry    C36H55B3F6IrN3O7
 Framework group  C1[X(C36H55B3F6IrN3O7)]
 Deg. of freedom   327
 Full point group                 C1      NOp   1
 Largest Abelian subgroup         C1      NOp   1
 Largest concise Abelian subgroup C1      NOp   1
                         Standard orientation:                         
 ---------------------------------------------------------------------
 Center     Atomic      Atomic             Coordinates (Angstroms)
 Number     Number       Type             X           Y           Z
 ---------------------------------------------------------------------
      1          6           0       -0.008391   -2.670449    0.865529
      2          6           0        2.027279   -2.288540   -0.183931
      3          6           0        2.596259   -3.392430    0.435679
      4          6           0        1.820259   -4.160320    1.299109
      5          6           0        0.501159   -3.796570    1.514079
      6          6           0       -1.390581   -2.188399    1.070659
      7          6           0       -2.873680   -0.436509    0.764289
      8          6           0       -3.929311   -1.182488    1.270429
      9          6           0       -3.684191   -2.474888    1.714969
     10          6           0       -2.396491   -2.980079    1.623529
     11          1           0        2.584689   -1.635990   -0.860811
     12          1           0        2.249488   -5.025820    1.800639
     13          1           0       -0.115331   -4.363529    2.206949
     14          1           0       -3.008070    0.587681    0.412089
     15          1           0       -4.495671   -3.085678    2.102849
     16          1           0       -2.190781   -4.000679    1.937629
     17          7           0        0.751959   -1.940760    0.022919
     18          7           0       -1.640590   -0.930369    0.658729
     19         77           0        0.043250    0.231181   -0.321341
     20          8           0        2.541470    0.188470   -1.958261
     21          8           0        0.536260    0.550480    2.590119
     22          8           0       -1.823939    2.506821   -0.851521
     23          5           0        1.079020    0.675520    1.318919
     24          5           0        1.631920    1.029200   -1.291691
     25          5           0       -0.649930    2.108201   -0.188001
     26          8           0       -0.193369    3.145181    0.615709
     27          8           0        2.036250    2.347830   -1.428451
     28          6           0        3.162361    2.403460   -2.310011
     29          6           0        3.724370    0.952189   -2.243531
     30          6           0       -2.237979    3.767631   -0.298011
     31          6           0       -0.897519    4.336871    0.245399
     32          6           0        1.512300    1.060550    3.516529
     33          6           0        2.843610    0.817850    2.750269
     34          8           0        2.432090    0.968760    1.383379
     35          6           0        4.344000    0.441949   -3.529311
     36          1           0        5.212260    1.053089   -3.815521
     37          1           0        4.691250   -0.590021   -3.385331
     38          1           0        3.626830    0.443559   -4.357541
     39          6           0        4.690010    0.732229   -1.084421
     40          1           0        4.892060   -0.344681   -0.993581
     41          1           0        5.649120    1.242499   -1.247501
     42          1           0        4.250310    1.074039   -0.139081
     43          6           0        2.633581    2.774310   -3.689871
     44          1           0        2.076881    3.716880   -3.610461
     45          1           0        3.442261    2.913220   -4.420281
     46          1           0        1.945420    2.006840   -4.068291
     47          6           0        4.111981    3.476569   -1.814731
     48          1           0        5.036241    3.495809   -2.410581
     49          1           0        3.631211    4.459989   -1.900911
     50          1           0        4.370871    3.321149   -0.761221
     51          6           0        1.206971    2.538670    3.718999
     52          1           0        1.294591    3.092000    2.775139
     53          1           0        0.168721    2.635661    4.062069
     54          1           0        1.865101    2.992700    4.472369
     55          6           0        1.389620    0.313310    4.828199
     56          1           0        1.446840   -0.771680    4.684059
     57          1           0        2.183600    0.616660    5.525869
     58          1           0        0.423530    0.541850    5.296039
     59          6           0        3.945540    1.814019    3.047749
     60          1           0        4.847820    1.552919    2.478589
     61          1           0        3.650501    2.830459    2.765309
     62          1           0        4.206290    1.804319    4.115949
     63          6           0        3.370450   -0.605010    2.893219
     64          1           0        2.573669   -1.341680    2.712089
     65          1           0        4.155710   -0.768891    2.142519
     66          1           0        3.799030   -0.792311    3.887089
     67          6           0       -0.067699    5.033901   -0.826081
     68          1           0        0.037121    4.403051   -1.718321
     69          1           0       -0.498768    6.002521   -1.114341
     70          1           0        0.940991    5.201400   -0.428221
     71          6           0       -1.033049    5.232741    1.460259
     72          1           0       -0.040929    5.586071    1.770329
     73          1           0       -1.649258    6.114441    1.231409
     74          1           0       -1.480629    4.701961    2.308179
     75          6           0       -3.245159    3.460012    0.803639
     76          1           0       -4.066029    2.864002    0.378949
     77          1           0       -2.780469    2.879311    1.613139
     78          1           0       -3.679499    4.371792    1.235189
     79          6           0       -2.896329    4.592021   -1.384991
     80          1           0       -3.154549    5.595011   -1.015581
     81          1           0       -2.246239    4.697631   -2.260181
     82          1           0       -3.824659    4.102742   -1.710141
     83          6           0       -3.198201   -2.137508   -2.062331
     84          8           0       -4.304001   -2.393938   -1.598681
     85          6           0       -2.185071   -3.251349   -2.327221
     86          6           0       -1.539120   -0.425309   -2.854831
     87          7           0       -2.845400   -0.859929   -2.418111
     88          6           0       -3.854100    0.185812   -2.430401
     89          6           0       -5.293950   -0.573028    1.369539
     90          6           0        4.044899   -3.720701    0.249129
     91          6           0       -2.606532   -4.531529   -1.624881
     92          1           0       -1.192911   -2.953929   -1.949471
     93          6           0       -2.089871   -3.494089   -3.835681
     94          1           0       -1.242220    0.478661   -2.282031
     95          1           0       -1.543460   -0.122829   -3.914751
     96          1           0       -0.775631   -1.197169   -2.726051
     97          1           0       -1.406671   -4.326649   -4.047851
     98          1           0       -1.735391   -2.617449   -4.390981
     99          1           0       -3.079481   -3.763969   -4.230431
    100          1           0       -3.581352   -4.869508   -1.996091
    101          1           0       -2.708521   -4.387589   -0.542631
    102          1           0       -1.867192   -5.323059   -1.805681
    103          1           0       -3.502440    1.057172   -1.858241
    104          1           0       -4.775700   -0.208178   -1.999431
    105          1           0       -4.044520    0.510462   -3.465011
    106          9           0        4.568079   -3.106271   -0.812051
    107          9           0        4.222328   -5.037941    0.092739
    108          9           0        4.757639   -3.357161    1.322709
    109          9           0       -5.421640    0.116712    2.510919
    110          9           0       -6.248031   -1.502958    1.355319
    111          9           0       -5.527900    0.280662    0.369289
 ---------------------------------------------------------------------
 Rotational constants (GHZ):           0.0566951           0.0448545           0.0368019
 Standard basis: STO-3G (5D, 7F)
 IA out of range in STO.
 Error termination via Lnk1e in /opt/cesga/2020/software/Core/g16/c1/l301.exe at Sat Dec  7 22:03:26 2024.
 Job cpu time:       0 days  0 hours  0 minutes  0.4 seconds.
 Elapsed time:       0 days  0 hours  0 minutes  0.1 seconds.
 File lengths (MBytes):  RWF=      6 Int=      0 D2E=      0 Chk=      1 Scr=      1
