/mnt/lustre/scratch/nvme/SLURM/9663745/usccqdma.isQ4Nh5oF3
OMP_STACKSIZE=0m
GAUSS_PDEF=16
GAUSS_MDEF=65536MB
GAUSS_RDEF=SCF=Direct
 Entering Gaussian System, Link 0=g16.exe
 Initial command:
 /opt/cesga/2020/software/Core/g16/c1/l1.exe "/mnt/lustre/scratch/nvme/SLURM/9663745/usccqdma.isQ4Nh5oF3/Gau-3955944.inp" -scrdir="/mnt/lustre/scratch/nvme/SLURM/9663745/usccqdma.isQ4Nh5oF3/"
 Default is to use a total of  16 processors:
                               16 via shared-memory
                                1 via Linda
 Entering Link 1 = /opt/cesga/2020/software/Core/g16/c1/l1.exe PID=   3955970.
  
 Copyright (c) 1988-2019, Gaussian, Inc.  All Rights Reserved.
  
 This is part of the Gaussian(R) 16 program.  It is based on
 the Gaussian(R) 09 system (copyright 2009, Gaussian, Inc.),
 the Gaussian(R) 03 system (copyright 2003, Gaussian, Inc.),
 the Gaussian(R) 98 system (copyright 1998, Gaussian, Inc.),
 the Gaussian(R) 94 system (copyright 1995, Gaussian, Inc.),
 the Gaussian 92(TM) system (copyright 1992, Gaussian, Inc.),
 the Gaussian 90(TM) system (copyright 1990, Gaussian, Inc.),
 the Gaussian 88(TM) system (copyright 1988, Gaussian, Inc.),
 the Gaussian 86(TM) system (copyright 1986, Carnegie Mellon
 University), and the Gaussian 82(TM) system (copyright 1983,
 Carnegie Mellon University). Gaussian is a federally registered
 trademark of Gaussian, Inc.
  
 This software contains proprietary and confidential information,
 including trade secrets, belonging to Gaussian, Inc.
  
 This software is provided under written license and may be
 used, copied, transmitted, or stored only in accord with that
 written license.
  
 The following legend is applicable only to US Government
 contracts under FAR:
  
                    RESTRICTED RIGHTS LEGEND
  
 Use, reproduction and disclosure by the US Government is
 subject to restrictions as set forth in subparagraphs (a)
 and (c) of the Commercial Computer Software - Restricted
 Rights clause in FAR 52.227-19.
  
 Gaussian, Inc.
 340 Quinnipiac St., Bldg. 40, Wallingford CT 06492
  
  
 ---------------------------------------------------------------
 Warning -- This program may not be used in any manner that
 competes with the business of Gaussian, Inc. or will provide
 assistance to any competitor of Gaussian, Inc.  The licensee
 of this program is prohibited from giving any competitor of
 Gaussian, Inc. access to this program.  By using this program,
 the user acknowledges that Gaussian, Inc. is engaged in the
 business of creating and licensing software in the field of
 computational chemistry and represents and warrants to the
 licensee that it is not a competitor of Gaussian, Inc. and that
 it will not use this program in any manner prohibited above.
 ---------------------------------------------------------------
  

 Cite this work as:
 Gaussian 16, Revision C.01,
 M. J. Frisch, G. W. Trucks, H. B. Schlegel, G. E. Scuseria, 
 M. A. Robb, J. R. Cheeseman, G. Scalmani, V. Barone, 
 G. A. Petersson, H. Nakatsuji, X. Li, M. Caricato, A. V. Marenich, 
 J. Bloino, B. G. Janesko, R. Gomperts, B. Mennucci, H. P. Hratchian, 
 J. V. Ortiz, A. F. Izmaylov, J. L. Sonnenberg, D. Williams-Young, 
 F. Ding, F. Lipparini, F. Egidi, J. Goings, B. Peng, A. Petrone, 
 T. Henderson, D. Ranasinghe, V. G. Zakrzewski, J. Gao, N. Rega, 
 G. Zheng, W. Liang, M. Hada, M. Ehara, K. Toyota, R. Fukuda, 
 J. Hasegawa, M. Ishida, T. Nakajima, Y. Honda, O. Kitao, H. Nakai, 
 T. Vreven, K. Throssell, J. A. Montgomery, Jr., J. E. Peralta, 
 F. Ogliaro, M. J. Bearpark, J. J. Heyd, E. N. Brothers, K. N. Kudin, 
 V. N. Staroverov, T. A. Keith, R. Kobayashi, J. Normand, 
 K. Raghavachari, A. P. Rendell, J. C. Burant, S. S. Iyengar, 
 J. Tomasi, M. Cossi, J. M. Millam, M. Klene, C. Adamo, R. Cammi, 
 J. W. Ochterski, R. L. Martin, K. Morokuma, O. Farkas, 
 J. B. Foresman, and D. J. Fox, Gaussian, Inc., Wallingford CT, 2019.
 
 ******************************************
 Gaussian 16:  ES64L-G16RevC.01  3-Jul-2019
                 7-Dec-2024 
 ******************************************
 Default route: SCF=Direct
 ----------------------------------------------------
 # m06/genecp scf=tight int=ultrafine 5d freq=noraman
 ----------------------------------------------------
 1/10=4,30=1,38=1/1,3;
 2/12=2,17=6,18=5,40=1/2;
 3/5=7,8=1,11=2,16=1,17=8,25=1,30=1,71=2,74=-54,75=-5,140=1/1,2,3;
 4//1;
 5/5=2,32=2,38=5,98=1/2;
 8/6=4,10=90,11=11/1;
 11/6=1,8=1,9=11,15=111,16=1/1,2,10;
 10/6=1/2;
 6/7=2,8=2,9=2,10=2,28=1/1;
 7/8=1,10=1,25=1/1,2,3,16;
 1/10=4,30=1/3;
 99//99;
 ------
 OPT-TS
 ------
 Symbolic Z-matrix:
 Charge =  0 Multiplicity = 1
 C                     2.94903  -0.11277   1.21711 
 C                     2.06374   2.0339    1.18936 
 C                     2.99854   2.48512   2.11251 
 C                     3.93436   1.58275   2.60598 
 C                     3.90672   0.27016   2.15754 
 C                     2.86855  -1.48515   0.67236 
 C                     1.64033  -2.98274  -0.59441 
 C                     2.62515  -3.95546  -0.49711 
 C                     3.77082  -3.66327   0.23155 
 C                     3.89534  -2.4151    0.82254 
 H                     1.28594   2.68125   0.77922 
 H                     4.67393   1.89363   3.34134 
 H                     4.61421  -0.45576   2.55115 
 H                     0.72072  -3.14564  -1.15821 
 H                     4.56964  -4.39577   0.32812 
 H                     4.80244  -2.15793   1.36403 
 N                     2.04324   0.76953   0.74669 
 N                     1.75404  -1.78363  -0.01903 
 Ir                    0.19128  -0.15872  -0.26642 
 O                    -0.57242   2.76451  -0.39534 
 O                    -0.31785  -1.19445   2.44769 
 O                    -1.52365  -1.76567  -2.16111 
 B                    -0.67404  -0.2198    1.51887 
 B                    -1.02184   1.43406  -0.54993 
 B                    -1.41598  -1.19766  -0.88401 
 O                    -2.5235   -1.55919  -0.11796 
 O                    -2.34822   1.45895  -0.97098 
 C                    -2.85991   2.78525  -0.82432 
 C                    -1.56928   3.64451  -0.93478 
 C                    -2.64219  -2.66457  -2.15718 
 C                    -3.51182  -2.11403  -0.99074 
 C                    -0.81881  -0.76717   3.72228 
 C                    -2.01818   0.13584   3.31765 
 O                    -1.55924   0.69019   2.07547 
 C                    -1.1786    3.94008  -2.37813 
 H                    -1.15196   3.01736  -2.97484 
 H                    -1.86899   4.64797  -2.85642 
 H                    -0.17381   4.38409  -2.39205 
 C                    -1.58832   4.93095  -0.13363 
 H                    -2.40152   5.59038  -0.47011 
 H                    -1.71734   4.73543   0.93638 
 H                    -0.64087   5.46969  -0.26909 
 C                    -3.89196   3.03804  -1.90649 
 H                    -4.23745   4.08214  -1.88816 
 H                    -3.49614   2.81554  -2.904 
 H                    -4.76371   2.3913   -1.73981 
 C                    -3.51858   2.87249   0.54723 
 H                    -4.27186   2.07624   0.61785 
 H                    -2.78784   2.70262   1.34712 
 H                    -4.01835   3.83914   0.70097 
 C                    -1.18749  -1.98134   4.54928 
 H                    -1.65613  -1.68137   5.49794 
 H                    -1.87773  -2.63782   4.00878 
 H                    -0.28482  -2.55996   4.78484 
 C                     0.3067    0.00746   4.39945 
 H                     0.57436   0.90201   3.81835 
 H                     0.04398   0.3172    5.42026 
 H                     1.19352  -0.63806   4.45144 
 C                    -3.28576  -0.65422   3.01737 
 H                    -3.99229   0.01053   2.50175 
 H                    -3.07838  -1.49271   2.34131 
 H                    -3.76117  -1.02783   3.93492 
 C                    -2.32141   1.26565   4.28051 
 H                    -2.57314   0.87433   5.27695 
 H                    -1.47399   1.95389   4.37727 
 H                    -3.18392   1.84017   3.91712 
 C                    -4.43519  -0.97887  -1.41636 
 H                    -4.82221  -0.49459  -0.50896 
 H                    -3.88964  -0.21413  -1.98192 
 H                    -5.28523  -1.3434   -2.01001 
 C                    -4.30653  -3.16138  -0.23452 
 H                    -4.89241  -2.67567   0.55748 
 H                    -5.00906  -3.68223  -0.9016 
 H                    -3.65408  -3.90413   0.23847 
 C                    -2.097    -4.06027  -1.87742 
 H                    -1.63069  -4.10763  -0.88355 
 H                    -2.87912  -4.82983  -1.93153 
 H                    -1.33201  -4.29704  -2.62928 
 C                    -3.30872  -2.63712  -3.51804 
 H                    -3.57468  -1.61644  -3.81306 
 H                    -2.62426  -3.04037  -4.27589 
 H                    -4.21999  -3.25309  -3.5216 
 H                     1.38996   2.45778  -1.90919 
 C                     3.71952   0.4219   -2.12737 
 O                     3.96054  -0.77762  -2.05858 
 C                     4.69499   1.44535  -1.56565 
 H                     4.989     2.14814  -2.36044 
 H                     4.17868   2.05387  -0.80512 
 C                     2.1516    2.28716  -2.68965 
 H                     2.99271   2.96449  -2.52414 
 H                     1.70264   2.54199  -3.66064 
 N                     2.57766   0.90354  -2.71063 
 C                     1.55474  -0.03018  -3.12954 
 H                     0.63347   0.081    -2.51524 
 H                     1.25243   0.1677   -4.16799 
 H                     1.93786  -1.0491   -3.04699 
 C                     5.92188   0.78475  -0.96697 
 H                     5.64057   0.10716  -0.15091 
 H                     6.45097   0.1836   -1.71448 
 H                     2.49232  -4.91674  -0.98666 
 H                     2.98055   3.52103   2.44202 
 H                     6.61211   1.53822  -0.56833 
 

 GradGradGradGradGradGradGradGradGradGradGradGradGradGradGradGradGradGrad
 Berny optimization.
 Initialization pass.
 Trust Radius=3.00D-01 FncErr=1.00D-07 GrdErr=1.00D-07 EigMax=2.50D+02 EigMin=1.00D-04
 Number of steps in this run=      2 maximum allowed number of steps=      2.
 GradGradGradGradGradGradGradGradGradGradGradGradGradGradGradGradGradGrad

 Stoichiometry    C33H55B3IrN3O7
 Framework group  C1[X(C33H55B3IrN3O7)]
 Deg. of freedom   300
 Full point group                 C1      NOp   1
 Largest Abelian subgroup         C1      NOp   1
 Largest concise Abelian subgroup C1      NOp   1
                         Standard orientation:                         
 ---------------------------------------------------------------------
 Center     Atomic      Atomic             Coordinates (Angstroms)
 Number     Number       Type             X           Y           Z
 ---------------------------------------------------------------------
      1          6           0        2.949030   -0.112771    1.217109
      2          6           0        2.063741    2.033899    1.189359
      3          6           0        2.998541    2.485118    2.112509
      4          6           0        3.934361    1.582748    2.605979
      5          6           0        3.906720    0.270158    2.157539
      6          6           0        2.868550   -1.485151    0.672359
      7          6           0        1.640330   -2.982741   -0.594411
      8          6           0        2.625149   -3.955461   -0.497111
      9          6           0        3.770819   -3.663272    0.231549
     10          6           0        3.895340   -2.415102    0.822539
     11          1           0        1.285941    2.681249    0.779219
     12          1           0        4.673931    1.893628    3.341339
     13          1           0        4.614210   -0.455762    2.551149
     14          1           0        0.720720   -3.145641   -1.158211
     15          1           0        4.569639   -4.395772    0.328119
     16          1           0        4.802440   -2.157932    1.364029
     17          7           0        2.043240    0.769529    0.746689
     18          7           0        1.754040   -1.783631   -0.019031
     19         77           0        0.191280   -0.158721   -0.266421
     20          8           0       -0.572419    2.764509   -0.395341
     21          8           0       -0.317850   -1.194451    2.447689
     22          8           0       -1.523650   -1.765671   -2.161111
     23          5           0       -0.674040   -0.219801    1.518869
     24          5           0       -1.021839    1.434059   -0.549931
     25          5           0       -1.415980   -1.197661   -0.884011
     26          8           0       -2.523500   -1.559190   -0.117961
     27          8           0       -2.348219    1.458950   -0.970981
     28          6           0       -2.859909    2.785250   -0.824321
     29          6           0       -1.569279    3.644509   -0.934781
     30          6           0       -2.642190   -2.664570   -2.157181
     31          6           0       -3.511820   -2.114030   -0.990741
     32          6           0       -0.818810   -0.767171    3.722279
     33          6           0       -2.018180    0.135840    3.317649
     34          8           0       -1.559240    0.690189    2.075469
     35          6           0       -1.178599    3.940079   -2.378131
     36          1           0       -1.151959    3.017359   -2.974841
     37          1           0       -1.868989    4.647970   -2.856421
     38          1           0       -0.173809    4.384089   -2.392051
     39          6           0       -1.588319    4.930949   -0.133631
     40          1           0       -2.401519    5.590380   -0.470111
     41          1           0       -1.717339    4.735429    0.936379
     42          1           0       -0.640869    5.469689   -0.269091
     43          6           0       -3.891959    3.038040   -1.906491
     44          1           0       -4.237449    4.082140   -1.888161
     45          1           0       -3.496139    2.815540   -2.904001
     46          1           0       -4.763709    2.391300   -1.739811
     47          6           0       -3.518579    2.872490    0.547229
     48          1           0       -4.271859    2.076240    0.617849
     49          1           0       -2.787839    2.702620    1.347119
     50          1           0       -4.018349    3.839140    0.700969
     51          6           0       -1.187490   -1.981341    4.549279
     52          1           0       -1.656130   -1.681371    5.497939
     53          1           0       -1.877730   -2.637820    4.008779
     54          1           0       -0.284820   -2.559961    4.784839
     55          6           0        0.306700    0.007459    4.399449
     56          1           0        0.574360    0.902009    3.818349
     57          1           0        0.043980    0.317199    5.420259
     58          1           0        1.193520   -0.638061    4.451439
     59          6           0       -3.285760   -0.654220    3.017369
     60          1           0       -3.992290    0.010530    2.501749
     61          1           0       -3.078380   -1.492710    2.341309
     62          1           0       -3.761170   -1.027830    3.934919
     63          6           0       -2.321409    1.265650    4.280509
     64          1           0       -2.573140    0.874330    5.276949
     65          1           0       -1.473989    1.953889    4.377269
     66          1           0       -3.183919    1.840170    3.917119
     67          6           0       -4.435190   -0.978870   -1.416361
     68          1           0       -4.822210   -0.494590   -0.508961
     69          1           0       -3.889640   -0.214130   -1.981921
     70          1           0       -5.285230   -1.343400   -2.010011
     71          6           0       -4.306530   -3.161380   -0.234521
     72          1           0       -4.892410   -2.675670    0.557479
     73          1           0       -5.009061   -3.682230   -0.901601
     74          1           0       -3.654081   -3.904130    0.238469
     75          6           0       -2.097001   -4.060270   -1.877421
     76          1           0       -1.630691   -4.107631   -0.883551
     77          1           0       -2.879121   -4.829830   -1.931531
     78          1           0       -1.332011   -4.297041   -2.629281
     79          6           0       -3.308720   -2.637120   -3.518041
     80          1           0       -3.574680   -1.616440   -3.813061
     81          1           0       -2.624260   -3.040370   -4.275891
     82          1           0       -4.219990   -3.253090   -3.521601
     83          1           0        1.389961    2.457779   -1.909191
     84          6           0        3.719520    0.421898   -2.127371
     85          8           0        3.960540   -0.777622   -2.058581
     86          6           0        4.694991    1.445348   -1.565651
     87          1           0        4.989001    2.148138   -2.360441
     88          1           0        4.178681    2.053868   -0.805121
     89          6           0        2.151601    2.287159   -2.689651
     90          1           0        2.992711    2.964489   -2.524141
     91          1           0        1.702641    2.541989   -3.660641
     92          7           0        2.577660    0.903539   -2.710631
     93          6           0        1.554740   -0.030181   -3.129541
     94          1           0        0.633470    0.080999   -2.515241
     95          1           0        1.252430    0.167699   -4.167991
     96          1           0        1.937860   -1.049101   -3.046991
     97          6           0        5.921880    0.784748   -0.966971
     98          1           0        5.640570    0.107158   -0.150911
     99          1           0        6.450970    0.183598   -1.714481
    100          1           0        2.492319   -4.916741   -0.986661
    101          1           0        2.980551    3.521029    2.442019
    102          1           0        6.612111    1.538218   -0.568331
 ---------------------------------------------------------------------
 Rotational constants (GHZ):           0.0813802           0.0618226           0.0600664
 General basis read from cards:  (5D, 7F)
 ======================================================================================================
                                       Pseudopotential Parameters
 ======================================================================================================
  Center     Atomic      Valence      Angular      Power
  Number     Number     Electrons     Momentum     of R      Exponent        Coefficient   SO-Coeffient
 ======================================================================================================
    1          6
                                   No pseudopotential on this center.
    2          6
                                   No pseudopotential on this center.
    3          6
                                   No pseudopotential on this center.
    4          6
                                   No pseudopotential on this center.
    5          6
                                   No pseudopotential on this center.
    6          6
                                   No pseudopotential on this center.
    7          6
                                   No pseudopotential on this center.
    8          6
                                   No pseudopotential on this center.
    9          6
                                   No pseudopotential on this center.
   10          6
                                   No pseudopotential on this center.
   11          1
                                   No pseudopotential on this center.
   12          1
                                   No pseudopotential on this center.
   13          1
                                   No pseudopotential on this center.
   14          1
                                   No pseudopotential on this center.
   15          1
                                   No pseudopotential on this center.
   16          1
                                   No pseudopotential on this center.
   17          7
                                   No pseudopotential on this center.
   18          7
                                   No pseudopotential on this center.
   19         77           17
                                      G and up 
                                                     1      823.5880147       -0.15780140    0.00000000
                                                     2      364.6613336    -1517.52704460    0.00000000
                                                     2       55.7082801     -316.53065290    0.00000000
                                                     2       12.0464544      -91.88809410    0.00000000
                                                     2        3.5120610       -9.22417730    0.00000000
                                      S - G
                                                     0      188.0490770        3.15780140    0.00000000
                                                     1      340.4194712       26.83225770    0.00000000
                                                     2      128.2373673      800.42500070    0.00000000
                                                     2       33.8644961      369.40506830    0.00000000
                                                     2        4.7560005      242.41718990    0.00000000
                                                     2        3.9649974     -118.21732820    0.00000000
                                      P - G
                                                     0      289.7291139        2.15780140    0.00000000
                                                     1       87.4633789       61.96786100    0.00000000
                                                     2       30.4363766      269.05819860    0.00000000
                                                     2        4.0553412      231.16547930    0.00000000
                                                     2        3.5525341     -133.69526670    0.00000000
                                      D - G
                                                     0      136.4017106        3.15780140    0.00000000
                                                     1       95.0776925       45.93498030    0.00000000
                                                     2       49.2258410      359.03446680    0.00000000
                                                     2       15.0874145      176.47401190    0.00000000
                                                     2        4.0405764       54.51552860    0.00000000
                                      F - G
                                                     0      127.3507908        3.95461970    0.00000000
                                                     1       66.2364374       52.97736550    0.00000000
                                                     2       34.4299229      274.86433830    0.00000000
                                                     2       10.1995721      137.20473380    0.00000000
                                                     2        2.5409702       14.86333050    0.00000000
   20          8
                                   No pseudopotential on this center.
   21          8
                                   No pseudopotential on this center.
   22          8
                                   No pseudopotential on this center.
   23          5
                                   No pseudopotential on this center.
   24          5
                                   No pseudopotential on this center.
   25          5
                                   No pseudopotential on this center.
   26          8
                                   No pseudopotential on this center.
   27          8
                                   No pseudopotential on this center.
   28          6
                                   No pseudopotential on this center.
   29          6
                                   No pseudopotential on this center.
   30          6
                                   No pseudopotential on this center.
   31          6
                                   No pseudopotential on this center.
   32          6
                                   No pseudopotential on this center.
   33          6
                                   No pseudopotential on this center.
   34          8
                                   No pseudopotential on this center.
   35          6
                                   No pseudopotential on this center.
   36          1
                                   No pseudopotential on this center.
   37          1
                                   No pseudopotential on this center.
   38          1
                                   No pseudopotential on this center.
   39          6
                                   No pseudopotential on this center.
   40          1
                                   No pseudopotential on this center.
   41          1
                                   No pseudopotential on this center.
   42          1
                                   No pseudopotential on this center.
   43          6
                                   No pseudopotential on this center.
   44          1
                                   No pseudopotential on this center.
   45          1
                                   No pseudopotential on this center.
   46          1
                                   No pseudopotential on this center.
   47          6
                                   No pseudopotential on this center.
   48          1
                                   No pseudopotential on this center.
   49          1
                                   No pseudopotential on this center.
   50          1
                                   No pseudopotential on this center.
   51          6
                                   No pseudopotential on this center.
   52          1
                                   No pseudopotential on this center.
   53          1
                                   No pseudopotential on this center.
   54          1
                                   No pseudopotential on this center.
   55          6
                                   No pseudopotential on this center.
   56          1
                                   No pseudopotential on this center.
   57          1
                                   No pseudopotential on this center.
   58          1
                                   No pseudopotential on this center.
   59          6
                                   No pseudopotential on this center.
   60          1
                                   No pseudopotential on this center.
   61          1
                                   No pseudopotential on this center.
   62          1
                                   No pseudopotential on this center.
   63          6
                                   No pseudopotential on this center.
   64          1
                                   No pseudopotential on this center.
   65          1
                                   No pseudopotential on this center.
   66          1
                                   No pseudopotential on this center.
   67          6
                                   No pseudopotential on this center.
   68          1
                                   No pseudopotential on this center.
   69          1
                                   No pseudopotential on this center.
   70          1
                                   No pseudopotential on this center.
   71          6
                                   No pseudopotential on this center.
   72          1
                                   No pseudopotential on this center.
   73          1
                                   No pseudopotential on this center.
   74          1
                                   No pseudopotential on this center.
   75          6
                                   No pseudopotential on this center.
   76          1
                                   No pseudopotential on this center.
   77          1
                                   No pseudopotential on this center.
   78          1
                                   No pseudopotential on this center.
   79          6
                                   No pseudopotential on this center.
   80          1
                                   No pseudopotential on this center.
   81          1
                                   No pseudopotential on this center.
   82          1
                                   No pseudopotential on this center.
   83          1
                                   No pseudopotential on this center.
   84          6
                                   No pseudopotential on this center.
   85          8
                                   No pseudopotential on this center.
   86          6
                                   No pseudopotential on this center.
   87          1
                                   No pseudopotential on this center.
   88          1
                                   No pseudopotential on this center.
   89          6
                                   No pseudopotential on this center.
   90          1
                                   No pseudopotential on this center.
   91          1
                                   No pseudopotential on this center.
   92          7
                                   No pseudopotential on this center.
   93          6
                                   No pseudopotential on this center.
   94          1
                                   No pseudopotential on this center.
   95          1
                                   No pseudopotential on this center.
   96          1
                                   No pseudopotential on this center.
   97          6
                                   No pseudopotential on this center.
   98          1
                                   No pseudopotential on this center.
   99          1
                                   No pseudopotential on this center.
  100          1
                                   No pseudopotential on this center.
  101          1
                                   No pseudopotential on this center.
  102          1
                                   No pseudopotential on this center.
 ======================================================================================================
 There are   824 symmetry adapted cartesian basis functions of A   symmetry.
 There are   776 symmetry adapted basis functions of A   symmetry.
   776 basis functions,  1551 primitive gaussians,   824 cartesian basis functions
   181 alpha electrons      181 beta electrons
       nuclear repulsion energy      7440.2179845973 Hartrees.
 NAtoms=  102 NActive=  102 NUniq=  102 SFac= 1.00D+00 NAtFMM=   60 NAOKFM=T Big=T
 Integral buffers will be    131072 words long.
 Raffenetti 2 integral format.
 Two-electron integral symmetry is turned on.
 One-electron integrals computed using PRISM.
   1 Symmetry operations used in ECPInt.
 ECPInt:  NShTT=   45753 NPrTT=  276657 LenC2=   36420 LenP2D=  113627.
 LDataN:  DoStor=T MaxTD1= 6 Len=  172
 NBasis=   776 RedAO= T EigKep=  5.56D-04  NBF=   776
 NBsUse=   776 1.00D-06 EigRej= -1.00D+00 NBFU=   776
 Defaulting to unpruned grid for atomic number  77.
 ExpMin= 2.90D-02 ExpMax= 5.48D+03 ExpMxC= 8.25D+02 IAcc=3 IRadAn=         5 AccDes= 0.00D+00
 Harris functional with IExCor= 1009 and IRadAn=       5 diagonalized for initial guess.
 HarFok:  IExCor= 1009 AccDes= 0.00D+00 IRadAn=         5 IDoV= 1 UseB2=F ITyADJ=14
 ICtDFT=  3500011 ScaDFX=  1.000000  1.000000  1.000000  1.000000
 Defaulting to unpruned grid for atomic number  77.
 FoFCou: FMM=F IPFlag=           0 FMFlag=      100000 FMFlg1=        2001
         NFxFlg=           0 DoJE=T BraDBF=F KetDBF=T FulRan=T
         wScrn=  0.000000 ICntrl=       500 IOpCl=  0 I1Cent=   200000004 NGrid=           0
         NMat0=    1 NMatS0=      1 NMatT0=    0 NMatD0=    1 NMtDS0=    0 NMtDT0=    0
 Petite list used in FoFCou.
 Requested convergence on RMS density matrix=1.00D-08 within 128 cycles.
 Requested convergence on MAX density matrix=1.00D-06.
 Requested convergence on             energy=1.00D-06.
 No special actions if energy rises.
 Defaulting to unpruned grid for atomic number  77.
 Defaulting to unpruned grid for atomic number  77.
 Defaulting to unpruned grid for atomic number  77.
 Defaulting to unpruned grid for atomic number  77.
 Defaulting to unpruned grid for atomic number  77.
 Defaulting to unpruned grid for atomic number  77.
 Defaulting to unpruned grid for atomic number  77.
 Defaulting to unpruned grid for atomic number  77.
 Defaulting to unpruned grid for atomic number  77.
 Defaulting to unpruned grid for atomic number  77.
 Defaulting to unpruned grid for atomic number  77.
 Defaulting to unpruned grid for atomic number  77.
 Defaulting to unpruned grid for atomic number  77.
 Defaulting to unpruned grid for atomic number  77.
 Defaulting to unpruned grid for atomic number  77.
 Defaulting to unpruned grid for atomic number  77.
 SCF Done:  E(RM06) =  -2159.70463445     A.U. after   15 cycles
            NFock= 15  Conv=0.65D-08     -V/T= 2.0408
 DoSCS=F DFT=T ScalE2(SS,OS)=  1.000000  1.000000
 Range of M.O.s used for correlation:     1   776
 NBasis=   776 NAE=   181 NBE=   181 NFC=     0 NFV=     0
 NROrb=    776 NOA=   181 NOB=   181 NVA=   595 NVB=   595

 **** Warning!!: The largest alpha MO coefficient is  0.10079893D+02

   1 Symmetry operations used in ECPInt.
 ECPInt:  NShTT=   45753 NPrTT=  276657 LenC2=   36420 LenP2D=  113627.
 LDataN:  DoStor=T MaxTD1= 7 Len=  274
 Number of processors reduced to   8 by ecpmxn.
 Symmetrizing basis deriv contribution to polar:
 IMax=3 JMax=2 DiffMx= 0.00D+00
 G2DrvN: will do   103 centers at a time, making    1 passes.
 Calling FoFCou, ICntrl=  3107 FMM=T I1Cent=   0 AccDes= 0.00D+00.
 Defaulting to unpruned grid for atomic number  77.
 Defaulting to unpruned grid for atomic number  77.
 Defaulting to unpruned grid for atomic number  77.
 Defaulting to unpruned grid for atomic number  77.
 Defaulting to unpruned grid for atomic number  77.
 Defaulting to unpruned grid for atomic number  77.
 Defaulting to unpruned grid for atomic number  77.
 Defaulting to unpruned grid for atomic number  77.
 Defaulting to unpruned grid for atomic number  77.
 Defaulting to unpruned grid for atomic number  77.
 Defaulting to unpruned grid for atomic number  77.
 Defaulting to unpruned grid for atomic number  77.
 Defaulting to unpruned grid for atomic number  77.
 Defaulting to unpruned grid for atomic number  77.
 Defaulting to unpruned grid for atomic number  77.
 Defaulting to unpruned grid for atomic number  77.
 End of G2Drv F.D. properties file   721 does not exist.
 End of G2Drv F.D. properties file   722 does not exist.
 End of G2Drv F.D. properties file   788 does not exist.
          IDoAtm=11111111111111111111111111111111111111111111111111
          IDoAtm=11111111111111111111111111111111111111111111111111
          IDoAtm=11
          Differentiating once with respect to electric field.
                with respect to dipole field.
          Differentiating once with respect to nuclear coordinates.
 Defaulting to unpruned grid for atomic number  77.
 CalDSu exits because no D1Ps are significant.
 Defaulting to unpruned grid for atomic number  77.
 Defaulting to unpruned grid for atomic number  77.
 Defaulting to unpruned grid for atomic number  77.
 Defaulting to unpruned grid for atomic number  77.
 Defaulting to unpruned grid for atomic number  77.
 Defaulting to unpruned grid for atomic number  77.
 Defaulting to unpruned grid for atomic number  77.
 Defaulting to unpruned grid for atomic number  77.
 Defaulting to unpruned grid for atomic number  77.
 Defaulting to unpruned grid for atomic number  77.
 Defaulting to unpruned grid for atomic number  77.
 Defaulting to unpruned grid for atomic number  77.
 Defaulting to unpruned grid for atomic number  77.
 Defaulting to unpruned grid for atomic number  77.
 Defaulting to unpruned grid for atomic number  77.
 Defaulting to unpruned grid for atomic number  77.
          There are   309 degrees of freedom in the 1st order CPHF.  IDoFFX=6 NUNeed=     3.
    306 vectors produced by pass  0 Test12= 1.08D-13 1.00D-09 XBig12= 4.60D+02 9.39D+00.
 AX will form    72 AO Fock derivatives at one time.
    306 vectors produced by pass  1 Test12= 1.08D-13 1.00D-09 XBig12= 7.71D+01 1.09D+00.
    306 vectors produced by pass  2 Test12= 1.08D-13 1.00D-09 XBig12= 8.23D-01 8.54D-02.
    306 vectors produced by pass  3 Test12= 1.08D-13 1.00D-09 XBig12= 4.69D-03 5.45D-03.
    306 vectors produced by pass  4 Test12= 1.08D-13 1.00D-09 XBig12= 1.41D-05 2.98D-04.
    271 vectors produced by pass  5 Test12= 1.08D-13 1.00D-09 XBig12= 2.42D-08 1.13D-05.
     73 vectors produced by pass  6 Test12= 1.08D-13 1.00D-09 XBig12= 3.29D-11 3.60D-07.
      3 vectors produced by pass  7 Test12= 1.08D-13 1.00D-09 XBig12= 4.77D-14 1.60D-08.
 InvSVY:  IOpt=1 It=  1 EMax= 2.13D-14
 Solved reduced A of dimension  1877 with   309 vectors.
 Isotropic polarizability for W=    0.000000      457.25 Bohr**3.
 End of Minotr F.D. properties file   721 does not exist.
 End of Minotr F.D. properties file   722 does not exist.
 End of Minotr F.D. properties file   788 does not exist.
 Hyperfine terms turned off by default for NAtoms > 100.

 **********************************************************************

            Population analysis using the SCF Density.

 **********************************************************************

 Orbital symmetries:
       Occupied  (A) (A) (A) (A) (A) (A) (A) (A) (A) (A) (A) (A)
                 (A) (A) (A) (A) (A) (A) (A) (A) (A) (A) (A) (A)
                 (A) (A) (A) (A) (A) (A) (A) (A) (A) (A) (A) (A)
                 (A) (A) (A) (A) (A) (A) (A) (A) (A) (A) (A) (A)
                 (A) (A) (A) (A) (A) (A) (A) (A) (A) (A) (A) (A)
                 (A) (A) (A) (A) (A) (A) (A) (A) (A) (A) (A) (A)
                 (A) (A) (A) (A) (A) (A) (A) (A) (A) (A) (A) (A)
                 (A) (A) (A) (A) (A) (A) (A) (A) (A) (A) (A) (A)
                 (A) (A) (A) (A) (A) (A) (A) (A) (A) (A) (A) (A)
                 (A) (A) (A) (A) (A) (A) (A) (A) (A) (A) (A) (A)
                 (A) (A) (A) (A) (A) (A) (A) (A) (A) (A) (A) (A)
                 (A) (A) (A) (A) (A) (A) (A) (A) (A) (A) (A) (A)
                 (A) (A) (A) (A) (A) (A) (A) (A) (A) (A) (A) (A)
                 (A) (A) (A) (A) (A) (A) (A) (A) (A) (A) (A) (A)
                 (A) (A) (A) (A) (A) (A) (A) (A) (A) (A) (A) (A)
                 (A)
       Virtual   (A) (A) (A) (A) (A) (A) (A) (A) (A) (A) (A) (A)
                 (A) (A) (A) (A) (A) (A) (A) (A) (A) (A) (A) (A)
                 (A) (A) (A) (A) (A) (A) (A) (A) (A) (A) (A) (A)
                 (A) (A) (A) (A) (A) (A) (A) (A) (A) (A) (A) (A)
                 (A) (A) (A) (A) (A) (A) (A) (A) (A) (A) (A) (A)
                 (A) (A) (A) (A) (A) (A) (A) (A) (A) (A) (A) (A)
                 (A) (A) (A) (A) (A) (A) (A) (A) (A) (A) (A) (A)
                 (A) (A) (A) (A) (A) (A) (A) (A) (A) (A) (A) (A)
                 (A) (A) (A) (A) (A) (A) (A) (A) (A) (A) (A) (A)
                 (A) (A) (A) (A) (A) (A) (A) (A) (A) (A) (A) (A)
                 (A) (A) (A) (A) (A) (A) (A) (A) (A) (A) (A) (A)
                 (A) (A) (A) (A) (A) (A) (A) (A) (A) (A) (A) (A)
                 (A) (A) (A) (A) (A) (A) (A) (A) (A) (A) (A) (A)
                 (A) (A) (A) (A) (A) (A) (A) (A) (A) (A) (A) (A)
                 (A) (A) (A) (A) (A) (A) (A) (A) (A) (A) (A) (A)
                 (A) (A) (A) (A) (A) (A) (A) (A) (A) (A) (A) (A)
                 (A) (A) (A) (A) (A) (A) (A) (A) (A) (A) (A) (A)
                 (A) (A) (A) (A) (A) (A) (A) (A) (A) (A) (A) (A)
                 (A) (A) (A) (A) (A) (A) (A) (A) (A) (A) (A) (A)
                 (A) (A) (A) (A) (A) (A) (A) (A) (A) (A) (A) (A)
                 (A) (A) (A) (A) (A) (A) (A) (A) (A) (A) (A) (A)
                 (A) (A) (A) (A) (A) (A) (A) (A) (A) (A) (A) (A)
                 (A) (A) (A) (A) (A) (A) (A) (A) (A) (A) (A) (A)
                 (A) (A) (A) (A) (A) (A) (A) (A) (A) (A) (A) (A)
                 (A) (A) (A) (A) (A) (A) (A) (A) (A) (A) (A) (A)
                 (A) (A) (A) (A) (A) (A) (A) (A) (A) (A) (A) (A)
                 (A) (A) (A) (A) (A) (A) (A) (A) (A) (A) (A) (A)
                 (A) (A) (A) (A) (A) (A) (A) (A) (A) (A) (A) (A)
                 (A) (A) (A) (A) (A) (A) (A) (A) (A) (A) (A) (A)
                 (A) (A) (A) (A) (A) (A) (A) (A) (A) (A) (A) (A)
                 (A) (A) (A) (A) (A) (A) (A) (A) (A) (A) (A) (A)
                 (A) (A) (A) (A) (A) (A) (A) (A) (A) (A) (A) (A)
                 (A) (A) (A) (A) (A) (A) (A) (A) (A) (A) (A) (A)
                 (A) (A) (A) (A) (A) (A) (A) (A) (A) (A) (A) (A)
                 (A) (A) (A) (A) (A) (A) (A) (A) (A) (A) (A) (A)
                 (A) (A) (A) (A) (A) (A) (A) (A) (A) (A) (A) (A)
                 (A) (A) (A) (A) (A) (A) (A) (A) (A) (A) (A) (A)
                 (A) (A) (A) (A) (A) (A) (A) (A) (A) (A) (A) (A)
                 (A) (A) (A) (A) (A) (A) (A) (A) (A) (A) (A) (A)
                 (A) (A) (A) (A) (A) (A) (A) (A) (A) (A) (A) (A)
                 (A) (A) (A) (A) (A) (A) (A) (A) (A) (A) (A) (A)
                 (A) (A) (A) (A) (A) (A) (A) (A) (A) (A) (A) (A)
                 (A) (A) (A) (A) (A) (A) (A) (A) (A) (A) (A) (A)
                 (A) (A) (A) (A) (A) (A) (A) (A) (A) (A) (A) (A)
                 (A) (A) (A) (A) (A) (A) (A) (A) (A) (A) (A) (A)
                 (A) (A) (A) (A) (A) (A) (A) (A) (A) (A) (A) (A)
                 (A) (A) (A) (A) (A) (A) (A) (A) (A) (A) (A) (A)
                 (A) (A) (A) (A) (A) (A) (A) (A) (A) (A) (A) (A)
                 (A) (A) (A) (A) (A) (A) (A) (A) (A) (A) (A) (A)
                 (A) (A) (A) (A) (A) (A) (A)
 The electronic state is 1-A.
 Alpha  occ. eigenvalues --  -19.19540 -19.19490 -19.19477 -19.18867 -19.18732
 Alpha  occ. eigenvalues --  -19.18403 -19.18158 -14.44104 -14.43586 -14.41977
 Alpha  occ. eigenvalues --  -10.33968 -10.31662 -10.31131 -10.29813 -10.29662
 Alpha  occ. eigenvalues --  -10.28771 -10.28762 -10.28710 -10.28581 -10.28232
 Alpha  occ. eigenvalues --  -10.28190 -10.28048 -10.28035 -10.27899 -10.27556
 Alpha  occ. eigenvalues --  -10.27395 -10.26934 -10.26820 -10.26031 -10.25043
 Alpha  occ. eigenvalues --  -10.23232 -10.22469 -10.22332 -10.22308 -10.22301
 Alpha  occ. eigenvalues --  -10.22246 -10.21983 -10.21926 -10.21808 -10.21741
 Alpha  occ. eigenvalues --  -10.20955 -10.20888 -10.20536  -6.79452  -6.77807
 Alpha  occ. eigenvalues --   -6.77341  -3.59530  -2.02256  -2.01603  -2.01001
 Alpha  occ. eigenvalues --   -1.05519  -1.05022  -1.04504  -1.04104  -0.99240
 Alpha  occ. eigenvalues --   -0.98570  -0.98074  -0.97603  -0.96757  -0.93800
 Alpha  occ. eigenvalues --   -0.83809  -0.82822  -0.82152  -0.79738  -0.79617
 Alpha  occ. eigenvalues --   -0.79167  -0.78493  -0.76822  -0.74242  -0.74084
 Alpha  occ. eigenvalues --   -0.73679  -0.71869  -0.69902  -0.69771  -0.69702
 Alpha  occ. eigenvalues --   -0.69326  -0.68293  -0.67286  -0.67040  -0.66899
 Alpha  occ. eigenvalues --   -0.66494  -0.64012  -0.63122  -0.62895  -0.61109
 Alpha  occ. eigenvalues --   -0.60652  -0.60229  -0.56934  -0.53974  -0.53712
 Alpha  occ. eigenvalues --   -0.53488  -0.53287  -0.52863  -0.52771  -0.52605
 Alpha  occ. eigenvalues --   -0.52296  -0.51840  -0.50516  -0.50268  -0.49307
 Alpha  occ. eigenvalues --   -0.48927  -0.47163  -0.46895  -0.46571  -0.46251
 Alpha  occ. eigenvalues --   -0.45960  -0.45889  -0.45606  -0.45500  -0.45390
 Alpha  occ. eigenvalues --   -0.44989  -0.44549  -0.44404  -0.43861  -0.43664
 Alpha  occ. eigenvalues --   -0.43448  -0.43186  -0.42955  -0.42665  -0.42281
 Alpha  occ. eigenvalues --   -0.42265  -0.41563  -0.40346  -0.40216  -0.39905
 Alpha  occ. eigenvalues --   -0.39656  -0.39546  -0.39461  -0.39207  -0.39085
 Alpha  occ. eigenvalues --   -0.39051  -0.38844  -0.38731  -0.38630  -0.38615
 Alpha  occ. eigenvalues --   -0.38469  -0.38273  -0.38005  -0.37871  -0.37732
 Alpha  occ. eigenvalues --   -0.37173  -0.36972  -0.36827  -0.36407  -0.36070
 Alpha  occ. eigenvalues --   -0.35927  -0.35743  -0.35462  -0.35410  -0.35306
 Alpha  occ. eigenvalues --   -0.35015  -0.34934  -0.34752  -0.34325  -0.34068
 Alpha  occ. eigenvalues --   -0.33880  -0.33612  -0.32761  -0.31879  -0.31645
 Alpha  occ. eigenvalues --   -0.31234  -0.31143  -0.30824  -0.30812  -0.30344
 Alpha  occ. eigenvalues --   -0.30138  -0.29462  -0.29200  -0.28909  -0.28415
 Alpha  occ. eigenvalues --   -0.26342  -0.25899  -0.25433  -0.25323  -0.24970
 Alpha  occ. eigenvalues --   -0.24461  -0.24136  -0.23743  -0.20258  -0.20053
 Alpha  occ. eigenvalues --   -0.19830
 Alpha virt. eigenvalues --   -0.06590  -0.03588  -0.02374   0.01531   0.02189
 Alpha virt. eigenvalues --    0.04290   0.04740   0.05929   0.07218   0.07597
 Alpha virt. eigenvalues --    0.07881   0.09103   0.10443   0.10598   0.10809
 Alpha virt. eigenvalues --    0.10981   0.11718   0.12039   0.12710   0.12813
 Alpha virt. eigenvalues --    0.13284   0.13583   0.13738   0.13963   0.14313
 Alpha virt. eigenvalues --    0.14429   0.14755   0.14994   0.15079   0.15306
 Alpha virt. eigenvalues --    0.15393   0.15559   0.15759   0.16002   0.16175
 Alpha virt. eigenvalues --    0.16446   0.16645   0.16785   0.16929   0.17037
 Alpha virt. eigenvalues --    0.17066   0.17496   0.17607   0.17850   0.18147
 Alpha virt. eigenvalues --    0.18301   0.18537   0.18592   0.18652   0.19045
 Alpha virt. eigenvalues --    0.19155   0.19389   0.19757   0.19818   0.19998
 Alpha virt. eigenvalues --    0.20432   0.20475   0.20643   0.20792   0.20964
 Alpha virt. eigenvalues --    0.21032   0.21250   0.21448   0.21729   0.21783
 Alpha virt. eigenvalues --    0.21912   0.22425   0.22543   0.23164   0.23487
 Alpha virt. eigenvalues --    0.23748   0.24013   0.24169   0.24495   0.24690
 Alpha virt. eigenvalues --    0.25236   0.25375   0.25800   0.25982   0.26126
 Alpha virt. eigenvalues --    0.26410   0.26828   0.27066   0.27231   0.27397
 Alpha virt. eigenvalues --    0.27747   0.27963   0.28237   0.28662   0.29021
 Alpha virt. eigenvalues --    0.29139   0.29426   0.29496   0.29760   0.30082
 Alpha virt. eigenvalues --    0.30389   0.31045   0.32203   0.32642   0.32918
 Alpha virt. eigenvalues --    0.33514   0.34446   0.35593   0.35776   0.36354
 Alpha virt. eigenvalues --    0.36818   0.37735   0.38361   0.38441   0.38936
 Alpha virt. eigenvalues --    0.39686   0.41138   0.41560   0.43663   0.44463
 Alpha virt. eigenvalues --    0.45460   0.46100   0.47339   0.48440   0.49200
 Alpha virt. eigenvalues --    0.49915   0.50340   0.50984   0.51209   0.51691
 Alpha virt. eigenvalues --    0.51949   0.52122   0.52168   0.52745   0.52933
 Alpha virt. eigenvalues --    0.53718   0.54012   0.54544   0.54689   0.55012
 Alpha virt. eigenvalues --    0.55324   0.55848   0.56417   0.56743   0.57093
 Alpha virt. eigenvalues --    0.57604   0.57770   0.57887   0.58300   0.58676
 Alpha virt. eigenvalues --    0.58916   0.58989   0.59154   0.59378   0.59726
 Alpha virt. eigenvalues --    0.59884   0.60057   0.60183   0.60654   0.61005
 Alpha virt. eigenvalues --    0.61240   0.61479   0.61818   0.62251   0.62592
 Alpha virt. eigenvalues --    0.62985   0.63238   0.63510   0.63820   0.63975
 Alpha virt. eigenvalues --    0.64675   0.64999   0.65260   0.65476   0.66359
 Alpha virt. eigenvalues --    0.66673   0.66709   0.67073   0.67240   0.67831
 Alpha virt. eigenvalues --    0.68103   0.68458   0.68810   0.68982   0.69742
 Alpha virt. eigenvalues --    0.69963   0.70201   0.70553   0.70703   0.71239
 Alpha virt. eigenvalues --    0.71895   0.72188   0.72447   0.72587   0.73076
 Alpha virt. eigenvalues --    0.73281   0.73694   0.74017   0.74790   0.75288
 Alpha virt. eigenvalues --    0.75770   0.76045   0.76329   0.76561   0.76896
 Alpha virt. eigenvalues --    0.77220   0.77796   0.78222   0.78604   0.78942
 Alpha virt. eigenvalues --    0.79255   0.79651   0.80167   0.80590   0.81028
 Alpha virt. eigenvalues --    0.81324   0.81743   0.82362   0.82809   0.83082
 Alpha virt. eigenvalues --    0.83383   0.83787   0.83879   0.84206   0.84504
 Alpha virt. eigenvalues --    0.84797   0.84891   0.85117   0.85362   0.85648
 Alpha virt. eigenvalues --    0.85786   0.85970   0.86110   0.86905   0.87322
 Alpha virt. eigenvalues --    0.87720   0.88005   0.88072   0.88414   0.88607
 Alpha virt. eigenvalues --    0.88860   0.89102   0.89454   0.89589   0.89640
 Alpha virt. eigenvalues --    0.89954   0.90062   0.90332   0.90440   0.90477
 Alpha virt. eigenvalues --    0.91093   0.91320   0.91396   0.91650   0.91951
 Alpha virt. eigenvalues --    0.92365   0.92779   0.93243   0.93489   0.93747
 Alpha virt. eigenvalues --    0.94047   0.94203   0.94314   0.94575   0.94821
 Alpha virt. eigenvalues --    0.95283   0.95687   0.95918   0.96271   0.96615
 Alpha virt. eigenvalues --    0.96899   0.97300   0.97783   0.97995   0.98105
 Alpha virt. eigenvalues --    0.98579   0.99184   0.99679   1.00129   1.00413
 Alpha virt. eigenvalues --    1.00908   1.01003   1.01867   1.02169   1.02594
 Alpha virt. eigenvalues --    1.03321   1.03430   1.04040   1.04318   1.04888
 Alpha virt. eigenvalues --    1.05191   1.05603   1.06152   1.06572   1.07062
 Alpha virt. eigenvalues --    1.07527   1.07993   1.08241   1.08913   1.09499
 Alpha virt. eigenvalues --    1.10009   1.10717   1.11354   1.12134   1.12907
 Alpha virt. eigenvalues --    1.14465   1.15107   1.16318   1.17003   1.17136
 Alpha virt. eigenvalues --    1.18108   1.19345   1.20159   1.20477   1.21019
 Alpha virt. eigenvalues --    1.21220   1.22191   1.22451   1.22966   1.23553
 Alpha virt. eigenvalues --    1.23970   1.25104   1.25410   1.25827   1.26260
 Alpha virt. eigenvalues --    1.27230   1.28671   1.29223   1.30026   1.30704
 Alpha virt. eigenvalues --    1.31298   1.32663   1.33056   1.33755   1.34641
 Alpha virt. eigenvalues --    1.35110   1.35518   1.36102   1.36800   1.37291
 Alpha virt. eigenvalues --    1.38970   1.39785   1.40248   1.40625   1.41428
 Alpha virt. eigenvalues --    1.42052   1.42576   1.42837   1.43103   1.43754
 Alpha virt. eigenvalues --    1.44228   1.45542   1.45733   1.46069   1.46186
 Alpha virt. eigenvalues --    1.46856   1.47446   1.47540   1.47829   1.48207
 Alpha virt. eigenvalues --    1.48567   1.49331   1.49842   1.50234   1.50955
 Alpha virt. eigenvalues --    1.52451   1.53550   1.54504   1.55937   1.57281
 Alpha virt. eigenvalues --    1.58055   1.58795   1.59197   1.60509   1.60859
 Alpha virt. eigenvalues --    1.61025   1.62484   1.62986   1.64865   1.65159
 Alpha virt. eigenvalues --    1.65659   1.66303   1.67111   1.67790   1.68200
 Alpha virt. eigenvalues --    1.68749   1.69146   1.69700   1.70662   1.71470
 Alpha virt. eigenvalues --    1.71653   1.73824   1.74306   1.74661   1.76080
 Alpha virt. eigenvalues --    1.77249   1.78075   1.78271   1.78555   1.79039
 Alpha virt. eigenvalues --    1.79293   1.79996   1.80697   1.80762   1.81394
 Alpha virt. eigenvalues --    1.81587   1.82600   1.83463   1.83807   1.84655
 Alpha virt. eigenvalues --    1.84726   1.85240   1.85837   1.86133   1.86572
 Alpha virt. eigenvalues --    1.87045   1.87267   1.87416   1.87752   1.88289
 Alpha virt. eigenvalues --    1.89481   1.90086   1.90842   1.91639   1.91816
 Alpha virt. eigenvalues --    1.92124   1.92530   1.92740   1.93031   1.93261
 Alpha virt. eigenvalues --    1.93473   1.93873   1.94035   1.94197   1.94513
 Alpha virt. eigenvalues --    1.94941   1.95561   1.95727   1.96968   1.97457
 Alpha virt. eigenvalues --    1.97883   1.98727   1.99230   1.99440   2.00074
 Alpha virt. eigenvalues --    2.00202   2.01018   2.01388   2.01952   2.02788
 Alpha virt. eigenvalues --    2.02987   2.03745   2.04006   2.04409   2.05348
 Alpha virt. eigenvalues --    2.05858   2.06369   2.07542   2.07827   2.07929
 Alpha virt. eigenvalues --    2.08106   2.08572   2.08973   2.09234   2.09607
 Alpha virt. eigenvalues --    2.10167   2.10675   2.11142   2.11637   2.11891
 Alpha virt. eigenvalues --    2.12684   2.13304   2.13922   2.14203   2.14785
 Alpha virt. eigenvalues --    2.15507   2.16006   2.16158   2.16546   2.16876
 Alpha virt. eigenvalues --    2.16958   2.17597   2.17934   2.18067   2.18759
 Alpha virt. eigenvalues --    2.18970   2.19309   2.19912   2.20086   2.20606
 Alpha virt. eigenvalues --    2.20855   2.21609   2.21671   2.22389   2.22653
 Alpha virt. eigenvalues --    2.23086   2.23627   2.24052   2.24190   2.24547
 Alpha virt. eigenvalues --    2.25194   2.25596   2.26123   2.26309   2.26727
 Alpha virt. eigenvalues --    2.27040   2.27516   2.28033   2.28691   2.29116
 Alpha virt. eigenvalues --    2.29282   2.30275   2.31549   2.31839   2.32184
 Alpha virt. eigenvalues --    2.32266   2.32742   2.33165   2.33641   2.34303
 Alpha virt. eigenvalues --    2.35048   2.35415   2.36331   2.37347   2.37975
 Alpha virt. eigenvalues --    2.39432   2.39732   2.40175   2.40308   2.43645
 Alpha virt. eigenvalues --    2.45414   2.45901   2.46280   2.47936   2.48802
 Alpha virt. eigenvalues --    2.49021   2.49129   2.49528   2.49942   2.50678
 Alpha virt. eigenvalues --    2.51061   2.51671   2.54037   2.54367   2.56738
 Alpha virt. eigenvalues --    2.59560   2.59671   2.60265   2.60656   2.61289
 Alpha virt. eigenvalues --    2.61570   2.62827   2.64686   2.65523   2.65779
 Alpha virt. eigenvalues --    2.66178   2.66909   2.67466   2.69314   2.69478
 Alpha virt. eigenvalues --    2.70481   2.72880   2.75396   2.78483   2.78830
 Alpha virt. eigenvalues --    2.79178   2.79598   2.80507   2.81047   2.81141
 Alpha virt. eigenvalues --    2.81469   2.82229   2.82331   2.82944   2.84059
 Alpha virt. eigenvalues --    2.84677   2.85750   2.87314   2.88109   2.90330
 Alpha virt. eigenvalues --    2.90795   2.93465   2.95689   2.96382   2.98121
 Alpha virt. eigenvalues --    2.98682   2.99209   2.99892   3.05976   3.06111
 Alpha virt. eigenvalues --    3.06474   3.08644   3.12427   3.12621   3.13369
 Alpha virt. eigenvalues --    3.20098   3.24681   3.31183   3.44682  12.23237
          Condensed to atoms (all electrons):
 Mulliken charges:
               1
     1  C    0.260211
     2  C    0.017431
     3  C   -0.169975
     4  C   -0.145517
     5  C   -0.176098
     6  C    0.331734
     7  C    0.058067
     8  C   -0.163246
     9  C   -0.133863
    10  C   -0.162979
    11  H    0.232239
    12  H    0.180840
    13  H    0.172442
    14  H    0.192489
    15  H    0.179146
    16  H    0.163718
    17  N   -0.464251
    18  N   -0.480628
    19  Ir  -0.092331
    20  O   -0.551242
    21  O   -0.516917
    22  O   -0.533405
    23  B    0.532861
    24  B    0.469968
    25  B    0.424311
    26  O   -0.520823
    27  O   -0.514559
    28  C    0.295756
    29  C    0.308179
    30  C    0.302804
    31  C    0.293360
    32  C    0.300606
    33  C    0.291353
    34  O   -0.515350
    35  C   -0.505946
    36  H    0.170543
    37  H    0.153020
    38  H    0.152794
    39  C   -0.513112
    40  H    0.150041
    41  H    0.175217
    42  H    0.157640
    43  C   -0.511917
    44  H    0.145610
    45  H    0.167134
    46  H    0.167724
    47  C   -0.500365
    48  H    0.160542
    49  H    0.187935
    50  H    0.137093
    51  C   -0.512167
    52  H    0.146831
    53  H    0.179680
    54  H    0.165199
    55  C   -0.502371
    56  H    0.162594
    57  H    0.148915
    58  H    0.162438
    59  C   -0.501319
    60  H    0.161971
    61  H    0.195878
    62  H    0.138978
    63  C   -0.513748
    64  H    0.149041
    65  H    0.166620
    66  H    0.167847
    67  C   -0.488949
    68  H    0.154194
    69  H    0.185672
    70  H    0.135939
    71  C   -0.511343
    72  H    0.164549
    73  H    0.145944
    74  H    0.166929
    75  C   -0.513379
    76  H    0.170537
    77  H    0.150933
    78  H    0.160705
    79  C   -0.509935
    80  H    0.175624
    81  H    0.163836
    82  H    0.145509
    83  H    0.203296
    84  C    0.600625
    85  O   -0.513208
    86  C   -0.413868
    87  H    0.178269
    88  H    0.167713
    89  C   -0.374025
    90  H    0.171735
    91  H    0.172205
    92  N   -0.387863
    93  C   -0.398409
    94  H    0.237125
    95  H    0.181126
    96  H    0.225441
    97  C   -0.467498
    98  H    0.147486
    99  H    0.181653
   100  H    0.180502
   101  H    0.181232
   102  H    0.153024
 Sum of Mulliken charges =  -0.00000
 Mulliken charges with hydrogens summed into heavy atoms:
               1
     1  C    0.260211
     2  C    0.249670
     3  C    0.011257
     4  C    0.035323
     5  C   -0.003656
     6  C    0.331734
     7  C    0.250555
     8  C    0.017257
     9  C    0.045283
    10  C    0.000740
    17  N   -0.464251
    18  N   -0.480628
    19  Ir  -0.092331
    20  O   -0.551242
    21  O   -0.516917
    22  O   -0.533405
    23  B    0.532861
    24  B    0.469968
    25  B    0.424311
    26  O   -0.520823
    27  O   -0.514559
    28  C    0.295756
    29  C    0.308179
    30  C    0.302804
    31  C    0.293360
    32  C    0.300606
    33  C    0.291353
    34  O   -0.515350
    35  C   -0.029589
    39  C   -0.030215
    43  C   -0.031448
    47  C   -0.014794
    51  C   -0.020457
    55  C   -0.028423
    59  C   -0.004492
    63  C   -0.030240
    67  C   -0.013144
    71  C   -0.033922
    75  C   -0.031204
    79  C   -0.024966
    84  C    0.600625
    85  O   -0.513208
    86  C   -0.067886
    89  C    0.173210
    92  N   -0.387863
    93  C    0.245283
    97  C    0.014664
 APT charges:
               1
     1  C    0.203048
     2  C    0.041149
     3  C   -0.056985
     4  C    0.095648
     5  C   -0.160972
     6  C    0.168298
     7  C    0.078314
     8  C   -0.047764
     9  C    0.117939
    10  C   -0.158128
    11  H    0.125671
    12  H    0.030024
    13  H    0.045734
    14  H    0.067470
    15  H    0.027300
    16  H    0.041769
    17  N   -0.188355
    18  N   -0.208783
    19  Ir  -0.568628
    20  O   -1.036594
    21  O   -0.954411
    22  O   -1.035981
    23  B    1.247669
    24  B    1.228726
    25  B    1.265535
    26  O   -0.981830
    27  O   -0.979447
    28  C    0.488640
    29  C    0.513063
    30  C    0.496537
    31  C    0.503716
    32  C    0.470026
    33  C    0.485781
    34  O   -0.953262
    35  C   -0.030153
    36  H    0.005733
    37  H   -0.025541
    38  H   -0.009196
    39  C   -0.012076
    40  H   -0.019268
    41  H    0.005807
    42  H   -0.010215
    43  C   -0.007778
    44  H   -0.022240
    45  H    0.000239
    46  H    0.002623
    47  C   -0.046893
    48  H    0.000201
    49  H    0.035721
    50  H   -0.034084
    51  C   -0.007458
    52  H   -0.018969
    53  H    0.007857
    54  H   -0.006738
    55  C   -0.027742
    56  H   -0.006035
    57  H   -0.020053
    58  H   -0.012764
    59  C   -0.040738
    60  H    0.009508
    61  H    0.037865
    62  H   -0.031789
    63  C   -0.013827
    64  H   -0.016837
    65  H    0.000321
    66  H    0.005355
    67  C   -0.044429
    68  H   -0.003737
    69  H    0.033302
    70  H   -0.036183
    71  C   -0.008897
    72  H   -0.001042
    73  H   -0.022419
    74  H   -0.000027
    75  C   -0.033095
    76  H   -0.001659
    77  H   -0.024778
    78  H   -0.003832
    79  C   -0.008496
    80  H    0.007309
    81  H   -0.008732
    82  H   -0.024591
    83  H    0.016240
    84  C    0.864295
    85  O   -0.685186
    86  C    0.011880
    87  H   -0.018187
    88  H   -0.017971
    89  C    0.264899
    90  H    0.005989
    91  H   -0.016929
    92  N   -0.672876
    93  C    0.248843
    94  H   -0.047146
    95  H   -0.049193
    96  H    0.063411
    97  C    0.067886
    98  H   -0.010577
    99  H    0.004820
   100  H    0.034672
   101  H    0.036549
   102  H   -0.021868
 Sum of APT charges =  -0.00000
 APT charges with hydrogens summed into heavy atoms:
               1
     1  C    0.203048
     2  C    0.166820
     3  C   -0.020435
     4  C    0.125672
     5  C   -0.115238
     6  C    0.168298
     7  C    0.145783
     8  C   -0.013092
     9  C    0.145239
    10  C   -0.116359
    17  N   -0.188355
    18  N   -0.208783
    19  Ir  -0.568628
    20  O   -1.036594
    21  O   -0.954411
    22  O   -1.035981
    23  B    1.247669
    24  B    1.228726
    25  B    1.265535
    26  O   -0.981830
    27  O   -0.979447
    28  C    0.488640
    29  C    0.513063
    30  C    0.496537
    31  C    0.503716
    32  C    0.470026
    33  C    0.485781
    34  O   -0.953262
    35  C   -0.059157
    39  C   -0.035752
    43  C   -0.027155
    47  C   -0.045055
    51  C   -0.025308
    55  C   -0.066593
    59  C   -0.025153
    63  C   -0.024989
    67  C   -0.051047
    71  C   -0.032385
    75  C   -0.063364
    79  C   -0.034510
    84  C    0.864295
    85  O   -0.685186
    86  C   -0.024279
    89  C    0.270200
    92  N   -0.672876
    93  C    0.215915
    97  C    0.040260
 Electronic spatial extent (au):  <R**2>=          23610.1256
 Charge=             -0.0000 electrons
 Dipole moment (field-independent basis, Debye):
    X=              4.6439    Y=              1.1161    Z=              2.2918  Tot=              5.2976
 Quadrupole moment (field-independent basis, Debye-Ang):
   XX=           -277.5789   YY=           -273.1481   ZZ=           -287.2945
   XY=              2.0304   XZ=             13.6274   YZ=             -0.4009
 Traceless Quadrupole moment (field-independent basis, Debye-Ang):
   XX=              1.7616   YY=              6.1924   ZZ=             -7.9540
   XY=              2.0304   XZ=             13.6274   YZ=             -0.4009
 Octapole moment (field-independent basis, Debye-Ang**2):
  XXX=             75.6412  YYY=            -50.9753  ZZZ=             -7.9858  XYY=             55.1772
  XXY=             -5.2015  XXZ=             56.3334  XZZ=             17.3455  YZZ=             20.6463
  YYZ=            -34.3809  XYZ=             -9.7794
 Hexadecapole moment (field-independent basis, Debye-Ang**3):
 XXXX=         -13943.1019 YYYY=          -8710.6922 ZZZZ=          -8277.6590 XXXY=             10.2594
 XXXZ=            314.9790 YYYX=           -195.5906 YYYZ=             92.8570 ZZZX=            -40.7406
 ZZZY=            -13.8163 XXYY=          -3572.3925 XXZZ=          -3673.1209 YYZZ=          -2893.4808
 XXYZ=            -40.2374 YYXZ=             60.4716 ZZXY=            105.2635
 N-N= 7.440217984597D+03 E-N=-1.988705626905D+04  KE= 2.075065650455D+03
  Exact polarizability:     493.837     -15.957     470.983      43.677      23.535     406.940
 Approx polarizability:     679.795     -32.042     725.396      80.967      49.061     602.658
   1 Symmetry operations used in ECPInt.
 ECPInt:  NShTT=   45753 NPrTT=  276657 LenC2=   36420 LenP2D=  113627.
 LDataN:  DoStor=T MaxTD1= 8 Len=  415
 Calling FoFJK, ICntrl=    100127 FMM=F ISym2X=0 I1Cent= 0 IOpClX= 0 NMat=1 NMatS=1 NMatT=0.
 Defaulting to unpruned grid for atomic number  77.
 Defaulting to unpruned grid for atomic number  77.
 Defaulting to unpruned grid for atomic number  77.
 Defaulting to unpruned grid for atomic number  77.
 Defaulting to unpruned grid for atomic number  77.
 Defaulting to unpruned grid for atomic number  77.
 Defaulting to unpruned grid for atomic number  77.
 Defaulting to unpruned grid for atomic number  77.
 Defaulting to unpruned grid for atomic number  77.
 Defaulting to unpruned grid for atomic number  77.
 Defaulting to unpruned grid for atomic number  77.
 Defaulting to unpruned grid for atomic number  77.
 Defaulting to unpruned grid for atomic number  77.
 Defaulting to unpruned grid for atomic number  77.
 Defaulting to unpruned grid for atomic number  77.
 Defaulting to unpruned grid for atomic number  77.
 Full mass-weighted force constant matrix:
 Low frequencies ---   -7.6590   -4.5556   -0.0007   -0.0005    0.0004    4.7650
 Low frequencies ---   18.6322   25.4708   28.6451
 Diagonal vibrational polarizability:
       88.9911103      66.0314968      94.7713526
 Harmonic frequencies (cm**-1), IR intensities (KM/Mole), Raman scattering
 activities (A**4/AMU), depolarization ratios for plane and unpolarized
 incident light, reduced masses (AMU), force constants (mDyne/A),
 and normal coordinates:
                      1                      2                      3
                      A                      A                      A
 Frequencies --     17.3241                25.4352                28.4561
 Red. masses --      3.6884                 4.5860                 4.2536
 Frc consts  --      0.0007                 0.0017                 0.0020
 IR Inten    --      0.0998                 0.1358                 0.1511
  Atom AN      X      Y      Z        X      Y      Z        X      Y      Z
     1   6    -0.00  -0.00   0.01    -0.00  -0.05  -0.02     0.01   0.02   0.01
     2   6    -0.02  -0.01   0.02     0.00  -0.05   0.03     0.00   0.02   0.02
     3   6    -0.03  -0.01   0.04    -0.01  -0.07   0.05    -0.00   0.01   0.03
     4   6    -0.03  -0.01   0.04    -0.02  -0.09   0.04    -0.00   0.01   0.03
     5   6    -0.01  -0.01   0.02    -0.01  -0.08  -0.00     0.00   0.01   0.02
     6   6     0.01  -0.00  -0.00    -0.00  -0.03  -0.06     0.01   0.02   0.01
     7   6     0.02  -0.00  -0.01    -0.01  -0.00  -0.09     0.02   0.02  -0.01
     8   6     0.02   0.00  -0.01     0.00   0.00  -0.14     0.02   0.02  -0.01
     9   6     0.02   0.00  -0.01     0.01  -0.01  -0.15     0.01   0.02   0.00
    10   6     0.01   0.00  -0.00     0.01  -0.03  -0.11     0.01   0.02   0.01
    11   1    -0.02  -0.01   0.02     0.01  -0.03   0.04     0.00   0.02   0.03
    12   1    -0.04  -0.01   0.05    -0.02  -0.11   0.05    -0.01   0.01   0.03
    13   1    -0.01  -0.01   0.02    -0.02  -0.09  -0.01     0.00   0.01   0.02
    14   1     0.02  -0.01  -0.01    -0.02   0.00  -0.07     0.02   0.03  -0.02
    15   1     0.02   0.01  -0.01     0.03  -0.00  -0.19     0.01   0.02   0.00
    16   1     0.01   0.00  -0.00     0.02  -0.03  -0.12     0.00   0.01   0.02
    17   7    -0.00  -0.01   0.00     0.00  -0.03  -0.01     0.01   0.02   0.01
    18   7     0.01  -0.00  -0.01    -0.01  -0.02  -0.05     0.01   0.02  -0.00
    19  77     0.01  -0.01  -0.01    -0.01  -0.01  -0.01     0.01   0.02   0.00
    20   8    -0.01  -0.01  -0.01     0.01  -0.00   0.01    -0.02   0.02   0.08
    21   8    -0.08  -0.03  -0.03    -0.00   0.02   0.01    -0.02   0.01  -0.01
    22   8    -0.00  -0.00  -0.01    -0.00  -0.09   0.05     0.06  -0.05   0.02
    23   5     0.01   0.02  -0.01    -0.01   0.01  -0.01    -0.00   0.02  -0.01
    24   5     0.00  -0.01  -0.01     0.00  -0.00  -0.01     0.00   0.02   0.01
    25   5     0.01  -0.01  -0.00    -0.02  -0.01   0.02     0.02   0.01  -0.00
    26   8     0.02  -0.02   0.01    -0.04   0.05   0.02    -0.00   0.04  -0.02
    27   8    -0.01  -0.02   0.01     0.01   0.01  -0.03     0.02   0.02  -0.03
    28   6    -0.01  -0.03   0.02     0.01   0.01  -0.02    -0.01   0.01   0.01
    29   6    -0.02  -0.02   0.01     0.02   0.00   0.00    -0.01   0.03   0.10
    30   6    -0.00  -0.01  -0.00    -0.01  -0.08   0.09     0.06  -0.05   0.02
    31   6     0.01  -0.02   0.01    -0.03   0.01   0.03     0.03   0.00  -0.03
    32   6    -0.04  -0.02  -0.02    -0.01   0.03  -0.00    -0.03   0.01  -0.01
    33   6     0.05   0.11   0.00    -0.01   0.02  -0.01    -0.02   0.02  -0.02
    34   8     0.11   0.10   0.02    -0.01   0.01  -0.02     0.00   0.02  -0.01
    35   6    -0.04  -0.00   0.00     0.04   0.01   0.01     0.03   0.12   0.13
    36   1    -0.04   0.00  -0.00     0.04   0.02  -0.00     0.04   0.15   0.07
    37   1    -0.05  -0.00   0.02     0.04   0.02   0.01     0.04   0.14   0.15
    38   1    -0.05   0.01  -0.00     0.04   0.01   0.02     0.03   0.12   0.18
    39   6    -0.02  -0.02   0.02     0.01  -0.00   0.01    -0.06  -0.01   0.17
    40   1    -0.03  -0.03   0.03     0.02   0.00   0.00    -0.06  -0.01   0.19
    41   1    -0.01  -0.03   0.02    -0.00  -0.01   0.01    -0.08  -0.08   0.15
    42   1    -0.03  -0.01   0.01     0.02  -0.01   0.03    -0.06   0.01   0.23
    43   6    -0.02  -0.03   0.02     0.03   0.02  -0.04     0.03   0.04  -0.01
    44   1    -0.03  -0.04   0.03     0.03   0.02  -0.04     0.01   0.04   0.03
    45   1    -0.03  -0.03   0.02     0.04   0.02  -0.03     0.06   0.09  -0.01
    46   1    -0.02  -0.04   0.03     0.02   0.02  -0.05     0.03   0.02  -0.07
    47   6    -0.01  -0.04   0.02    -0.01   0.00  -0.03    -0.06  -0.06  -0.01
    48   1    -0.01  -0.04   0.02    -0.01   0.01  -0.05    -0.05  -0.07  -0.07
    49   1    -0.00  -0.04   0.02    -0.02  -0.00  -0.02    -0.08  -0.10   0.01
    50   1    -0.01  -0.04   0.03    -0.00   0.00  -0.03    -0.07  -0.08   0.02
    51   6    -0.17  -0.01  -0.05    -0.00   0.04   0.01    -0.05   0.01  -0.02
    52   1    -0.16   0.01  -0.06    -0.01   0.05   0.01    -0.06   0.01  -0.03
    53   1    -0.21   0.07  -0.08    -0.00   0.03   0.02    -0.05   0.01  -0.03
    54   1    -0.22  -0.09  -0.05    -0.00   0.05   0.02    -0.06  -0.00  -0.01
    55   6     0.03  -0.15   0.00    -0.01   0.05  -0.00    -0.03  -0.00   0.00
    56   1     0.10  -0.15   0.04    -0.01   0.04  -0.01    -0.03   0.00   0.01
    57   1     0.07  -0.17   0.02    -0.02   0.06  -0.01    -0.04  -0.01   0.00
    58   1    -0.02  -0.23  -0.03    -0.01   0.05   0.01    -0.04  -0.01   0.00
    59   6    -0.03   0.24  -0.03    -0.01   0.01  -0.01    -0.02   0.03  -0.05
    60   1     0.04   0.34   0.00    -0.00  -0.00  -0.03    -0.00   0.03  -0.07
    61   1    -0.11   0.25  -0.07     0.00  -0.00   0.02    -0.01   0.02  -0.04
    62   1    -0.07   0.25  -0.05    -0.01   0.04  -0.00    -0.04   0.03  -0.06
    63   6     0.15   0.11   0.03    -0.02   0.03  -0.03    -0.03   0.01  -0.01
    64   1     0.11   0.11   0.02    -0.02   0.04  -0.02    -0.04   0.00  -0.02
    65   1     0.22   0.03   0.06    -0.02   0.04  -0.03    -0.03   0.00   0.00
    66   1     0.21   0.21   0.04    -0.02   0.02  -0.04    -0.02   0.02  -0.02
    67   6    -0.00  -0.02   0.04    -0.00  -0.00  -0.05     0.04  -0.02  -0.10
    68   1     0.01  -0.04   0.05    -0.01   0.06  -0.09     0.01   0.01  -0.13
    69   1    -0.01  -0.01   0.04     0.02  -0.04  -0.09     0.06  -0.03  -0.11
    70   1    -0.01  -0.02   0.04     0.01  -0.02  -0.05     0.06  -0.04  -0.12
    71   6     0.03  -0.03   0.01    -0.06   0.07   0.08     0.00   0.03  -0.01
    72   1     0.03  -0.05   0.03    -0.07   0.13   0.04    -0.02   0.07  -0.05
    73   1     0.02  -0.03   0.02    -0.04   0.03   0.10     0.03   0.00  -0.01
    74   1     0.04  -0.04  -0.00    -0.07   0.10   0.15    -0.01   0.06   0.05
    75   6     0.01  -0.01  -0.03    -0.03  -0.06   0.19     0.06  -0.04   0.11
    76   1     0.02  -0.02  -0.03    -0.04   0.01   0.20     0.03   0.01   0.12
    77   1     0.01  -0.01  -0.02    -0.04  -0.06   0.24     0.06  -0.04   0.12
    78   1     0.00   0.00  -0.04    -0.03  -0.13   0.22     0.07  -0.07   0.14
    79   6    -0.02   0.01   0.01     0.01  -0.16   0.07     0.10  -0.12   0.00
    80   1    -0.03   0.01   0.02     0.03  -0.18  -0.00     0.11  -0.13  -0.05
    81   1    -0.02   0.02  -0.01     0.02  -0.23   0.11     0.12  -0.15   0.04
    82   1    -0.01   0.00   0.01     0.00  -0.15   0.10     0.10  -0.11   0.01
    83   1    -0.02  -0.00   0.00     0.00   0.03   0.04    -0.02  -0.07   0.01
    84   6    -0.00   0.02   0.01     0.04   0.08   0.04    -0.05  -0.08  -0.07
    85   8     0.01   0.02   0.01     0.07   0.08   0.02    -0.06  -0.09  -0.08
    86   6    -0.02   0.03   0.01     0.02   0.09   0.06    -0.03  -0.10  -0.06
    87   1    -0.02   0.03   0.02     0.01   0.11   0.07    -0.04  -0.09  -0.06
    88   1    -0.03   0.02   0.01    -0.00   0.07   0.07    -0.01  -0.10  -0.05
    89   6    -0.02   0.00  -0.00     0.01   0.05   0.05    -0.04  -0.06  -0.01
    90   1    -0.02   0.01  -0.01    -0.00   0.07   0.06    -0.03  -0.07  -0.03
    91   1    -0.02  -0.01  -0.00     0.02   0.05   0.04    -0.06  -0.04   0.00
    92   7    -0.00   0.01  -0.00     0.04   0.06   0.04    -0.05  -0.06  -0.05
    93   6     0.01  -0.00  -0.01     0.06   0.05   0.01    -0.06  -0.05  -0.05
    94   1     0.01  -0.01  -0.01     0.05   0.02   0.01    -0.05  -0.06  -0.02
    95   1     0.01  -0.01  -0.01     0.07   0.05   0.01    -0.08  -0.02  -0.04
    96   1     0.02  -0.00  -0.00     0.08   0.05   0.01    -0.06  -0.05  -0.08
    97   6    -0.01   0.04   0.02     0.03   0.11   0.06    -0.03  -0.11  -0.09
    98   1    -0.00   0.03   0.01     0.04   0.08   0.04    -0.02  -0.11  -0.08
    99   1     0.00   0.05   0.02     0.05   0.14   0.05    -0.05  -0.12  -0.10
   100   1     0.03   0.00  -0.01     0.00   0.02  -0.17     0.02   0.03  -0.02
   101   1    -0.04  -0.02   0.05    -0.01  -0.08   0.08    -0.01   0.01   0.04
   102   1    -0.02   0.05   0.02     0.01   0.12   0.08    -0.01  -0.12  -0.11
                      4                      5                      6
                      A                      A                      A
 Frequencies --     30.6067                33.8888                36.7547
 Red. masses --      4.1171                 3.8556                 4.2917
 Frc consts  --      0.0023                 0.0026                 0.0034
 IR Inten    --      0.3532                 0.0964                 0.2938
  Atom AN      X      Y      Z        X      Y      Z        X      Y      Z
     1   6     0.00   0.01  -0.01     0.00  -0.02  -0.00    -0.00  -0.03  -0.02
     2   6     0.02   0.01  -0.06    -0.00  -0.02   0.02     0.03  -0.01  -0.05
     3   6     0.03   0.03  -0.08    -0.00  -0.03   0.03     0.05  -0.01  -0.07
     4   6     0.03   0.04  -0.07    -0.00  -0.03   0.02     0.04  -0.02  -0.06
     5   6     0.01   0.02  -0.03     0.00  -0.03   0.01     0.01  -0.03  -0.03
     6   6    -0.01  -0.01   0.03     0.01  -0.01  -0.02    -0.03  -0.04   0.01
     7   6    -0.03  -0.04   0.08     0.01  -0.00  -0.03    -0.05  -0.03   0.02
     8   6    -0.05  -0.06   0.13     0.03   0.01  -0.07    -0.09  -0.06   0.08
     9   6    -0.05  -0.04   0.12     0.04   0.02  -0.09    -0.10  -0.08   0.10
    10   6    -0.02  -0.02   0.06     0.03   0.00  -0.06    -0.07  -0.07   0.07
    11   1     0.02   0.00  -0.07    -0.00  -0.02   0.03     0.04  -0.01  -0.05
    12   1     0.04   0.05  -0.08    -0.01  -0.04   0.03     0.05  -0.02  -0.07
    13   1     0.01   0.03  -0.02    -0.00  -0.03   0.00     0.00  -0.03  -0.02
    14   1    -0.03  -0.05   0.09     0.01  -0.01  -0.02    -0.04  -0.01  -0.00
    15   1    -0.06  -0.05   0.15     0.06   0.03  -0.12    -0.13  -0.11   0.15
    16   1    -0.02  -0.01   0.05     0.04   0.01  -0.08    -0.08  -0.09   0.09
    17   7     0.01  -0.00  -0.03     0.00  -0.02   0.01     0.01  -0.02  -0.03
    18   7    -0.01  -0.02   0.03     0.00  -0.01  -0.01    -0.02  -0.02  -0.01
    19  77     0.00  -0.01  -0.02    -0.00  -0.02   0.01     0.00  -0.00  -0.03
    20   8     0.02  -0.01   0.01    -0.00  -0.01   0.04    -0.03  -0.00   0.04
    21   8     0.00  -0.02  -0.03     0.01   0.06   0.04     0.03   0.04   0.00
    22   8     0.00  -0.03  -0.01    -0.02   0.05  -0.02    -0.01  -0.00  -0.02
    23   5     0.01  -0.02  -0.02    -0.01   0.02   0.01     0.02   0.01  -0.02
    24   5     0.01  -0.00  -0.01     0.00  -0.01   0.00    -0.01  -0.00  -0.01
    25   5    -0.00   0.00  -0.02    -0.01  -0.01   0.01     0.00  -0.01  -0.01
    26   8    -0.02   0.04  -0.02     0.02  -0.06   0.01     0.02  -0.04   0.00
    27   8     0.01   0.01  -0.01     0.02  -0.00  -0.04     0.00  -0.01  -0.05
    28   6     0.01   0.01   0.04     0.01  -0.01  -0.02    -0.02  -0.02  -0.01
    29   6     0.01   0.01   0.05     0.01  -0.00   0.05    -0.03   0.00   0.05
    30   6    -0.02  -0.01   0.00    -0.02   0.04  -0.04     0.00  -0.02  -0.01
    31   6    -0.02   0.04  -0.02     0.00  -0.03   0.01     0.02  -0.05   0.02
    32   6     0.01  -0.03  -0.02    -0.01   0.09   0.02     0.03   0.06  -0.01
    33   6     0.01  -0.02  -0.01    -0.02   0.05  -0.01     0.03   0.04  -0.02
    34   8     0.02  -0.01  -0.01    -0.03   0.02  -0.02     0.01   0.02  -0.03
    35   6    -0.01   0.07   0.06     0.04   0.06   0.07    -0.01   0.08   0.08
    36   1    -0.02   0.10   0.02     0.05   0.08   0.03     0.03   0.10   0.04
    37   1    -0.01   0.10   0.10     0.06   0.08   0.08    -0.01   0.08   0.09
    38   1    -0.00   0.06   0.07     0.05   0.05   0.12    -0.02   0.10   0.12
    39   6     0.02  -0.02   0.11    -0.02  -0.03   0.10    -0.08  -0.03   0.11
    40   1     0.01  -0.00   0.14    -0.02  -0.02   0.10    -0.08  -0.03   0.13
    41   1     0.03  -0.06   0.10    -0.05  -0.07   0.09    -0.09  -0.09   0.10
    42   1     0.02  -0.01   0.11    -0.02  -0.02   0.14    -0.08  -0.01   0.16
    43   6     0.00   0.04   0.05     0.04   0.02  -0.04     0.00  -0.00  -0.03
    44   1     0.00   0.04   0.09     0.04   0.02  -0.03    -0.02  -0.01  -0.00
    45   1    -0.00   0.08   0.04     0.07   0.05  -0.04     0.03   0.04  -0.03
    46   1     0.01   0.04   0.04     0.04   0.01  -0.09     0.01  -0.02  -0.08
    47   6     0.02  -0.03   0.04    -0.04  -0.05  -0.04    -0.06  -0.08  -0.03
    48   1     0.01  -0.03   0.02    -0.04  -0.05  -0.08    -0.05  -0.10  -0.08
    49   1     0.02  -0.06   0.04    -0.07  -0.07  -0.02    -0.08  -0.10  -0.01
    50   1     0.02  -0.03   0.07    -0.05  -0.05  -0.03    -0.08  -0.10  -0.00
    51   6     0.01  -0.03  -0.02     0.02   0.11   0.06     0.05   0.07   0.02
    52   1     0.02  -0.03  -0.02     0.01   0.12   0.05     0.05   0.08   0.02
    53   1     0.01  -0.02  -0.02     0.03   0.08   0.08     0.05   0.06   0.04
    54   1     0.01  -0.03  -0.03     0.03   0.13   0.08     0.05   0.08   0.02
    55   6     0.02  -0.03  -0.03    -0.02   0.13   0.01     0.03   0.08  -0.02
    56   1     0.02  -0.03  -0.03    -0.04   0.12  -0.02     0.02   0.07  -0.04
    57   1     0.03  -0.03  -0.02    -0.04   0.16  -0.00     0.03   0.10  -0.03
    58   1     0.02  -0.03  -0.03    -0.01   0.15   0.03     0.03   0.08  -0.01
    59   6     0.01  -0.02  -0.02    -0.01   0.02   0.02     0.03   0.03   0.00
    60   1     0.02  -0.02  -0.03    -0.03  -0.00   0.01     0.02   0.02   0.00
    61   1     0.01  -0.02  -0.01     0.00   0.01   0.03     0.03   0.02   0.01
    62   1     0.01  -0.01  -0.02     0.01   0.02   0.03     0.04   0.04   0.01
    63   6     0.02  -0.03  -0.01    -0.05   0.08  -0.04     0.02   0.06  -0.04
    64   1     0.02  -0.03  -0.01    -0.04   0.10  -0.03     0.04   0.07  -0.03
    65   1     0.02  -0.03  -0.01    -0.06   0.09  -0.06     0.02   0.06  -0.06
    66   1     0.02  -0.02  -0.00    -0.06   0.05  -0.06     0.02   0.04  -0.04
    67   6     0.00   0.04  -0.06    -0.02  -0.03   0.08    -0.01  -0.06   0.04
    68   1     0.00   0.07  -0.07    -0.03  -0.09   0.11    -0.02  -0.09   0.05
    69   1     0.02   0.02  -0.07    -0.05   0.01   0.12    -0.04  -0.04   0.05
    70   1     0.01   0.05  -0.06    -0.03  -0.01   0.08    -0.01  -0.07   0.04
    71   6    -0.05   0.07  -0.01     0.04  -0.08  -0.02     0.05  -0.07   0.02
    72   1    -0.05   0.10  -0.03     0.06  -0.13   0.03     0.06  -0.09   0.04
    73   1    -0.05   0.07  -0.01     0.02  -0.05  -0.02     0.04  -0.07   0.03
    74   1    -0.07   0.07   0.02     0.06  -0.10  -0.08     0.07  -0.06  -0.00
    75   6    -0.05  -0.01   0.04     0.00   0.03  -0.13     0.03  -0.01  -0.04
    76   1    -0.06   0.01   0.05     0.02  -0.02  -0.14     0.04  -0.02  -0.04
[...]
 330,-0.00000556,-0.00000018,-0.00000538,-0.00000363,0.00000158,0.00000
 372,-0.00000406,-0.00000419,0.00000012,0.00000207,0.00000005,-0.000001
 71,-0.00001039,-0.00000670,0.00000145,0.00000299,0.00000320,-0.0000044
 5,-0.00000428,-0.00000773,-0.00000083,0.00000142,0.00000230,0.00000287
 ,-0.00000806,-0.00000786,0.00000262,0.00000090,0.00000192,0.00000005,0
 .00000188,0.00000032,-0.00000059,-0.00000611,-0.00000314,-0.00000473,-
 0.00001246,-0.00001172,0.00000874,-0.00004239,-0.00006664,0.00002439,0
 .00002194,0.00006826,-0.00002691,0.00003325,0.00001297,-0.00001098,0.0
 0000284,0.00000115,-0.00001629,-0.00001757,-0.00002544,0.00000298,0.00
 000402,-0.00004193,0.00001040,0.00001377,0.00000351,-0.00001145,-0.000
 00211,0.00000587,-0.00000137,0.00002499,0.00004008,-0.00002752,-0.0000
 2246,0.00000246,0.00001296,0.00000671,-0.00000726,0.00000407,0.0000064
 7,0.00000241,-0.00000801,-0.00000122,0.00000329,0.00000513,-0.00001531
 ,-0.00003176,0.00001862,-0.00000740,0.00002187,-0.00000178,0.00000183,
 0.00001068,-0.00000774,0.00000190,-0.00000275,-0.00001296,-0.00926141,
 0.33103560,-0.00087809,0.00073013,-0.00087146,0.00443295,-0.01956031,-
 0.00250494,-0.00947913,-0.08662597,-0.07174194,0.00038255,0.01201809,0
 .00665723,-0.00484449,0.00047585,0.00345104,0.00074266,0.00026080,-0.0
 0076031,0.00006396,-0.00007096,-0.00001606,-0.00006336,0.00003018,-0.0
 0005104,0.00009947,0.00004679,0.00005158,-0.00008167,-0.00014505,-0.00
 005099,0.00160537,0.00098761,-0.00143960,0.00224713,0.00039098,-0.0016
 9783,-0.00012141,0.00060460,0.00033993,-0.00000649,0.00000020,0.000006
 65,0.00000498,-0.00000431,-0.00000766,0.00001578,-0.00002403,0.0000546
 1,-0.00682488,-0.00306414,0.00181435,-0.00003187,0.00004427,0.00010725
 ,0.00048426,-0.00000449,-0.00006484,0.00001111,0.00026070,0.00001186,-
 0.00002791,-0.00001347,-0.00001704,-0.00001901,-0.00003178,-0.00005850
 ,0.00004582,-0.00003566,-0.00005963,0.00012117,-0.00032044,0.00003456,
 -0.00008039,0.00010706,0.00016640,-0.00010580,-0.00006708,-0.00004229,
 -0.00002328,0.00012190,-0.00000985,-0.00002057,-0.00004627,-0.00000043
 ,-0.00000063,-0.00003583,0.00001399,0.00000566,0.00000372,0.00000599,0
 .00003199,0.00000032,0.00003445,0.00003174,0.00000584,0.00001999,0.000
 00082,-0.00000321,0.00002322,-0.00001316,0.00004306,-0.00000734,-0.000
 02207,-0.00000403,0.00000143,0.00000340,0.00000505,0.00000752,0.000003
 20,0.00000161,-0.00000264,0.00001371,0.00000541,-0.00001128,-0.0000350
 2,-0.00002992,0.00000890,0.00001935,0.00001149,0.00001014,-0.00001549,
 -0.00000205,0.00000635,0.00001425,0.00003433,-0.00002502,0.00000295,0.
 00000954,-0.00000133,-0.00000632,0.00000389,-0.00000151,-0.00000175,-0
 .00000321,-0.00000211,0.00000672,0.00000121,0.,0.00000711,0.00001186,-
 0.00000205,0.00000950,0.00000439,0.00000061,-0.00000346,-0.00001128,0.
 00000449,-0.00000656,0.00000426,0.00000192,-0.00001247,-0.00000395,-0.
 00000900,0.00000203,0.00000090,0.00000085,-0.00000391,-0.00000598,0.00
 000011,0.00000137,0.00000328,0.00000046,-0.00003288,0.00000736,-0.0000
 3839,0.00000560,0.00001947,0.00005352,0.00001594,0.00000777,-0.0000095
 3,0.00000873,-0.00000739,0.00000284,0.00000194,-0.00000203,-0.00000682
 ,-0.00000479,0.00000084,-0.00000054,0.00000033,-0.00000077,-0.00000071
 ,0.00000037,0.00000099,0.00000108,0.00001216,0.00000694,-0.00000302,0.
 00000143,0.00000173,-0.00000147,0.00000266,-0.00000709,0.00000617,-0.0
 0000996,-0.00000156,-0.00000016,-0.00000540,-0.00000139,-0.00000252,0.
 00000063,-0.00000124,0.00000217,0.00000220,-0.00000191,-0.00000190,-0.
 00000452,0.00000137,-0.00000270,-0.00000720,-0.00000150,-0.00000789,0.
 00000143,0.00000011,0.00000151,-0.00000441,-0.00000414,-0.00000032,0.0
 0000074,0.00000252,0.00000013,-0.00000462,-0.00000181,0.00000118,-0.00
 000128,0.00000264,-0.00000149,-0.00000131,-0.00000318,0.00000004,0.000
 00139,-0.00000010,-0.00000112,0.00000149,-0.00000266,0.00000050,-0.000
 00090,0.00000161,0.00000018,0.00000102,-0.00000120,-0.00000242,-0.0000
 0209,-0.00000085,-0.00000122,-0.00001894,-0.00002312,0.00000058,-0.000
 09421,-0.00007646,0.00003051,0.00003664,0.00009598,-0.00002266,0.00007
 948,0.00003150,-0.00003851,0.00001739,-0.00000818,-0.00003174,-0.00007
 675,-0.00009107,0.00003487,-0.00002262,-0.00005257,-0.00000247,0.00003
 358,0.00000052,-0.00003003,0.00000664,0.00000825,-0.00000150,0.0000439
 5,0.00005394,-0.00000606,-0.00004047,-0.00000703,-0.00000106,0.0000105
 1,-0.00000381,0.00000232,0.00001052,0.00000013,-0.00000580,-0.00000179
 ,0.00000579,0.00000352,-0.00001360,-0.00001076,0.00001332,-0.00000973,
 0.00001254,-0.00001494,-0.00000269,0.00000973,0.00000207,-0.00000976,-
 0.00001474,0.00002525,0.01236701,0.09394028,0.06667410,-0.00014079,-0.
 00004224,-0.00010484,-0.00001018,-0.00001992,-0.00002236,-0.00002301,0
 .00010650,-0.00006247,0.00003000,-0.00006870,-0.00000130,0.00007811,0.
 00002926,0.00001588,0.00002069,0.00000339,-0.00007713,-0.00000618,0.00
 004468,0.00000489,0.00001612,0.00001245,0.00001535,-0.00000733,0.00000
 954,-0.00000191,-0.00001884,0.00001180,0.00000980,-0.00001282,0.000004
 30,-0.00001491,-0.00000155,0.00000523,0.00008268,-0.00001567,-0.000029
 06,0.00000542,0.00000664,0.00000530,-0.00000238,0.00000146,-0.00000325
 ,0.00000020,0.00001262,0.00001350,-0.00001074,0.00006394,-0.00005654,0
 .00009486,0.00000892,0.00000639,0.00003016,-0.00004023,0.00002671,-0.0
 0006935,-0.00003414,0.00002480,0.00004128,-0.00001536,-0.00000997,0.00
 009808,-0.00002867,-0.00001181,0.00002483,0.00007146,-0.00002017,-0.00
 011733,0.00004013,-0.00001740,-0.00001076,0.00002654,0.00000181,-0.000
 01318,-0.00003559,-0.00001195,0.00001269,-0.00002757,0.00002131,0.0000
 0509,0.00001169,-0.00001513,-0.00000480,0.00002065,-0.00001700,-0.0000
 1274,0.00002418,0.00002195,0.00000552,0.00001050,0.00000294,0.00000360
 ,0.00000086,-0.00001838,-0.00003637,0.00000857,0.00000906,-0.00002370,
 -0.00003415,0.00001137,0.00006577,-0.00000135,0.00000034,-0.00000323,0
 .00001369,0.00000795,0.00000677,-0.00000924,0.00000460,0.00000245,-0.0
 0000020,-0.00001807,-0.00000404,-0.00000500,-0.00000287,0.00000531,-0.
 00000072,0.00000253,0.00000011,-0.00000256,0.,0.00000487,0.00000342,0.
 00000082,-0.00000436,-0.00000082,-0.00000040,-0.00000176,-0.00000096,0
 .00000283,-0.00000019,0.00000168,-0.00000015,0.00000312,-0.00000113,-0
 .00000157,0.00000051,-0.00000226,-0.00000048,0.00000100,-0.00000027,-0
 .00000107,0.00000071,0.00000126,-0.00000153,-0.00000065,-0.00000271,0.
 00000351,0.00000087,0.00000018,0.00000336,0.00000659,-0.00000221,-0.00
 000104,0.00000370,0.00000166,0.00000178,-0.00000112,0.00000115,-0.0000
 0219,-0.00000091,0.00000123,0.00000142,0.00000656,-0.00000352,0.000001
 13,-0.00000310,0.00000022,0.00000219,0.00000457,0.00000164,-0.00000346
 ,-0.00000144,-0.00000064,-0.00000148,0.00000442,0.00000158,-0.00000027
 ,-0.00000144,0.00000126,0.00000238,-0.00000220,-0.00000233,-0.00000160
 ,0.00000275,-0.00000406,-0.00000179,0.00000245,-0.00000098,0.,0.000003
 28,0.00000159,0.00000151,-0.00000070,0.00000027,0.00000095,-0.00000103
 ,-0.00000071,0.00000055,-0.00000071,-0.00000050,0.00000098,0.00000206,
 0.00000188,-0.00000125,0.00000056,-0.00000171,-0.00000066,-0.00000152,
 -0.00000164,0.00000101,0.00000132,-0.00000162,0.00000085,0.00000205,-0
 .00000071,-0.00000105,-0.00000101,0.00000114,-0.00000036,-0.00000057,0
 .00000004,-0.00000355,-0.00000173,0.00000127,0.00000108,-0.00000065,-0
 .00000352,-0.00000258,0.00000016,0.00000010,0.00000363,0.00000228,-0.0
 0000062,-0.00000099,-0.00000269,0.00000341,-0.00000038,-0.00000026,0.0
 0000108,0.00000386,0.00000192,-0.00000351,-0.00000246,0.00000122,-0.00
 003095,0.00006309,0.00000048,-0.00242254,0.00440964,-0.00135274,0.0003
 7225,0.00005882,-0.00007349,-0.01608123,-0.01926639,-0.00880775,0.0010
 6867,0.00000224,0.00007647,0.00059483,-0.00035242,0.00077907,0.0000967
 0,-0.00051894,0.00003798,0.00008939,-0.00000538,0.00001727,-0.00004090
 ,0.00006649,-0.00003350,-0.00143904,-0.00139427,-0.00079740,-0.0000367
 6,0.00046998,-0.00009361,-0.00011702,-0.00005448,-0.00002556,-0.000168
 44,-0.00007008,-0.00005385,0.00004905,0.00002120,0.00001907,-0.1515252
 5,-0.11549119,-0.05927966,-0.00536502,-0.00431712,-0.00322098,0.011133
 27,0.01139773,0.00491044,-0.00000056,-0.00000044,-0.00000158,-0.000024
 03,0.00001671,0.00002429,0.16386236,-0.00009472,-0.00007728,-0.0000688
 9,0.00003568,0.00003791,0.00003165,-0.00005941,0.00006019,-0.00002601,
 -0.00007029,-0.00012790,-0.00000278,0.00001280,0.00009237,0.00005801,0
 .00007197,0.00001650,-0.00005574,0.00000074,0.00002214,-0.00000082,0.0
 0000883,0.00002096,0.00001764,-0.00002253,0.00004063,0.00001172,-0.000
 01250,-0.00001603,0.00003162,0.00000691,0.00000416,-0.00000025,-0.0000
 0820,0.00002359,0.00005810,-0.00002847,-0.00004277,-0.00002305,0.00000
 352,-0.00000125,0.00000061,0.00000144,0.00000748,-0.00001021,0.0000071
 4,0.00005325,-0.00008511,0.00007261,-0.00007728,0.00007925,-0.00000778
 ,-0.00000393,-0.00000383,-0.00002391,-0.00001510,0.00002753,-0.0000379
 8,0.00003809,0.00000509,-0.00001953,-0.00000349,0.00006290,-0.00003776
 ,-0.00001649,-0.00001030,0.00004849,-0.00000318,-0.00009245,0.00006136
 ,-0.00003803,0.00000196,0.00006347,0.00002375,0.00000289,-0.00004459,-
 0.00001824,0.00000306,-0.00004523,0.00002888,-0.00000639,0.00001231,-0
 .00001716,-0.00000330,0.00002017,-0.00001914,0.00000429,0.00002033,0.0
 0001153,0.00000183,0.00001637,0.00000641,0.00000764,0.00000788,-0.0000
 1005,-0.00003240,0.00001056,0.00000885,-0.00002249,-0.00003450,0.00000
 880,0.00005378,0.00000075,0.00000311,-0.00000206,0.00000457,0.00000265
 ,0.00000368,-0.00000528,0.00000328,-0.00000088,-0.00000024,-0.00000827
 ,-0.00000062,-0.00000123,0.00000228,0.00000033,-0.00000282,0.00000258,
 -0.00000067,-0.00000001,-0.00000104,0.00000173,0.00000171,-0.00000156,
 -0.00000069,-0.00000206,0.00000012,0.00000026,-0.00000092,0.00000297,-
 0.00000056,0.00000131,-0.00000023,0.00000120,-0.00000135,-0.00000187,0
 .00000004,-0.00000212,0.00000112,0.00000090,-0.00000024,-0.00000175,0.
 00000023,0.00000159,-0.00000148,-0.00000146,-0.00000213,0.00000360,0.0
 0000112,-0.00000060,0.00000031,0.00000329,-0.00000242,0.00000049,0.000
 00360,0.00000118,0.00000026,-0.00000108,0.00000118,-0.00000135,-0.0000
 0206,0.00000142,0.00000316,0.00000317,0.00000058,-0.00000214,-0.000001
 98,-0.00000254,0.00000164,0.00000549,-0.00000011,-0.00000071,-0.000003
 97,-0.00000117,-0.00000115,0.00000269,0.00000081,0.00000026,-0.0000015
 9,0.00000154,0.00000178,-0.00000184,-0.00000232,-0.00000175,0.00000319
 ,-0.00000239,0.00000012,0.00000197,-0.00000100,-0.00000083,0.00000334,
 0.00000111,0.00000022,-0.00000150,-0.00000045,0.00000122,-0.00000119,-
 0.00000184,-0.00000008,-0.00000075,0.00000036,0.00000129,0.00000142,0.
 00000176,-0.00000027,0.00000152,-0.00000280,-0.00000084,-0.00000211,-0
 .00000161,-0.00000035,0.00000050,-0.00000100,0.00000132,0.00000190,-0.
 00000140,-0.00000162,-0.00000136,0.00000130,0.00000055,-0.00000086,-0.
 00000059,-0.00000261,0.00000036,0.00000283,0.00000174,-0.00000428,-0.0
 0000463,-0.00000221,-0.00000076,0.00000098,0.00000246,0.00000450,-0.00
 000128,-0.00000046,-0.00000130,0.00000076,0.00000109,-0.00000021,0.000
 00130,0.00000095,0.00000082,-0.00000304,-0.00000190,-0.00000027,-0.000
 00530,0.00001487,-0.00000005,0.00345287,-0.00440664,0.00154727,-0.0022
 0135,0.00110699,-0.00106871,0.01212419,0.01152466,0.00693748,-0.000840
 78,0.00057665,-0.00036925,-0.00080623,0.00054673,-0.00042585,-0.000078
 74,0.00011259,-0.00003971,-0.00003713,-0.00003888,-0.00000233,-0.00002
 227,0.00000100,-0.00001132,0.00036184,0.00122014,0.00014382,0.00019397
 ,-0.00009153,0.00012680,0.00000788,0.00002489,0.00002080,0.00003488,0.
 00004705,0.00000743,0.00002880,0.00002444,0.00001563,-0.11615406,-0.17
 589167,-0.06708633,-0.01006532,-0.01221200,-0.00859526,-0.01083512,-0.
 01072787,-0.00341371,-0.00000119,-0.00000094,-0.00000609,-0.00000562,0
 .00000593,-0.00000137,0.12493604,0.18813925,0.00011186,0.00004285,0.00
 004654,-0.00002796,-0.00008721,-0.00005162,0.00006000,-0.00010406,0.00
 007374,-0.00012247,0.00004072,0.00007334,-0.00011181,-0.00004132,0.000
 02837,-0.00003985,-0.00003089,0.00000926,0.00001760,0.00001054,0.00000
 820,-0.00000177,-0.00000555,0.00000522,0.00000648,-0.00001246,0.000000
 89,-0.00003498,0.00000141,-0.00002669,0.00000415,-0.00000868,-0.000006
 87,0.00000229,-0.00001260,-0.00004720,0.00002059,0.00002724,0.00001563
 ,0.00000401,0.00000546,-0.00000367,0.00000099,0.00000026,-0.00000221,-
 0.00002118,-0.00005863,0.00005378,-0.00010106,0.00013472,-0.00002383,0
 .00000611,-0.00001233,0.00002605,-0.00002713,0.00002944,-0.00002380,-0
 .00003794,0.00001613,0.00000772,-0.00001492,-0.00001104,0.00005190,-0.
 00003261,-0.00002473,0.00000125,0.00004970,-0.00001071,-0.00006623,0.0
 0003681,-0.00000672,0.00000226,0.00004323,0.00001881,-0.00000359,-0.00
 003707,-0.00001691,0.00000249,-0.00002941,0.00001531,-0.00000207,0.000
 00961,-0.00001209,-0.00000262,0.00001985,-0.00001993,0.00000154,0.0000
 1945,0.00001944,0.00000299,0.00001172,0.00000467,0.00000704,0.00000708
 ,-0.00000542,-0.00001572,0.00000891,0.00000542,-0.00001613,-0.00002617
 ,0.00000490,0.00003741,-0.00000089,0.00000069,-0.00000416,0.00000774,0
 .00000354,0.00000395,-0.00000687,0.00000377,0.00000042,0.00000061,-0.0
 0001080,-0.00000031,-0.00000239,0.00000014,0.00000245,-0.00000269,0.00
 000197,-0.00000079,0.00000062,-0.00000006,0.00000145,0.00000214,-0.000
 00158,-0.00000024,-0.00000146,-0.00000090,-0.00000085,-0.00000073,0.00
 000249,0.00000008,0.00000138,-0.00000045,0.00000117,-0.00000126,-0.000
 00138,0.00000012,-0.00000113,0.00000012,0.00000068,-0.00000023,-0.0000
 0124,0.00000039,0.00000113,-0.00000126,-0.00000112,-0.00000173,0.00000
 287,0.00000071,-0.00000129,0.00000046,0.00000192,-0.00000106,-0.000000
 29,0.00000251,-0.00000045,-0.00000028,-0.00000088,0.00000116,-0.000000
 26,-0.00000030,-0.00000099,0.00000184,0.00000085,0.00000075,-0.0000035
 0,-0.00000010,-0.00000075,0.00000057,0.00000323,-0.00000066,0.00000161
 ,-0.00000092,-0.00000126,-0.00000062,0.00000181,0.00000022,0.00000031,
 -0.00000126,0.00000111,0.00000118,-0.00000118,-0.00000171,-0.00000132,
 0.00000236,-0.00000109,0.00000012,0.00000154,-0.00000039,-0.00000043,0
 .00000231,0.00000065,-0.00000060,-0.00000091,-0.00000080,0.00000082,-0
 .00000110,-0.00000120,0.00000008,-0.00000097,0.00000040,0.00000069,0.0
 0000117,0.00000178,-0.00000046,0.00000107,-0.00000220,-0.00000076,-0.0
 0000164,-0.00000189,0.00000058,0.00000046,-0.00000046,0.00000053,0.000
 00156,-0.00000122,-0.00000135,-0.00000116,0.00000085,0.00000005,0.0000
 0003,-0.00000091,-0.00000290,-0.00000165,0.,0.00000119,0.00000015,-0.0
 0000224,-0.00000276,0.00000044,0.00000051,0.00000219,0.00000058,-0.000
 00106,-0.00000207,-0.00000166,0.00000217,0.00000010,0.00000037,0.00000
 124,0.00000213,0.00000064,-0.00000305,-0.00000185,0.00000024,-0.000008
 49,0.00004100,0.00000454,-0.00133398,0.00204219,-0.00000774,-0.0002235
 6,0.00009087,0.00054980,-0.00713894,-0.00945314,-0.00537165,0.00042711
 ,-0.00035387,-0.00005932,0.00034379,0.00023259,0.00039859,0.00004894,-
 0.00028573,-0.00001510,0.00002773,-0.00000045,0.00002899,-0.00002686,0
 .00003485,-0.00002686,-0.00080819,-0.00065282,-0.00031667,-0.00000887,
 0.00025004,-0.00005175,-0.00007369,-0.00002670,0.00000002,-0.00008374,
 -0.00004001,-0.00002478,0.00002842,0.00001294,0.00001121,-0.05903053,-
 0.06647922,-0.08347687,0.01554445,0.01636649,0.01049300,-0.01535393,-0
 .01386322,-0.00710441,0.00000411,0.00000321,-0.00000022,0.00000284,0.0
 0000004,0.00000191,0.06790890,0.07219201,0.08479053\\-0.00000473,-0.00
 000174,-0.00000210,-0.00000316,-0.00000466,-0.00000103,-0.00000289,-0.
 00000102,-0.00000482,0.00000245,0.00000206,0.00000337,-0.00000189,-0.0
 0000123,-0.00000376,0.00000142,-0.00000886,0.00000518,0.00000371,-0.00
 000290,-0.00000240,0.00000115,-0.00000513,-0.00000261,-0.00000328,0.00
 000592,0.00000333,-0.00001163,-0.00000101,-0.00000362,0.00000246,-0.00
 000142,-0.00000182,-0.00000060,-0.00000312,-0.00000175,0.00000343,-0.0
 0000259,-0.00000044,-0.00000497,-0.00000116,-0.00000154,0.00000094,-0.
 00000388,-0.00000248,0.00000264,-0.00000266,-0.00000060,-0.00000093,-0
 .00000202,-0.00000206,-0.00000071,0.00000721,0.00000385,0.00000001,-0.
 00000032,0.00000649,-0.00000233,-0.00000454,0.00000170,-0.00000223,0.0
 0000422,-0.00001045,-0.00000382,0.00000598,0.00000102,0.00001092,-0.00
 000489,0.00000136,0.00000521,0.00000936,-0.00000581,0.00001294,-0.0000
 0905,-0.00000538,-0.00000623,0.00001054,0.00000125,-0.00000363,-0.0000
 0095,0.00000123,0.00000614,0.00000228,-0.00000029,0.00000388,-0.000005
 23,0.00000587,0.,-0.00000283,-0.00000126,0.00000093,-0.00000237,-0.000
 00570,0.00000104,0.00000057,0.00000728,0.00000726,0.00000034,-0.000000
 60,-0.00001059,0.00001316,0.00000278,0.00000337,0.00000298,-0.00000196
 ,0.00000244,-0.00000187,0.00000015,0.00000123,0.00000181,0.00000089,0.
 00000268,-0.00000043,0.00000095,-0.00000220,-0.00000022,-0.00000161,0.
 00000211,0.00000125,0.00000165,0.00000196,-0.00000062,0.00000230,0.000
 00200,0.00000068,0.00000093,0.00000285,-0.00000444,-0.00000430,0.00000
 088,0.00000332,0.00000132,-0.00000150,0.00000324,0.00000448,-0.0000010
 6,0.00000144,0.00000140,-0.00000381,-0.00000384,-0.00000196,0.00000232
 ,0.00000115,0.00000179,0.00000516,0.00000055,0.00000133,0.00000115,0.0
 0000272,0.00000131,-0.00000220,-0.00000125,0.,-0.00000034,-0.00000028,
 -0.00000099,-0.00000096,0.00000089,-0.00000278,-0.00000083,-0.00000110
 ,0.00000044,-0.00000109,-0.00000087,-0.00000259,0.00000178,-0.00000045
 ,-0.00000074,-0.00000165,0.,0.00000140,-0.00000143,-0.00000287,-0.0000
 0041,-0.00000093,-0.00000489,0.00000292,-0.00000227,0.00000120,0.00000
 083,0.00000205,-0.00000208,0.00000037,-0.00000282,0.00000144,-0.000000
 20,-0.00000491,-0.00000146,-0.00000230,0.00000102,-0.00000047,-0.00000
 104,0.00000437,0.00000086,0.00000203,0.00000353,-0.00000132,0.00000189
 ,-0.00000109,0.00000394,0.00000487,-0.00000123,0.00000122,0.00000088,0
 .00000269,0.00000352,0.00000036,0.00000226,0.00000394,0.00000275,-0.00
 000020,-0.00000521,0.00000455,-0.00000067,0.00000126,-0.00000014,-0.00
 000082,0.00000314,-0.00000098,-0.00000240,0.00000220,-0.00000194,-0.00
 000173,0.00000512,0.00000356,-0.00000182,0.00000079,-0.00000203,-0.000
 00256,-0.00000066,-0.00000070,-0.00000201,0.00000026,-0.00000228,-0.00
 000117,0.00000624,0.00000234,0.00000092,-0.00000176,-0.00000112,0.0000
 0007,0.00000098,-0.00000156,-0.00000304,0.00000025,-0.00000092,-0.0000
 0343,-0.00000169,0.00000162,0.00000218,-0.00001376,0.00000625,0.000002
 23,0.00001284,-0.00000546,0.00000687,0.00000003,-0.00000533,0.00000126
 ,-0.00000033,0.00000179,-0.00000249,-0.00000239,-0.00000040,0.00000738
 ,0.00000086,0.00000537,-0.00000188,0.00000017,-0.00000008,-0.00000320,
 0.00000062,-0.00000312,-0.00001591,0.00000081,-0.00000066,-0.00000308,
 0.00000872,-0.00000249,0.00000670,-0.00000196,0.00000370,0.00000167,0.
 00000067,-0.00000123,-0.00000149,-0.00000351,0.00000141,-0.00000173,-0
 .00000463,0.00000147,0.00000151,-0.00000014,0.00000012,0.00000119,-0.0
 0000169,-0.00000067,-0.00000096,0.00000056,-0.00000092,0.00000105,-0.0
 0000337,0.00000092,-0.00000086,-0.00000015,-0.00000162\\\@
 The archive entry for this job was punched.


 THE VALUE OF PHILOSOPHY IS, IN FACT, TO BE SOUGHT LARGELY IN ITS
 VERY UNCERTAINTY.  THE MAN WHO HAS NO TINCTURE OF PHILOSOPHY GOES
 THROUGH LIFE IMPRISONED IN THE PREJUDICES DERIVED FROM COMMON SENSE,
 FROM THE HABITUAL BELIEFS OF HIS AGE OR HIS NATION, AND FROM
 CONVICTIONS WHICH HAVE GROWN UP IN HIS MIND WITHOUT THE CO-OPERATION
 OR CONSENT OF HIS DELIBERATE REASON.  TO SUCH A MAN THE WORLD TENDS
 TO BE DEFINITE, FINITE, OBVIOUS; COMMON OBJECTS ROUSE NO QUESTIONS,
 AND UNFAMILIAR POSSIBILITIES ARE CONTEMPTUOUSLY REJECTED.

                             -- BERTRAND RUSSELL
 Job cpu time:       1 days  8 hours 34 minutes 25.3 seconds.
 Elapsed time:       0 days  2 hours  4 minutes 34.8 seconds.
 File lengths (MBytes):  RWF=   6947 Int=      0 D2E=      0 Chk=     43 Scr=      1
 Normal termination of Gaussian 16 at Sun Dec  8 00:01:50 2024.
