/mnt/lustre/scratch/nvme/SLURM/9698477/usccqdma.ssQUD3665X
OMP_STACKSIZE=0m
GAUSS_PDEF=16
GAUSS_MDEF=65536MB
GAUSS_RDEF=SCF=Direct
 Entering Gaussian System, Link 0=g16.exe
 Initial command:
 /opt/cesga/2020/software/Core/g16/c1/l1.exe "/mnt/lustre/scratch/nvme/SLURM/9698477/usccqdma.ssQUD3665X/Gau-2769385.inp" -scrdir="/mnt/lustre/scratch/nvme/SLURM/9698477/usccqdma.ssQUD3665X/"
 Default is to use a total of  16 processors:
                               16 via shared-memory
                                1 via Linda
 Entering Link 1 = /opt/cesga/2020/software/Core/g16/c1/l1.exe PID=   2769411.
  
 Copyright (c) 1988-2019, Gaussian, Inc.  All Rights Reserved.
  
 This is part of the Gaussian(R) 16 program.  It is based on
 the Gaussian(R) 09 system (copyright 2009, Gaussian, Inc.),
 the Gaussian(R) 03 system (copyright 2003, Gaussian, Inc.),
 the Gaussian(R) 98 system (copyright 1998, Gaussian, Inc.),
 the Gaussian(R) 94 system (copyright 1995, Gaussian, Inc.),
 the Gaussian 92(TM) system (copyright 1992, Gaussian, Inc.),
 the Gaussian 90(TM) system (copyright 1990, Gaussian, Inc.),
 the Gaussian 88(TM) system (copyright 1988, Gaussian, Inc.),
 the Gaussian 86(TM) system (copyright 1986, Carnegie Mellon
 University), and the Gaussian 82(TM) system (copyright 1983,
 Carnegie Mellon University). Gaussian is a federally registered
 trademark of Gaussian, Inc.
  
 This software contains proprietary and confidential information,
 including trade secrets, belonging to Gaussian, Inc.
  
 This software is provided under written license and may be
 used, copied, transmitted, or stored only in accord with that
 written license.
  
 The following legend is applicable only to US Government
 contracts under FAR:
  
                    RESTRICTED RIGHTS LEGEND
  
 Use, reproduction and disclosure by the US Government is
 subject to restrictions as set forth in subparagraphs (a)
 and (c) of the Commercial Computer Software - Restricted
 Rights clause in FAR 52.227-19.
  
 Gaussian, Inc.
 340 Quinnipiac St., Bldg. 40, Wallingford CT 06492
  
  
 ---------------------------------------------------------------
 Warning -- This program may not be used in any manner that
 competes with the business of Gaussian, Inc. or will provide
 assistance to any competitor of Gaussian, Inc.  The licensee
 of this program is prohibited from giving any competitor of
 Gaussian, Inc. access to this program.  By using this program,
 the user acknowledges that Gaussian, Inc. is engaged in the
 business of creating and licensing software in the field of
 computational chemistry and represents and warrants to the
 licensee that it is not a competitor of Gaussian, Inc. and that
 it will not use this program in any manner prohibited above.
 ---------------------------------------------------------------
  

 Cite this work as:
 Gaussian 16, Revision C.01,
 M. J. Frisch, G. W. Trucks, H. B. Schlegel, G. E. Scuseria, 
 M. A. Robb, J. R. Cheeseman, G. Scalmani, V. Barone, 
 G. A. Petersson, H. Nakatsuji, X. Li, M. Caricato, A. V. Marenich, 
 J. Bloino, B. G. Janesko, R. Gomperts, B. Mennucci, H. P. Hratchian, 
 J. V. Ortiz, A. F. Izmaylov, J. L. Sonnenberg, D. Williams-Young, 
 F. Ding, F. Lipparini, F. Egidi, J. Goings, B. Peng, A. Petrone, 
 T. Henderson, D. Ranasinghe, V. G. Zakrzewski, J. Gao, N. Rega, 
 G. Zheng, W. Liang, M. Hada, M. Ehara, K. Toyota, R. Fukuda, 
 J. Hasegawa, M. Ishida, T. Nakajima, Y. Honda, O. Kitao, H. Nakai, 
 T. Vreven, K. Throssell, J. A. Montgomery, Jr., J. E. Peralta, 
 F. Ogliaro, M. J. Bearpark, J. J. Heyd, E. N. Brothers, K. N. Kudin, 
 V. N. Staroverov, T. A. Keith, R. Kobayashi, J. Normand, 
 K. Raghavachari, A. P. Rendell, J. C. Burant, S. S. Iyengar, 
 J. Tomasi, M. Cossi, J. M. Millam, M. Klene, C. Adamo, R. Cammi, 
 J. W. Ochterski, R. L. Martin, K. Morokuma, O. Farkas, 
 J. B. Foresman, and D. J. Fox, Gaussian, Inc., Wallingford CT, 2019.
 
 ******************************************
 Gaussian 16:  ES64L-G16RevC.01  3-Jul-2019
                10-Dec-2024 
 ******************************************
 Default route: SCF=Direct
 ----------------------------------------------------
 # m06/genecp scf=tight int=ultrafine 5d freq=noraman
 ----------------------------------------------------
 1/10=4,30=1,38=1/1,3;
 2/12=2,17=6,18=5,40=1/2;
 3/5=7,8=1,11=2,16=1,17=8,25=1,30=1,71=2,74=-54,75=-5,140=1/1,2,3;
 4//1;
 5/5=2,32=2,38=5,98=1/2;
 8/6=4,10=90,11=11/1;
 11/6=1,8=1,9=11,15=111,16=1/1,2,10;
 10/6=1/2;
 6/7=2,8=2,9=2,10=2,28=1/1;
 7/8=1,10=1,25=1/1,2,3,16;
 1/10=4,30=1/3;
 99//99;
 ------
 OPT-TS
 ------
 Symbolic Z-matrix:
 Charge =  0 Multiplicity = 1
 C                     1.90084  -1.86428  -1.46874 
 C                     1.76425  -2.42993   0.77273 
 C                     2.48064  -3.60361   0.57543 
 C                     2.91884  -3.90401  -0.70866 
 C                     2.62677  -3.02625  -1.74216 
 C                     1.51761  -0.89867  -2.52176 
 C                     0.29485   1.00587  -3.05899 
 C                     0.65588   0.91855  -4.39678 
 C                     1.49005  -0.11761  -4.79548 
 C                     1.924    -1.03465  -3.84989 
 H                     1.37619  -2.1415    1.75094 
 H                     3.47875  -4.81569  -0.90817 
 H                     2.95186  -3.2564   -2.75331 
 H                    -0.36595   1.78662  -2.68006 
 H                     1.8004   -0.21583  -5.83387 
 H                     2.5772   -1.84987  -4.14882 
 N                     1.48511  -1.58326  -0.22177 
 N                     0.72082   0.12372  -2.14696 
 Ir                    0.10912   0.25744   0.01928 
 O                    -1.87827   2.30145   1.1333 
 O                    -2.31886  -0.49126   1.83157 
 O                    -2.58625  -0.44091  -1.39827 
 B                    -0.94483  -0.45171   1.6357 
 B                    -1.21141   1.78994   0.02897 
 B                    -1.48748  -0.92028  -0.70668 
 O                    -1.46303  -2.31177  -0.73732 
 O                    -1.5571    2.52251  -1.11003 
 C                    -2.42633   3.59676  -0.71387 
 C                    -2.97395   3.08389   0.64827 
 C                    -3.4465   -1.55221  -1.69921 
 C                    -2.44922  -2.74507  -1.68805 
 C                    -2.56044  -0.92386   3.17715 
 C                    -1.29794  -1.7786    3.46624 
 O                    -0.29738  -1.08879   2.69722 
 C                    -3.30076   4.16503   1.65795 
 H                    -4.08852   4.83218   1.27869 
 H                    -3.66621   3.70202   2.58405 
 H                    -2.42063   4.76703   1.90955 
 C                    -4.16004   2.13849   0.48816 
 H                    -4.33819   1.63186   1.44656 
 H                    -5.07508   2.67221   0.19565 
 H                    -3.93716   1.35971  -0.25335 
 C                    -1.57215   4.84924  -0.57577 
 H                    -1.03628   5.01978  -1.51914 
 H                    -2.18042   5.73873  -0.36265 
 H                    -0.82776   4.73517   0.2234 
 C                    -3.47547   3.79547  -1.78946 
 H                    -4.23359   4.52492  -1.46929 
 H                    -3.0052    4.17877  -2.70481 
 H                    -3.97433   2.85112  -2.03559 
 C                    -2.64513   0.32838   4.04068 
 H                    -3.43061   0.98095   3.63761 
 H                    -2.8924    0.09142   5.08445 
 H                    -1.70445   0.89285   4.01426 
 C                    -3.87337  -1.6779    3.23125 
 H                    -4.06975  -2.04863   4.24763 
 H                    -4.69434  -1.00425   2.94958 
 H                    -3.88759  -2.531     2.54256 
 C                    -0.86928  -1.81794   4.91804 
 H                    -1.6583   -2.25655   5.54591 
 H                     0.03055  -2.43757   5.02554 
 H                    -0.63516  -0.81707   5.29636 
 C                    -1.39614  -3.19159   2.90276 
 H                    -0.40912  -3.66959   2.97116 
 H                    -2.10866  -3.81041   3.46497 
 H                    -1.6894   -3.17669   1.84237 
 C                    -3.03133  -4.06617  -1.22886 
 H                    -2.2533   -4.84042  -1.24516 
 H                    -3.41907  -4.00012  -0.20547 
 H                    -3.84702  -4.3895   -1.89168 
 C                    -1.72457  -2.92677  -3.01686 
 H                    -0.89492  -3.63149  -2.87146 
 H                    -2.38491  -3.32807  -3.79758 
 H                    -1.3035   -1.97429  -3.37131 
 C                    -4.12696  -1.29267  -3.02792 
 H                    -4.7427   -2.15204  -3.33087 
 H                    -4.78592  -0.41926  -2.93498 
 H                    -3.40212  -1.08093  -3.82199 
 C                    -4.48382  -1.63689  -0.58866 
 H                    -5.03832  -0.6906   -0.54319 
 H                    -5.20396  -2.44817  -0.76136 
 H                    -3.997    -1.77897   0.38379 
 H                     0.28609   1.65519  -5.1053 
 C                     4.28143   1.73488   0.69715 
 C                     4.25504   3.03756   0.19719 
 C                     3.09006   1.01119   0.79433 
 C                     3.05331   3.58134  -0.236 
 C                     1.8696    1.53471   0.354 
 H                     3.11213   0.01675   1.24456 
 C                     1.8753    2.84149  -0.15366 
 H                     3.02881   4.5953   -0.63501 
 H                     0.69075   1.04978   1.34678 
 H                     5.18112   3.60897   0.17031 
 C                     5.58721   1.21577   1.20567 
 O                     6.35025   1.94539   1.8239 
 N                     5.88392  -0.11379   0.98327 
 C                     5.3094   -0.94079  -0.05393 
 H                     4.58232  -0.3786   -0.64612 
 H                     6.10524  -1.29525  -0.72885 
 H                     4.80502  -1.82629   0.36738 
 C                     7.08231  -0.65214   1.58727 
 H                     7.39371   0.00193   2.40414 
 H                     6.88172  -1.66236   1.97143 
 H                     7.90488  -0.71808   0.85698 
 H                     0.94225   3.2839   -0.50787 
 H                     2.68085  -4.2659    1.41421 
 

 GradGradGradGradGradGradGradGradGradGradGradGradGradGradGradGradGradGrad
 Berny optimization.
 Initialization pass.
 Trust Radius=3.00D-01 FncErr=1.00D-07 GrdErr=1.00D-07 EigMax=2.50D+02 EigMin=1.00D-04
 Number of steps in this run=      2 maximum allowed number of steps=      2.
 GradGradGradGradGradGradGradGradGradGradGradGradGradGradGradGradGradGrad

 Stoichiometry    C37H55B3IrN3O7
 Framework group  C1[X(C37H55B3IrN3O7)]
 Deg. of freedom   312
 Full point group                 C1      NOp   1
 Largest Abelian subgroup         C1      NOp   1
 Largest concise Abelian subgroup C1      NOp   1
                         Standard orientation:                         
 ---------------------------------------------------------------------
 Center     Atomic      Atomic             Coordinates (Angstroms)
 Number     Number       Type             X           Y           Z
 ---------------------------------------------------------------------
      1          6           0        1.900842   -1.864279   -1.468740
      2          6           0        1.764252   -2.429930    0.772730
      3          6           0        2.480643   -3.603609    0.575430
      4          6           0        2.918843   -3.904009   -0.708660
      5          6           0        2.626773   -3.026249   -1.742160
      6          6           0        1.517612   -0.898670   -2.521760
      7          6           0        0.294851    1.005870   -3.058990
      8          6           0        0.655881    0.918550   -4.396780
      9          6           0        1.490051   -0.117610   -4.795480
     10          6           0        1.924002   -1.034649   -3.849890
     11          1           0        1.376192   -2.141500    1.750940
     12          1           0        3.478753   -4.815689   -0.908170
     13          1           0        2.951863   -3.256399   -2.753310
     14          1           0       -0.365949    1.786620   -2.680060
     15          1           0        1.800401   -0.215830   -5.833870
     16          1           0        2.577202   -1.849869   -4.148820
     17          7           0        1.485112   -1.583260   -0.221770
     18          7           0        0.720821    0.123720   -2.146960
     19         77           0        0.109121    0.257440    0.019280
     20          8           0       -1.878270    2.301449    1.133300
     21          8           0       -2.318858   -0.491261    1.831570
     22          8           0       -2.586248   -0.440911   -1.398270
     23          5           0       -0.944828   -0.451711    1.635700
     24          5           0       -1.211409    1.789939    0.028970
     25          5           0       -1.487478   -0.920281   -0.706680
     26          8           0       -1.463028   -2.311771   -0.737320
     27          8           0       -1.557100    2.522509   -1.110030
     28          6           0       -2.426330    3.596759   -0.713870
     29          6           0       -2.973950    3.083889    0.648270
     30          6           0       -3.446498   -1.552212   -1.699210
     31          6           0       -2.449218   -2.745071   -1.688050
     32          6           0       -2.560438   -0.923861    3.177150
     33          6           0       -1.297938   -1.778601    3.466240
     34          8           0       -0.297378   -1.088790    2.697220
     35          6           0       -3.300760    4.165028    1.657950
     36          1           0       -4.088521    4.832178    1.278690
     37          1           0       -3.666210    3.702018    2.584050
     38          1           0       -2.420631    4.767029    1.909550
     39          6           0       -4.160040    2.138488    0.488160
     40          1           0       -4.338189    1.631858    1.446560
     41          1           0       -5.075080    2.672208    0.195650
     42          1           0       -3.937159    1.359708   -0.253350
     43          6           0       -1.572151    4.849239   -0.575770
     44          1           0       -1.036281    5.019779   -1.519140
     45          1           0       -2.180421    5.738729   -0.362650
     46          1           0       -0.827761    4.735169    0.223400
     47          6           0       -3.475470    3.795468   -1.789460
     48          1           0       -4.233591    4.524918   -1.469290
     49          1           0       -3.005200    4.178769   -2.704810
     50          1           0       -3.974330    2.851118   -2.035590
     51          6           0       -2.645129    0.328379    4.040680
     52          1           0       -3.430609    0.980948    3.637610
     53          1           0       -2.892399    0.091419    5.084450
     54          1           0       -1.704449    0.892849    4.014260
     55          6           0       -3.873368   -1.677902    3.231250
     56          1           0       -4.069748   -2.048632    4.247630
     57          1           0       -4.694338   -1.004252    2.949580
     58          1           0       -3.887588   -2.531002    2.542560
     59          6           0       -0.869278   -1.817941    4.918040
     60          1           0       -1.658298   -2.256551    5.545910
     61          1           0        0.030552   -2.437570    5.025540
     62          1           0       -0.635158   -0.817071    5.296360
     63          6           0       -1.396137   -3.191591    2.902760
     64          1           0       -0.409117   -3.669590    2.971160
     65          1           0       -2.108657   -3.810411    3.464970
     66          1           0       -1.689397   -3.176691    1.842370
     67          6           0       -3.031327   -4.066171   -1.228860
     68          1           0       -2.253297   -4.840421   -1.245160
     69          1           0       -3.419067   -4.000122   -0.205470
     70          1           0       -3.847017   -4.389502   -1.891680
     71          6           0       -1.724567   -2.926771   -3.016860
     72          1           0       -0.894917   -3.631491   -2.871460
     73          1           0       -2.384907   -3.328071   -3.797580
     74          1           0       -1.303498   -1.974291   -3.371310
     75          6           0       -4.126958   -1.292672   -3.027920
     76          1           0       -4.742698   -2.152042   -3.330870
     77          1           0       -4.785919   -0.419262   -2.934980
     78          1           0       -3.402118   -1.080932   -3.821990
     79          6           0       -4.483818   -1.636892   -0.588660
     80          1           0       -5.038318   -0.690602   -0.543190
     81          1           0       -5.203958   -2.448172   -0.761360
     82          1           0       -3.996998   -1.778972    0.383790
     83          1           0        0.286091    1.655190   -5.105300
     84          6           0        4.281431    1.734881    0.697150
     85          6           0        4.255040    3.037561    0.197190
     86          6           0        3.090061    1.011191    0.794330
     87          6           0        3.053310    3.581341   -0.236000
     88          6           0        1.869601    1.534711    0.354000
     89          1           0        3.112131    0.016751    1.244560
     90          6           0        1.875300    2.841491   -0.153660
     91          1           0        3.028809    4.595301   -0.635010
     92          1           0        0.690751    1.049780    1.346780
     93          1           0        5.181120    3.608972    0.170310
     94          6           0        5.587211    1.215772    1.205670
     95          8           0        6.350251    1.945392    1.823900
     96          7           0        5.883921   -0.113788    0.983270
     97          6           0        5.309402   -0.940788   -0.053930
     98          1           0        4.582321   -0.378598   -0.646120
     99          1           0        6.105242   -1.295248   -0.728850
    100          1           0        4.805022   -1.826288    0.367380
    101          6           0        7.082312   -0.652137    1.587270
    102          1           0        7.393711    0.001933    2.404140
    103          1           0        6.881722   -1.662357    1.971430
    104          1           0        7.904882   -0.718077    0.856980
    105          1           0        0.942250    3.283900   -0.507870
    106          1           0        2.680853   -4.265899    1.414210
 ---------------------------------------------------------------------
 Rotational constants (GHZ):           0.0726719           0.0510062           0.0485821
 General basis read from cards:  (5D, 7F)
 ======================================================================================================
                                       Pseudopotential Parameters
 ======================================================================================================
  Center     Atomic      Valence      Angular      Power
  Number     Number     Electrons     Momentum     of R      Exponent        Coefficient   SO-Coeffient
 ======================================================================================================
    1          6
                                   No pseudopotential on this center.
    2          6
                                   No pseudopotential on this center.
    3          6
                                   No pseudopotential on this center.
    4          6
                                   No pseudopotential on this center.
    5          6
                                   No pseudopotential on this center.
    6          6
                                   No pseudopotential on this center.
    7          6
                                   No pseudopotential on this center.
    8          6
                                   No pseudopotential on this center.
    9          6
                                   No pseudopotential on this center.
   10          6
                                   No pseudopotential on this center.
   11          1
                                   No pseudopotential on this center.
   12          1
                                   No pseudopotential on this center.
   13          1
                                   No pseudopotential on this center.
   14          1
                                   No pseudopotential on this center.
   15          1
                                   No pseudopotential on this center.
   16          1
                                   No pseudopotential on this center.
   17          7
                                   No pseudopotential on this center.
   18          7
                                   No pseudopotential on this center.
   19         77           17
                                      G and up 
                                                     1      823.5880147       -0.15780140    0.00000000
                                                     2      364.6613336    -1517.52704460    0.00000000
                                                     2       55.7082801     -316.53065290    0.00000000
                                                     2       12.0464544      -91.88809410    0.00000000
                                                     2        3.5120610       -9.22417730    0.00000000
                                      S - G
                                                     0      188.0490770        3.15780140    0.00000000
                                                     1      340.4194712       26.83225770    0.00000000
                                                     2      128.2373673      800.42500070    0.00000000
                                                     2       33.8644961      369.40506830    0.00000000
                                                     2        4.7560005      242.41718990    0.00000000
                                                     2        3.9649974     -118.21732820    0.00000000
                                      P - G
                                                     0      289.7291139        2.15780140    0.00000000
                                                     1       87.4633789       61.96786100    0.00000000
                                                     2       30.4363766      269.05819860    0.00000000
                                                     2        4.0553412      231.16547930    0.00000000
                                                     2        3.5525341     -133.69526670    0.00000000
                                      D - G
                                                     0      136.4017106        3.15780140    0.00000000
                                                     1       95.0776925       45.93498030    0.00000000
                                                     2       49.2258410      359.03446680    0.00000000
                                                     2       15.0874145      176.47401190    0.00000000
                                                     2        4.0405764       54.51552860    0.00000000
                                      F - G
                                                     0      127.3507908        3.95461970    0.00000000
                                                     1       66.2364374       52.97736550    0.00000000
                                                     2       34.4299229      274.86433830    0.00000000
                                                     2       10.1995721      137.20473380    0.00000000
                                                     2        2.5409702       14.86333050    0.00000000
   20          8
                                   No pseudopotential on this center.
   21          8
                                   No pseudopotential on this center.
   22          8
                                   No pseudopotential on this center.
   23          5
                                   No pseudopotential on this center.
   24          5
                                   No pseudopotential on this center.
   25          5
                                   No pseudopotential on this center.
   26          8
                                   No pseudopotential on this center.
   27          8
                                   No pseudopotential on this center.
   28          6
                                   No pseudopotential on this center.
   29          6
                                   No pseudopotential on this center.
   30          6
                                   No pseudopotential on this center.
   31          6
                                   No pseudopotential on this center.
   32          6
                                   No pseudopotential on this center.
   33          6
                                   No pseudopotential on this center.
   34          8
                                   No pseudopotential on this center.
   35          6
                                   No pseudopotential on this center.
   36          1
                                   No pseudopotential on this center.
   37          1
                                   No pseudopotential on this center.
   38          1
                                   No pseudopotential on this center.
   39          6
                                   No pseudopotential on this center.
   40          1
                                   No pseudopotential on this center.
   41          1
                                   No pseudopotential on this center.
   42          1
                                   No pseudopotential on this center.
   43          6
                                   No pseudopotential on this center.
   44          1
                                   No pseudopotential on this center.
   45          1
                                   No pseudopotential on this center.
   46          1
                                   No pseudopotential on this center.
   47          6
                                   No pseudopotential on this center.
   48          1
                                   No pseudopotential on this center.
   49          1
                                   No pseudopotential on this center.
   50          1
                                   No pseudopotential on this center.
   51          6
                                   No pseudopotential on this center.
   52          1
                                   No pseudopotential on this center.
   53          1
                                   No pseudopotential on this center.
   54          1
                                   No pseudopotential on this center.
   55          6
                                   No pseudopotential on this center.
   56          1
                                   No pseudopotential on this center.
   57          1
                                   No pseudopotential on this center.
   58          1
                                   No pseudopotential on this center.
   59          6
                                   No pseudopotential on this center.
   60          1
                                   No pseudopotential on this center.
   61          1
                                   No pseudopotential on this center.
   62          1
                                   No pseudopotential on this center.
   63          6
                                   No pseudopotential on this center.
   64          1
                                   No pseudopotential on this center.
   65          1
                                   No pseudopotential on this center.
   66          1
                                   No pseudopotential on this center.
   67          6
                                   No pseudopotential on this center.
   68          1
                                   No pseudopotential on this center.
   69          1
                                   No pseudopotential on this center.
   70          1
                                   No pseudopotential on this center.
   71          6
                                   No pseudopotential on this center.
   72          1
                                   No pseudopotential on this center.
   73          1
                                   No pseudopotential on this center.
   74          1
                                   No pseudopotential on this center.
   75          6
                                   No pseudopotential on this center.
   76          1
                                   No pseudopotential on this center.
   77          1
                                   No pseudopotential on this center.
   78          1
                                   No pseudopotential on this center.
   79          6
                                   No pseudopotential on this center.
   80          1
                                   No pseudopotential on this center.
   81          1
                                   No pseudopotential on this center.
   82          1
                                   No pseudopotential on this center.
   83          1
                                   No pseudopotential on this center.
   84          6
                                   No pseudopotential on this center.
   85          6
                                   No pseudopotential on this center.
   86          6
                                   No pseudopotential on this center.
   87          6
                                   No pseudopotential on this center.
   88          6
                                   No pseudopotential on this center.
   89          1
                                   No pseudopotential on this center.
   90          6
                                   No pseudopotential on this center.
   91          1
                                   No pseudopotential on this center.
   92          1
                                   No pseudopotential on this center.
   93          1
                                   No pseudopotential on this center.
   94          6
                                   No pseudopotential on this center.
   95          8
                                   No pseudopotential on this center.
   96          7
                                   No pseudopotential on this center.
   97          6
                                   No pseudopotential on this center.
   98          1
                                   No pseudopotential on this center.
   99          1
                                   No pseudopotential on this center.
  100          1
                                   No pseudopotential on this center.
  101          6
                                   No pseudopotential on this center.
  102          1
                                   No pseudopotential on this center.
  103          1
                                   No pseudopotential on this center.
  104          1
                                   No pseudopotential on this center.
  105          1
                                   No pseudopotential on this center.
  106          1
                                   No pseudopotential on this center.
 ======================================================================================================
 There are   884 symmetry adapted cartesian basis functions of A   symmetry.
 There are   832 symmetry adapted basis functions of A   symmetry.
   832 basis functions,  1663 primitive gaussians,   884 cartesian basis functions
   193 alpha electrons      193 beta electrons
       nuclear repulsion energy      8191.8475067428 Hartrees.
 NAtoms=  106 NActive=  106 NUniq=  106 SFac= 1.00D+00 NAtFMM=   60 NAOKFM=T Big=T
 Integral buffers will be    131072 words long.
 Raffenetti 2 integral format.
 Two-electron integral symmetry is turned on.
 One-electron integrals computed using PRISM.
   1 Symmetry operations used in ECPInt.
 ECPInt:  NShTT=   50721 NPrTT=  310367 LenC2=   38975 LenP2D=  120613.
 LDataN:  DoStor=T MaxTD1= 6 Len=  172
 NBasis=   832 RedAO= T EigKep=  4.47D-04  NBF=   832
 NBsUse=   832 1.00D-06 EigRej= -1.00D+00 NBFU=   832
 Defaulting to unpruned grid for atomic number  77.
 ExpMin= 2.90D-02 ExpMax= 5.48D+03 ExpMxC= 8.25D+02 IAcc=3 IRadAn=         5 AccDes= 0.00D+00
 Harris functional with IExCor= 1009 and IRadAn=       5 diagonalized for initial guess.
 HarFok:  IExCor= 1009 AccDes= 0.00D+00 IRadAn=         5 IDoV= 1 UseB2=F ITyADJ=14
 ICtDFT=  3500011 ScaDFX=  1.000000  1.000000  1.000000  1.000000
 Defaulting to unpruned grid for atomic number  77.
 FoFCou: FMM=F IPFlag=           0 FMFlag=      100000 FMFlg1=        2001
         NFxFlg=           0 DoJE=T BraDBF=F KetDBF=T FulRan=T
         wScrn=  0.000000 ICntrl=       500 IOpCl=  0 I1Cent=   200000004 NGrid=           0
         NMat0=    1 NMatS0=      1 NMatT0=    0 NMatD0=    1 NMtDS0=    0 NMtDT0=    0
 Petite list used in FoFCou.
 Requested convergence on RMS density matrix=1.00D-08 within 128 cycles.
 Requested convergence on MAX density matrix=1.00D-06.
 Requested convergence on             energy=1.00D-06.
 No special actions if energy rises.
 Defaulting to unpruned grid for atomic number  77.
 Defaulting to unpruned grid for atomic number  77.
 Defaulting to unpruned grid for atomic number  77.
 Defaulting to unpruned grid for atomic number  77.
 Defaulting to unpruned grid for atomic number  77.
 Defaulting to unpruned grid for atomic number  77.
 Defaulting to unpruned grid for atomic number  77.
 Defaulting to unpruned grid for atomic number  77.
 Defaulting to unpruned grid for atomic number  77.
 Defaulting to unpruned grid for atomic number  77.
 Defaulting to unpruned grid for atomic number  77.
 Defaulting to unpruned grid for atomic number  77.
 Defaulting to unpruned grid for atomic number  77.
 Defaulting to unpruned grid for atomic number  77.
 Defaulting to unpruned grid for atomic number  77.
 Defaulting to unpruned grid for atomic number  77.
 SCF Done:  E(RM06) =  -2311.96736197     A.U. after   15 cycles
            NFock= 15  Conv=0.52D-08     -V/T= 2.0385
 DoSCS=F DFT=T ScalE2(SS,OS)=  1.000000  1.000000
 Range of M.O.s used for correlation:     1   832
 NBasis=   832 NAE=   193 NBE=   193 NFC=     0 NFV=     0
 NROrb=    832 NOA=   193 NOB=   193 NVA=   639 NVB=   639

 **** Warning!!: The largest alpha MO coefficient is  0.12811443D+02

   1 Symmetry operations used in ECPInt.
 ECPInt:  NShTT=   50721 NPrTT=  310367 LenC2=   38975 LenP2D=  120613.
 LDataN:  DoStor=T MaxTD1= 7 Len=  274
 Number of processors reduced to   8 by ecpmxn.
 Symmetrizing basis deriv contribution to polar:
 IMax=3 JMax=2 DiffMx= 0.00D+00
 G2DrvN: will do   107 centers at a time, making    1 passes.
 Calling FoFCou, ICntrl=  3107 FMM=T I1Cent=   0 AccDes= 0.00D+00.
 Defaulting to unpruned grid for atomic number  77.
 Defaulting to unpruned grid for atomic number  77.
 Defaulting to unpruned grid for atomic number  77.
 Defaulting to unpruned grid for atomic number  77.
 Defaulting to unpruned grid for atomic number  77.
 Defaulting to unpruned grid for atomic number  77.
 Defaulting to unpruned grid for atomic number  77.
 Defaulting to unpruned grid for atomic number  77.
 Defaulting to unpruned grid for atomic number  77.
 Defaulting to unpruned grid for atomic number  77.
 Defaulting to unpruned grid for atomic number  77.
 Defaulting to unpruned grid for atomic number  77.
 Defaulting to unpruned grid for atomic number  77.
 Defaulting to unpruned grid for atomic number  77.
 Defaulting to unpruned grid for atomic number  77.
 Defaulting to unpruned grid for atomic number  77.
 End of G2Drv F.D. properties file   721 does not exist.
 End of G2Drv F.D. properties file   722 does not exist.
 End of G2Drv F.D. properties file   788 does not exist.
          IDoAtm=11111111111111111111111111111111111111111111111111
          IDoAtm=11111111111111111111111111111111111111111111111111
          IDoAtm=111111
          Differentiating once with respect to electric field.
                with respect to dipole field.
          Differentiating once with respect to nuclear coordinates.
 Defaulting to unpruned grid for atomic number  77.
 CalDSu exits because no D1Ps are significant.
 Defaulting to unpruned grid for atomic number  77.
 Defaulting to unpruned grid for atomic number  77.
 Defaulting to unpruned grid for atomic number  77.
 Defaulting to unpruned grid for atomic number  77.
 Defaulting to unpruned grid for atomic number  77.
 Defaulting to unpruned grid for atomic number  77.
 Defaulting to unpruned grid for atomic number  77.
 Defaulting to unpruned grid for atomic number  77.
 Defaulting to unpruned grid for atomic number  77.
 Defaulting to unpruned grid for atomic number  77.
 Defaulting to unpruned grid for atomic number  77.
 Defaulting to unpruned grid for atomic number  77.
 Defaulting to unpruned grid for atomic number  77.
 Defaulting to unpruned grid for atomic number  77.
 Defaulting to unpruned grid for atomic number  77.
 Defaulting to unpruned grid for atomic number  77.
          There are   321 degrees of freedom in the 1st order CPHF.  IDoFFX=6 NUNeed=     3.
    318 vectors produced by pass  0 Test12= 1.23D-13 1.00D-09 XBig12= 4.74D+02 7.36D+00.
 AX will form    72 AO Fock derivatives at one time.
    318 vectors produced by pass  1 Test12= 1.23D-13 1.00D-09 XBig12= 7.18D+01 1.03D+00.
    318 vectors produced by pass  2 Test12= 1.23D-13 1.00D-09 XBig12= 8.93D-01 8.37D-02.
    318 vectors produced by pass  3 Test12= 1.23D-13 1.00D-09 XBig12= 5.14D-03 4.62D-03.
    318 vectors produced by pass  4 Test12= 1.23D-13 1.00D-09 XBig12= 1.48D-05 3.74D-04.
    287 vectors produced by pass  5 Test12= 1.23D-13 1.00D-09 XBig12= 2.98D-08 1.06D-05.
     84 vectors produced by pass  6 Test12= 1.23D-13 1.00D-09 XBig12= 4.49D-11 3.81D-07.
      3 vectors produced by pass  7 Test12= 1.23D-13 1.00D-09 XBig12= 6.43D-14 1.65D-08.
 InvSVY:  IOpt=1 It=  1 EMax= 1.78D-14
 Solved reduced A of dimension  1964 with   321 vectors.
 Isotropic polarizability for W=    0.000000      503.14 Bohr**3.
 End of Minotr F.D. properties file   721 does not exist.
 End of Minotr F.D. properties file   722 does not exist.
 End of Minotr F.D. properties file   788 does not exist.
 Hyperfine terms turned off by default for NAtoms > 100.

 **********************************************************************

            Population analysis using the SCF Density.

 **********************************************************************

 Orbital symmetries:
       Occupied  (A) (A) (A) (A) (A) (A) (A) (A) (A) (A) (A) (A)
                 (A) (A) (A) (A) (A) (A) (A) (A) (A) (A) (A) (A)
                 (A) (A) (A) (A) (A) (A) (A) (A) (A) (A) (A) (A)
                 (A) (A) (A) (A) (A) (A) (A) (A) (A) (A) (A) (A)
                 (A) (A) (A) (A) (A) (A) (A) (A) (A) (A) (A) (A)
                 (A) (A) (A) (A) (A) (A) (A) (A) (A) (A) (A) (A)
                 (A) (A) (A) (A) (A) (A) (A) (A) (A) (A) (A) (A)
                 (A) (A) (A) (A) (A) (A) (A) (A) (A) (A) (A) (A)
                 (A) (A) (A) (A) (A) (A) (A) (A) (A) (A) (A) (A)
                 (A) (A) (A) (A) (A) (A) (A) (A) (A) (A) (A) (A)
                 (A) (A) (A) (A) (A) (A) (A) (A) (A) (A) (A) (A)
                 (A) (A) (A) (A) (A) (A) (A) (A) (A) (A) (A) (A)
                 (A) (A) (A) (A) (A) (A) (A) (A) (A) (A) (A) (A)
                 (A) (A) (A) (A) (A) (A) (A) (A) (A) (A) (A) (A)
                 (A) (A) (A) (A) (A) (A) (A) (A) (A) (A) (A) (A)
                 (A) (A) (A) (A) (A) (A) (A) (A) (A) (A) (A) (A)
                 (A)
       Virtual   (A) (A) (A) (A) (A) (A) (A) (A) (A) (A) (A) (A)
                 (A) (A) (A) (A) (A) (A) (A) (A) (A) (A) (A) (A)
                 (A) (A) (A) (A) (A) (A) (A) (A) (A) (A) (A) (A)
                 (A) (A) (A) (A) (A) (A) (A) (A) (A) (A) (A) (A)
                 (A) (A) (A) (A) (A) (A) (A) (A) (A) (A) (A) (A)
                 (A) (A) (A) (A) (A) (A) (A) (A) (A) (A) (A) (A)
                 (A) (A) (A) (A) (A) (A) (A) (A) (A) (A) (A) (A)
                 (A) (A) (A) (A) (A) (A) (A) (A) (A) (A) (A) (A)
                 (A) (A) (A) (A) (A) (A) (A) (A) (A) (A) (A) (A)
                 (A) (A) (A) (A) (A) (A) (A) (A) (A) (A) (A) (A)
                 (A) (A) (A) (A) (A) (A) (A) (A) (A) (A) (A) (A)
                 (A) (A) (A) (A) (A) (A) (A) (A) (A) (A) (A) (A)
                 (A) (A) (A) (A) (A) (A) (A) (A) (A) (A) (A) (A)
                 (A) (A) (A) (A) (A) (A) (A) (A) (A) (A) (A) (A)
                 (A) (A) (A) (A) (A) (A) (A) (A) (A) (A) (A) (A)
                 (A) (A) (A) (A) (A) (A) (A) (A) (A) (A) (A) (A)
                 (A) (A) (A) (A) (A) (A) (A) (A) (A) (A) (A) (A)
                 (A) (A) (A) (A) (A) (A) (A) (A) (A) (A) (A) (A)
                 (A) (A) (A) (A) (A) (A) (A) (A) (A) (A) (A) (A)
                 (A) (A) (A) (A) (A) (A) (A) (A) (A) (A) (A) (A)
                 (A) (A) (A) (A) (A) (A) (A) (A) (A) (A) (A) (A)
                 (A) (A) (A) (A) (A) (A) (A) (A) (A) (A) (A) (A)
                 (A) (A) (A) (A) (A) (A) (A) (A) (A) (A) (A) (A)
                 (A) (A) (A) (A) (A) (A) (A) (A) (A) (A) (A) (A)
                 (A) (A) (A) (A) (A) (A) (A) (A) (A) (A) (A) (A)
                 (A) (A) (A) (A) (A) (A) (A) (A) (A) (A) (A) (A)
                 (A) (A) (A) (A) (A) (A) (A) (A) (A) (A) (A) (A)
                 (A) (A) (A) (A) (A) (A) (A) (A) (A) (A) (A) (A)
                 (A) (A) (A) (A) (A) (A) (A) (A) (A) (A) (A) (A)
                 (A) (A) (A) (A) (A) (A) (A) (A) (A) (A) (A) (A)
                 (A) (A) (A) (A) (A) (A) (A) (A) (A) (A) (A) (A)
                 (A) (A) (A) (A) (A) (A) (A) (A) (A) (A) (A) (A)
                 (A) (A) (A) (A) (A) (A) (A) (A) (A) (A) (A) (A)
                 (A) (A) (A) (A) (A) (A) (A) (A) (A) (A) (A) (A)
                 (A) (A) (A) (A) (A) (A) (A) (A) (A) (A) (A) (A)
                 (A) (A) (A) (A) (A) (A) (A) (A) (A) (A) (A) (A)
                 (A) (A) (A) (A) (A) (A) (A) (A) (A) (A) (A) (A)
                 (A) (A) (A) (A) (A) (A) (A) (A) (A) (A) (A) (A)
                 (A) (A) (A) (A) (A) (A) (A) (A) (A) (A) (A) (A)
                 (A) (A) (A) (A) (A) (A) (A) (A) (A) (A) (A) (A)
                 (A) (A) (A) (A) (A) (A) (A) (A) (A) (A) (A) (A)
                 (A) (A) (A) (A) (A) (A) (A) (A) (A) (A) (A) (A)
                 (A) (A) (A) (A) (A) (A) (A) (A) (A) (A) (A) (A)
                 (A) (A) (A) (A) (A) (A) (A) (A) (A) (A) (A) (A)
                 (A) (A) (A) (A) (A) (A) (A) (A) (A) (A) (A) (A)
                 (A) (A) (A) (A) (A) (A) (A) (A) (A) (A) (A) (A)
                 (A) (A) (A) (A) (A) (A) (A) (A) (A) (A) (A) (A)
                 (A) (A) (A) (A) (A) (A) (A) (A) (A) (A) (A) (A)
                 (A) (A) (A) (A) (A) (A) (A) (A) (A) (A) (A) (A)
                 (A) (A) (A) (A) (A) (A) (A) (A) (A) (A) (A) (A)
                 (A) (A) (A) (A) (A) (A) (A) (A) (A) (A) (A) (A)
                 (A) (A) (A) (A) (A) (A) (A) (A) (A) (A) (A) (A)
                 (A) (A) (A) (A) (A) (A) (A) (A) (A) (A) (A) (A)
                 (A) (A) (A)
 The electronic state is 1-A.
 Alpha  occ. eigenvalues --  -19.20771 -19.20583 -19.20501 -19.20160 -19.19973
 Alpha  occ. eigenvalues --  -19.19060 -19.17356 -14.45463 -14.44439 -14.41604
 Alpha  occ. eigenvalues --  -10.33227 -10.32548 -10.32347 -10.30233 -10.30177
 Alpha  occ. eigenvalues --  -10.29826 -10.29511 -10.29449 -10.29306 -10.29276
 Alpha  occ. eigenvalues --  -10.29274 -10.28915 -10.28686 -10.28658 -10.28522
 Alpha  occ. eigenvalues --  -10.28035 -10.27991 -10.27225 -10.25971 -10.24135
 Alpha  occ. eigenvalues --  -10.23802 -10.23367 -10.23356 -10.23215 -10.23141
 Alpha  occ. eigenvalues --  -10.23090 -10.23029 -10.22953 -10.22910 -10.22869
 Alpha  occ. eigenvalues --  -10.22596 -10.22462 -10.22219 -10.22104 -10.22089
 Alpha  occ. eigenvalues --  -10.21952 -10.21101  -6.80739  -6.80030  -6.78877
 Alpha  occ. eigenvalues --   -3.63287  -2.05787  -2.05607  -2.04220  -1.06588
 Alpha  occ. eigenvalues --   -1.06350  -1.05555  -1.03408  -1.00201  -0.99573
 Alpha  occ. eigenvalues --   -0.99393  -0.98556  -0.97688  -0.93385  -0.84691
 Alpha  occ. eigenvalues --   -0.84509  -0.83831  -0.83028  -0.80812  -0.80459
 Alpha  occ. eigenvalues --   -0.79813  -0.77644  -0.75253  -0.75234  -0.74937
 Alpha  occ. eigenvalues --   -0.74233  -0.73266  -0.71770  -0.70872  -0.70373
 Alpha  occ. eigenvalues --   -0.69862  -0.69184  -0.68717  -0.68146  -0.68042
 Alpha  occ. eigenvalues --   -0.67669  -0.67027  -0.64785  -0.63811  -0.62164
 Alpha  occ. eigenvalues --   -0.61560  -0.60961  -0.60524  -0.58951  -0.57817
 Alpha  occ. eigenvalues --   -0.54966  -0.54889  -0.54293  -0.54043  -0.53758
 Alpha  occ. eigenvalues --   -0.53599  -0.53512  -0.53250  -0.52663  -0.51580
 Alpha  occ. eigenvalues --   -0.51141  -0.50024  -0.48026  -0.47933  -0.47534
 Alpha  occ. eigenvalues --   -0.47270  -0.47089  -0.46952  -0.46791  -0.46515
 Alpha  occ. eigenvalues --   -0.46411  -0.46321  -0.46182  -0.45640  -0.45333
 Alpha  occ. eigenvalues --   -0.44885  -0.44543  -0.44341  -0.44011  -0.43894
 Alpha  occ. eigenvalues --   -0.43756  -0.43672  -0.42981  -0.42800  -0.42673
 Alpha  occ. eigenvalues --   -0.41538  -0.40725  -0.40522  -0.40294  -0.40211
 Alpha  occ. eigenvalues --   -0.40199  -0.40105  -0.39956  -0.39905  -0.39870
 Alpha  occ. eigenvalues --   -0.39746  -0.39607  -0.39512  -0.39376  -0.39281
 Alpha  occ. eigenvalues --   -0.38892  -0.38595  -0.38426  -0.38167  -0.37900
 Alpha  occ. eigenvalues --   -0.37645  -0.37216  -0.37005  -0.36985  -0.36656
 Alpha  occ. eigenvalues --   -0.36599  -0.36229  -0.36154  -0.35942  -0.35882
 Alpha  occ. eigenvalues --   -0.35442  -0.35123  -0.35105  -0.34919  -0.34224
 Alpha  occ. eigenvalues --   -0.34035  -0.33843  -0.33348  -0.33200  -0.32533
 Alpha  occ. eigenvalues --   -0.32402  -0.32131  -0.31862  -0.31799  -0.31336
 Alpha  occ. eigenvalues --   -0.31062  -0.30619  -0.30135  -0.29771  -0.29555
 Alpha  occ. eigenvalues --   -0.27639  -0.27056  -0.26708  -0.26181  -0.25784
 Alpha  occ. eigenvalues --   -0.25586  -0.24963  -0.23981  -0.23538  -0.23062
 Alpha  occ. eigenvalues --   -0.22370  -0.22134  -0.20792
 Alpha virt. eigenvalues --   -0.07323  -0.04157  -0.03278  -0.00219   0.01356
 Alpha virt. eigenvalues --    0.01373   0.03695   0.04987   0.06144   0.06274
 Alpha virt. eigenvalues --    0.06927   0.07398   0.07817   0.08103   0.08998
 Alpha virt. eigenvalues --    0.09499   0.09823   0.10496   0.10609   0.11152
 Alpha virt. eigenvalues --    0.11378   0.11525   0.11765   0.12155   0.12566
 Alpha virt. eigenvalues --    0.13132   0.13259   0.13582   0.13756   0.14408
 Alpha virt. eigenvalues --    0.14648   0.14802   0.15105   0.15326   0.15395
 Alpha virt. eigenvalues --    0.15562   0.15842   0.15882   0.16067   0.16108
 Alpha virt. eigenvalues --    0.16204   0.16397   0.16520   0.16772   0.17034
 Alpha virt. eigenvalues --    0.17234   0.17566   0.17811   0.17863   0.18127
 Alpha virt. eigenvalues --    0.18289   0.18476   0.18727   0.18922   0.19027
 Alpha virt. eigenvalues --    0.19483   0.19557   0.19739   0.19883   0.19955
 Alpha virt. eigenvalues --    0.20164   0.20248   0.20418   0.20621   0.20907
 Alpha virt. eigenvalues --    0.21111   0.21151   0.21341   0.21681   0.22290
 Alpha virt. eigenvalues --    0.22392   0.22549   0.22909   0.23041   0.23333
 Alpha virt. eigenvalues --    0.23902   0.23979   0.24059   0.24167   0.24656
 Alpha virt. eigenvalues --    0.24883   0.25287   0.25542   0.25713   0.25861
 Alpha virt. eigenvalues --    0.26215   0.26908   0.26994   0.27194   0.27471
 Alpha virt. eigenvalues --    0.27664   0.28208   0.28495   0.28722   0.29085
 Alpha virt. eigenvalues --    0.29267   0.30287   0.30657   0.31016   0.31150
 Alpha virt. eigenvalues --    0.31797   0.32344   0.32990   0.33489   0.33568
 Alpha virt. eigenvalues --    0.34253   0.34645   0.35400   0.35599   0.35694
 Alpha virt. eigenvalues --    0.36142   0.36656   0.37079   0.38006   0.38975
 Alpha virt. eigenvalues --    0.39300   0.40418   0.41177   0.42062   0.43593
 Alpha virt. eigenvalues --    0.44608   0.45958   0.46129   0.47145   0.48559
 Alpha virt. eigenvalues --    0.48711   0.49086   0.49245   0.49522   0.50089
 Alpha virt. eigenvalues --    0.50560   0.50975   0.51441   0.51583   0.51691
 Alpha virt. eigenvalues --    0.52237   0.52359   0.53175   0.53589   0.54005
 Alpha virt. eigenvalues --    0.54172   0.54829   0.55319   0.55448   0.55726
 Alpha virt. eigenvalues --    0.56100   0.56222   0.56794   0.57063   0.57268
 Alpha virt. eigenvalues --    0.57590   0.57737   0.57884   0.58179   0.58480
 Alpha virt. eigenvalues --    0.58545   0.58646   0.58734   0.59086   0.59199
 Alpha virt. eigenvalues --    0.59392   0.59587   0.59967   0.60253   0.60387
 Alpha virt. eigenvalues --    0.60720   0.60927   0.61473   0.61563   0.61611
 Alpha virt. eigenvalues --    0.62212   0.62555   0.62726   0.62852   0.63179
 Alpha virt. eigenvalues --    0.63931   0.64319   0.64531   0.64915   0.65394
 Alpha virt. eigenvalues --    0.65686   0.65849   0.66203   0.66420   0.67077
 Alpha virt. eigenvalues --    0.67544   0.67776   0.68205   0.68453   0.69061
 Alpha virt. eigenvalues --    0.69197   0.69656   0.69884   0.70271   0.70804
 Alpha virt. eigenvalues --    0.70921   0.71350   0.71908   0.71962   0.72316
 Alpha virt. eigenvalues --    0.72788   0.73092   0.73213   0.73484   0.73709
 Alpha virt. eigenvalues --    0.73910   0.74511   0.74863   0.75134   0.75455
 Alpha virt. eigenvalues --    0.75881   0.76260   0.76346   0.76886   0.77355
 Alpha virt. eigenvalues --    0.77592   0.77985   0.78080   0.78322   0.78959
 Alpha virt. eigenvalues --    0.79310   0.79544   0.79802   0.80492   0.80748
 Alpha virt. eigenvalues --    0.81263   0.81520   0.81788   0.82341   0.82755
 Alpha virt. eigenvalues --    0.83078   0.83454   0.83496   0.83622   0.84025
 Alpha virt. eigenvalues --    0.84086   0.84399   0.84909   0.85017   0.85368
 Alpha virt. eigenvalues --    0.85581   0.85604   0.85730   0.86302   0.86402
 Alpha virt. eigenvalues --    0.86505   0.87010   0.87043   0.87197   0.87324
 Alpha virt. eigenvalues --    0.87837   0.88392   0.88581   0.88936   0.89127
 Alpha virt. eigenvalues --    0.89484   0.89706   0.89784   0.90070   0.90150
 Alpha virt. eigenvalues --    0.90496   0.90652   0.90992   0.91232   0.91519
 Alpha virt. eigenvalues --    0.91644   0.91921   0.92132   0.92217   0.92290
 Alpha virt. eigenvalues --    0.93112   0.93523   0.93980   0.94176   0.94563
 Alpha virt. eigenvalues --    0.94675   0.95209   0.95565   0.95907   0.96204
 Alpha virt. eigenvalues --    0.96448   0.96561   0.96739   0.96904   0.97220
 Alpha virt. eigenvalues --    0.97982   0.98453   0.98591   0.99029   0.99476
 Alpha virt. eigenvalues --    0.99909   1.00142   1.00876   1.01409   1.01849
 Alpha virt. eigenvalues --    1.02434   1.02921   1.03674   1.03865   1.04257
 Alpha virt. eigenvalues --    1.04544   1.05027   1.05173   1.05490   1.05820
 Alpha virt. eigenvalues --    1.05982   1.07451   1.07893   1.08333   1.08816
 Alpha virt. eigenvalues --    1.09828   1.09903   1.10105   1.11754   1.12048
 Alpha virt. eigenvalues --    1.12387   1.12782   1.13463   1.14161   1.14409
 Alpha virt. eigenvalues --    1.14996   1.15840   1.17032   1.17229   1.17528
 Alpha virt. eigenvalues --    1.18521   1.18624   1.19143   1.19507   1.19981
 Alpha virt. eigenvalues --    1.20617   1.21451   1.21846   1.22096   1.22402
 Alpha virt. eigenvalues --    1.23455   1.24286   1.24648   1.25242   1.25474
 Alpha virt. eigenvalues --    1.26453   1.27185   1.27731   1.28964   1.29306
 Alpha virt. eigenvalues --    1.29710   1.30225   1.30353   1.32193   1.32823
 Alpha virt. eigenvalues --    1.33062   1.33909   1.34729   1.35812   1.36247
 Alpha virt. eigenvalues --    1.37211   1.37790   1.39017   1.39268   1.39615
 Alpha virt. eigenvalues --    1.40010   1.40938   1.41046   1.41355   1.41569
 Alpha virt. eigenvalues --    1.42141   1.43353   1.43860   1.44608   1.44910
 Alpha virt. eigenvalues --    1.45141   1.45977   1.46174   1.46374   1.46728
 Alpha virt. eigenvalues --    1.47063   1.47274   1.47490   1.48497   1.48871
 Alpha virt. eigenvalues --    1.49266   1.50398   1.50599   1.50920   1.51378
 Alpha virt. eigenvalues --    1.52141   1.52761   1.53538   1.53869   1.54568
 Alpha virt. eigenvalues --    1.56034   1.56757   1.57314   1.58281   1.58679
 Alpha virt. eigenvalues --    1.59562   1.60318   1.61341   1.61828   1.62976
 Alpha virt. eigenvalues --    1.64152   1.65094   1.65541   1.65657   1.66170
 Alpha virt. eigenvalues --    1.66467   1.67232   1.67991   1.68694   1.69854
 Alpha virt. eigenvalues --    1.71015   1.71305   1.71919   1.73010   1.73270
 Alpha virt. eigenvalues --    1.74720   1.75357   1.76443   1.77573   1.77844
 Alpha virt. eigenvalues --    1.78002   1.78448   1.78602   1.79092   1.79821
 Alpha virt. eigenvalues --    1.80368   1.80758   1.81542   1.81661   1.82020
 Alpha virt. eigenvalues --    1.82436   1.82664   1.82985   1.83727   1.84575
 Alpha virt. eigenvalues --    1.84810   1.85379   1.85742   1.86241   1.86662
 Alpha virt. eigenvalues --    1.87420   1.87693   1.88399   1.88922   1.88981
 Alpha virt. eigenvalues --    1.89515   1.90041   1.90551   1.91197   1.91474
 Alpha virt. eigenvalues --    1.91960   1.92033   1.92317   1.92380   1.92467
 Alpha virt. eigenvalues --    1.92872   1.93268   1.93602   1.93753   1.94159
 Alpha virt. eigenvalues --    1.94199   1.95012   1.95883   1.96186   1.96584
 Alpha virt. eigenvalues --    1.97287   1.97428   1.97917   1.98443   1.98602
 Alpha virt. eigenvalues --    1.99891   2.00126   2.01485   2.01914   2.02414
 Alpha virt. eigenvalues --    2.02888   2.03446   2.03697   2.04809   2.05029
 Alpha virt. eigenvalues --    2.05599   2.06259   2.06366   2.06582   2.06859
 Alpha virt. eigenvalues --    2.07512   2.07755   2.07994   2.08217   2.08982
 Alpha virt. eigenvalues --    2.09687   2.10164   2.10407   2.10828   2.11049
 Alpha virt. eigenvalues --    2.11476   2.11930   2.12604   2.12989   2.13599
 Alpha virt. eigenvalues --    2.13806   2.14198   2.14573   2.15150   2.15326
 Alpha virt. eigenvalues --    2.15632   2.15953   2.16282   2.16643   2.17085
 Alpha virt. eigenvalues --    2.17200   2.17571   2.18024   2.18399   2.18664
 Alpha virt. eigenvalues --    2.18725   2.19202   2.19641   2.19994   2.20555
 Alpha virt. eigenvalues --    2.20847   2.21238   2.21684   2.22032   2.22422
 Alpha virt. eigenvalues --    2.22833   2.23502   2.23823   2.24222   2.24782
 Alpha virt. eigenvalues --    2.25640   2.25674   2.26053   2.26712   2.27432
 Alpha virt. eigenvalues --    2.27779   2.28170   2.28634   2.28793   2.29333
 Alpha virt. eigenvalues --    2.30830   2.31451   2.31617   2.31826   2.32031
 Alpha virt. eigenvalues --    2.33061   2.33269   2.33666   2.34132   2.35007
 Alpha virt. eigenvalues --    2.35248   2.36134   2.36754   2.37542   2.38199
 Alpha virt. eigenvalues --    2.38456   2.38769   2.39644   2.40661   2.40805
 Alpha virt. eigenvalues --    2.41123   2.43719   2.45644   2.46877   2.47566
 Alpha virt. eigenvalues --    2.47792   2.48192   2.48961   2.49693   2.49763
 Alpha virt. eigenvalues --    2.50867   2.51237   2.52608   2.53292   2.56097
 Alpha virt. eigenvalues --    2.56191   2.59013   2.59553   2.59806   2.60122
 Alpha virt. eigenvalues --    2.60479   2.60873   2.61426   2.62386   2.63000
 Alpha virt. eigenvalues --    2.64029   2.65212   2.65398   2.65445   2.66197
 Alpha virt. eigenvalues --    2.67754   2.68454   2.68837   2.69162   2.71038
 Alpha virt. eigenvalues --    2.71593   2.76447   2.77719   2.78090   2.78453
 Alpha virt. eigenvalues --    2.78585   2.79363   2.79608   2.80016   2.80577
 Alpha virt. eigenvalues --    2.80674   2.81209   2.81682   2.82147   2.83036
 Alpha virt. eigenvalues --    2.83428   2.84202   2.85047   2.86122   2.87598
 Alpha virt. eigenvalues --    2.88525   2.90816   2.91495   2.93502   2.95022
 Alpha virt. eigenvalues --    2.95214   2.96076   2.96918   2.98349   2.99256
 Alpha virt. eigenvalues --    3.02661   3.03647   3.05934   3.08346   3.11372
 Alpha virt. eigenvalues --    3.12219   3.13337   3.15567   3.21119   3.24872
 Alpha virt. eigenvalues --    3.30159   3.39517   3.44076  14.61219
          Condensed to atoms (all electrons):
 Mulliken charges:
               1
     1  C    0.297962
     2  C    0.040782
     3  C   -0.172535
     4  C   -0.141736
     5  C   -0.185856
     6  C    0.294547
     7  C    0.052342
     8  C   -0.175009
     9  C   -0.138080
    10  C   -0.185775
    11  H    0.224029
    12  H    0.182128
    13  H    0.169678
    14  H    0.243443
    15  H    0.183581
    16  H    0.170307
    17  N   -0.450802
    18  N   -0.496351
    19  Ir  -0.241832
    20  O   -0.505150
    21  O   -0.524696
    22  O   -0.500211
    23  B    0.511610
    24  B    0.513354
    25  B    0.515321
    26  O   -0.520698
    27  O   -0.546846
    28  C    0.304101
    29  C    0.287376
    30  C    0.289197
    31  C    0.296766
    32  C    0.292808
    33  C    0.299862
    34  O   -0.524960
    35  C   -0.512248
    36  H    0.146271
    37  H    0.167033
    38  H    0.172285
    39  C   -0.496558
    40  H    0.155817
    41  H    0.138012
    42  H    0.184484
    43  C   -0.511350
    44  H    0.159976
    45  H    0.153256
    46  H    0.177583
    47  C   -0.507945
    48  H    0.149334
    49  H    0.158973
    50  H    0.174670
    51  C   -0.503011
    52  H    0.164454
    53  H    0.146153
    54  H    0.190188
    55  C   -0.505668
    56  H    0.153257
    57  H    0.166922
    58  H    0.159739
    59  C   -0.513674
    60  H    0.150990
    61  H    0.164027
    62  H    0.180109
    63  C   -0.510220
    64  H    0.149901
    65  H    0.150755
    66  H    0.185359
    67  C   -0.507200
    68  H    0.166989
    69  H    0.166770
    70  H    0.151578
    71  C   -0.499295
    72  H    0.160220
    73  H    0.153566
    74  H    0.156649
    75  C   -0.507855
    76  H    0.148870
    77  H    0.168634
    78  H    0.166039
    79  C   -0.498049
    80  H    0.164668
    81  H    0.144878
    82  H    0.175830
    83  H    0.185736
    84  C    0.053942
    85  C   -0.185601
    86  C   -0.179323
    87  C   -0.154792
    88  C   -0.130931
    89  H    0.141451
    90  C   -0.161233
    91  H    0.147833
    92  H    0.264268
    93  H    0.170513
    94  C    0.502991
    95  O   -0.507209
    96  N   -0.399532
    97  C   -0.359723
    98  H    0.193544
    99  H    0.162100
   100  H    0.151466
   101  C   -0.367553
   102  H    0.217477
   103  H    0.160121
   104  H    0.163342
   105  H    0.138372
   106  H    0.182921
 Sum of Mulliken charges =  -0.00000
 Mulliken charges with hydrogens summed into heavy atoms:
               1
     1  C    0.297962
     2  C    0.264810
     3  C    0.010386
     4  C    0.040392
     5  C   -0.016178
     6  C    0.294547
     7  C    0.295785
     8  C    0.010726
     9  C    0.045501
    10  C   -0.015468
    17  N   -0.450802
    18  N   -0.496351
    19  Ir  -0.241832
    20  O   -0.505150
    21  O   -0.524696
    22  O   -0.500211
    23  B    0.511610
    24  B    0.513354
    25  B    0.515321
    26  O   -0.520698
    27  O   -0.546846
    28  C    0.304101
    29  C    0.287376
    30  C    0.289197
    31  C    0.296766
    32  C    0.292808
    33  C    0.299862
    34  O   -0.524960
    35  C   -0.026658
    39  C   -0.018246
    43  C   -0.020535
    47  C   -0.024968
    51  C   -0.002217
    55  C   -0.025750
    59  C   -0.018547
    63  C   -0.024204
    67  C   -0.021863
    71  C   -0.028860
    75  C   -0.024312
    79  C   -0.012674
    84  C    0.053942
    85  C   -0.015088
    86  C   -0.037873
    87  C   -0.006959
    88  C    0.133337
    90  C   -0.022861
    94  C    0.502991
    95  O   -0.507209
    96  N   -0.399532
    97  C    0.147387
   101  C    0.173388
 APT charges:
               1
     1  C    0.190043
     2  C    0.053903
     3  C   -0.073479
     4  C    0.107802
     5  C   -0.166812
     6  C    0.183441
     7  C    0.041322
     8  C   -0.069114
     9  C    0.120318
    10  C   -0.176267
    11  H    0.123991
    12  H    0.031249
    13  H    0.039676
    14  H    0.155970
    15  H    0.030573
    16  H    0.040721
    17  N   -0.228551
    18  N   -0.138539
    19  Ir  -1.109228
    20  O   -0.954776
    21  O   -1.003213
    22  O   -0.942248
    23  B    1.346363
    24  B    1.278325
    25  B    1.230122
    26  O   -0.932147
    27  O   -1.029282
    28  C    0.522737
    29  C    0.479931
    30  C    0.465139
    31  C    0.446897
    32  C    0.492470
    33  C    0.495691
    34  O   -0.987788
    35  C   -0.000184
    36  H   -0.020004
    37  H   -0.005532
    38  H   -0.000106
    39  C   -0.031237
    40  H   -0.000476
    41  H   -0.032767
    42  H    0.030653
    43  C   -0.041015
    44  H   -0.000614
    45  H   -0.025895
    46  H    0.011886
    47  C   -0.010086
    48  H   -0.019679
    49  H   -0.007396
    50  H    0.002863
    51  C   -0.024650
    52  H   -0.007675
    53  H   -0.029427
    54  H    0.016154
    55  C   -0.009514
    56  H   -0.018281
    57  H    0.002743
    58  H   -0.000697
    59  C   -0.009187
    60  H   -0.016340
    61  H   -0.003866
    62  H    0.007666
    63  C   -0.037068
    64  H   -0.008440
    65  H   -0.020658
    66  H    0.022629
    67  C   -0.001827
    68  H   -0.002133
    69  H    0.002651
    70  H   -0.017322
    71  C   -0.029744
    72  H   -0.000602
    73  H   -0.017598
    74  H   -0.006446
    75  C   -0.002081
    76  H   -0.016815
    77  H    0.001715
    78  H   -0.002675
    79  C   -0.034838
    80  H    0.005695
    81  H   -0.029662
    82  H    0.025950
    83  H    0.040057
    84  C   -0.150853
    85  C   -0.060498
    86  C   -0.123550
    87  C   -0.010279
    88  C    0.219845
    89  H    0.037367
    90  C   -0.113087
    91  H   -0.012814
    92  H    0.327734
    93  H    0.040818
    94  C    1.161342
    95  O   -0.849426
    96  N   -0.759924
    97  C    0.277313
    98  H    0.017604
    99  H   -0.053945
   100  H   -0.030113
   101  C    0.337664
   102  H    0.063944
   103  H   -0.036361
   104  H   -0.062440
   105  H    0.045327
   106  H    0.040963
 Sum of APT charges =  -0.00000
 APT charges with hydrogens summed into heavy atoms:
               1
     1  C    0.190043
     2  C    0.177894
     3  C   -0.032516
     4  C    0.139051
     5  C   -0.127135
     6  C    0.183441
     7  C    0.197292
     8  C   -0.029057
     9  C    0.150891
    10  C   -0.135546
    17  N   -0.228551
    18  N   -0.138539
    19  Ir  -1.109228
    20  O   -0.954776
    21  O   -1.003213
    22  O   -0.942248
    23  B    1.346363
    24  B    1.278325
    25  B    1.230122
    26  O   -0.932147
    27  O   -1.029282
    28  C    0.522737
    29  C    0.479931
    30  C    0.465139
    31  C    0.446897
    32  C    0.492470
    33  C    0.495691
    34  O   -0.987788
    35  C   -0.025826
    39  C   -0.033826
    43  C   -0.055638
    47  C   -0.034298
    51  C   -0.045598
    55  C   -0.025748
    59  C   -0.021726
    63  C   -0.043537
    67  C   -0.018631
    71  C   -0.054388
    75  C   -0.019857
    79  C   -0.032856
    84  C   -0.150853
    85  C   -0.019680
    86  C   -0.086184
    87  C   -0.023093
    88  C    0.547578
    90  C   -0.067760
    94  C    1.161342
    95  O   -0.849426
    96  N   -0.759924
    97  C    0.210859
   101  C    0.302807
 Electronic spatial extent (au):  <R**2>=          27874.1822
 Charge=             -0.0000 electrons
 Dipole moment (field-independent basis, Debye):
    X=             -1.3825    Y=             -6.8409    Z=             -6.3780  Tot=              9.4545
 Quadrupole moment (field-independent basis, Debye-Ang):
   XX=           -326.5842   YY=           -300.0108   ZZ=           -293.3516
   XY=            -30.6368   XZ=            -22.2756   YZ=             -8.4737
 Traceless Quadrupole moment (field-independent basis, Debye-Ang):
   XX=            -19.9353   YY=              6.6381   ZZ=             13.2972
   XY=            -30.6368   XZ=            -22.2756   YZ=             -8.4737
 Octapole moment (field-independent basis, Debye-Ang**2):
  XXX=           -153.7956  YYY=             -3.6504  ZZZ=            -88.4170  XYY=             -2.1386
  XXY=           -156.4523  XXZ=            -85.2800  XZZ=             -7.2351  YZZ=            -34.2325
  YYZ=            -28.1071  XYZ=            -29.1309
 Hexadecapole moment (field-independent basis, Debye-Ang**3):
 XXXX=         -18765.6569 YYYY=         -10037.2912 ZZZZ=          -8325.6412 XXXY=           -910.8703
 XXXZ=           -439.0522 YYYX=           -295.0879 YYYZ=            -61.5364 ZZZX=           -279.8867
 ZZZY=           -108.7220 XXYY=          -4644.1885 XXZZ=          -4540.6395 YYZZ=          -3189.1374
 XXYZ=           -194.9958 YYXZ=            -89.4171 ZZXY=           -102.6237
 N-N= 8.191847506743D+03 E-N=-2.174181061325D+04  KE= 2.226176159786D+03
  Exact polarizability:     527.619     -31.540     507.969       1.605     -18.608     473.829
 Approx polarizability:     709.584     -62.965     770.024       8.714     -46.112     723.424
   1 Symmetry operations used in ECPInt.
 ECPInt:  NShTT=   50721 NPrTT=  310367 LenC2=   38975 LenP2D=  120613.
 LDataN:  DoStor=T MaxTD1= 8 Len=  415
 Calling FoFJK, ICntrl=    100127 FMM=F ISym2X=0 I1Cent= 0 IOpClX= 0 NMat=1 NMatS=1 NMatT=0.
 Defaulting to unpruned grid for atomic number  77.
 Defaulting to unpruned grid for atomic number  77.
 Defaulting to unpruned grid for atomic number  77.
 Defaulting to unpruned grid for atomic number  77.
 Defaulting to unpruned grid for atomic number  77.
 Defaulting to unpruned grid for atomic number  77.
 Defaulting to unpruned grid for atomic number  77.
 Defaulting to unpruned grid for atomic number  77.
 Defaulting to unpruned grid for atomic number  77.
 Defaulting to unpruned grid for atomic number  77.
 Defaulting to unpruned grid for atomic number  77.
 Defaulting to unpruned grid for atomic number  77.
 Defaulting to unpruned grid for atomic number  77.
 Defaulting to unpruned grid for atomic number  77.
 Defaulting to unpruned grid for atomic number  77.
 Defaulting to unpruned grid for atomic number  77.
 Full mass-weighted force constant matrix:
 Low frequencies --- -708.5958   -7.2384   -3.6770   -0.0005   -0.0002    0.0004
 Low frequencies ---    7.5100   16.5707   18.2106
 ******    1 imaginary frequencies (negative Signs) ****** 
 Diagonal vibrational polarizability:
      152.3464354      86.8232966      69.5377602
 Harmonic frequencies (cm**-1), IR intensities (KM/Mole), Raman scattering
 activities (A**4/AMU), depolarization ratios for plane and unpolarized
 incident light, reduced masses (AMU), force constants (mDyne/A),
 and normal coordinates:
                      1                      2                      3
                      A                      A                      A
 Frequencies --   -708.5956                16.1601                17.9051
 Red. masses --      1.1609                 3.9278                 4.4600
 Frc consts  --      0.3434                 0.0006                 0.0008
 IR Inten    --    707.2248                 0.1204                 0.0136
  Atom AN      X      Y      Z        X      Y      Z        X      Y      Z
     1   6     0.00   0.00  -0.00     0.01   0.00  -0.02    -0.00   0.02  -0.05
     2   6    -0.00  -0.00  -0.00     0.01  -0.00  -0.02     0.02   0.01  -0.05
     3   6     0.00  -0.00   0.00     0.03   0.00  -0.03     0.04   0.02  -0.05
     4   6     0.00   0.00   0.00     0.03   0.01  -0.03     0.05   0.04  -0.05
     5   6    -0.00   0.00   0.00     0.02   0.01  -0.02     0.03   0.03  -0.05
     6   6     0.00   0.00  -0.01     0.00  -0.00  -0.02    -0.04   0.00  -0.05
     7   6     0.00   0.00  -0.00    -0.01  -0.01  -0.02    -0.06  -0.01  -0.03
     8   6    -0.00  -0.00  -0.01    -0.01  -0.00  -0.02    -0.11  -0.03  -0.04
     9   6     0.00  -0.00  -0.00    -0.00   0.00  -0.02    -0.12  -0.03  -0.06
    10   6     0.00  -0.00  -0.00     0.00   0.00  -0.02    -0.08  -0.01  -0.06
    11   1    -0.01  -0.00  -0.00     0.01  -0.01  -0.02     0.02  -0.00  -0.05
    12   1    -0.00  -0.00  -0.00     0.04   0.02  -0.03     0.07   0.05  -0.06
    13   1    -0.00  -0.00  -0.00     0.03   0.02  -0.02     0.04   0.05  -0.05
    14   1     0.01   0.00  -0.00    -0.02  -0.02  -0.02    -0.05  -0.01  -0.02
    15   1     0.00   0.00  -0.00     0.00   0.01  -0.02    -0.16  -0.04  -0.07
    16   1    -0.00  -0.00  -0.01     0.01   0.01  -0.02    -0.10  -0.02  -0.07
    17   7    -0.00   0.00  -0.00     0.01  -0.00  -0.02    -0.00   0.00  -0.04
    18   7     0.02   0.01  -0.01    -0.01  -0.01  -0.02    -0.03   0.00  -0.03
    19  77    -0.01  -0.01  -0.00    -0.00  -0.01  -0.02    -0.00   0.00  -0.03
    20   8    -0.00   0.00   0.00     0.01   0.00  -0.02     0.04   0.01   0.01
    21   8     0.00  -0.00   0.00     0.02   0.00   0.01     0.02   0.01  -0.00
    22   8     0.00   0.00   0.00    -0.06   0.00   0.07     0.02  -0.01  -0.06
    23   5     0.02   0.03   0.01     0.01  -0.01  -0.01     0.02  -0.00  -0.02
    24   5    -0.00  -0.01   0.00    -0.00  -0.01  -0.02     0.01   0.01  -0.00
    25   5     0.01   0.01  -0.01    -0.01  -0.01  -0.01    -0.01  -0.00  -0.01
    26   8     0.00   0.00   0.00     0.02  -0.01  -0.08    -0.04  -0.00   0.07
    27   8    -0.00   0.00   0.00    -0.02  -0.02  -0.02    -0.01   0.01   0.00
    28   6    -0.00  -0.00  -0.00    -0.00  -0.01  -0.02     0.01   0.02   0.02
    29   6    -0.00   0.00   0.00     0.01   0.01  -0.01     0.03   0.02   0.03
    30   6     0.00   0.00   0.00    -0.05  -0.00   0.07     0.01  -0.01  -0.03
    31   6     0.00   0.00   0.00    -0.01   0.02  -0.06    -0.03  -0.03   0.07
    32   6     0.00  -0.00  -0.00     0.04   0.02   0.03     0.03  -0.01  -0.00
    33   6     0.00   0.00   0.00     0.03   0.01   0.01     0.03  -0.01  -0.02
    34   8     0.00  -0.00   0.01     0.03  -0.00  -0.01     0.02  -0.01  -0.03
    35   6    -0.00   0.00  -0.00     0.04   0.02  -0.01     0.06   0.02   0.04
    36   1    -0.00   0.00   0.00     0.04   0.02  -0.01     0.06   0.03   0.06
    37   1     0.00  -0.00  -0.00     0.05   0.03  -0.00     0.08   0.02   0.05
    38   1    -0.00   0.00   0.00     0.05   0.01  -0.03     0.07   0.02   0.03
    39   6    -0.00   0.00   0.00    -0.00   0.02   0.02     0.03   0.03   0.05
    40   1     0.00  -0.00  -0.00     0.01   0.04   0.03     0.03   0.03   0.05
    41   1    -0.00  -0.00   0.00     0.00   0.03   0.02     0.03   0.04   0.06
    42   1     0.00   0.00   0.00    -0.02   0.01   0.03     0.01   0.03   0.05
    43   6    -0.00   0.00  -0.00     0.01  -0.02  -0.05     0.03   0.01   0.01
    44   1     0.00  -0.00  -0.00    -0.00  -0.03  -0.06     0.01   0.01  -0.00
    45   1     0.00   0.00  -0.00     0.02  -0.01  -0.04     0.04   0.02   0.02
    46   1    -0.00   0.00   0.00     0.02  -0.01  -0.06     0.04  -0.00  -0.01
    47   6    -0.00   0.00  -0.00    -0.02  -0.01  -0.01    -0.01   0.03   0.05
    48   1    -0.00   0.00  -0.00    -0.00  -0.00  -0.00     0.00   0.04   0.06
    49   1    -0.00  -0.00  -0.00    -0.03  -0.02  -0.02    -0.02   0.03   0.04
    50   1     0.00   0.00   0.00    -0.03  -0.01   0.01    -0.02   0.04   0.05
    51   6    -0.00  -0.00   0.00     0.07   0.04   0.01     0.04  -0.02   0.01
    52   1     0.00  -0.00  -0.00     0.07   0.04   0.02     0.04  -0.01   0.02
    53   1    -0.00  -0.00   0.00     0.10   0.05   0.02     0.04  -0.03   0.01
    54   1     0.00  -0.00  -0.00     0.08   0.02  -0.02     0.04  -0.02   0.01
    55   6     0.00  -0.00  -0.00     0.03   0.04   0.06     0.03  -0.01  -0.00
    56   1    -0.00   0.00   0.00     0.04   0.08   0.08     0.05  -0.03  -0.01
    57   1     0.00  -0.00  -0.00     0.04   0.05   0.06     0.03  -0.00   0.03
    58   1    -0.00  -0.00   0.00     0.01   0.02   0.09     0.02   0.01  -0.02
    59   6    -0.00  -0.00   0.00     0.06   0.01   0.00     0.05  -0.02  -0.03
    60   1     0.00  -0.00   0.00     0.06   0.03   0.02     0.05  -0.02  -0.02
    61   1    -0.00  -0.00   0.00     0.05   0.00  -0.01     0.05  -0.02  -0.04
    62   1    -0.00  -0.00   0.00     0.08   0.01  -0.01     0.05  -0.02  -0.02
    63   6     0.00   0.00   0.00     0.01   0.01   0.01     0.03  -0.01  -0.02
    64   1     0.00  -0.00   0.00     0.00   0.00  -0.01     0.03  -0.01  -0.03
    65   1    -0.00  -0.00  -0.00     0.01   0.02   0.03     0.03  -0.01  -0.02
    66   1     0.00   0.00   0.00    -0.02   0.01   0.02     0.02  -0.01  -0.02
    67   6     0.00   0.00   0.00     0.05  -0.02  -0.11    -0.07   0.01   0.13
    68   1     0.00   0.00   0.00     0.06  -0.00  -0.20    -0.09  -0.01   0.21
    69   1     0.00   0.00   0.00     0.10  -0.10  -0.08    -0.11   0.09   0.11
    70   1     0.00   0.00  -0.00     0.01   0.00  -0.08    -0.06  -0.01   0.13
    71   6     0.00   0.00   0.00    -0.08   0.12  -0.11     0.01  -0.13   0.10
    72   1    -0.00  -0.00   0.00    -0.06   0.13  -0.19    -0.01  -0.14   0.17
    73   1    -0.00   0.00   0.00    -0.11   0.16  -0.10     0.02  -0.17   0.10
    74   1     0.00   0.00   0.00    -0.12   0.15  -0.07     0.04  -0.16   0.05
    75   6     0.00   0.00   0.00    -0.14   0.05   0.12     0.06  -0.06  -0.07
    76   1     0.00  -0.00   0.00    -0.13   0.05   0.11     0.04  -0.06  -0.04
    77   1     0.00  -0.00   0.00    -0.16   0.02   0.21     0.08  -0.04  -0.14
    78   1     0.00   0.00   0.00    -0.19   0.11   0.09     0.09  -0.13  -0.06
    79   6     0.00   0.00   0.00     0.02  -0.09   0.13    -0.04   0.08  -0.06
    80   1     0.00   0.00   0.00     0.02  -0.10   0.23    -0.03   0.09  -0.16
    81   1     0.00  -0.00  -0.00     0.02  -0.09   0.11    -0.04   0.08  -0.03
    82   1     0.00   0.00   0.00     0.09  -0.16   0.08    -0.07   0.15  -0.03
    83   1    -0.00  -0.00  -0.01    -0.01  -0.00  -0.02    -0.14  -0.04  -0.04
    84   6     0.01  -0.00  -0.01    -0.01  -0.00   0.03    -0.01   0.00   0.04
    85   6    -0.00  -0.00  -0.00    -0.00  -0.01   0.01     0.01  -0.01   0.02
    86   6     0.01  -0.00   0.01    -0.01  -0.00   0.02    -0.01   0.00   0.02
    87   6    -0.00  -0.01  -0.01     0.01  -0.02  -0.03     0.02  -0.01  -0.02
    88   6    -0.00   0.02   0.09    -0.00  -0.01  -0.02     0.00  -0.00  -0.02
    89   1    -0.01   0.02   0.05    -0.02   0.00   0.03    -0.02   0.01   0.03
    90   6    -0.01   0.01   0.01     0.01  -0.02  -0.04     0.01  -0.01  -0.04
    91   1    -0.00  -0.01  -0.02     0.02  -0.03  -0.04     0.03  -0.02  -0.04
    92   1     0.76   0.48  -0.42    -0.01   0.00  -0.03     0.00  -0.00  -0.03
    93   1    -0.01   0.00   0.01    -0.00  -0.01   0.02     0.01  -0.01   0.04
    94   6     0.00  -0.00  -0.00    -0.02   0.01   0.08    -0.02   0.01   0.09
    95   8    -0.00   0.00  -0.00    -0.04   0.02   0.08    -0.04   0.02   0.10
    96   7     0.00   0.00  -0.00    -0.02   0.00   0.11    -0.01   0.01   0.12
    97   6    -0.00  -0.00  -0.00     0.01  -0.01   0.11     0.02  -0.01   0.12
    98   1     0.00  -0.00  -0.00     0.02  -0.03   0.08     0.03  -0.02   0.09
    99   1    -0.00  -0.00   0.00     0.03  -0.02   0.13     0.04  -0.02   0.14
   100   1    -0.00   0.00   0.00     0.00  -0.01   0.11     0.01  -0.00   0.11
   101   6     0.00  -0.00   0.00    -0.03   0.01   0.15    -0.03   0.02   0.17
   102   1     0.00  -0.00   0.00    -0.06   0.03   0.15    -0.06   0.03   0.17
   103   1    -0.00  -0.00  -0.00    -0.04   0.02   0.16    -0.05   0.02   0.18
   104   1    -0.00   0.00  -0.00    -0.01   0.00   0.17    -0.01   0.01   0.20
   105   1    -0.02   0.00   0.06     0.01  -0.03  -0.06     0.02  -0.02  -0.06
   106   1    -0.00  -0.00   0.00     0.03   0.00  -0.03     0.06   0.02  -0.06
                      4                      5                      6
                      A                      A                      A
 Frequencies --     26.4718                30.7037                32.5964
 Red. masses --      5.0601                 4.3836                 4.4659
 Frc consts  --      0.0021                 0.0024                 0.0028
 IR Inten    --      0.1836                 1.0963                 0.5901
  Atom AN      X      Y      Z        X      Y      Z        X      Y      Z
     1   6     0.03  -0.02   0.04    -0.03  -0.01   0.01     0.03   0.02  -0.00
     2   6     0.04   0.01   0.05    -0.02  -0.00   0.01    -0.04  -0.05  -0.03
     3   6     0.10   0.05   0.08    -0.07  -0.03  -0.00    -0.03  -0.04  -0.04
     4   6     0.14   0.05   0.09    -0.10  -0.05  -0.01     0.01  -0.00  -0.03
     5   6     0.10   0.01   0.07    -0.08  -0.04  -0.00     0.04   0.03  -0.02
     6   6    -0.00  -0.06   0.02    -0.01   0.00   0.01     0.06   0.05   0.01
     7   6    -0.03  -0.08  -0.00     0.00   0.01   0.01     0.02   0.02   0.01
     8   6    -0.05  -0.11  -0.01     0.02   0.01   0.01     0.09   0.08   0.03
     9   6    -0.06  -0.11  -0.00     0.02   0.02   0.01     0.16   0.13   0.04
    10   6    -0.04  -0.09   0.01     0.01   0.01   0.01     0.14   0.11   0.03
    11   1     0.01   0.01   0.04     0.01   0.02   0.01    -0.07  -0.08  -0.03
    12   1     0.19   0.08   0.11    -0.14  -0.07  -0.01     0.02   0.00  -0.04
    13   1     0.13   0.02   0.08    -0.11  -0.06  -0.01     0.06   0.06  -0.02
    14   1    -0.02  -0.07  -0.01     0.00   0.01   0.01    -0.03  -0.01   0.01
    15   1    -0.08  -0.14  -0.00     0.04   0.03   0.02     0.22   0.18   0.05
    16   1    -0.04  -0.10   0.02     0.02   0.02   0.02     0.20   0.15   0.04
    17   7     0.01  -0.02   0.03    -0.00   0.01   0.01    -0.01  -0.02  -0.01
    18   7    -0.00  -0.05   0.01    -0.01   0.00   0.01     0.01   0.01   0.01
    19  77    -0.00  -0.03   0.01     0.00   0.01   0.01    -0.01  -0.02  -0.00
    20   8     0.02  -0.01   0.02    -0.03  -0.02   0.02     0.05   0.03   0.02
    21   8    -0.02  -0.02  -0.02     0.01  -0.04  -0.01    -0.02   0.05   0.02
    22   8    -0.01   0.03   0.01     0.01   0.02   0.01    -0.00  -0.04  -0.02
    23   5    -0.02  -0.03  -0.00     0.01   0.00   0.01    -0.02  -0.02  -0.00
    24   5     0.02  -0.01   0.01    -0.00   0.00   0.02    -0.00  -0.01   0.01
    25   5    -0.02  -0.00  -0.00     0.01   0.01   0.01    -0.01  -0.03   0.00
    26   8    -0.04  -0.00  -0.04     0.01   0.01  -0.01    -0.01  -0.03   0.03
    27   8     0.04   0.01   0.02     0.01   0.02   0.03    -0.04  -0.03   0.00
    28   6     0.07   0.03   0.04     0.00   0.01   0.03     0.01  -0.00   0.01
    29   6     0.05   0.03   0.03    -0.02  -0.02   0.01     0.05   0.04   0.04
    30   6    -0.03   0.05  -0.01     0.01   0.02  -0.01     0.00  -0.04  -0.00
    31   6    -0.05   0.04  -0.04     0.01   0.02  -0.02     0.00  -0.04   0.02
    32   6    -0.04  -0.03  -0.03    -0.00  -0.05  -0.02    -0.02   0.05   0.02
    33   6    -0.05  -0.04  -0.02     0.02  -0.01   0.01    -0.06  -0.02  -0.01
    34   8    -0.04  -0.04   0.00     0.01   0.02   0.02    -0.04  -0.07  -0.02
    35   6     0.08   0.03   0.04    -0.04  -0.04   0.03     0.10   0.07   0.03
    36   1     0.10   0.06   0.05    -0.04  -0.03   0.03     0.10   0.07   0.04
    37   1     0.07   0.02   0.04    -0.05  -0.06   0.01     0.13   0.09   0.05
    38   1     0.10  -0.00   0.05    -0.05  -0.04   0.06     0.12   0.06  -0.01
    39   6     0.02   0.07   0.01    -0.02  -0.02  -0.03     0.03   0.06   0.10
    40   1    -0.01   0.08   0.01    -0.04  -0.03  -0.04     0.05   0.07   0.12
    41   1     0.04   0.11  -0.00    -0.01  -0.01  -0.04     0.02   0.07   0.12
[...]
 1,0.00001521,0.00000799,0.00000719,-0.00059998,-0.00097550,-0.00005029
 ,-0.00347428,-0.00017282,0.00223052,-0.00083324,-0.00394842,0.00435540
 ,-0.01515345,0.00950270,-0.00509409,0.02431752,-0.00939683,0.00820715,
 0.00126470,-0.00042900,0.00043909,0.09317919,-0.09577940,0.04112367,0.
 00075225,0.00014871,-0.00138544,0.00000107,0.00008808,-0.00040551,-0.0
 0072183,0.00035010,-0.00017923,-0.00010300,-0.00024534,-0.00054798,0.0
 0002682,0.00011926,0.00006571,0.00014548,-0.00003520,-0.00003193,0.000
 02189,0.00004219,0.00005827,-0.00001007,0.00002292,0.00003735,0.000033
 41,-0.00001202,-0.00000118,-0.00000546,0.00001182,0.00001350,-0.000063
 96,0.00000836,-0.00001769,0.00000036,0.00000173,0.00000272,0.00000948,
 -0.00001279,0.00001232,0.00001870,-0.00000809,-0.00000290,-0.09947298,
 0.10189231,-0.00000462,-0.00009585,0.00008298,-0.00001406,0.00003792,-
 0.00004486,0.00001438,-0.00002577,-0.00002604,0.00000469,-0.00001691,0
 .00002885,-0.00000576,0.00004498,-0.00004906,0.00009563,-0.00018136,0.
 00006081,0.00001397,-0.00009330,-0.00017194,0.00003894,0.00007194,0.00
 000046,-0.00000326,0.00000176,-0.00000757,-0.00001290,0.00007359,0.000
 03541,-0.00000379,0.00000068,0.00000969,-0.00000185,0.00000404,-0.0000
 0071,0.00000830,-0.00001539,-0.00000286,-0.00032976,-0.00021891,-0.000
 21605,-0.00001652,-0.00000133,0.00000385,-0.00000951,0.00000936,0.0000
 1889,0.00021263,-0.00018794,-0.00007321,-0.00044341,0.00008539,0.00041
 332,0.00189781,-0.00007165,-0.00090319,-0.00006481,-0.00033766,-0.0003
 7361,0.00008744,-0.00003020,-0.00001857,0.00011588,-0.00003957,-0.0000
 2578,-0.00027628,-0.00010256,0.00008144,0.00088950,0.00086581,0.000886
 76,-0.00054176,-0.00005676,0.00043661,0.00011288,0.00009914,-0.0000141
 1,0.00024043,-0.00013777,-0.00079399,-0.00000674,0.00057095,-0.0000021
 9,0.00026559,-0.00007518,0.00007152,-0.00001298,-0.00001639,-0.0000246
 0,-0.00002281,-0.00000722,-0.00003164,-0.00001348,0.00002895,0.0000334
 1,-0.00002521,-0.00000617,0.00001147,0.00004929,0.00004022,-0.00010948
 ,0.00004050,0.00006731,-0.00000285,-0.00001741,-0.00000579,-0.00000479
 ,-0.00000868,-0.00001772,-0.00000675,0.00001373,-0.00005463,-0.0000362
 5,-0.00001613,0.00002181,-0.00002556,-0.00000107,0.00000785,0.00000647
 ,-0.00001884,-0.00000622,-0.00000118,-0.00001716,-0.00000826,0.0000082
 7,-0.00012044,0.00002961,0.00073053,-0.00009329,0.00016400,-0.00023408
 ,-0.00013511,0.00000899,-0.00015751,0.00042033,-0.00038063,-0.00027956
 ,-0.00002355,-0.00013109,-0.00001810,0.00002512,-0.00000402,0.00000738
 ,0.00000125,0.00001543,-0.00000930,-0.00004513,-0.00001309,-0.00003057
 ,0.00000812,0.00000348,-0.00000702,0.00001290,-0.00000209,0.00000193,-
 0.00000057,-0.00000683,-0.00000155,-0.00001058,0.00001314,-0.00000959,
 0.00000156,-0.00000393,-0.00000744,0.00000159,0.00000155,-0.00000176,0
 .00000527,0.00000098,0.00000250,-0.00000343,-0.00000643,-0.00000159,0.
 00000577,0.00000693,-0.00000134,0.00000049,0.00000168,-0.00000477,0.00
 000134,-0.00000374,0.00000121,-0.00000332,-0.00000216,-0.00000313,0.00
 000649,0.00000049,-0.00000321,0.00000293,-0.00000507,0.00000291,0.0000
 0208,0.00000286,-0.00000213,-0.00000629,0.00000026,0.00000136,0.000008
 07,0.00000144,0.00000341,-0.00000079,-0.00000238,0.00000010,0.00000104
 ,0.00000139,-0.00000350,0.00000324,0.00000481,0.00000157,0.00000143,-0
 .00001237,0.00000583,0.00000237,-0.00000436,-0.00000019,0.00000431,0.0
 0000434,0.00000218,-0.00000252,0.00000535,-0.00000551,-0.00000597,-0.0
 0000084,0.00000194,0.00000110,0.00000088,0.00000005,0.00000561,-0.0000
 0286,0.00000216,-0.00000015,-0.00000010,-0.00000514,0.00000626,0.00001
 053,0.00000363,0.00000618,-0.00000394,0.00000202,0.00000673,-0.0000006
 2,-0.00000488,0.00000195,0.00000481,0.00000118,-0.00000961,-0.00000817
 ,-0.00000244,0.00058167,0.00027990,-0.00065752,-0.00035356,0.00239554,
 0.00629575,-0.00104430,0.00417162,0.00511242,0.00249309,-0.00053538,0.
 00429121,-0.00892451,0.00425275,-0.00294187,-0.00044881,0.00010969,-0.
 00000575,-0.07882749,0.04212072,-0.06853671,0.00050298,-0.00143215,-0.
 00312463,-0.00183916,-0.00151944,0.00014043,0.00017837,-0.00004291,0.0
 0014101,0.00033153,-0.00048276,-0.00109545,-0.00031468,-0.00004817,0.0
 0000521,0.00014401,-0.00011143,0.00005649,0.00002000,0.00006566,0.0000
 9116,-0.00000401,0.00004852,-0.00002071,-0.00002333,0.00000188,-0.0000
 0391,0.00000253,-0.00002133,0.00000538,-0.00003400,-0.00004794,0.00002
 620,0.00000200,-0.00000565,0.00000065,0.00001718,-0.00001097,0.0000152
 8,-0.00000018,0.00000510,-0.00000030,0.08524350,-0.04909858,0.06100752
 ,-0.00074336,0.00034554,0.00101343,-0.00020448,0.00700375,-0.01401194,
 -0.05105409,0.04163655,-0.03683994,0.00487126,-0.00730594,0.00795998,0
 .00485732,0.00342415,0.00304062,-0.00106668,-0.00071653,-0.00029883,-0
 .00000710,-0.00004332,0.00003446,0.00000213,-0.00004036,-0.00003486,-0
 .00003742,0.00001361,-0.00004451,0.00004498,0.00000887,0.00005819,-0.0
 0200487,-0.00176489,-0.00055051,-0.00253114,-0.00175557,-0.00102977,0.
 00031306,-0.00028711,0.00046655,0.00000268,0.00000599,0.00000561,-0.00
 000589,-0.00000272,-0.00000269,0.00006200,0.00003614,-0.00000491,0.004
 12762,0.00658554,0.00123235,0.00003384,0.00012256,0.00003095,0.0000008
 7,-0.00050094,-0.00014124,-0.00010249,0.00006488,0.00002898,-0.0000487
 8,-0.00009192,0.00011441,-0.00004731,-0.00007425,-0.00001993,0.0001176
 3,0.00015693,-0.00025713,0.00014012,0.00001222,0.00002057,0.00005481,0
 .00016939,0.00001620,-0.00004792,-0.00012140,0.00001513,-0.00007148,0.
 00006182,-0.00001293,0.00001233,-0.00002057,-0.00001284,0.00003008,-0.
 00000376,0.00001000,0.00000978,0.00003290,-0.00000866,0.00001912,0.000
 03575,-0.00000424,-0.00005091,0.00001694,-0.00008906,0.00018296,0.0002
 0733,0.00000495,-0.00008954,-0.00015674,0.00025019,-0.00000552,0.00000
 223,-0.00000673,-0.00000181,0.00000297,0.00000251,-0.00000215,0.000000
 16,0.00000475,-0.00000030,-0.00000191,-0.00000141,-0.00000566,0.000005
 61,-0.00000667,-0.00000347,0.00000097,0.00000611,-0.00000457,-0.000002
 62,0.00000049,0.00000325,0.00000247,-0.00000149,-0.00000465,0.00000321
 ,0.00000418,0.00000027,-0.00000142,0.00000173,-0.00000109,0.00000380,-
 0.00000025,0.00000042,-0.00000187,-0.00000309,-0.00000254,0.00000625,0
 .00000429,-0.00000341,0.00000232,-0.00000232,0.00000005,-0.00000043,-0
 .00000005,-0.00000089,-0.00000170,-0.00000125,0.00002312,-0.00001741,0
 .00002543,0.00001119,-0.00001531,-0.00000508,-0.00000319,0.00000243,0.
 00000380,-0.00000539,0.00000103,-0.00000591,0.00000313,-0.00000576,0.0
 0001901,-0.00000800,0.00000150,0.00000550,0.00000972,-0.00001310,-0.00
 000305,-0.00001565,-0.00000315,-0.00001591,-0.00003744,-0.00002524,-0.
 00000374,0.00000485,-0.00000143,0.00001040,0.00002336,0.00000595,0.000
 02401,0.00000357,-0.00001885,-0.00001824,-0.00027135,0.00006243,-0.000
 10052,0.00016598,-0.00007313,0.00011993,0.00005294,-0.00004131,-0.0000
 0476,-0.00000276,0.00001566,-0.00002229,-0.00000632,0.00001323,-0.0000
 0149,0.00000501,-0.00001458,-0.00001935,-0.00001643,0.00000537,0.00000
 527,0.00000534,-0.00000915,0.00000882,-0.00001171,-0.00000202,-0.00000
 296,0.00000709,0.00000157,-0.00000237,-0.00000033,-0.00000028,-0.00000
 125,-0.00000063,-0.00000777,0.00000741,-0.00000426,-0.00000617,0.00000
 120,-0.00000353,-0.00000065,-0.00000359,0.00000329,-0.00000157,-0.0000
 0032,-0.00000091,0.00000127,0.00000306,-0.00000547,-0.00000422,-0.0000
 0459,0.00000376,-0.00000328,0.00000192,-0.00000603,-0.00000167,0.00000
 023,0.00000102,0.00000470,0.00000130,0.00003554,0.00002223,0.00000376,
 -0.00001085,-0.00000797,0.00001476,-0.00001751,-0.00000572,-0.00000503
 ,-0.00000762,0.00004148,-0.00000723,0.00000863,-0.00000487,-0.00000083
 ,0.00005132,-0.00003414,0.00001813,0.00002578,-0.00000418,0.00001021,-
 0.00003125,-0.00001512,0.00000593,-0.00000242,0.00000269,-0.00000117,0
 .00000299,0.00003572,-0.00003556,0.00000202,-0.00000370,0.00000379,0.0
 0007527,-0.00019729,-0.00003555,-0.00000068,0.00008611,0.00003223,-0.0
 0003003,0.00015906,0.00001530,-0.00012763,-0.00014247,-0.00002011,0.00
 002735,0.00004925,-0.00002212,0.00000878,0.00001920,-0.00000013,0.0000
 9571,0.00001218,0.00005292,0.00000532,-0.00005944,0.00004519,-0.000000
 34,0.00000178,-0.00000509,-0.00001017,0.00002545,-0.00002045,-0.000002
 08,0.00001102,-0.00001096,-0.00000489,-0.00000320,0.00000161,0.0432456
 7,0.00047516,-0.00054640,-0.00175529,0.00110910,-0.00962669,0.02219885
 ,0.04169839,-0.15836377,0.13520256,-0.00174004,0.00820240,-0.00746024,
 0.00322542,0.00223887,-0.00144653,-0.00067068,-0.00036088,0.00000753,-
 0.00003486,0.00001982,-0.00000032,-0.00001065,-0.00001739,0.00000577,-
 0.00003318,0.00000697,0.00002715,0.00007241,-0.00004822,0.00001423,-0.
 00153368,-0.00017875,-0.00054578,-0.00186874,-0.00046113,0.00008164,0.
 00001928,0.00034946,-0.00046650,0.00000607,0.00000100,-0.00000100,-0.0
 0000231,-0.00000492,0.00000668,0.00002172,0.00003143,0.00001668,0.0063
 7194,-0.00271598,-0.00002266,0.00009583,-0.00001579,0.00002525,-0.0004
 7611,0.00041894,0.00017600,0.00014148,-0.00012445,-0.00004066,0.000010
 28,0.00006722,-0.00012575,0.00004274,0.00001957,0.00001280,-0.00007866
 ,-0.00017065,0.00036551,-0.00007337,0.00008652,-0.00004474,-0.00013700
 ,-0.00003221,-0.00002188,0.00007408,0.00005084,0.00000713,0.00009520,-
 0.00012325,0.00002254,-0.00001932,0.00004096,0.00001790,-0.00004041,0.
 00001094,-0.00001928,-0.00002158,-0.00001314,0.00000382,-0.00000859,-0
 .00000458,-0.00001911,0.00002661,-0.00002103,0.00005419,0.00001276,-0.
 00006673,0.00001673,-0.00005527,0.00020547,-0.00021990,0.00000976,-0.0
 0000352,0.00000818,0.00000369,-0.00000558,-0.00000331,0.00000222,0.000
 00111,-0.00000457,-0.00000190,-0.00000035,0.00000101,0.00000496,-0.000
 00736,0.00000776,0.00000180,0.00000052,-0.00000418,0.00000725,0.000001
 07,0.00000031,-0.00000412,-0.00000081,-0.00000048,0.00000763,-0.000006
 96,-0.00000219,-0.00000030,0.00000136,0.00000166,0.00000033,-0.0000072
 7,-0.00000070,0.00000051,0.00000378,-0.00000059,0.00000308,-0.00000892
 ,-0.00000426,0.00000575,-0.00000374,0.00000195,-0.00000061,0.00000097,
 0.00000221,-0.00000186,0.00000103,-0.00000012,-0.00000641,0.00000611,-
 0.00001253,-0.00001036,0.00000681,0.00000061,0.00000531,-0.00000065,-0
 .00000774,0.00000220,-0.00000606,0.00000648,-0.00000440,0.00000876,-0.
 00001083,0.00000625,0.00000146,-0.00000494,-0.00000762,0.00000467,0.00
 000167,0.00000529,-0.00000215,0.00000489,0.00003851,-0.00002339,0.0000
 0947,-0.00001860,0.00000610,-0.00000539,-0.00001203,0.00002349,-0.0000
 2489,-0.00000002,0.00000126,0.00000125,0.00004592,-0.00004703,0.000002
 30,0.00009992,0.00000467,-0.00003949,-0.00002814,0.00001577,0.00000766
 ,-0.00001184,0.00000068,0.00000160,-0.00000345,0.00000308,0.00000878,0
 .00000014,0.00000071,0.00000064,0.00000474,-0.00000065,-0.00000226,0.0
 0000208,0.00000327,-0.00000162,-0.00000214,0.00000093,0.00000030,0.000
 00214,-0.00000268,-0.00000080,0.00000197,0.00000150,0.00000158,-0.0000
 0042,0.00000035,-0.00000321,0.00000502,0.00000116,-0.00000128,0.000001
 17,0.00000178,0.00000156,0.00000027,-0.00000207,0.00000041,-0.00000056
 ,0.00000029,-0.00000263,0.00000605,-0.00000029,0.00000347,-0.00000037,
 -0.00000165,-0.00000071,0.00000183,0.00000222,-0.00000119,-0.00000107,
 0.00000034,0.00000185,0.00001792,0.00001320,0.00001062,-0.00002065,0.0
 0001639,-0.00001148,-0.00002075,-0.00002700,0.00000820,-0.00004812,-0.
 00003972,-0.00001865,-0.00001107,-0.00000158,-0.00000413,0.00006944,0.
 00003438,0.00003937,0.00003452,0.00000117,0.00005913,-0.00004508,-0.00
 000667,-0.00000891,-0.00000527,-0.00000098,0.00000102,0.00005638,0.000
 01955,-0.00000142,-0.00000048,-0.00000358,0.00000628,0.00011917,-0.000
 24439,-0.00000444,-0.00002621,0.00009146,0.00000757,-0.00002143,0.0001
 7959,-0.00001961,-0.00013845,-0.00017584,0.00002502,0.00003872,0.00005
 677,-0.00003905,0.00001428,0.00003072,-0.00001713,0.00007623,0.0000113
 2,0.00007999,-0.00000387,-0.00006194,0.00004438,-0.00000440,-0.0000045
 2,-0.00000323,-0.00002381,0.00003688,-0.00001029,0.00000235,0.00001825
 ,-0.00001949,-0.00000097,0.00001072,-0.00000408,-0.04691204,0.16121725
 ,0.00057156,-0.00100389,-0.00036851,0.00116141,-0.00460377,0.00734109,
 -0.03692816,0.13519143,-0.22526256,-0.00694972,0.01897683,-0.01559617,
 0.00329329,-0.00182405,-0.00340530,-0.00026237,-0.00014388,0.00008472,
 -0.00001697,0.00001058,0.00000444,-0.00001663,0.00001464,-0.00000534,-
 0.00001779,0.00000050,0.00005280,0.00004716,-0.00000216,-0.00007943,-0
 .00064421,-0.00002275,0.00000983,-0.00074038,-0.00045673,0.00099535,-0
 .00035060,0.00095827,-0.00074865,0.00000573,-0.00000300,-0.00001020,-0
 .00000031,0.00000015,-0.00000542,-0.00002016,0.00001521,0.00007282,0.0
 0215457,-0.00118417,0.00169024,-0.00000313,0.00005986,-0.00002890,-0.0
 0015198,0.00005612,0.00003804,-0.00004382,0.00003501,0.00001711,-0.000
 05109,-0.00001449,0.00001979,-0.00004447,-0.00004086,-0.00001810,0.000
 06659,0.00000466,-0.00000315,0.00009836,-0.00005891,-0.00001533,0.0000
 7984,0.00007467,0.00003494,-0.00003596,-0.00008090,-0.00000557,-0.0000
 4066,0.00004409,-0.00000136,0.00001375,-0.00002286,-0.00000619,0.00001
 887,-0.00001091,0.00000456,0.00000921,0.00002293,0.00000503,0.00002748
 ,0.00002521,-0.00000543,0.00000694,-0.00000367,-0.00001295,0.00001874,
 0.00007215,-0.00002318,-0.00008110,0.00000327,0.00003490,-0.00000305,0
 .00000030,0.00000067,-0.00000153,0.00000197,-0.00000050,0.00000018,-0.
 00000063,0.00000144,0.00000065,-0.00000050,-0.00000054,-0.00000360,0.0
 0000096,-0.00000020,0.00000112,-0.00000084,0.00000106,-0.00000303,0.00
 000105,-0.00000111,0.00000196,0.00000086,0.00000021,-0.00000181,0.0000
 0351,0.00000009,0.00000039,-0.00000170,0.00000027,-0.00000148,0.000003
 19,0.00000081,-0.00000025,-0.00000130,-0.00000098,-0.00000166,0.000003
 85,0.00000005,-0.00000263,0.00000200,0.00000029,0.00000070,-0.00000134
 ,-0.00000053,0.00000107,-0.00000052,-0.00000009,-0.00000171,-0.0000002
 9,0.00000235,-0.00000040,0.00000097,-0.00000149,0.00000019,-0.00000044
 ,0.00000242,-0.00000049,-0.00000336,-0.00000197,-0.00000289,0.00000611
 ,0.00000213,-0.00000040,-0.00000095,0.00000248,-0.00000227,-0.00000047
 ,-0.00000130,-0.00000078,-0.00000093,-0.00000256,0.00001106,-0.0000242
 0,0.00000572,-0.00000804,0.00000166,0.00000367,-0.00000144,0.00000775,
 -0.00000440,-0.00000250,-0.00000036,-0.00000566,0.00005384,-0.00006771
 ,-0.00000856,-0.00016643,0.00009503,0.00007720,-0.00001298,0.00000451,
 -0.00000234,-0.00003432,0.00002580,-0.00000478,-0.00001443,0.00001330,
 0.00000814,0.00000567,-0.00000840,-0.00001283,-0.00000642,0.00000209,0
 .00000451,0.00000250,-0.00000647,0.00000166,-0.00000789,-0.00000443,0.
 00000024,0.00001264,0.00001326,-0.00000344,-0.00000587,-0.00000017,-0.
 00000275,0.00000403,-0.00001172,0.00000607,0.00000098,-0.00000212,-0.0
 0000270,-0.00000301,-0.00000204,-0.00000204,0.00000085,0.00000026,0.00
 000098,0.00000011,0.00000035,0.00000246,-0.00000038,-0.00000292,0.0000
 0067,0.00000123,-0.00000096,0.00000108,-0.00000564,-0.00000262,-0.0000
 0096,0.00000138,0.00000357,0.00000162,0.00000102,0.00001227,0.00000267
 ,0.00001268,-0.00001727,0.00000708,0.00000548,0.00000867,-0.00000244,0
 .00000539,0.00002154,-0.00001173,0.00000159,0.00000009,0.00000550,0.00
 000574,-0.00005492,-0.00001093,-0.00000849,-0.00000815,0.00000120,0.00
 001409,-0.00000216,0.00000776,0.00000232,0.00000154,-0.00000150,-0.000
 02150,-0.00001156,-0.00000128,0.00000069,0.00000148,-0.00000198,-0.000
 05565,0.00008856,0.00000583,0.00002075,-0.00003170,-0.00000418,0.00003
 278,-0.00007578,-0.00000295,0.00005669,0.00008761,-0.00000015,-0.00000
 832,-0.00003975,0.00001398,-0.00000604,-0.00000645,-0.00000508,-0.0000
 2796,0.00001178,-0.00003222,-0.00001438,0.00003177,-0.00002181,-0.0000
 0024,-0.00000232,0.00000392,0.00000294,-0.00001013,0.00001500,0.000004
 44,-0.00000332,0.00000018,-0.00000044,-0.00000466,-0.00000275,0.038999
 23,-0.14613068,0.23516543\\-0.00000042,-0.00000085,-0.00000268,0.00000
 508,-0.00000990,0.00000531,-0.00000432,0.00000548,0.00000008,-0.000001
 40,0.00000241,0.00000350,-0.00000213,0.00000538,-0.00001210,0.00000305
 ,-0.00000145,-0.00000428,-0.00000508,0.00000689,-0.00000070,-0.0000039
 9,0.00000366,0.00000362,0.00000193,-0.00000351,-0.00000086,-0.00000776
 ,0.00000691,0.00000376,0.00000204,-0.00000161,-0.00000526,0.00000272,-
 0.00000493,-0.00000432,-0.00000238,0.00000177,0.00000206,0.00000222,-0
 .00000311,-0.00000106,-0.00000304,0.00000259,-0.00000093,0.00000065,-0
 .00000160,-0.00000279,-0.00000152,0.00000596,-0.00000528,-0.00000166,-
 0.00000030,-0.00000216,-0.00000274,-0.00000118,0.00000269,-0.00000192,
 0.00000013,0.00000078,-0.00000133,0.00000152,-0.00000247,-0.00000123,0
 .00000117,0.00000104,0.00000243,0.00000053,-0.00000458,0.00000314,-0.0
 0000188,-0.00000072,0.00000342,-0.00000111,0.00000209,-0.00000040,0.00
 000076,-0.00000138,-0.00000234,0.00000160,0.00000205,0.00000245,-0.000
 00344,0.00000309,-0.00000144,0.00000246,0.00000622,-0.00000258,0.00000
 184,-0.00000185,-0.00000025,0.00000503,0.00000040,0.,-0.00000243,0.000
 00544,0.00000119,-0.00000350,0.00000168,0.00000124,-0.00000210,0.00000
 237,0.00000709,0.00000122,-0.00000313,-0.00000207,0.00000087,0.0000020
 4,-0.00000096,-0.00000342,0.00000747,-0.00000086,-0.00000256,0.0000024
 0,0.00000467,0.00000004,0.00000494,0.00000084,-0.00000052,0.00000138,-
 0.00000261,0.00000100,0.00000221,-0.00000078,-0.00000190,0.00000060,-0
 .00000465,0.00000587,0.00000355,-0.00000012,0.00000040,0.00000121,0.00
 000216,-0.00000388,0.00000145,0.00000112,-0.00000049,0.00000212,-0.000
 00437,0.00000126,-0.00000339,-0.00000028,-0.00000023,0.00000327,-0.000
 00194,-0.00000050,0.00000484,0.00000078,0.00000259,0.00000353,0.000002
 01,0.00000216,-0.00000124,0.00000244,-0.00000196,0.00000199,0.00000158
 ,-0.00000263,0.00000289,0.00000127,-0.00000203,0.00000066,-0.00000197,
 0.00000318,-0.00000520,0.00000167,-0.00000181,0.00000473,0.00000490,-0
 .00000421,0.00000258,0.00000127,-0.00000065,0.00000166,0.00000811,0.00
 000068,-0.00000575,-0.00000108,-0.00000409,0.00000291,-0.00000016,-0.0
 0000110,-0.00000099,0.00000216,-0.00000066,0.00000079,0.00000313,0.000
 00009,0.00000453,0.00000211,-0.00000144,-0.00000207,0.00000140,-0.0000
 0020,-0.00000106,0.00000002,-0.00000171,-0.00000419,-0.00000195,-0.000
 00309,-0.00000438,0.00000049,-0.00000008,-0.00000004,-0.00000091,0.000
 00095,0.00000331,0.00000012,0.00000105,0.00000050,0.00000114,-0.000008
 83,0.00000446,-0.00000451,0.00000386,-0.00000175,-0.00000252,0.0000006
 6,-0.00000108,0.00000100,0.00000703,-0.00000231,-0.00000126,-0.0000010
 6,0.00000787,-0.00000252,-0.00000096,-0.00000047,-0.00000143,0.0000021
 5,0.00000156,0.00000038,0.00000213,-0.00000219,-0.00000056,0.00000176,
 0.00000507,0.00000089,-0.00000204,0.00000101,-0.00000070,-0.00000002,0
 .00000123,-0.00000107,0.00000074,-0.00000112,-0.00000238,0.00000100,0.
 00000050,0.00000400,-0.00000468,0.00000082,0.00000569,0.00000438,-0.00
 000075,-0.00000498,0.00000775,-0.00000485,-0.00000220,-0.00000012,-0.0
 0000145,0.00000114,-0.00000452,0.00000080,0.00000094,-0.00000510,0.000
 00052,0.00000317,0.00000387,-0.00000037,-0.00000064,-0.00000125,0.0000
 0064,-0.00000009,-0.00000053,-0.00000019,-0.00000357,-0.00000174,-0.00
 000136,-0.00000049,0.00000570,-0.00000368,0.00000032,-0.00000116,-0.00
 000180,0.00000015,-0.00000505,-0.00000321,-0.00000076,-0.00000142,0.00
 000070,0.00000021,-0.00000069,-0.00000161,0.00000005,0.00000046,-0.000
 00370,0.00000158,0.00000330,-0.00000438,-0.00000022,0.00000336,-0.0000
 0492,0.00000094,-0.00000173,-0.00000399,0.00000041,-0.00000164,-0.0000
 0320,0.00000033,-0.00000034,-0.00000303,-0.00000169,-0.00000004,0.0000
 0014,0.00000100,-0.00000055,-0.00000276\\\@
 The archive entry for this job was punched.


 THERE IS NO CURE FOR BIRTH AND DEATH SAVE TO ENJOY THE INTERVAL.

                               -- GEORGE SANTAYANA
 Job cpu time:       1 days 19 hours 57 minutes 21.0 seconds.
 Elapsed time:       0 days  2 hours 47 minutes 54.7 seconds.
 File lengths (MBytes):  RWF=   8256 Int=      0 D2E=      0 Chk=     49 Scr=      1
 Normal termination of Gaussian 16 at Tue Dec 10 03:41:21 2024.
