/mnt/lustre/scratch/nvme/SLURM/9698473/usccqdma.9dwCje42Wq
OMP_STACKSIZE=0m
GAUSS_PDEF=16
GAUSS_MDEF=65536MB
GAUSS_RDEF=SCF=Direct
 Entering Gaussian System, Link 0=g16.exe
 Initial command:
 /opt/cesga/2020/software/Core/g16/c1/l1.exe "/mnt/lustre/scratch/nvme/SLURM/9698473/usccqdma.9dwCje42Wq/Gau-3541067.inp" -scrdir="/mnt/lustre/scratch/nvme/SLURM/9698473/usccqdma.9dwCje42Wq/"
 Default is to use a total of  16 processors:
                               16 via shared-memory
                                1 via Linda
 Entering Link 1 = /opt/cesga/2020/software/Core/g16/c1/l1.exe PID=   3541093.
  
 Copyright (c) 1988-2019, Gaussian, Inc.  All Rights Reserved.
  
 This is part of the Gaussian(R) 16 program.  It is based on
 the Gaussian(R) 09 system (copyright 2009, Gaussian, Inc.),
 the Gaussian(R) 03 system (copyright 2003, Gaussian, Inc.),
 the Gaussian(R) 98 system (copyright 1998, Gaussian, Inc.),
 the Gaussian(R) 94 system (copyright 1995, Gaussian, Inc.),
 the Gaussian 92(TM) system (copyright 1992, Gaussian, Inc.),
 the Gaussian 90(TM) system (copyright 1990, Gaussian, Inc.),
 the Gaussian 88(TM) system (copyright 1988, Gaussian, Inc.),
 the Gaussian 86(TM) system (copyright 1986, Carnegie Mellon
 University), and the Gaussian 82(TM) system (copyright 1983,
 Carnegie Mellon University). Gaussian is a federally registered
 trademark of Gaussian, Inc.
  
 This software contains proprietary and confidential information,
 including trade secrets, belonging to Gaussian, Inc.
  
 This software is provided under written license and may be
 used, copied, transmitted, or stored only in accord with that
 written license.
  
 The following legend is applicable only to US Government
 contracts under FAR:
  
                    RESTRICTED RIGHTS LEGEND
  
 Use, reproduction and disclosure by the US Government is
 subject to restrictions as set forth in subparagraphs (a)
 and (c) of the Commercial Computer Software - Restricted
 Rights clause in FAR 52.227-19.
  
 Gaussian, Inc.
 340 Quinnipiac St., Bldg. 40, Wallingford CT 06492
  
  
 ---------------------------------------------------------------
 Warning -- This program may not be used in any manner that
 competes with the business of Gaussian, Inc. or will provide
 assistance to any competitor of Gaussian, Inc.  The licensee
 of this program is prohibited from giving any competitor of
 Gaussian, Inc. access to this program.  By using this program,
 the user acknowledges that Gaussian, Inc. is engaged in the
 business of creating and licensing software in the field of
 computational chemistry and represents and warrants to the
 licensee that it is not a competitor of Gaussian, Inc. and that
 it will not use this program in any manner prohibited above.
 ---------------------------------------------------------------
  

 Cite this work as:
 Gaussian 16, Revision C.01,
 M. J. Frisch, G. W. Trucks, H. B. Schlegel, G. E. Scuseria, 
 M. A. Robb, J. R. Cheeseman, G. Scalmani, V. Barone, 
 G. A. Petersson, H. Nakatsuji, X. Li, M. Caricato, A. V. Marenich, 
 J. Bloino, B. G. Janesko, R. Gomperts, B. Mennucci, H. P. Hratchian, 
 J. V. Ortiz, A. F. Izmaylov, J. L. Sonnenberg, D. Williams-Young, 
 F. Ding, F. Lipparini, F. Egidi, J. Goings, B. Peng, A. Petrone, 
 T. Henderson, D. Ranasinghe, V. G. Zakrzewski, J. Gao, N. Rega, 
 G. Zheng, W. Liang, M. Hada, M. Ehara, K. Toyota, R. Fukuda, 
 J. Hasegawa, M. Ishida, T. Nakajima, Y. Honda, O. Kitao, H. Nakai, 
 T. Vreven, K. Throssell, J. A. Montgomery, Jr., J. E. Peralta, 
 F. Ogliaro, M. J. Bearpark, J. J. Heyd, E. N. Brothers, K. N. Kudin, 
 V. N. Staroverov, T. A. Keith, R. Kobayashi, J. Normand, 
 K. Raghavachari, A. P. Rendell, J. C. Burant, S. S. Iyengar, 
 J. Tomasi, M. Cossi, J. M. Millam, M. Klene, C. Adamo, R. Cammi, 
 J. W. Ochterski, R. L. Martin, K. Morokuma, O. Farkas, 
 J. B. Foresman, and D. J. Fox, Gaussian, Inc., Wallingford CT, 2019.
 
 ******************************************
 Gaussian 16:  ES64L-G16RevC.01  3-Jul-2019
                10-Dec-2024 
 ******************************************
 Default route: SCF=Direct
 ----------------------------------------------------
 # m06/genecp scf=tight int=ultrafine 5d freq=noraman
 ----------------------------------------------------
 1/10=4,30=1,38=1/1,3;
 2/12=2,17=6,18=5,40=1/2;
 3/5=7,8=1,11=2,16=1,17=8,25=1,30=1,71=2,74=-54,75=-5,140=1/1,2,3;
 4//1;
 5/5=2,32=2,38=5,98=1/2;
 8/6=4,10=90,11=11/1;
 11/6=1,8=1,9=11,15=111,16=1/1,2,10;
 10/6=1/2;
 6/7=2,8=2,9=2,10=2,28=1/1;
 7/8=1,10=1,25=1/1,2,3,16;
 1/10=4,30=1/3;
 99//99;
 ------
 OPT-TS
 ------
 Symbolic Z-matrix:
 Charge =  0 Multiplicity = 1
 C                    -1.95078   1.23695   1.98464 
 C                    -2.76268  -0.24893   0.41274 
 C                    -4.01621  -0.26322   1.004 
 C                    -4.24094   0.53555   2.1176 
 C                    -3.19331   1.28482   2.62134 
 C                    -0.76164   1.93985   2.51002 
 C                     1.52601   2.30168   2.30675 
 C                     1.5577    3.06408   3.46653 
 C                     0.37166   3.27501   4.15696 
 C                    -0.79737   2.7051    3.67641 
 H                    -2.53448  -0.84618  -0.47011 
 H                    -5.2215    0.55951   2.58948 
 H                    -3.34845   1.89959   3.50309 
 H                     2.42154   2.09254   1.72078 
 H                     0.35389   3.87239   5.06638 
 H                    -1.73035   2.85492   4.21214 
 N                    -1.76259   0.49396   0.88262 
 N                     0.39432   1.76238   1.83786 
 Ir                    0.34289   0.5574   -0.07322 
 O                     2.79596  -0.01899  -1.81401 
 O                     1.10469  -2.2766   -1.1278 
 O                     2.14543  -1.18523   1.78621 
 B                     0.19435  -1.23029  -1.07672 
 B                     2.28385   0.54248  -0.65229 
 B                     0.88318  -0.99383   1.25152 
 O                    -0.03896  -1.83527   1.86411 
 O                     3.3144    1.15      0.06962 
 C                     4.52794   1.04718  -0.69426 
 C                     4.21133  -0.14661  -1.63793 
 C                     2.09933  -2.34722   2.63226 
 C                     0.59545  -2.40456   3.02013 
 C                     0.64023  -3.22295  -2.09946 
 C                    -0.89376  -2.99621  -2.05583 
 O                    -0.96818  -1.58629  -1.77092 
 C                     4.89015  -0.09468  -2.99098 
 H                     5.98442  -0.10884  -2.88268 
 H                     4.59773  -0.97275  -3.58171 
 H                     4.60411   0.79954  -3.55568 
 C                     4.45674  -1.4983   -0.97608 
 H                     3.98673  -2.28041  -1.58749 
 H                     5.52847  -1.72078  -0.87939 
 H                     3.98481  -1.53437   0.01493 
 C                     4.71336   2.36058  -1.44123 
 H                     4.7045    3.18623  -0.71697 
 H                     5.66892   2.39102  -1.9822 
 H                     3.89907   2.52823  -2.15852 
 C                     5.68466   0.81973   0.2583 
 H                     6.61276   0.61068  -0.29323 
 H                     5.85036   1.71867   0.86684 
 H                     5.4806   -0.01514   0.93829 
 C                     1.2633   -2.83318  -3.4344 
 H                     2.35546  -2.82148  -3.32468 
 H                     1.00214  -3.54072  -4.23301 
 H                     0.95632  -1.82275  -3.73604 
 C                     1.09643  -4.61121  -1.70047 
 H                     0.72666  -5.36473  -2.41064 
 H                     2.19433  -4.65057  -1.70212 
 H                     0.75178  -4.88293  -0.69575 
 C                    -1.62107  -3.28072  -3.35371 
 H                    -1.47639  -4.32702  -3.65934 
 H                    -2.69964  -3.11757  -3.22332 
 H                    -1.27455  -2.62929  -4.16467 
 C                    -1.57233  -3.71987  -0.90034 
 H                    -2.60607  -3.35911  -0.81372 
 H                    -1.6067   -4.80609  -1.06029 
 H                    -1.06245  -3.51049   0.05137 
 C                     0.04269  -3.79501   3.25521 
 H                    -1.02328  -3.73256   3.50959 
 H                     0.13887  -4.42285   2.36155 
 H                     0.56282  -4.29008   4.088 
 C                     0.24704  -1.49579   4.19389 
 H                    -0.84595  -1.41417   4.26075 
 H                     0.6247   -1.88566   5.14877 
 H                     0.65208  -0.48396   4.04341 
 C                     3.05428  -2.14489   3.79087 
 H                     2.99452  -2.98234   4.50115 
 H                     4.08351  -2.09436   3.41202 
 H                     2.84972  -1.21209   4.32829 
 C                     2.54225  -3.53531   1.78981 
 H                     3.55966  -3.35171   1.42067 
 H                     2.55283  -4.46863   2.36877 
 H                     1.89102  -3.65352   0.91436 
 H                     2.49951   3.48176   3.81295 
 C                    -1.35346   2.91345  -1.58661 
 C                    -1.57154   4.2612   -1.88826 
 C                    -0.10115   2.46651  -1.12905 
 C                    -0.54164   5.1867   -1.80003 
 C                     0.92848   3.41992  -1.07111 
 C                     0.7179    4.75644  -1.39477 
 H                    -0.71846   6.23158  -2.05083 
 H                     0.16692   0.94642  -1.66517 
 H                    -2.56937   4.57255  -2.19877 
 H                     1.92155   3.11283  -0.73973 
 C                    -2.55765   2.0278   -1.71959 
 O                    -3.50714   2.15885  -0.95102 
 N                    -2.56638   1.12362  -2.74507 
 C                    -3.67007   0.19794  -2.8697 
 H                    -4.43541   0.45397  -2.13309 
 H                    -4.10463   0.25904  -3.87809 
 H                    -3.31766  -0.83291  -2.70355 
 C                    -1.52206   0.96793  -3.73396 
 H                    -0.81085   1.79613  -3.6796 
 H                    -0.98617   0.01826  -3.57988 
 H                    -1.96935   0.96299  -4.73921 
 H                     1.54394   5.4645   -1.32667 
 C                    -5.14536  -1.0369    0.40492 
 F                    -5.98023  -0.2303   -0.26138 
 F                    -5.87053  -1.65034   1.34892 
 F                    -4.72308  -1.97019  -0.45499 
 

 GradGradGradGradGradGradGradGradGradGradGradGradGradGradGradGradGradGrad
 Berny optimization.
 Initialization pass.
 Trust Radius=3.00D-01 FncErr=1.00D-07 GrdErr=1.00D-07 EigMax=2.50D+02 EigMin=1.00D-04
 Number of steps in this run=      2 maximum allowed number of steps=      2.
 GradGradGradGradGradGradGradGradGradGradGradGradGradGradGradGradGradGrad

 Stoichiometry    C38H54B3F3IrN3O7
 Framework group  C1[X(C38H54B3F3IrN3O7)]
 Deg. of freedom   321
 Full point group                 C1      NOp   1
 Largest Abelian subgroup         C1      NOp   1
 Largest concise Abelian subgroup C1      NOp   1
                         Standard orientation:                         
 ---------------------------------------------------------------------
 Center     Atomic      Atomic             Coordinates (Angstroms)
 Number     Number       Type             X           Y           Z
 ---------------------------------------------------------------------
      1          6           0       -1.950780    1.236950    1.984640
      2          6           0       -2.762680   -0.248930    0.412740
      3          6           0       -4.016210   -0.263221    1.004000
      4          6           0       -4.240940    0.535549    2.117600
      5          6           0       -3.193310    1.284819    2.621340
      6          6           0       -0.761640    1.939850    2.510020
      7          6           0        1.526010    2.301680    2.306750
      8          6           0        1.557700    3.064080    3.466530
      9          6           0        0.371660    3.275010    4.156960
     10          6           0       -0.797370    2.705100    3.676410
     11          1           0       -2.534480   -0.846180   -0.470110
     12          1           0       -5.221500    0.559509    2.589480
     13          1           0       -3.348450    1.899589    3.503090
     14          1           0        2.421540    2.092540    1.720780
     15          1           0        0.353890    3.872390    5.066380
     16          1           0       -1.730350    2.854920    4.212140
     17          7           0       -1.762590    0.493960    0.882620
     18          7           0        0.394320    1.762380    1.837860
     19         77           0        0.342890    0.557400   -0.073220
     20          8           0        2.795960   -0.018990   -1.814010
     21          8           0        1.104690   -2.276600   -1.127800
     22          8           0        2.145430   -1.185230    1.786210
     23          5           0        0.194350   -1.230290   -1.076720
     24          5           0        2.283850    0.542480   -0.652290
     25          5           0        0.883180   -0.993830    1.251520
     26          8           0       -0.038960   -1.835270    1.864110
     27          8           0        3.314400    1.150000    0.069620
     28          6           0        4.527940    1.047180   -0.694260
     29          6           0        4.211330   -0.146610   -1.637930
     30          6           0        2.099330   -2.347220    2.632260
     31          6           0        0.595450   -2.404560    3.020130
     32          6           0        0.640231   -3.222950   -2.099460
     33          6           0       -0.893759   -2.996210   -2.055830
     34          8           0       -0.968180   -1.586290   -1.770920
     35          6           0        4.890150   -0.094679   -2.990980
     36          1           0        5.984420   -0.108839   -2.882680
     37          1           0        4.597730   -0.972750   -3.581710
     38          1           0        4.604110    0.799540   -3.555680
     39          6           0        4.456740   -1.498300   -0.976080
     40          1           0        3.986730   -2.280410   -1.587490
     41          1           0        5.528470   -1.720779   -0.879390
     42          1           0        3.984810   -1.534370    0.014930
     43          6           0        4.713360    2.360580   -1.441230
     44          1           0        4.704500    3.186230   -0.716970
     45          1           0        5.668920    2.391021   -1.982200
     46          1           0        3.899070    2.528230   -2.158520
     47          6           0        5.684660    0.819731    0.258300
     48          1           0        6.612760    0.610681   -0.293230
     49          1           0        5.850360    1.718671    0.866840
     50          1           0        5.480600   -0.015139    0.938290
     51          6           0        1.263301   -2.833180   -3.434400
     52          1           0        2.355461   -2.821480   -3.324680
     53          1           0        1.002141   -3.540720   -4.233010
     54          1           0        0.956320   -1.822750   -3.736040
     55          6           0        1.096431   -4.611210   -1.700470
     56          1           0        0.726661   -5.364730   -2.410640
     57          1           0        2.194331   -4.650570   -1.702120
     58          1           0        0.751781   -4.882930   -0.695750
     59          6           0       -1.621069   -3.280720   -3.353710
     60          1           0       -1.476389   -4.327020   -3.659340
     61          1           0       -2.699639   -3.117570   -3.223320
     62          1           0       -1.274549   -2.629290   -4.164670
     63          6           0       -1.572329   -3.719870   -0.900340
     64          1           0       -2.606069   -3.359110   -0.813720
     65          1           0       -1.606699   -4.806090   -1.060290
     66          1           0       -1.062449   -3.510490    0.051370
     67          6           0        0.042691   -3.795010    3.255210
     68          1           0       -1.023279   -3.732560    3.509590
     69          1           0        0.138871   -4.422850    2.361550
     70          1           0        0.562821   -4.290080    4.088000
     71          6           0        0.247040   -1.495790    4.193890
     72          1           0       -0.845950   -1.414170    4.260750
     73          1           0        0.624700   -1.885660    5.148770
     74          1           0        0.652080   -0.483960    4.043410
     75          6           0        3.054280   -2.144890    3.790870
     76          1           0        2.994521   -2.982340    4.501150
     77          1           0        4.083510   -2.094360    3.412020
     78          1           0        2.849720   -1.212090    4.328290
     79          6           0        2.542251   -3.535310    1.789810
     80          1           0        3.559661   -3.351710    1.420670
     81          1           0        2.552831   -4.468630    2.368770
     82          1           0        1.891021   -3.653520    0.914360
     83          1           0        2.499510    3.481760    3.812950
     84          6           0       -1.353460    2.913450   -1.586610
     85          6           0       -1.571540    4.261200   -1.888260
     86          6           0       -0.101150    2.466510   -1.129050
     87          6           0       -0.541641    5.186700   -1.800030
     88          6           0        0.928480    3.419920   -1.071110
     89          6           0        0.717900    4.756440   -1.394770
     90          1           0       -0.718461    6.231580   -2.050830
     91          1           0        0.166920    0.946420   -1.665170
     92          1           0       -2.569370    4.572550   -2.198770
     93          1           0        1.921550    3.112830   -0.739730
     94          6           0       -2.557650    2.027800   -1.719590
     95          8           0       -3.507140    2.158849   -0.951020
     96          7           0       -2.566380    1.123620   -2.745070
     97          6           0       -3.670070    0.197939   -2.869700
     98          1           0       -4.435410    0.453969   -2.133090
     99          1           0       -4.104630    0.259039   -3.878090
    100          1           0       -3.317660   -0.832911   -2.703550
    101          6           0       -1.522060    0.967930   -3.733960
    102          1           0       -0.810850    1.796130   -3.679600
    103          1           0       -0.986170    0.018260   -3.579880
    104          1           0       -1.969350    0.962990   -4.739210
    105          1           0        1.543939    5.464500   -1.326670
    106          6           0       -5.145360   -1.036901    0.404920
    107          9           0       -5.980230   -0.230301   -0.261380
    108          9           0       -5.870530   -1.650341    1.348920
    109          9           0       -4.723080   -1.970191   -0.454990
 ---------------------------------------------------------------------
 Rotational constants (GHZ):           0.0639681           0.0497968           0.0467710
 General basis read from cards:  (5D, 7F)
 ======================================================================================================
                                       Pseudopotential Parameters
 ======================================================================================================
  Center     Atomic      Valence      Angular      Power
  Number     Number     Electrons     Momentum     of R      Exponent        Coefficient   SO-Coeffient
 ======================================================================================================
    1          6
                                   No pseudopotential on this center.
    2          6
                                   No pseudopotential on this center.
    3          6
                                   No pseudopotential on this center.
    4          6
                                   No pseudopotential on this center.
    5          6
                                   No pseudopotential on this center.
    6          6
                                   No pseudopotential on this center.
    7          6
                                   No pseudopotential on this center.
    8          6
                                   No pseudopotential on this center.
    9          6
                                   No pseudopotential on this center.
   10          6
                                   No pseudopotential on this center.
   11          1
                                   No pseudopotential on this center.
   12          1
                                   No pseudopotential on this center.
   13          1
                                   No pseudopotential on this center.
   14          1
                                   No pseudopotential on this center.
   15          1
                                   No pseudopotential on this center.
   16          1
                                   No pseudopotential on this center.
   17          7
                                   No pseudopotential on this center.
   18          7
                                   No pseudopotential on this center.
   19         77           17
                                      G and up 
                                                     1      823.5880147       -0.15780140    0.00000000
                                                     2      364.6613336    -1517.52704460    0.00000000
                                                     2       55.7082801     -316.53065290    0.00000000
                                                     2       12.0464544      -91.88809410    0.00000000
                                                     2        3.5120610       -9.22417730    0.00000000
                                      S - G
                                                     0      188.0490770        3.15780140    0.00000000
                                                     1      340.4194712       26.83225770    0.00000000
                                                     2      128.2373673      800.42500070    0.00000000
                                                     2       33.8644961      369.40506830    0.00000000
                                                     2        4.7560005      242.41718990    0.00000000
                                                     2        3.9649974     -118.21732820    0.00000000
                                      P - G
                                                     0      289.7291139        2.15780140    0.00000000
                                                     1       87.4633789       61.96786100    0.00000000
                                                     2       30.4363766      269.05819860    0.00000000
                                                     2        4.0553412      231.16547930    0.00000000
                                                     2        3.5525341     -133.69526670    0.00000000
                                      D - G
                                                     0      136.4017106        3.15780140    0.00000000
                                                     1       95.0776925       45.93498030    0.00000000
                                                     2       49.2258410      359.03446680    0.00000000
                                                     2       15.0874145      176.47401190    0.00000000
                                                     2        4.0405764       54.51552860    0.00000000
                                      F - G
                                                     0      127.3507908        3.95461970    0.00000000
                                                     1       66.2364374       52.97736550    0.00000000
                                                     2       34.4299229      274.86433830    0.00000000
                                                     2       10.1995721      137.20473380    0.00000000
                                                     2        2.5409702       14.86333050    0.00000000
   20          8
                                   No pseudopotential on this center.
   21          8
                                   No pseudopotential on this center.
   22          8
                                   No pseudopotential on this center.
   23          5
                                   No pseudopotential on this center.
   24          5
                                   No pseudopotential on this center.
   25          5
                                   No pseudopotential on this center.
   26          8
                                   No pseudopotential on this center.
   27          8
                                   No pseudopotential on this center.
   28          6
                                   No pseudopotential on this center.
   29          6
                                   No pseudopotential on this center.
   30          6
                                   No pseudopotential on this center.
   31          6
                                   No pseudopotential on this center.
   32          6
                                   No pseudopotential on this center.
   33          6
                                   No pseudopotential on this center.
   34          8
                                   No pseudopotential on this center.
   35          6
                                   No pseudopotential on this center.
   36          1
                                   No pseudopotential on this center.
   37          1
                                   No pseudopotential on this center.
   38          1
                                   No pseudopotential on this center.
   39          6
                                   No pseudopotential on this center.
   40          1
                                   No pseudopotential on this center.
   41          1
                                   No pseudopotential on this center.
   42          1
                                   No pseudopotential on this center.
   43          6
                                   No pseudopotential on this center.
   44          1
                                   No pseudopotential on this center.
   45          1
                                   No pseudopotential on this center.
   46          1
                                   No pseudopotential on this center.
   47          6
                                   No pseudopotential on this center.
   48          1
                                   No pseudopotential on this center.
   49          1
                                   No pseudopotential on this center.
   50          1
                                   No pseudopotential on this center.
   51          6
                                   No pseudopotential on this center.
   52          1
                                   No pseudopotential on this center.
   53          1
                                   No pseudopotential on this center.
   54          1
                                   No pseudopotential on this center.
   55          6
                                   No pseudopotential on this center.
   56          1
                                   No pseudopotential on this center.
   57          1
                                   No pseudopotential on this center.
   58          1
                                   No pseudopotential on this center.
   59          6
                                   No pseudopotential on this center.
   60          1
                                   No pseudopotential on this center.
   61          1
                                   No pseudopotential on this center.
   62          1
                                   No pseudopotential on this center.
   63          6
                                   No pseudopotential on this center.
   64          1
                                   No pseudopotential on this center.
   65          1
                                   No pseudopotential on this center.
   66          1
                                   No pseudopotential on this center.
   67          6
                                   No pseudopotential on this center.
   68          1
                                   No pseudopotential on this center.
   69          1
                                   No pseudopotential on this center.
   70          1
                                   No pseudopotential on this center.
   71          6
                                   No pseudopotential on this center.
   72          1
                                   No pseudopotential on this center.
   73          1
                                   No pseudopotential on this center.
   74          1
                                   No pseudopotential on this center.
   75          6
                                   No pseudopotential on this center.
   76          1
                                   No pseudopotential on this center.
   77          1
                                   No pseudopotential on this center.
   78          1
                                   No pseudopotential on this center.
   79          6
                                   No pseudopotential on this center.
   80          1
                                   No pseudopotential on this center.
   81          1
                                   No pseudopotential on this center.
   82          1
                                   No pseudopotential on this center.
   83          1
                                   No pseudopotential on this center.
   84          6
                                   No pseudopotential on this center.
   85          6
                                   No pseudopotential on this center.
   86          6
                                   No pseudopotential on this center.
   87          6
                                   No pseudopotential on this center.
   88          6
                                   No pseudopotential on this center.
   89          6
                                   No pseudopotential on this center.
   90          1
                                   No pseudopotential on this center.
   91          1
                                   No pseudopotential on this center.
   92          1
                                   No pseudopotential on this center.
   93          1
                                   No pseudopotential on this center.
   94          6
                                   No pseudopotential on this center.
   95          8
                                   No pseudopotential on this center.
   96          7
                                   No pseudopotential on this center.
   97          6
                                   No pseudopotential on this center.
   98          1
                                   No pseudopotential on this center.
   99          1
                                   No pseudopotential on this center.
  100          1
                                   No pseudopotential on this center.
  101          6
                                   No pseudopotential on this center.
  102          1
                                   No pseudopotential on this center.
  103          1
                                   No pseudopotential on this center.
  104          1
                                   No pseudopotential on this center.
  105          1
                                   No pseudopotential on this center.
  106          6
                                   No pseudopotential on this center.
  107          9
                                   No pseudopotential on this center.
  108          9
                                   No pseudopotential on this center.
  109          9
                                   No pseudopotential on this center.
 ======================================================================================================
 There are   942 symmetry adapted cartesian basis functions of A   symmetry.
 There are   886 symmetry adapted basis functions of A   symmetry.
   886 basis functions,  1771 primitive gaussians,   942 cartesian basis functions
   209 alpha electrons      209 beta electrons
       nuclear repulsion energy      9610.2027978187 Hartrees.
 NAtoms=  109 NActive=  109 NUniq=  109 SFac= 1.00D+00 NAtFMM=   60 NAOKFM=T Big=T
 Integral buffers will be    131072 words long.
 Raffenetti 2 integral format.
 Two-electron integral symmetry is turned on.
 One-electron integrals computed using PRISM.
   1 Symmetry operations used in ECPInt.
 ECPInt:  NShTT=   55278 NPrTT=  342696 LenC2=   42882 LenP2D=  133312.
 LDataN:  DoStor=T MaxTD1= 6 Len=  172
 NBasis=   886 RedAO= T EigKep=  4.55D-04  NBF=   886
 NBsUse=   886 1.00D-06 EigRej= -1.00D+00 NBFU=   886
 Defaulting to unpruned grid for atomic number  77.
 ExpMin= 2.90D-02 ExpMax= 7.00D+03 ExpMxC= 1.05D+03 IAcc=3 IRadAn=         5 AccDes= 0.00D+00
 Harris functional with IExCor= 1009 and IRadAn=       5 diagonalized for initial guess.
 HarFok:  IExCor= 1009 AccDes= 0.00D+00 IRadAn=         5 IDoV= 1 UseB2=F ITyADJ=14
 ICtDFT=  3500011 ScaDFX=  1.000000  1.000000  1.000000  1.000000
 Defaulting to unpruned grid for atomic number  77.
 FoFCou: FMM=F IPFlag=           0 FMFlag=      100000 FMFlg1=        2001
         NFxFlg=           0 DoJE=T BraDBF=F KetDBF=T FulRan=T
         wScrn=  0.000000 ICntrl=       500 IOpCl=  0 I1Cent=   200000004 NGrid=           0
         NMat0=    1 NMatS0=      1 NMatT0=    0 NMatD0=    1 NMtDS0=    0 NMtDT0=    0
 Petite list used in FoFCou.
 Requested convergence on RMS density matrix=1.00D-08 within 128 cycles.
 Requested convergence on MAX density matrix=1.00D-06.
 Requested convergence on             energy=1.00D-06.
 No special actions if energy rises.
 Defaulting to unpruned grid for atomic number  77.
 Defaulting to unpruned grid for atomic number  77.
 Defaulting to unpruned grid for atomic number  77.
 Defaulting to unpruned grid for atomic number  77.
 Defaulting to unpruned grid for atomic number  77.
 Defaulting to unpruned grid for atomic number  77.
 Defaulting to unpruned grid for atomic number  77.
 Defaulting to unpruned grid for atomic number  77.
 Defaulting to unpruned grid for atomic number  77.
 Defaulting to unpruned grid for atomic number  77.
 Defaulting to unpruned grid for atomic number  77.
 Defaulting to unpruned grid for atomic number  77.
 Defaulting to unpruned grid for atomic number  77.
 Defaulting to unpruned grid for atomic number  77.
 Defaulting to unpruned grid for atomic number  77.
 Defaulting to unpruned grid for atomic number  77.
 SCF Done:  E(RM06) =  -2648.91435245     A.U. after   15 cycles
            NFock= 15  Conv=0.66D-08     -V/T= 2.0341
 DoSCS=F DFT=T ScalE2(SS,OS)=  1.000000  1.000000
 Range of M.O.s used for correlation:     1   886
 NBasis=   886 NAE=   209 NBE=   209 NFC=     0 NFV=     0
 NROrb=    886 NOA=   209 NOB=   209 NVA=   677 NVB=   677

 **** Warning!!: The largest alpha MO coefficient is  0.14566936D+02

   1 Symmetry operations used in ECPInt.
 ECPInt:  NShTT=   55278 NPrTT=  342696 LenC2=   42882 LenP2D=  133312.
 LDataN:  DoStor=T MaxTD1= 7 Len=  274
 Number of processors reduced to   7 by ecpmxn.
 Symmetrizing basis deriv contribution to polar:
 IMax=3 JMax=2 DiffMx= 0.00D+00
 G2DrvN: will do   110 centers at a time, making    1 passes.
 Calling FoFCou, ICntrl=  3107 FMM=T I1Cent=   0 AccDes= 0.00D+00.
 Defaulting to unpruned grid for atomic number  77.
 Defaulting to unpruned grid for atomic number  77.
 Defaulting to unpruned grid for atomic number  77.
 Defaulting to unpruned grid for atomic number  77.
 Defaulting to unpruned grid for atomic number  77.
 Defaulting to unpruned grid for atomic number  77.
 Defaulting to unpruned grid for atomic number  77.
 Defaulting to unpruned grid for atomic number  77.
 Defaulting to unpruned grid for atomic number  77.
 Defaulting to unpruned grid for atomic number  77.
 Defaulting to unpruned grid for atomic number  77.
 Defaulting to unpruned grid for atomic number  77.
 Defaulting to unpruned grid for atomic number  77.
 Defaulting to unpruned grid for atomic number  77.
 Defaulting to unpruned grid for atomic number  77.
 Defaulting to unpruned grid for atomic number  77.
 End of G2Drv F.D. properties file   721 does not exist.
 End of G2Drv F.D. properties file   722 does not exist.
 End of G2Drv F.D. properties file   788 does not exist.
          IDoAtm=11111111111111111111111111111111111111111111111111
          IDoAtm=11111111111111111111111111111111111111111111111111
          IDoAtm=111111111
          Differentiating once with respect to electric field.
                with respect to dipole field.
          Differentiating once with respect to nuclear coordinates.
 Defaulting to unpruned grid for atomic number  77.
 CalDSu exits because no D1Ps are significant.
 Defaulting to unpruned grid for atomic number  77.
 Defaulting to unpruned grid for atomic number  77.
 Defaulting to unpruned grid for atomic number  77.
 Defaulting to unpruned grid for atomic number  77.
 Defaulting to unpruned grid for atomic number  77.
 Defaulting to unpruned grid for atomic number  77.
 Defaulting to unpruned grid for atomic number  77.
 Defaulting to unpruned grid for atomic number  77.
 Defaulting to unpruned grid for atomic number  77.
 Defaulting to unpruned grid for atomic number  77.
 Defaulting to unpruned grid for atomic number  77.
 Defaulting to unpruned grid for atomic number  77.
 Defaulting to unpruned grid for atomic number  77.
 Defaulting to unpruned grid for atomic number  77.
 Defaulting to unpruned grid for atomic number  77.
 Defaulting to unpruned grid for atomic number  77.
          There are   330 degrees of freedom in the 1st order CPHF.  IDoFFX=6 NUNeed=     3.
    327 vectors produced by pass  0 Test12= 1.41D-13 1.00D-09 XBig12= 5.22D+02 7.49D+00.
 AX will form    72 AO Fock derivatives at one time.
    327 vectors produced by pass  1 Test12= 1.41D-13 1.00D-09 XBig12= 9.79D+01 1.29D+00.
    327 vectors produced by pass  2 Test12= 1.41D-13 1.00D-09 XBig12= 1.14D+00 8.98D-02.
    327 vectors produced by pass  3 Test12= 1.41D-13 1.00D-09 XBig12= 8.50D-03 7.12D-03.
    327 vectors produced by pass  4 Test12= 1.41D-13 1.00D-09 XBig12= 3.10D-05 5.82D-04.
    299 vectors produced by pass  5 Test12= 1.41D-13 1.00D-09 XBig12= 6.44D-08 1.79D-05.
     91 vectors produced by pass  6 Test12= 1.41D-13 1.00D-09 XBig12= 9.48D-11 5.39D-07.
      3 vectors produced by pass  7 Test12= 1.41D-13 1.00D-09 XBig12= 1.31D-13 2.75D-08.
      1 vectors produced by pass  8 Test12= 1.41D-13 1.00D-09 XBig12= 1.07D-16 1.14D-09.
 InvSVY:  IOpt=1 It=  1 EMax= 1.42D-14
 Solved reduced A of dimension  2029 with   330 vectors.
 Isotropic polarizability for W=    0.000000      508.95 Bohr**3.
 End of Minotr F.D. properties file   721 does not exist.
 End of Minotr F.D. properties file   722 does not exist.
 End of Minotr F.D. properties file   788 does not exist.
 Hyperfine terms turned off by default for NAtoms > 100.

 **********************************************************************

            Population analysis using the SCF Density.

 **********************************************************************

 Orbital symmetries:
       Occupied  (A) (A) (A) (A) (A) (A) (A) (A) (A) (A) (A) (A)
                 (A) (A) (A) (A) (A) (A) (A) (A) (A) (A) (A) (A)
                 (A) (A) (A) (A) (A) (A) (A) (A) (A) (A) (A) (A)
                 (A) (A) (A) (A) (A) (A) (A) (A) (A) (A) (A) (A)
                 (A) (A) (A) (A) (A) (A) (A) (A) (A) (A) (A) (A)
                 (A) (A) (A) (A) (A) (A) (A) (A) (A) (A) (A) (A)
                 (A) (A) (A) (A) (A) (A) (A) (A) (A) (A) (A) (A)
                 (A) (A) (A) (A) (A) (A) (A) (A) (A) (A) (A) (A)
                 (A) (A) (A) (A) (A) (A) (A) (A) (A) (A) (A) (A)
                 (A) (A) (A) (A) (A) (A) (A) (A) (A) (A) (A) (A)
                 (A) (A) (A) (A) (A) (A) (A) (A) (A) (A) (A) (A)
                 (A) (A) (A) (A) (A) (A) (A) (A) (A) (A) (A) (A)
                 (A) (A) (A) (A) (A) (A) (A) (A) (A) (A) (A) (A)
                 (A) (A) (A) (A) (A) (A) (A) (A) (A) (A) (A) (A)
                 (A) (A) (A) (A) (A) (A) (A) (A) (A) (A) (A) (A)
                 (A) (A) (A) (A) (A) (A) (A) (A) (A) (A) (A) (A)
                 (A) (A) (A) (A) (A) (A) (A) (A) (A) (A) (A) (A)
                 (A) (A) (A) (A) (A)
       Virtual   (A) (A) (A) (A) (A) (A) (A) (A) (A) (A) (A) (A)
                 (A) (A) (A) (A) (A) (A) (A) (A) (A) (A) (A) (A)
                 (A) (A) (A) (A) (A) (A) (A) (A) (A) (A) (A) (A)
                 (A) (A) (A) (A) (A) (A) (A) (A) (A) (A) (A) (A)
                 (A) (A) (A) (A) (A) (A) (A) (A) (A) (A) (A) (A)
                 (A) (A) (A) (A) (A) (A) (A) (A) (A) (A) (A) (A)
                 (A) (A) (A) (A) (A) (A) (A) (A) (A) (A) (A) (A)
                 (A) (A) (A) (A) (A) (A) (A) (A) (A) (A) (A) (A)
                 (A) (A) (A) (A) (A) (A) (A) (A) (A) (A) (A) (A)
                 (A) (A) (A) (A) (A) (A) (A) (A) (A) (A) (A) (A)
                 (A) (A) (A) (A) (A) (A) (A) (A) (A) (A) (A) (A)
                 (A) (A) (A) (A) (A) (A) (A) (A) (A) (A) (A) (A)
                 (A) (A) (A) (A) (A) (A) (A) (A) (A) (A) (A) (A)
                 (A) (A) (A) (A) (A) (A) (A) (A) (A) (A) (A) (A)
                 (A) (A) (A) (A) (A) (A) (A) (A) (A) (A) (A) (A)
                 (A) (A) (A) (A) (A) (A) (A) (A) (A) (A) (A) (A)
                 (A) (A) (A) (A) (A) (A) (A) (A) (A) (A) (A) (A)
                 (A) (A) (A) (A) (A) (A) (A) (A) (A) (A) (A) (A)
                 (A) (A) (A) (A) (A) (A) (A) (A) (A) (A) (A) (A)
                 (A) (A) (A) (A) (A) (A) (A) (A) (A) (A) (A) (A)
                 (A) (A) (A) (A) (A) (A) (A) (A) (A) (A) (A) (A)
                 (A) (A) (A) (A) (A) (A) (A) (A) (A) (A) (A) (A)
                 (A) (A) (A) (A) (A) (A) (A) (A) (A) (A) (A) (A)
                 (A) (A) (A) (A) (A) (A) (A) (A) (A) (A) (A) (A)
                 (A) (A) (A) (A) (A) (A) (A) (A) (A) (A) (A) (A)
                 (A) (A) (A) (A) (A) (A) (A) (A) (A) (A) (A) (A)
                 (A) (A) (A) (A) (A) (A) (A) (A) (A) (A) (A) (A)
                 (A) (A) (A) (A) (A) (A) (A) (A) (A) (A) (A) (A)
                 (A) (A) (A) (A) (A) (A) (A) (A) (A) (A) (A) (A)
                 (A) (A) (A) (A) (A) (A) (A) (A) (A) (A) (A) (A)
                 (A) (A) (A) (A) (A) (A) (A) (A) (A) (A) (A) (A)
                 (A) (A) (A) (A) (A) (A) (A) (A) (A) (A) (A) (A)
                 (A) (A) (A) (A) (A) (A) (A) (A) (A) (A) (A) (A)
                 (A) (A) (A) (A) (A) (A) (A) (A) (A) (A) (A) (A)
                 (A) (A) (A) (A) (A) (A) (A) (A) (A) (A) (A) (A)
                 (A) (A) (A) (A) (A) (A) (A) (A) (A) (A) (A) (A)
                 (A) (A) (A) (A) (A) (A) (A) (A) (A) (A) (A) (A)
                 (A) (A) (A) (A) (A) (A) (A) (A) (A) (A) (A) (A)
                 (A) (A) (A) (A) (A) (A) (A) (A) (A) (A) (A) (A)
                 (A) (A) (A) (A) (A) (A) (A) (A) (A) (A) (A) (A)
                 (A) (A) (A) (A) (A) (A) (A) (A) (A) (A) (A) (A)
                 (A) (A) (A) (A) (A) (A) (A) (A) (A) (A) (A) (A)
                 (A) (A) (A) (A) (A) (A) (A) (A) (A) (A) (A) (A)
                 (A) (A) (A) (A) (A) (A) (A) (A) (A) (A) (A) (A)
                 (A) (A) (A) (A) (A) (A) (A) (A) (A) (A) (A) (A)
                 (A) (A) (A) (A) (A) (A) (A) (A) (A) (A) (A) (A)
                 (A) (A) (A) (A) (A) (A) (A) (A) (A) (A) (A) (A)
                 (A) (A) (A) (A) (A) (A) (A) (A) (A) (A) (A) (A)
                 (A) (A) (A) (A) (A) (A) (A) (A) (A) (A) (A) (A)
                 (A) (A) (A) (A) (A) (A) (A) (A) (A) (A) (A) (A)
                 (A) (A) (A) (A) (A) (A) (A) (A) (A) (A) (A) (A)
                 (A) (A) (A) (A) (A) (A) (A) (A) (A) (A) (A) (A)
                 (A) (A) (A) (A) (A) (A) (A) (A) (A) (A) (A) (A)
                 (A) (A) (A) (A) (A) (A) (A) (A) (A) (A) (A) (A)
                 (A) (A) (A) (A) (A) (A) (A) (A) (A) (A) (A) (A)
                 (A) (A) (A) (A) (A) (A) (A) (A) (A) (A) (A) (A)
                 (A) (A) (A) (A) (A)
 The electronic state is 1-A.
 Alpha  occ. eigenvalues --  -24.82693 -24.82281 -24.81876 -19.21099 -19.20796
 Alpha  occ. eigenvalues --  -19.20650 -19.20480 -19.20262 -19.19408 -19.17253
 Alpha  occ. eigenvalues --  -14.45293 -14.44062 -14.41429 -10.50719 -10.33027
 Alpha  occ. eigenvalues --  -10.32319 -10.32103 -10.30131 -10.30106 -10.29821
 Alpha  occ. eigenvalues --  -10.29732 -10.29586 -10.29579 -10.29173 -10.29125
 Alpha  occ. eigenvalues --  -10.29052 -10.28810 -10.28432 -10.28358 -10.28148
 Alpha  occ. eigenvalues --  -10.27835 -10.25801 -10.25342 -10.24614 -10.23804
 Alpha  occ. eigenvalues --  -10.23416 -10.23367 -10.23297 -10.23290 -10.23252
 Alpha  occ. eigenvalues --  -10.23247 -10.23147 -10.23133 -10.22825 -10.22671
 Alpha  occ. eigenvalues --  -10.22450 -10.22428 -10.22423 -10.22415 -10.22219
 Alpha  occ. eigenvalues --  -10.21374  -6.81083  -6.80222  -6.79208  -3.63505
 Alpha  occ. eigenvalues --   -2.06023  -2.05828  -2.04394  -1.35124  -1.26654
 Alpha  occ. eigenvalues --   -1.26069  -1.06838  -1.06582  -1.05871  -1.03175
 Alpha  occ. eigenvalues --   -1.00042  -0.99758  -0.99673  -0.98857  -0.97555
 Alpha  occ. eigenvalues --   -0.93055  -0.85483  -0.84595  -0.84099  -0.83035
 Alpha  occ. eigenvalues --   -0.80854  -0.80717  -0.80094  -0.78751  -0.75314
 Alpha  occ. eigenvalues --   -0.75270  -0.75197  -0.74512  -0.73327  -0.73290
 Alpha  occ. eigenvalues --   -0.71011  -0.70858  -0.70595  -0.70111  -0.68493
 Alpha  occ. eigenvalues --   -0.68343  -0.68236  -0.68091  -0.67880  -0.67303
 Alpha  occ. eigenvalues --   -0.65129  -0.64101  -0.62343  -0.61755  -0.61231
 Alpha  occ. eigenvalues --   -0.61075  -0.61014  -0.60422  -0.59716  -0.59149
 Alpha  occ. eigenvalues --   -0.57037  -0.55179  -0.55028  -0.54333  -0.54242
 Alpha  occ. eigenvalues --   -0.53813  -0.53524  -0.53412  -0.52931  -0.52227
 Alpha  occ. eigenvalues --   -0.51290  -0.50159  -0.48783  -0.48662  -0.48385
 Alpha  occ. eigenvalues --   -0.48197  -0.47737  -0.47439  -0.47112  -0.47059
 Alpha  occ. eigenvalues --   -0.46906  -0.46649  -0.46452  -0.46197  -0.46134
 Alpha  occ. eigenvalues --   -0.45913  -0.45278  -0.45030  -0.44829  -0.44739
 Alpha  occ. eigenvalues --   -0.44629  -0.44190  -0.44178  -0.44122  -0.43933
 Alpha  occ. eigenvalues --   -0.43795  -0.43421  -0.43254  -0.42994  -0.42491
 Alpha  occ. eigenvalues --   -0.42279  -0.41688  -0.40593  -0.40563  -0.40396
 Alpha  occ. eigenvalues --   -0.40112  -0.40044  -0.39996  -0.39842  -0.39801
 Alpha  occ. eigenvalues --   -0.39716  -0.39634  -0.39500  -0.39425  -0.39224
 Alpha  occ. eigenvalues --   -0.39003  -0.38825  -0.38649  -0.38483  -0.38030
 Alpha  occ. eigenvalues --   -0.37905  -0.37812  -0.37263  -0.37028  -0.36784
 Alpha  occ. eigenvalues --   -0.36772  -0.36468  -0.36276  -0.36157  -0.36141
 Alpha  occ. eigenvalues --   -0.35710  -0.35569  -0.35376  -0.35202  -0.34912
 Alpha  occ. eigenvalues --   -0.34548  -0.34422  -0.33988  -0.33569  -0.33144
 Alpha  occ. eigenvalues --   -0.32595  -0.32381  -0.32220  -0.31967  -0.31810
 Alpha  occ. eigenvalues --   -0.31363  -0.31148  -0.30825  -0.30306  -0.30005
 Alpha  occ. eigenvalues --   -0.29815  -0.27913  -0.27012  -0.26771  -0.26400
 Alpha  occ. eigenvalues --   -0.26028  -0.25680  -0.25259  -0.23665  -0.23408
 Alpha  occ. eigenvalues --   -0.23105  -0.22360  -0.22292  -0.20954
 Alpha virt. eigenvalues --   -0.07342  -0.03836  -0.02841   0.00652   0.01024
 Alpha virt. eigenvalues --    0.01889   0.04226   0.04946   0.05894   0.06193
 Alpha virt. eigenvalues --    0.06752   0.07163   0.07659   0.08402   0.08979
 Alpha virt. eigenvalues --    0.09493   0.10061   0.10464   0.10811   0.10871
 Alpha virt. eigenvalues --    0.11069   0.11401   0.11852   0.12364   0.12489
 Alpha virt. eigenvalues --    0.13020   0.13434   0.13593   0.13807   0.14253
 Alpha virt. eigenvalues --    0.14300   0.14581   0.14844   0.15096   0.15286
 Alpha virt. eigenvalues --    0.15483   0.15491   0.15792   0.15995   0.16152
 Alpha virt. eigenvalues --    0.16373   0.16475   0.16766   0.16964   0.17156
 Alpha virt. eigenvalues --    0.17521   0.17611   0.17830   0.18147   0.18446
 Alpha virt. eigenvalues --    0.18503   0.18809   0.18989   0.19240   0.19278
 Alpha virt. eigenvalues --    0.19379   0.19706   0.19791   0.20007   0.20099
 Alpha virt. eigenvalues --    0.20285   0.20533   0.20774   0.20798   0.20982
 Alpha virt. eigenvalues --    0.21294   0.21547   0.21709   0.21977   0.22147
 Alpha virt. eigenvalues --    0.22347   0.22458   0.22970   0.23571   0.23691
 Alpha virt. eigenvalues --    0.23909   0.24063   0.24207   0.24415   0.24461
 Alpha virt. eigenvalues --    0.24628   0.24672   0.25285   0.25698   0.25777
 Alpha virt. eigenvalues --    0.26052   0.26193   0.26653   0.26743   0.27014
 Alpha virt. eigenvalues --    0.27106   0.27622   0.27757   0.28024   0.28532
 Alpha virt. eigenvalues --    0.28771   0.29167   0.29846   0.30597   0.30738
 Alpha virt. eigenvalues --    0.30959   0.31105   0.31906   0.32459   0.32933
 Alpha virt. eigenvalues --    0.33478   0.33763   0.34113   0.34562   0.35538
 Alpha virt. eigenvalues --    0.35769   0.36251   0.36869   0.37066   0.37499
 Alpha virt. eigenvalues --    0.38100   0.38450   0.39774   0.40313   0.40937
 Alpha virt. eigenvalues --    0.41512   0.42034   0.43880   0.44167   0.45230
 Alpha virt. eigenvalues --    0.46486   0.47134   0.47746   0.48025   0.48292
 Alpha virt. eigenvalues --    0.48801   0.49289   0.49969   0.50356   0.50512
 Alpha virt. eigenvalues --    0.50923   0.50987   0.51646   0.51887   0.52360
 Alpha virt. eigenvalues --    0.52493   0.52738   0.53317   0.53643   0.54123
 Alpha virt. eigenvalues --    0.54427   0.55188   0.55303   0.55521   0.56048
 Alpha virt. eigenvalues --    0.56501   0.56599   0.56845   0.57069   0.57339
 Alpha virt. eigenvalues --    0.57692   0.57895   0.58229   0.58262   0.58407
 Alpha virt. eigenvalues --    0.58679   0.58848   0.58907   0.58997   0.59358
 Alpha virt. eigenvalues --    0.59696   0.60293   0.60372   0.60576   0.60743
 Alpha virt. eigenvalues --    0.60998   0.61460   0.61660   0.61956   0.62497
 Alpha virt. eigenvalues --    0.62824   0.63081   0.63517   0.63896   0.64172
 Alpha virt. eigenvalues --    0.64342   0.64409   0.64989   0.65278   0.65945
 Alpha virt. eigenvalues --    0.66054   0.66318   0.66558   0.67131   0.67271
 Alpha virt. eigenvalues --    0.67565   0.67824   0.68381   0.68770   0.68886
 Alpha virt. eigenvalues --    0.69252   0.69883   0.70037   0.70499   0.70938
 Alpha virt. eigenvalues --    0.71241   0.71566   0.71803   0.72157   0.72307
 Alpha virt. eigenvalues --    0.72645   0.72748   0.73122   0.73841   0.74197
 Alpha virt. eigenvalues --    0.74300   0.74533   0.75016   0.75362   0.75700
 Alpha virt. eigenvalues --    0.76188   0.76589   0.76894   0.77487   0.77506
 Alpha virt. eigenvalues --    0.78078   0.78336   0.78574   0.78863   0.79255
 Alpha virt. eigenvalues --    0.79655   0.80112   0.80650   0.81213   0.81437
 Alpha virt. eigenvalues --    0.81872   0.82074   0.82331   0.82789   0.82972
 Alpha virt. eigenvalues --    0.83124   0.83431   0.83547   0.83955   0.84056
 Alpha virt. eigenvalues --    0.84261   0.84354   0.84756   0.85186   0.85431
 Alpha virt. eigenvalues --    0.85658   0.86056   0.86204   0.86349   0.86544
 Alpha virt. eigenvalues --    0.86633   0.86979   0.87305   0.87577   0.87971
 Alpha virt. eigenvalues --    0.88293   0.88359   0.88775   0.88917   0.89244
 Alpha virt. eigenvalues --    0.89606   0.89730   0.89863   0.90006   0.90208
 Alpha virt. eigenvalues --    0.90644   0.90800   0.91095   0.91417   0.91718
 Alpha virt. eigenvalues --    0.91825   0.91990   0.92431   0.92759   0.92880
 Alpha virt. eigenvalues --    0.93615   0.93715   0.93851   0.94020   0.94563
 Alpha virt. eigenvalues --    0.94897   0.95273   0.96003   0.96201   0.96336
 Alpha virt. eigenvalues --    0.96605   0.97211   0.97790   0.97927   0.98267
 Alpha virt. eigenvalues --    0.98336   0.98582   0.99260   0.99868   1.00338
 Alpha virt. eigenvalues --    1.00756   1.00947   1.01703   1.01849   1.02260
 Alpha virt. eigenvalues --    1.02960   1.03533   1.03993   1.04285   1.04347
 Alpha virt. eigenvalues --    1.04547   1.05209   1.05265   1.05845   1.06276
 Alpha virt. eigenvalues --    1.07224   1.07568   1.08779   1.08952   1.09297
 Alpha virt. eigenvalues --    1.10103   1.10448   1.11629   1.12218   1.12363
 Alpha virt. eigenvalues --    1.12816   1.13326   1.14696   1.14893   1.15054
 Alpha virt. eigenvalues --    1.15616   1.16730   1.16956   1.17544   1.17938
 Alpha virt. eigenvalues --    1.18248   1.18885   1.19072   1.19239   1.19882
 Alpha virt. eigenvalues --    1.20348   1.20672   1.21311   1.21636   1.22193
 Alpha virt. eigenvalues --    1.22664   1.22870   1.23346   1.24104   1.24376
 Alpha virt. eigenvalues --    1.25038   1.25939   1.26139   1.27092   1.27574
 Alpha virt. eigenvalues --    1.27940   1.28221   1.28622   1.29117   1.29409
 Alpha virt. eigenvalues --    1.30296   1.31200   1.31807   1.32272   1.33002
 Alpha virt. eigenvalues --    1.34084   1.34993   1.35157   1.35443   1.36038
 Alpha virt. eigenvalues --    1.36930   1.37208   1.38074   1.38356   1.38684
 Alpha virt. eigenvalues --    1.39245   1.39681   1.40341   1.40496   1.40886
 Alpha virt. eigenvalues --    1.41458   1.42038   1.42931   1.43644   1.44011
 Alpha virt. eigenvalues --    1.44289   1.44660   1.45001   1.45163   1.45869
 Alpha virt. eigenvalues --    1.46304   1.46410   1.46897   1.47298   1.47727
 Alpha virt. eigenvalues --    1.47829   1.48524   1.49149   1.49559   1.49917
 Alpha virt. eigenvalues --    1.50518   1.50777   1.51160   1.51879   1.52285
 Alpha virt. eigenvalues --    1.52771   1.53491   1.55034   1.55810   1.56686
 Alpha virt. eigenvalues --    1.57453   1.57755   1.58185   1.58878   1.59866
 Alpha virt. eigenvalues --    1.60199   1.60720   1.62002   1.62806   1.63597
 Alpha virt. eigenvalues --    1.64443   1.65290   1.65654   1.66055   1.66508
 Alpha virt. eigenvalues --    1.66936   1.67507   1.67859   1.68605   1.69546
 Alpha virt. eigenvalues --    1.69925   1.70384   1.71484   1.72277   1.72447
 Alpha virt. eigenvalues --    1.72790   1.73002   1.73893   1.74944   1.76080
 Alpha virt. eigenvalues --    1.76700   1.77348   1.77567   1.77686   1.78146
 Alpha virt. eigenvalues --    1.78500   1.78985   1.79589   1.80354   1.80742
 Alpha virt. eigenvalues --    1.81094   1.81714   1.81936   1.82357   1.82901
 Alpha virt. eigenvalues --    1.83427   1.83789   1.84287   1.85014   1.85232
 Alpha virt. eigenvalues --    1.86129   1.86285   1.86580   1.86697   1.87412
 Alpha virt. eigenvalues --    1.87797   1.88284   1.88794   1.88973   1.89262
 Alpha virt. eigenvalues --    1.89642   1.89985   1.90328   1.90917   1.91062
 Alpha virt. eigenvalues --    1.91308   1.91816   1.91838   1.92152   1.92269
 Alpha virt. eigenvalues --    1.92751   1.92884   1.92988   1.93370   1.93476
 Alpha virt. eigenvalues --    1.93798   1.94019   1.94118   1.95435   1.96022
 Alpha virt. eigenvalues --    1.96746   1.97010   1.97848   1.98050   1.98347
 Alpha virt. eigenvalues --    1.98949   1.99653   2.00459   2.00829   2.01648
 Alpha virt. eigenvalues --    2.02203   2.02277   2.02687   2.02959   2.03456
 Alpha virt. eigenvalues --    2.03977   2.04515   2.05060   2.05211   2.05522
 Alpha virt. eigenvalues --    2.05890   2.06454   2.06587   2.07230   2.07432
 Alpha virt. eigenvalues --    2.07828   2.08007   2.08184   2.08949   2.09249
 Alpha virt. eigenvalues --    2.09985   2.10162   2.10416   2.10840   2.10990
 Alpha virt. eigenvalues --    2.11075   2.11547   2.12095   2.12857   2.13141
 Alpha virt. eigenvalues --    2.13536   2.13621   2.14119   2.14365   2.14597
 Alpha virt. eigenvalues --    2.14798   2.15171   2.15535   2.15630   2.16177
 Alpha virt. eigenvalues --    2.16325   2.17121   2.17703   2.17940   2.18264
 Alpha virt. eigenvalues --    2.18766   2.18943   2.19081   2.19646   2.20046
 Alpha virt. eigenvalues --    2.20109   2.20599   2.20989   2.21196   2.21668
 Alpha virt. eigenvalues --    2.22056   2.22203   2.22575   2.22749   2.23472
 Alpha virt. eigenvalues --    2.23625   2.23956   2.24674   2.25002   2.25745
 Alpha virt. eigenvalues --    2.25921   2.26561   2.26673   2.27346   2.27709
 Alpha virt. eigenvalues --    2.27847   2.28577   2.28756   2.29768   2.30373
 Alpha virt. eigenvalues --    2.31161   2.31696   2.32025   2.32624   2.33218
 Alpha virt. eigenvalues --    2.33427   2.34192   2.34598   2.34959   2.35237
 Alpha virt. eigenvalues --    2.36557   2.36763   2.38060   2.38287   2.38615
 Alpha virt. eigenvalues --    2.39306   2.39470   2.40645   2.41905   2.42695
 Alpha virt. eigenvalues --    2.43792   2.44992   2.45778   2.46417   2.47277
 Alpha virt. eigenvalues --    2.47937   2.48082   2.48707   2.48907   2.49449
 Alpha virt. eigenvalues --    2.49671   2.50396   2.50815   2.52752   2.53034
 Alpha virt. eigenvalues --    2.54626   2.56370   2.58586   2.58747   2.59556
 Alpha virt. eigenvalues --    2.60058   2.60372   2.61043   2.61723   2.62768
 Alpha virt. eigenvalues --    2.63048   2.63890   2.63945   2.65039   2.65306
 Alpha virt. eigenvalues --    2.66141   2.68398   2.69110   2.69334   2.70229
 Alpha virt. eigenvalues --    2.71543   2.73183   2.73842   2.76251   2.77807
 Alpha virt. eigenvalues --    2.78088   2.78382   2.79034   2.79186   2.79878
 Alpha virt. eigenvalues --    2.80139   2.80533   2.80665   2.81088   2.81456
 Alpha virt. eigenvalues --    2.81960   2.82865   2.83053   2.84399   2.84563
 Alpha virt. eigenvalues --    2.86075   2.86980   2.88131   2.89941   2.91426
 Alpha virt. eigenvalues --    2.92290   2.93261   2.94520   2.95075   2.96214
 Alpha virt. eigenvalues --    2.96709   2.97541   2.98315   2.99728   3.03559
 Alpha virt. eigenvalues --    3.05156   3.06593   3.07467   3.08503   3.09398
 Alpha virt. eigenvalues --    3.11427   3.12266   3.12770   3.13354   3.14236
 Alpha virt. eigenvalues --    3.15363   3.21532   3.27029   3.32179   3.37966
 Alpha virt. eigenvalues --    3.46022  15.09011
          Condensed to atoms (all electrons):
 Mulliken charges:
               1
     1  C    0.316028
     2  C    0.054639
     3  C   -0.040722
     4  C   -0.151076
     5  C   -0.186501
     6  C    0.302652
     7  C    0.047908
     8  C   -0.172424
     9  C   -0.139169
    10  C   -0.182353
    11  H    0.212826
    12  H    0.196443
    13  H    0.173536
    14  H    0.245236
    15  H    0.183750
    16  H    0.173285
    17  N   -0.462636
    18  N   -0.501306
    19  Ir  -0.214969
    20  O   -0.508475
    21  O   -0.524856
    22  O   -0.499569
    23  B    0.504176
    24  B    0.543643
    25  B    0.516050
    26  O   -0.518370
    27  O   -0.545946
    28  C    0.305798
    29  C    0.286576
    30  C    0.289437
    31  C    0.295456
    32  C    0.292188
    33  C    0.295323
    34  O   -0.532647
    35  C   -0.513198
    36  H    0.147591
    37  H    0.166563
    38  H    0.171328
    39  C   -0.495485
    40  H    0.155509
    41  H    0.139057
    42  H    0.184922
    43  C   -0.512684
    44  H    0.160267
    45  H    0.153157
    46  H    0.178489
    47  C   -0.509759
    48  H    0.149541
    49  H    0.160458
    50  H    0.177287
    51  C   -0.495966
    52  H    0.166152
    53  H    0.147617
    54  H    0.176359
    55  C   -0.506913
    56  H    0.153871
    57  H    0.167844
    58  H    0.162563
    59  C   -0.512177
    60  H    0.156435
    61  H    0.166665
    62  H    0.168576
    63  C   -0.514781
    64  H    0.158812
    65  H    0.151670
    66  H    0.184651
    67  C   -0.509276
    68  H    0.170660
    69  H    0.166720
    70  H    0.152095
    71  C   -0.503443
    72  H    0.167713
    73  H    0.153405
    74  H    0.159785
    75  C   -0.508856
    76  H    0.149929
    77  H    0.169054
    78  H    0.167945
    79  C   -0.499298
    80  H    0.163916
    81  H    0.146601
    82  H    0.175609
    83  H    0.184381
    84  C   -0.006591
    85  C   -0.163788
    86  C   -0.125923
    87  C   -0.169609
    88  C   -0.173473
    89  C   -0.142164
    90  H    0.149479
    91  H    0.219713
    92  H    0.160516
    93  H    0.140465
    94  C    0.479851
    95  O   -0.517518
    96  N   -0.361638
    97  C   -0.376679
    98  H    0.201823
    99  H    0.164586
   100  H    0.163594
   101  C   -0.372959
   102  H    0.200834
   103  H    0.186820
   104  H    0.163042
   105  H    0.143877
   106  C    0.960364
   107  F   -0.298196
   108  F   -0.319248
   109  F   -0.312472
 Sum of Mulliken charges =  -0.00000
 Mulliken charges with hydrogens summed into heavy atoms:
               1
     1  C    0.316028
     2  C    0.267465
     3  C   -0.040722
     4  C    0.045367
     5  C   -0.012965
     6  C    0.302652
     7  C    0.293144
     8  C    0.011958
     9  C    0.044581
    10  C   -0.009068
    17  N   -0.462636
    18  N   -0.501306
    19  Ir  -0.214969
    20  O   -0.508475
    21  O   -0.524856
    22  O   -0.499569
    23  B    0.504176
    24  B    0.543643
    25  B    0.516050
    26  O   -0.518370
    27  O   -0.545946
    28  C    0.305798
    29  C    0.286576
    30  C    0.289437
    31  C    0.295456
    32  C    0.292188
    33  C    0.295323
    34  O   -0.532647
    35  C   -0.027717
    39  C   -0.015997
    43  C   -0.020770
    47  C   -0.022472
    51  C   -0.005838
    55  C   -0.022634
    59  C   -0.020502
    63  C   -0.019648
    67  C   -0.019800
    71  C   -0.022540
    75  C   -0.021928
    79  C   -0.013172
    84  C   -0.006591
    85  C   -0.003272
    86  C    0.093790
    87  C   -0.020130
    88  C   -0.033007
    89  C    0.001714
    94  C    0.479851
    95  O   -0.517518
    96  N   -0.361638
    97  C    0.153323
   101  C    0.177737
   106  C    0.960364
   107  F   -0.298196
   108  F   -0.319248
   109  F   -0.312472
 APT charges:
               1
     1  C    0.237896
     2  C    0.092831
     3  C   -0.230871
     4  C    0.144349
     5  C   -0.193222
     6  C    0.195707
     7  C    0.039932
     8  C   -0.076132
     9  C    0.132596
    10  C   -0.183481
    11  H    0.132134
    12  H    0.053719
    13  H    0.038544
    14  H    0.151418
    15  H    0.029515
    16  H    0.041977
    17  N   -0.257124
    18  N   -0.157962
    19  Ir  -1.028234
    20  O   -0.936721
    21  O   -0.982171
    22  O   -0.933907
    23  B    1.300179
    24  B    1.248264
    25  B    1.225214
    26  O   -0.936455
    27  O   -1.019537
    28  C    0.516974
    29  C    0.475315
    30  C    0.463550
    31  C    0.451154
    32  C    0.484666
    33  C    0.487603
    34  O   -0.984358
    35  C   -0.000609
    36  H   -0.019038
    37  H   -0.003239
    38  H   -0.000796
    39  C   -0.025745
    40  H   -0.003660
    41  H   -0.032654
    42  H    0.021537
    43  C   -0.039195
    44  H   -0.000352
    45  H   -0.024476
    46  H    0.011795
    47  C   -0.013149
    48  H   -0.018980
    49  H   -0.005641
    50  H    0.006045
    51  C   -0.025195
    52  H   -0.004593
    53  H   -0.025795
    54  H    0.008147
    55  C   -0.007608
    56  H   -0.015895
    57  H    0.005643
    58  H    0.003038
    59  C   -0.019700
    60  H   -0.014058
    61  H    0.003067
    62  H    0.009318
    63  C   -0.041233
    64  H    0.013185
    65  H   -0.020255
    66  H    0.024497
    67  C   -0.003981
    68  H    0.000301
    69  H    0.006618
    70  H   -0.016662
    71  C   -0.027932
    72  H   -0.006692
    73  H   -0.019195
    74  H   -0.003785
    75  C   -0.002784
    76  H   -0.016186
    77  H    0.003536
    78  H   -0.001784
    79  C   -0.036327
    80  H    0.006009
    81  H   -0.027119
    82  H    0.025001
    83  H    0.038885
    84  C   -0.157425
    85  C   -0.015548
    86  C    0.197538
    87  C   -0.051432
    88  C   -0.142361
    89  C    0.016809
    90  H   -0.003589
    91  H    0.309388
    92  H    0.011533
    93  H    0.045845
    94  C    1.001485
    95  O   -0.751997
    96  N   -0.712513
    97  C    0.259824
    98  H    0.072070
    99  H   -0.044695
   100  H   -0.011153
   101  C    0.263360
   102  H    0.034328
   103  H   -0.002375
   104  H   -0.052179
   105  H   -0.008669
   106  C    1.791263
   107  F   -0.596554
   108  F   -0.601838
   109  F   -0.536783
 Sum of APT charges =  -0.00000
 APT charges with hydrogens summed into heavy atoms:
               1
     1  C    0.237896
     2  C    0.224965
     3  C   -0.230871
     4  C    0.198068
     5  C   -0.154678
     6  C    0.195707
     7  C    0.191350
     8  C   -0.037247
     9  C    0.162111
    10  C   -0.141504
    17  N   -0.257124
    18  N   -0.157962
    19  Ir  -1.028234
    20  O   -0.936721
    21  O   -0.982171
    22  O   -0.933907
    23  B    1.300179
    24  B    1.248264
    25  B    1.225214
    26  O   -0.936455
    27  O   -1.019537
    28  C    0.516974
    29  C    0.475315
    30  C    0.463550
    31  C    0.451154
    32  C    0.484666
    33  C    0.487603
    34  O   -0.984358
    35  C   -0.023682
    39  C   -0.040521
    43  C   -0.052228
    47  C   -0.031725
    51  C   -0.047436
    55  C   -0.014822
    59  C   -0.021373
    63  C   -0.023806
    67  C   -0.013725
    71  C   -0.057604
    75  C   -0.017218
    79  C   -0.032437
    84  C   -0.157425
    85  C   -0.004016
    86  C    0.506927
    87  C   -0.055022
    88  C   -0.096516
    89  C    0.008140
    94  C    1.001485
    95  O   -0.751997
    96  N   -0.712513
    97  C    0.276046
   101  C    0.243134
   106  C    1.791263
   107  F   -0.596554
   108  F   -0.601838
   109  F   -0.536783
 Electronic spatial extent (au):  <R**2>=          28806.1020
 Charge=             -0.0000 electrons
 Dipole moment (field-independent basis, Debye):
    X=              1.7655    Y=              0.0320    Z=              4.4434  Tot=              4.7814
 Quadrupole moment (field-independent basis, Debye-Ang):
   XX=           -338.8001   YY=           -323.3920   ZZ=           -304.3089
   XY=              4.3746   XZ=             -3.7204   YZ=             16.7485
 Traceless Quadrupole moment (field-independent basis, Debye-Ang):
   XX=            -16.6331   YY=             -1.2249   ZZ=             17.8581
   XY=              4.3746   XZ=             -3.7204   YZ=             16.7485
 Octapole moment (field-independent basis, Debye-Ang**2):
  XXX=             54.9883  YYY=             23.0090  ZZZ=             67.2493  XYY=             20.0886
  XXY=             23.2525  XXZ=             25.2256  XZZ=            -58.7631  YZZ=             54.2770
  YYZ=             27.6355  XYZ=            -15.3677
 Hexadecapole moment (field-independent basis, Debye-Ang**3):
 XXXX=         -15860.3502 YYYY=         -11299.6333 ZZZZ=          -9661.4863 XXXY=            159.1725
 XXXZ=           -229.5800 YYYX=            207.7805 YYYZ=            102.1762 ZZZX=             53.5354
 ZZZY=            296.4857 XXYY=          -4626.7482 XXZZ=          -4109.3965 YYZZ=          -3289.2649
 XXYZ=             99.0988 YYXZ=             78.0158 ZZXY=            -23.3519
 N-N= 9.610202797819D+03 E-N=-2.538080284433D+04  KE= 2.561548706689D+03
  Exact polarizability:     541.919      18.978     507.570       3.851      27.974     477.362
 Approx polarizability:     821.833      44.102     728.697       3.217      63.219     699.349
   1 Symmetry operations used in ECPInt.
 ECPInt:  NShTT=   55278 NPrTT=  342696 LenC2=   42882 LenP2D=  133312.
 LDataN:  DoStor=T MaxTD1= 8 Len=  415
 Calling FoFJK, ICntrl=    100127 FMM=F ISym2X=0 I1Cent= 0 IOpClX= 0 NMat=1 NMatS=1 NMatT=0.
 Defaulting to unpruned grid for atomic number  77.
 Defaulting to unpruned grid for atomic number  77.
 Defaulting to unpruned grid for atomic number  77.
 Defaulting to unpruned grid for atomic number  77.
 Defaulting to unpruned grid for atomic number  77.
 Defaulting to unpruned grid for atomic number  77.
 Defaulting to unpruned grid for atomic number  77.
 Defaulting to unpruned grid for atomic number  77.
 Defaulting to unpruned grid for atomic number  77.
 Defaulting to unpruned grid for atomic number  77.
 Defaulting to unpruned grid for atomic number  77.
 Defaulting to unpruned grid for atomic number  77.
 Defaulting to unpruned grid for atomic number  77.
 Defaulting to unpruned grid for atomic number  77.
 Defaulting to unpruned grid for atomic number  77.
 Defaulting to unpruned grid for atomic number  77.
 Full mass-weighted force constant matrix:
 Low frequencies --- -741.1789   -0.3670   -0.0002    0.0004    0.0005    3.5269
 Low frequencies ---    6.1026   19.9701   24.4351
 ******    1 imaginary frequencies (negative Signs) ****** 
 Diagonal vibrational polarizability:
       75.0509785     119.0142026      77.1323159
 Harmonic frequencies (cm**-1), IR intensities (KM/Mole), Raman scattering
 activities (A**4/AMU), depolarization ratios for plane and unpolarized
 incident light, reduced masses (AMU), force constants (mDyne/A),
 and normal coordinates:
                      1                      2                      3
                      A                      A                      A
 Frequencies --   -741.1781                19.7671                24.4127
 Red. masses --      1.1383                 5.1978                 4.1430
 Frc consts  --      0.3684                 0.0012                 0.0015
 IR Inten    --    580.1630                 0.1800                 0.1495
  Atom AN      X      Y      Z        X      Y      Z        X      Y      Z
     1   6     0.00   0.00   0.00    -0.01  -0.03   0.02    -0.01  -0.01  -0.02
     2   6     0.00  -0.00   0.00    -0.02   0.01  -0.02    -0.00  -0.02  -0.01
     3   6     0.00  -0.00  -0.00    -0.03   0.03  -0.04     0.00  -0.04  -0.00
     4   6     0.00  -0.00  -0.00    -0.03   0.03  -0.03    -0.00  -0.05   0.00
     5   6     0.00  -0.00  -0.00    -0.02  -0.00  -0.01    -0.01  -0.03  -0.01
     6   6     0.00   0.00   0.00    -0.00  -0.06   0.05    -0.02   0.02  -0.03
     7   6    -0.00   0.00   0.00    -0.00  -0.05   0.04    -0.03   0.03  -0.02
     8   6     0.00   0.00   0.00     0.01  -0.12   0.08    -0.04   0.08  -0.05
     9   6    -0.00   0.00   0.00     0.02  -0.16   0.11    -0.05   0.09  -0.07
    10   6    -0.00   0.00   0.00     0.01  -0.13   0.09    -0.04   0.06  -0.06
    11   1     0.00  -0.00   0.00    -0.02   0.02  -0.02     0.00  -0.01  -0.01
    12   1     0.00  -0.00   0.00    -0.04   0.05  -0.05     0.00  -0.07   0.01
    13   1     0.00  -0.00   0.00    -0.02  -0.01  -0.01    -0.01  -0.04   0.00
    14   1    -0.00   0.00  -0.00    -0.01  -0.03   0.02    -0.02   0.02  -0.01
    15   1    -0.00   0.00   0.00     0.03  -0.21   0.14    -0.07   0.13  -0.09
    16   1     0.00  -0.00   0.01     0.02  -0.16   0.11    -0.05   0.08  -0.08
    17   7     0.00  -0.00   0.00    -0.01  -0.02   0.01    -0.01  -0.00  -0.02
    18   7    -0.00   0.02   0.00    -0.01  -0.03   0.03    -0.02   0.01  -0.01
    19  77     0.00  -0.01   0.01    -0.01  -0.01   0.01    -0.00  -0.00  -0.01
    20   8     0.00  -0.00  -0.00    -0.02  -0.01   0.00     0.02  -0.01   0.02
    21   8    -0.00   0.00  -0.00    -0.02  -0.01   0.03    -0.02  -0.01  -0.01
    22   8    -0.00   0.00  -0.00     0.05  -0.00  -0.05     0.02  -0.04  -0.07
    23   5     0.01   0.03  -0.02    -0.01  -0.01   0.01    -0.01   0.00  -0.01
    24   5    -0.00  -0.01   0.00    -0.01   0.00  -0.00     0.00  -0.02   0.01
    25   5    -0.00   0.02  -0.00     0.02   0.01   0.01     0.00   0.00  -0.00
    26   8     0.00   0.00  -0.00     0.04   0.04   0.08     0.00   0.06   0.07
    27   8     0.00   0.00  -0.00    -0.01   0.02  -0.02    -0.00  -0.03   0.04
    28   6    -0.00  -0.00   0.00    -0.02   0.02  -0.03     0.01  -0.05   0.07
    29   6     0.00   0.00  -0.00    -0.01   0.01  -0.01     0.02  -0.03   0.04
    30   6    -0.00   0.00  -0.00     0.07   0.02  -0.02     0.02  -0.02  -0.04
    31   6    -0.00   0.00  -0.00     0.09   0.06   0.06     0.04   0.06   0.05
    32   6    -0.00   0.00   0.00    -0.01  -0.02   0.03    -0.02   0.01  -0.03
    33   6    -0.00   0.00  -0.00    -0.01  -0.00   0.01    -0.02   0.02  -0.04
    34   8    -0.00  -0.00  -0.01    -0.00   0.00  -0.00    -0.01   0.02  -0.03
    35   6     0.00  -0.00  -0.00    -0.03   0.01  -0.02     0.03  -0.01   0.05
    36   1     0.00  -0.00  -0.00    -0.03   0.03  -0.04     0.03  -0.02   0.06
    37   1    -0.00   0.00   0.00    -0.03   0.00  -0.01     0.03   0.01   0.03
    38   1     0.00  -0.00  -0.00    -0.05   0.00  -0.03     0.05   0.01   0.06
    39   6     0.00   0.00  -0.00     0.01   0.02  -0.01    -0.00  -0.04   0.01
    40   1    -0.00   0.00   0.00     0.01   0.01   0.00     0.01  -0.03  -0.01
    41   1     0.00  -0.00   0.00     0.01   0.03  -0.02    -0.00  -0.05   0.03
    42   1    -0.00   0.00  -0.00     0.02   0.02  -0.00    -0.02  -0.06   0.00
    43   6     0.00  -0.00  -0.00    -0.04   0.02  -0.04     0.06  -0.04   0.09
    44   1     0.00   0.00   0.00    -0.04   0.03  -0.05     0.06  -0.05   0.11
    45   1     0.00   0.00  -0.00    -0.05   0.02  -0.05     0.07  -0.05   0.12
    46   1     0.00  -0.00  -0.00    -0.05   0.01  -0.03     0.08  -0.01   0.08
    47   6     0.00   0.00  -0.00    -0.01   0.04  -0.04    -0.02  -0.09   0.10
    48   1     0.00  -0.00   0.00    -0.01   0.05  -0.04    -0.01  -0.10   0.12
    49   1     0.00  -0.00   0.00    -0.01   0.05  -0.04    -0.02  -0.10   0.11
    50   1    -0.00   0.00  -0.00     0.01   0.05  -0.03    -0.06  -0.09   0.08
    51   6    -0.00  -0.00   0.00     0.01  -0.03   0.03    -0.00   0.03  -0.02
    52   1    -0.00   0.00   0.00     0.00  -0.04   0.05    -0.01   0.02  -0.01
    53   1     0.00  -0.00  -0.00     0.01  -0.04   0.04     0.00   0.04  -0.03
    54   1    -0.00  -0.00   0.00     0.02  -0.03   0.02     0.00   0.03  -0.01
    55   6    -0.00  -0.00  -0.00    -0.03  -0.02   0.04    -0.03   0.00  -0.05
    56   1     0.00  -0.00  -0.00    -0.03  -0.02   0.04    -0.02   0.02  -0.07
    57   1    -0.00   0.00   0.00    -0.03  -0.03   0.06    -0.03  -0.00  -0.03
    58   1     0.00  -0.00  -0.00    -0.05  -0.01   0.04    -0.05  -0.02  -0.06
    59   6    -0.00  -0.00  -0.00     0.00  -0.01  -0.00    -0.01   0.04  -0.05
    60   1    -0.00  -0.00  -0.00     0.00  -0.01   0.01    -0.01   0.04  -0.06
    61   1    -0.00  -0.00  -0.00     0.00   0.00  -0.02    -0.01   0.04  -0.06
    62   1     0.00  -0.00  -0.00     0.02  -0.01  -0.00     0.00   0.04  -0.04
    63   6     0.00  -0.00  -0.00    -0.04   0.02   0.00    -0.03   0.01  -0.05
    64   1    -0.00  -0.00   0.00    -0.04   0.03  -0.02    -0.03   0.01  -0.06
    65   1    -0.00  -0.00   0.00    -0.05   0.01   0.01    -0.04   0.01  -0.07
    66   1     0.00   0.00  -0.00    -0.05   0.02   0.01    -0.03  -0.01  -0.05
    67   6    -0.00   0.00  -0.00     0.08   0.08   0.13    -0.01   0.10   0.12
    68   1    -0.00   0.00  -0.00     0.09   0.10   0.19     0.01   0.15   0.19
    69   1    -0.00   0.00  -0.00     0.01   0.06   0.13    -0.09   0.07   0.14
    70   1     0.00   0.00  -0.00     0.12   0.08   0.11     0.02   0.10   0.11
    71   6     0.00   0.00  -0.00     0.18   0.09   0.06     0.15   0.12   0.04
    72   1    -0.00  -0.00  -0.00     0.18   0.12   0.12     0.16   0.17   0.10
    73   1     0.00  -0.00  -0.00     0.21   0.10   0.05     0.19   0.13   0.03
    74   1    -0.00   0.00  -0.00     0.19   0.08   0.02     0.19   0.09  -0.01
    75   6    -0.00   0.00  -0.00     0.14   0.03  -0.08     0.11  -0.03  -0.11
    76   1    -0.00  -0.00  -0.00     0.18   0.05  -0.06     0.13  -0.02  -0.09
    77   1    -0.00  -0.00  -0.00     0.12   0.01  -0.14     0.08  -0.07  -0.18
    78   1    -0.00   0.00  -0.00     0.19   0.05  -0.09     0.18  -0.01  -0.11
    79   6    -0.00   0.00  -0.00     0.00  -0.01  -0.01    -0.09  -0.06  -0.04
    80   1    -0.00  -0.00  -0.00    -0.02  -0.04  -0.08    -0.10  -0.11  -0.11
    81   1    -0.00   0.00  -0.00     0.02   0.00   0.01    -0.09  -0.04  -0.01
    82   1     0.00   0.00  -0.00    -0.05  -0.03   0.03    -0.15  -0.06   0.01
    83   1     0.00   0.00   0.01     0.01  -0.13   0.09    -0.05   0.10  -0.06
    84   6    -0.01   0.01  -0.01    -0.01  -0.02  -0.02     0.00   0.01   0.02
    85   6    -0.01   0.01   0.01    -0.01  -0.02  -0.03     0.01   0.02   0.04
    86   6     0.00  -0.02  -0.08    -0.02  -0.01   0.01     0.01   0.00   0.00
    87   6    -0.00  -0.00   0.00    -0.02  -0.01  -0.01     0.02   0.01   0.03
    88   6     0.01  -0.01  -0.01    -0.02  -0.00   0.03     0.01  -0.01  -0.01
    89   6    -0.00  -0.01   0.01    -0.02  -0.00   0.02     0.02  -0.00   0.01
    90   1     0.01  -0.00  -0.01    -0.02  -0.01  -0.02     0.02   0.01   0.04
    91   1    -0.08   0.98   0.09    -0.01  -0.01   0.01     0.02   0.00  -0.01
    92   1    -0.01   0.01   0.02    -0.00  -0.02  -0.06     0.00   0.03   0.05
    93   1     0.01  -0.03  -0.05    -0.03   0.01   0.05     0.02  -0.02  -0.03
    94   6    -0.01  -0.00  -0.01     0.00  -0.02  -0.05    -0.01   0.02   0.03
    95   8     0.00   0.00   0.00    -0.01  -0.03  -0.06     0.00   0.03   0.03
    96   7    -0.00   0.00  -0.00     0.02  -0.02  -0.05    -0.02   0.03   0.02
    97   6    -0.00  -0.00   0.00     0.03  -0.03  -0.07    -0.03   0.04   0.02
    98   1    -0.00  -0.00   0.00     0.00  -0.01  -0.10    -0.01   0.02   0.05
    99   1     0.00  -0.00   0.00     0.07  -0.05  -0.09    -0.05   0.07   0.04
   100   1     0.00   0.00   0.00     0.03  -0.02  -0.03    -0.03   0.03  -0.01
   101   6     0.00  -0.00  -0.00     0.04  -0.01  -0.03    -0.03   0.03   0.01
   102   1    -0.01   0.01  -0.02     0.04  -0.01  -0.02    -0.03   0.03   0.01
   103   1     0.01   0.01   0.02     0.04  -0.01  -0.03    -0.03   0.03   0.00
   104   1    -0.00  -0.01   0.00     0.06  -0.01  -0.04    -0.04   0.04   0.02
   105   1    -0.00  -0.01   0.02    -0.03   0.00   0.04     0.02  -0.01  -0.00
   106   6     0.00  -0.00   0.00    -0.04   0.07  -0.07     0.01  -0.05   0.01
   107   9    -0.00   0.00  -0.00    -0.00   0.09  -0.07    -0.01  -0.06   0.02
   108   9    -0.00   0.00  -0.00    -0.07   0.07  -0.09     0.03  -0.07   0.01
   109   9    -0.00   0.00  -0.00    -0.04   0.06  -0.07     0.01  -0.04  -0.00
                      4                      5                      6
                      A                      A                      A
 Frequencies --     34.1049                36.5606                37.9700
 Red. masses --      5.4582                 4.7217                 4.2517
 Frc consts  --      0.0037                 0.0037                 0.0036
 IR Inten    --      0.7175                 0.4610                 0.4786
  Atom AN      X      Y      Z        X      Y      Z        X      Y      Z
     1   6    -0.01   0.04  -0.05    -0.02   0.04  -0.00    -0.02  -0.01  -0.03
     2   6     0.00  -0.01  -0.01    -0.02   0.00   0.03    -0.01   0.01  -0.04
     3   6    -0.01   0.04  -0.04    -0.03   0.05   0.00    -0.01  -0.01  -0.04
     4   6    -0.03   0.09  -0.08    -0.04   0.09  -0.03    -0.02  -0.01  -0.04
     5   6    -0.03   0.09  -0.08    -0.03   0.09  -0.03    -0.02  -0.01  -0.03
     6   6    -0.02   0.05  -0.05    -0.02   0.04  -0.01    -0.01  -0.02  -0.00
     7   6    -0.00  -0.01  -0.01    -0.02   0.01   0.01    -0.01  -0.03   0.01
     8   6    -0.02   0.06  -0.05    -0.03   0.06  -0.02    -0.01  -0.07   0.04
     9   6    -0.04   0.13  -0.10    -0.03   0.09  -0.04    -0.01  -0.09   0.04
    10   6    -0.04   0.12  -0.10    -0.03   0.08  -0.04    -0.01  -0.06   0.02
    11   1     0.01  -0.05   0.02    -0.01  -0.03   0.05    -0.00   0.01  -0.04
[...]
 0.00011030,0.00005217,0.00004171,0.00014456,-0.00007688,-0.00019556,-0
 .00004197,-0.00000492,0.00000793,-0.00004742,0.00002548,0.00002760,0.0
 0000526,0.00000748,0.00005281,-0.00001791,-0.00001719,-0.00000481,-0.0
 6909950,-0.13411636,0.06390588,-0.00257158,-0.03041992,0.05066715,0.08
 506477,0.15584524,-0.00057993,0.00022206,0.00017240,0.00093207,0.00045
 634,0.00022041,0.00350646,0.00308888,0.00376592,0.00051630,-0.00299717
 ,-0.00212653,0.00049717,0.00046980,0.00140921,0.00000479,0.00012071,0.
 00011148,-0.00001261,0.00003482,0.00005641,0.00003298,-0.00001505,-0.0
 0001897,-0.00004423,-0.00000742,0.00000511,0.00009567,0.00000742,0.000
 01608,-0.00059956,-0.00006314,0.00010528,-0.00136492,0.00118512,0.0007
 3673,0.00014312,0.00012424,0.00005466,0.00000148,-0.00000156,-0.000023
 82,0.00000510,0.00001369,0.00000597,-0.00001304,0.00002536,0.00001115,
 -0.00009613,-0.00009976,-0.00029787,-0.00014939,0.00003683,0.00007455,
 0.00003358,-0.00002603,0.00025069,0.00012954,0.00000111,0.00001285,0.0
 0026757,-0.00001179,0.00015943,0.00002714,-0.00017031,0.00022156,-0.00
 051872,-0.00022495,-0.00043005,-0.00018943,-0.00001670,-0.00005655,-0.
 00000249,0.00028235,-0.00038412,-0.00007205,-0.00022173,0.00040172,0.0
 0013991,0.00001314,0.00004142,-0.00004612,0.00000507,0.00000870,-0.000
 08143,0.00001495,-0.00001117,0.00006400,0.00006809,-0.00008124,-0.0000
 4248,0.00009926,-0.00021179,-0.00014672,0.00003842,-0.00006371,-0.0000
 6510,-0.00002904,0.00003925,0.00050040,0.00015831,0.00025833,0.0000057
 3,-0.00000798,-0.00000588,0.00001236,0.00000146,0.00000219,-0.00000792
 ,0.00000514,0.00000279,-0.00000573,-0.00000398,0.00000304,0.00000227,-
 0.00002102,-0.00000946,-0.00000926,0.00001080,0.00000599,0.00001592,0.
 00000057,0.00000251,-0.00000203,0.00000464,-0.00000423,0.00000256,-0.0
 0000012,-0.00000676,-0.00000670,0.00000255,0.00000089,0.00000839,-0.00
 000215,-0.00000435,-0.00000083,-0.00000106,0.00001129,0.00000417,0.000
 00320,0.00000045,0.00000557,-0.00000220,-0.00000171,0.00000039,0.00000
 757,0.00000399,-0.00000217,-0.00000601,0.00000028,0.00005068,0.0000036
 5,0.00001858,0.00003891,-0.00000152,-0.00000644,-0.00001389,0.00000743
 ,0.00000677,-0.00002105,-0.00001687,0.00000644,0.00004865,0.00001644,0
 .00000066,-0.00001281,0.00000928,0.00000284,0.00003608,-0.00000891,-0.
 00000809,-0.00002955,0.00000485,-0.00000574,-0.00017513,0.00000762,0.0
 0000468,0.00005665,-0.00003695,0.00000054,0.00007077,0.00005048,0.0000
 7732,0.00001665,0.00000898,0.00000322,-0.00041132,0.00006103,0.0000714
 1,-0.00008856,0.00025409,-0.00006222,0.00010772,-0.00006233,-0.0000447
 7,0.00013247,-0.00003549,-0.00001745,0.00009518,-0.00003549,-0.0000288
 5,-0.00003588,0.00000037,0.00001707,-0.00001765,0.00002087,-0.00000349
 ,-0.00000844,-0.00000988,0.00001605,0.00008277,-0.00000791,0.00002521,
 -0.00002944,0.00002865,-0.00000608,0.00000537,0.00000135,0.00002597,-0
 .00002651,-0.00001349,-0.00000295,-0.00000801,0.00000092,0.00001200,0.
 00000953,-0.00001486,0.00001230,-0.00001165,0.00000468,0.00000075,0.00
 000923,0.00001360,0.00000131,-0.00003592,-0.00001468,0.00000321,-0.000
 01489,0.00000570,0.00000193,0.00001222,-0.00002013,0.00001217,0.000006
 72,0.00001623,-0.00001565,0.00000182,0.00000736,0.00000014,-0.00000336
 ,-0.00003628,0.00003201,0.00008739,0.00000248,0.00002961,0.00000307,0.
 00008768,-0.00006853,0.00001283,-0.00002095,0.00001502,0.00003404,-0.0
 0004595,0.00002197,0.00000788,0.00002922,0.00000750,0.00000758,0.00002
 216,-0.00000890,-0.00004892,0.00007293,-0.00004100,-0.00000274,-0.0000
 4458,0.00000435,0.00002016,0.00000965,-0.00000274,-0.00034965,-0.00056
 152,-0.00051517,0.00049535,0.00034556,0.00027725,0.00052534,0.00045718
 ,-0.00007916,-0.00045975,-0.00031212,0.00021418,-0.00020428,-0.0005747
 8,0.00019848,0.00009587,0.00014049,-0.00012358,-0.00032505,0.00021980,
 0.00025250,-0.00007219,0.00020430,0.00026623,0.00008838,0.00002634,-0.
 00006241,-0.00000620,-0.00004717,-0.00003170,-0.00001159,-0.00002638,-
 0.00000094,0.00001912,0.00000656,0.00000002,0.08077650,0.06773190,-0.1
 6177445,0.00333920,0.04913752,-0.04326838,-0.13219637,-0.11450907,0.25
 451258,0.00038688,-0.00038164,-0.00064615,-0.00333556,-0.00054241,0.00
 163754,0.01123533,-0.01483472,-0.01462802,-0.00299827,-0.00102305,0.00
 102368,-0.00049172,-0.00063904,-0.00134374,0.00020234,0.00008434,-0.00
 000852,-0.00000594,-0.00005461,-0.00007341,-0.00008392,0.00001290,0.00
 005013,0.00008985,0.00002783,0.00004042,-0.00018345,-0.00012114,-0.000
 09724,0.00039220,-0.00153880,-0.00239226,0.00021488,-0.00032619,-0.000
 32450,-0.00025334,-0.00012710,-0.00016470,0.00000616,-0.00000111,-0.00
 000861,-0.00000965,-0.00001243,-0.00001928,0.00000892,0.00003571,0.000
 02272,0.00093589,-0.00034505,-0.00073749,-0.00000640,-0.00002350,-0.00
 005862,-0.00008079,-0.00018593,0.00001582,-0.00021454,0.00000449,0.000
 08536,-0.00023568,0.00002691,-0.00001588,-0.00016366,0.00008713,-0.000
 13047,0.00054768,0.00025299,0.00016337,0.00032402,0.00000688,-0.000092
 40,0.00028255,-0.00001195,0.00014826,-0.00018686,0.00002895,-0.0002159
 2,-0.00026663,-0.00004203,0.00003476,0.00009669,0.00001435,-0.00005621
 ,0.00010162,-0.00000221,-0.00000051,0.00001181,-0.00005693,0.00004748,
 0.00007731,-0.00009129,0.00018785,0.00015617,-0.00008300,0.00008456,0.
 00003323,0.00024159,-0.00039119,-0.00024444,-0.00020920,0.00007527,-0.
 00000741,0.00000934,0.00000596,-0.00001549,-0.00000160,0.00000011,0.00
 000806,0.00000104,-0.00000242,0.00000407,-0.00000546,0.00000109,-0.000
 00487,0.00001087,0.00000431,0.00001232,-0.00000993,-0.00000948,-0.0000
 2110,0.00000037,-0.00000259,0.00000875,-0.00000197,0.00000824,-0.00001
 335,-0.00000513,0.00000539,0.00000560,-0.00000252,-0.00000526,-0.00001
 410,-0.00000224,0.00000995,0.00000427,0.00000607,-0.00000618,-0.000011
 72,-0.00000331,0.00000403,-0.00001318,0.00000415,0.00000459,0.00000261
 ,-0.00000644,-0.00000744,0.00000715,-0.00000093,0.00000334,-0.00009676
 ,-0.00000156,-0.00003389,-0.00004090,-0.00000648,0.00002768,0.00001035
 ,0.00001192,0.00001166,0.00001383,0.00000166,-0.00000583,-0.00005633,-
 0.00001827,-0.00001922,0.00001724,0.00000141,0.00000119,-0.00004693,0.
 00000316,0.00001701,0.00003753,-0.00002440,0.00003750,-0.00003054,-0.0
 0007269,0.00000740,-0.00000475,0.00002797,0.00000247,0.00012847,-0.000
 08609,-0.00022293,-0.00001308,-0.00001686,0.00006243,0.00077629,0.0000
 1545,0.00016698,-0.00189968,0.00030578,0.00009809,-0.00031079,0.000141
 56,0.00008855,-0.00008651,0.00002462,0.00003271,-0.00001866,0.00003339
 ,0.00000164,0.00000374,-0.00001182,0.00002759,0.00002586,-0.00002416,0
 .00000614,-0.00002143,0.00000501,-0.00002543,-0.00000298,-0.00000099,-
 0.00002264,-0.00000977,-0.00001198,0.00002486,-0.00001899,0.00001026,-
 0.00002536,0.00001703,0.00000125,0.00000541,-0.00000875,-0.00000596,-0
 .00000098,0.00000099,0.00001148,-0.00000875,-0.00000955,-0.00000258,0.
 00000310,0.00000291,-0.00000669,0.00000047,0.00001181,0.00000457,0.000
 00935,-0.00000792,-0.00000497,0.00000160,-0.00000111,0.00001440,-0.000
 01013,0.00000523,-0.00001206,0.00000014,-0.00001308,0.00000150,-0.0000
 0408,0.00001088,-0.00005299,-0.00002820,-0.00001884,0.00003008,-0.0000
 0109,0.00003774,0.00010499,-0.00011637,0.00000900,-0.00002467,0.000008
 96,0.00003487,-0.00006418,0.00003435,-0.00000143,0.00001367,0.00000761
 ,0.00000018,-0.00001900,0.00000269,-0.00001577,0.00014949,-0.00002685,
 0.00001476,-0.00001720,0.00000958,0.00000831,0.00001149,-0.00000707,-0
 .00032740,0.00030136,0.00031806,0.00054790,-0.00011100,-0.00008891,0.0
 0012832,-0.00050262,-0.00006414,-0.00034677,0.00041461,0.00047370,-0.0
 0041388,0.00001951,0.00035310,-0.00006541,-0.00023761,0.00021039,0.000
 07278,-0.00053234,-0.00004365,-0.00001648,0.00004418,-0.00005465,0.000
 00381,-0.00000605,-0.00001464,0.00003139,0.00000566,-0.00003638,0.0000
 2237,-0.00000212,0.00002234,-0.00000705,-0.00001521,-0.00000133,-0.091
 25425,0.03143659,0.02990539,-0.01897756,0.05090428,0.01386640,-0.01380
 757,0.01589478,0.04543101,0.11968306,0.00033673,-0.00006397,0.00005243
 ,0.00219675,-0.00016394,-0.00177468,0.00954454,-0.02205966,-0.02919785
 ,-0.00689664,-0.00156743,0.00004729,0.00045701,-0.00080924,-0.00146439
 ,0.00045471,0.00035368,0.00041495,-0.00009660,-0.00018354,-0.00022682,
 -0.00026059,0.00005658,0.00015357,0.00017214,0.00013221,0.00013351,-0.
 00030105,-0.00023624,-0.00024334,-0.00164535,-0.00129824,-0.00057743,0
 .00020004,0.00016717,0.00039086,-0.00047809,-0.00039585,-0.00021483,0.
 00003646,-0.00005847,-0.00007508,-0.00000536,-0.00002172,-0.00002682,0
 .00001013,0.00006646,0.00011761,-0.00080331,0.00001604,-0.00014828,-0.
 00024302,-0.00007319,0.00002214,0.00004996,0.00088944,0.00009719,-0.00
 027048,0.00021809,0.00025117,0.00035089,0.00087980,0.00046248,-0.00004
 625,0.00032855,-0.00012545,-0.00063867,-0.00172157,-0.00104115,0.00035
 309,-0.00034620,-0.00032742,0.00020387,-0.00078189,0.00015895,0.000080
 23,0.00062197,-0.00003602,-0.00030262,0.00011852,0.00018394,0.00013179
 ,-0.00002592,-0.00010107,0.00007875,-0.00007365,0.00001700,-0.00000662
 ,-0.00016028,0.00002829,-0.00000891,-0.00017372,-0.00003725,-0.0004650
 5,-0.00006846,-0.00044943,-0.00016079,-0.00146512,0.00048470,0.0007053
 1,0.00169664,0.00067637,-0.00001485,-0.00000257,-0.00001555,-0.0000050
 2,0.00000088,0.00000943,-0.00000493,0.00001984,0.00002411,0.00000123,0
 .00000133,-0.00001070,-0.00003215,-0.00001703,-0.00002740,-0.00000403,
 0.00003211,0.00003174,-0.00000188,0.00001929,-0.00000307,0.00000308,-0
 .00001971,-0.00000805,-0.00001953,0.00000542,0.00001784,0.00001477,0.0
 0001815,0.00000798,-0.00001959,-0.00000427,0.00000875,0.00000799,-0.00
 000724,-0.00001538,-0.00001961,0.00000077,0.00001366,-0.00002145,0.000
 00099,0.00000441,0.00001282,0.00001391,0.00000219,0.00000451,-0.000006
 13,-0.00001238,0.00022054,0.00001394,0.00010584,0.00009856,0.00000114,
 -0.00006098,-0.00002650,0.00002845,0.00004246,-0.00003611,-0.00000166,
 -0.00003169,0.00007917,0.00005056,0.00006468,-0.00003208,0.00005020,0.
 00004065,0.00009101,-0.00000412,-0.00005109,-0.00009739,0.00003068,-0.
 00009584,-0.00019780,0.00025400,-0.00002786,0.00002831,0.00001855,0.00
 004514,-0.00006033,-0.00004436,0.00035777,0.00011434,0.00000830,-0.000
 14834,-0.00111026,0.00044799,-0.00027468,0.00046602,0.00010937,0.00040
 415,0.00029913,-0.00004295,-0.00008718,0.00023053,-0.00015985,-0.00003
 387,-0.00001140,-0.00001862,-0.00000476,0.00002138,-0.00003466,-0.0000
 7859,-0.00007877,0.00007105,0.00002486,0.00003502,0.00002804,0.0000199
 3,0.00003379,0.00003224,-0.00000846,-0.00005080,-0.00005373,0.00001514
 ,-0.00002384,0.00001893,-0.00000146,0.00006028,0.00003680,0.00001848,-
 0.00000043,0.00001870,-0.00001056,-0.00000537,0.00000902,-0.00001680,-
 0.00000061,-0.00000622,0.00000266,0.00000661,0.00001945,0.00003081,-0.
 00003659,0.00002005,-0.00002434,0.00000869,0.00000539,0.00000929,-0.00
 001188,0.00002742,-0.00000566,-0.00000403,-0.00001028,0.00000415,-0.00
 002353,-0.00000525,0.00000477,-0.00008549,0.00001155,0.00007846,0.0000
 0118,0.00001799,0.00004039,0.00007990,-0.00003803,-0.00004788,-0.00001
 508,0.00001906,-0.00000741,0.00001857,0.00000476,0.00003151,-0.0000025
 4,0.00000111,0.00001112,0.00000506,-0.00001072,-0.00000684,0.00000804,
 -0.00013482,-0.00005740,0.00000428,0.00000743,-0.00002220,0.00000984,-
 0.00000925,-0.00002427,0.00109052,-0.00078919,-0.00178979,-0.00108189,
 -0.00015166,0.00129644,0.00002659,0.00103146,0.00094543,0.00008560,-0.
 00145783,0.00044832,0.00040100,-0.00072407,0.00012857,-0.00011549,0.00
 004814,0.00014679,-0.00074875,0.00043189,0.00019398,0.00022385,-0.0000
 5855,-0.00011519,-0.00001671,0.00002139,-0.00001986,-0.00011158,0.0000
 0696,0.00005197,-0.00001374,-0.00000822,0.00007746,-0.00000729,-0.0000
 1074,-0.00000762,0.02695564,-0.19337924,-0.10606814,0.04272063,-0.0515
 0158,-0.01190163,0.00616443,0.02066724,-0.00513273,-0.07821654,0.25123
 376,0.00044399,-0.00010337,-0.00006532,0.00277346,0.00012340,-0.002598
 60,0.00801636,-0.02758663,-0.01662391,-0.00486968,-0.00238125,0.001337
 99,-0.00023601,-0.00014373,-0.00131236,0.00038276,0.00035314,0.0004240
 0,-0.00011257,-0.00019659,-0.00023197,-0.00025881,0.00004611,0.0001628
 2,0.00017106,0.00011059,0.00015798,-0.00027869,-0.00022599,-0.00019846
 ,-0.00154546,-0.00077732,0.00089373,0.00020935,0.00045519,0.00061787,-
 0.00044831,-0.00016655,-0.00030325,0.00003407,-0.00004749,-0.00008605,
 -0.00000454,-0.00001465,-0.00002585,0.00000088,0.00009204,0.00008671,-
 0.00076119,0.00050988,0.00046423,-0.00023578,-0.00004409,0.00000809,0.
 00010953,0.00050263,0.00023921,-0.00017521,0.00015955,0.00023069,0.000
 39129,0.00061122,0.00045094,-0.00007993,0.00014603,0.00002701,-0.00071
 932,-0.00130625,-0.00104643,0.00020490,-0.00024716,-0.00032112,0.00027
 086,-0.00036303,-0.00014140,-0.00009015,0.00028655,0.00017840,-0.00020
 568,0.00008623,0.00019177,0.00010064,-0.00000787,-0.00008872,0.0000283
 3,-0.00004380,0.00000403,0.00004519,-0.00009278,-0.00002202,0.00000342
 ,-0.00008584,-0.00009086,-0.00038993,-0.00005778,-0.00032249,-0.000229
 96,-0.00085346,0.00023114,0.00067602,0.00118758,0.00078836,-0.00000898
 ,-0.00000330,-0.00001368,0.00000042,0.00000099,0.00000888,-0.00000704,
 0.00001922,0.00001890,-0.00000258,-0.00000492,-0.00000492,-0.00002243,
 -0.00002421,-0.00002496,-0.00000571,0.00002812,0.00002393,0.00000327,0
 .00001423,-0.00000108,0.00000407,-0.00001194,-0.00000578,-0.00001831,0
 .00000102,0.00000831,0.00000798,0.00001478,0.00000450,-0.00001295,-0.0
 0000572,0.00000715,0.00000682,-0.00000371,-0.00000399,-0.00001598,0.00
 000081,0.00001153,-0.00001635,0.00000085,0.00000411,0.00001139,0.00001
 429,0.00000193,0.00000449,-0.00001005,-0.00000733,0.00015346,0.0000171
 6,0.00007663,0.00008490,-0.00000517,-0.00003702,-0.00002567,0.00002933
 ,0.00003871,-0.00003895,-0.00001554,-0.00001909,0.00007745,0.00004389,
 0.00004167,-0.00002628,0.00004292,0.00002972,0.00007510,-0.00001087,-0
 .00003556,-0.00007746,0.00001704,-0.00005704,-0.00023359,0.00015226,0.
 00003087,0.00005700,-0.00002119,0.00003629,-0.00014245,0.00009830,0.00
 037414,0.00005937,0.00001594,-0.00006640,-0.00098409,0.00029365,0.0000
 5271,0.00012906,0.00047257,-0.00021179,0.00022190,-0.00004488,-0.00005
 929,0.00030052,-0.00015522,-0.00003026,0.00004537,-0.00002473,-0.00002
 443,-0.00001011,-0.00002455,-0.00002035,-0.00004881,0.00005415,0.00001
 195,0.00000622,0.00001445,0.00001413,0.00007080,0.00001066,0.00000196,
 -0.00006646,-0.00002248,0.00001963,-0.00002317,0.00002109,0.00000675,0
 .00003950,0.00001627,0.00001263,-0.00000948,0.00001042,-0.00000003,0.0
 0000313,0.00000138,-0.00000602,-0.00001225,-0.00000240,0.00000269,0.00
 001174,0.00002027,0.00002447,-0.00004654,0.00000578,-0.00001208,-0.000
 00781,0.00000577,0.00000781,0.00000009,0.00001069,0.00000193,0.0000045
 9,0.00000088,-0.00000971,-0.00002279,0.00000995,-0.00000194,-0.0000887
 2,-0.00005501,0.00013446,0.00008653,0.00002143,0.00006960,0.00006793,0
 .00010091,-0.00014721,0.00000352,-0.00001018,0.00000631,0.00006309,-0.
 00006860,0.00005287,0.00000378,0.00003537,0.00001924,0.00001270,0.0000
 0593,-0.00001239,-0.00005440,0.00003222,-0.00009074,0.00000688,-0.0000
 3936,-0.00001189,0.00003123,0.00000591,-0.00002535,0.00071064,-0.00134
 222,-0.00221088,-0.00053930,0.00020279,0.00150346,0.00055964,0.0016507
 5,0.00051905,-0.00021978,-0.00112387,-0.00067856,0.00014871,-0.0006120
 1,-0.00034730,0.00018616,0.00048161,-0.00023820,-0.00050224,0.00088967
 ,0.00022267,0.00008518,0.00025805,0.00021136,0.00009751,0.00003774,-0.
 00009093,-0.00009303,-0.00004552,-0.00000645,-0.00002625,-0.00003778,0
 .00007103,0.00000840,-0.00000792,-0.00000552,0.02627015,-0.10714819,-0
 .17077478,0.00380256,0.00017393,0.02072058,0.03930663,-0.01826758,-0.0
 5440812,-0.07264076,0.15386920,0.22228033\\0.00000112,-0.00000044,0.00
 000127,-0.00000179,0.00000241,0.00000147,-0.00000204,-0.00000284,-0.00
 000188,-0.00000161,-0.00000020,0.00000018,0.00000597,-0.00000199,-0.00
 000170,-0.00000046,-0.00000112,0.00000186,-0.00000146,-0.00000170,-0.0
 0000075,0.00000044,0.00000090,0.00000541,0.00000029,-0.00000412,-0.000
 00207,0.00000226,-0.00000216,-0.00000034,0.00000188,0.00000222,-0.0000
 0236,0.00000027,-0.00000154,0.00000059,-0.00000031,0.00000031,0.000003
 57,0.00000149,-0.00000027,0.00000057,0.00000126,-0.00000067,0.00000378
 ,-0.00000046,-0.00000166,0.00000148,-0.00000154,-0.00000156,0.00000092
 ,-0.00000250,-0.00000086,0.00000048,0.00000078,-0.00000518,0.00000288,
 -0.00000045,-0.00000058,-0.00000341,0.00000003,0.00000161,0.00000012,-
 0.00000255,-0.00000028,-0.00000044,0.00000468,0.00000345,0.00000424,-0
 .00000365,-0.00000028,0.00000220,0.00000237,0.00000178,0.00000070,0.00
 000205,0.00000004,-0.00000094,0.00000024,0.00000025,0.00000350,0.00000
 566,0.00000232,-0.00000166,-0.00000081,0.00000052,0.00000085,-0.000007
 77,0.00000131,-0.00000377,-0.00000172,-0.00000517,0.00000003,-0.000005
 73,0.00000696,0.00000186,0.00000252,-0.00000181,-0.00000762,-0.0000037
 7,-0.00000215,-0.00000322,0.00000537,0.00000348,0.00000458,-0.00000200
 ,0.00000146,-0.00000095,-0.00000180,-0.00000191,-0.00000363,-0.0000006
 1,0.00000213,-0.00000068,0.00000309,0.00000060,0.00000152,-0.00000225,
 -0.00000134,-0.00000252,-0.00000281,0.00000033,-0.00000166,0.00000120,
 0.00000226,-0.00000266,-0.00000250,-0.00000484,0.00000041,-0.00000020,
 0.00000269,0.00000299,0.00000189,0.00000039,0.00000031,-0.00000019,0.0
 0000096,0.00000092,-0.00000685,-0.00000972,-0.00000270,0.00000204,-0.0
 0000038,-0.00000085,0.00000176,0.00000535,0.00000422,0.00000107,0.0000
 0218,-0.00000169,0.00000289,0.00000131,-0.00000290,-0.00000132,0.00000
 089,-0.00000169,-0.00000094,0.00000088,-0.00000273,-0.00000022,0.00000
 177,0.00000061,0.00000100,-0.00000491,-0.00000001,-0.00000037,0.000001
 89,-0.00000140,0.00000065,0.00000095,-0.00000224,-0.00000067,0.0000012
 3,-0.00000464,0.00000131,0.00000583,0.00000234,-0.00000024,0.00000143,
 -0.00000216,-0.00000071,0.00000071,-0.00000116,-0.00000058,0.00000009,
 0.00000028,-0.00000492,-0.00000296,-0.00000084,0.00000282,-0.00000101,
 -0.00000042,-0.00000058,0.00000464,-0.00000156,0.00000047,-0.00000022,
 0.00000013,0.00000330,-0.00000386,0.00000613,-0.00000047,-0.00000105,-
 0.00000232,0.00000017,-0.00000206,-0.00000380,-0.00000236,0.00000093,-
 0.00000516,0.00000370,-0.00000021,0.00000226,-0.00000238,-0.00000197,-
 0.00000085,-0.00000012,-0.00000290,-0.00000190,0.00000048,-0.00000083,
 -0.00000168,0.00000791,-0.00000298,0.00000272,-0.00000048,-0.00000220,
 -0.00000194,-0.00000289,-0.00000157,-0.00000058,-0.00000074,-0.0000006
 5,-0.00000022,0.00000395,-0.00000118,-0.00000484,-0.00000160,-0.000001
 51,0.00000008,0.00000002,-0.00000318,-0.00000122,-0.00000264,-0.000001
 34,-0.00000408,0.00000056,-0.00000152,0.00000156,0.00000163,-0.0000023
 6,0.00000222,-0.00000065,-0.00000071,0.00000503,-0.00000075,0.00000257
 ,-0.00000329,-0.00000343,-0.00000021,0.00000236,0.00000005,0.00000045,
 0.00000161,0.00000620,-0.00000113,0.00000310,0.00000034,0.00000446,0.0
 0000191,0.00000169,0.00000294,-0.00000130,-0.00000092,0.00000239,0.000
 00173,-0.00000050,-0.00000062,0.00000106,-0.00000096,0.00000407,0.0000
 0283,0.00000187,-0.00000105,-0.00000243,0.00000075,0.00000100,0.000007
 14,-0.00000048,0.00000251,-0.00000092,-0.00000039,0.00000112,0.0000011
 0,-0.00000008,0.00000130,0.00000138,0.00000019,-0.00000107,-0.00000026
 ,-0.00000240,0.00000162,0.00000110,0.00000193,0.00000318,0.00000169,-0
 .00000015,0.00000172,-0.00000015,-0.00000061,0.00000130,-0.00000169,-0
 .00000166,-0.00000115,0.00000237,0.00000225,0.00000165,0.00000623,-0.0
 0000165,0.00000073,-0.00000123,0.00000160,0.00000070,-0.00000193,-0.00
 000078,-0.00000097,-0.00000080\\\@
 The archive entry for this job was punched.


 Happiness is a conscious choice, not an automatic response.
 -- Mildred Barthel
 Job cpu time:       2 days 11 hours  9 minutes  3.1 seconds.
 Elapsed time:       0 days  3 hours 46 minutes  0.5 seconds.
 File lengths (MBytes):  RWF=   9709 Int=      0 D2E=      0 Chk=     55 Scr=      1
 Normal termination of Gaussian 16 at Tue Dec 10 04:39:27 2024.
