/mnt/lustre/scratch/nvme/SLURM/9663540/usccqdma.I0jyt4VlHG
OMP_STACKSIZE=0m
GAUSS_PDEF=16
GAUSS_MDEF=65536MB
GAUSS_RDEF=SCF=Direct
 Entering Gaussian System, Link 0=g16.exe
 Initial command:
 /opt/cesga/2020/software/Core/g16/c1/l1.exe "/mnt/lustre/scratch/nvme/SLURM/9663540/usccqdma.I0jyt4VlHG/Gau-1279741.inp" -scrdir="/mnt/lustre/scratch/nvme/SLURM/9663540/usccqdma.I0jyt4VlHG/"
 Default is to use a total of  16 processors:
                               16 via shared-memory
                                1 via Linda
 Entering Link 1 = /opt/cesga/2020/software/Core/g16/c1/l1.exe PID=   1279767.
  
 Copyright (c) 1988-2019, Gaussian, Inc.  All Rights Reserved.
  
 This is part of the Gaussian(R) 16 program.  It is based on
 the Gaussian(R) 09 system (copyright 2009, Gaussian, Inc.),
 the Gaussian(R) 03 system (copyright 2003, Gaussian, Inc.),
 the Gaussian(R) 98 system (copyright 1998, Gaussian, Inc.),
 the Gaussian(R) 94 system (copyright 1995, Gaussian, Inc.),
 the Gaussian 92(TM) system (copyright 1992, Gaussian, Inc.),
 the Gaussian 90(TM) system (copyright 1990, Gaussian, Inc.),
 the Gaussian 88(TM) system (copyright 1988, Gaussian, Inc.),
 the Gaussian 86(TM) system (copyright 1986, Carnegie Mellon
 University), and the Gaussian 82(TM) system (copyright 1983,
 Carnegie Mellon University). Gaussian is a federally registered
 trademark of Gaussian, Inc.
  
 This software contains proprietary and confidential information,
 including trade secrets, belonging to Gaussian, Inc.
  
 This software is provided under written license and may be
 used, copied, transmitted, or stored only in accord with that
 written license.
  
 The following legend is applicable only to US Government
 contracts under FAR:
  
                    RESTRICTED RIGHTS LEGEND
  
 Use, reproduction and disclosure by the US Government is
 subject to restrictions as set forth in subparagraphs (a)
 and (c) of the Commercial Computer Software - Restricted
 Rights clause in FAR 52.227-19.
  
 Gaussian, Inc.
 340 Quinnipiac St., Bldg. 40, Wallingford CT 06492
  
  
 ---------------------------------------------------------------
 Warning -- This program may not be used in any manner that
 competes with the business of Gaussian, Inc. or will provide
 assistance to any competitor of Gaussian, Inc.  The licensee
 of this program is prohibited from giving any competitor of
 Gaussian, Inc. access to this program.  By using this program,
 the user acknowledges that Gaussian, Inc. is engaged in the
 business of creating and licensing software in the field of
 computational chemistry and represents and warrants to the
 licensee that it is not a competitor of Gaussian, Inc. and that
 it will not use this program in any manner prohibited above.
 ---------------------------------------------------------------
  

 Cite this work as:
 Gaussian 16, Revision C.01,
 M. J. Frisch, G. W. Trucks, H. B. Schlegel, G. E. Scuseria, 
 M. A. Robb, J. R. Cheeseman, G. Scalmani, V. Barone, 
 G. A. Petersson, H. Nakatsuji, X. Li, M. Caricato, A. V. Marenich, 
 J. Bloino, B. G. Janesko, R. Gomperts, B. Mennucci, H. P. Hratchian, 
 J. V. Ortiz, A. F. Izmaylov, J. L. Sonnenberg, D. Williams-Young, 
 F. Ding, F. Lipparini, F. Egidi, J. Goings, B. Peng, A. Petrone, 
 T. Henderson, D. Ranasinghe, V. G. Zakrzewski, J. Gao, N. Rega, 
 G. Zheng, W. Liang, M. Hada, M. Ehara, K. Toyota, R. Fukuda, 
 J. Hasegawa, M. Ishida, T. Nakajima, Y. Honda, O. Kitao, H. Nakai, 
 T. Vreven, K. Throssell, J. A. Montgomery, Jr., J. E. Peralta, 
 F. Ogliaro, M. J. Bearpark, J. J. Heyd, E. N. Brothers, K. N. Kudin, 
 V. N. Staroverov, T. A. Keith, R. Kobayashi, J. Normand, 
 K. Raghavachari, A. P. Rendell, J. C. Burant, S. S. Iyengar, 
 J. Tomasi, M. Cossi, J. M. Millam, M. Klene, C. Adamo, R. Cammi, 
 J. W. Ochterski, R. L. Martin, K. Morokuma, O. Farkas, 
 J. B. Foresman, and D. J. Fox, Gaussian, Inc., Wallingford CT, 2019.
 
 ******************************************
 Gaussian 16:  ES64L-G16RevC.01  3-Jul-2019
                 7-Dec-2024 
 ******************************************
 Default route: SCF=Direct
 ----------------------------------------------------
 # m06/genecp scf=tight int=ultrafine 5d freq=noraman
 ----------------------------------------------------
 1/10=4,30=1,38=1/1,3;
 2/12=2,17=6,18=5,40=1/2;
 3/5=7,8=1,11=2,16=1,17=8,25=1,30=1,71=2,74=-54,75=-5,140=1/1,2,3;
 4//1;
 5/5=2,32=2,38=5,98=1/2;
 8/6=4,10=90,11=11/1;
 11/6=1,8=1,9=11,15=111,16=1/1,2,10;
 10/6=1/2;
 6/7=2,8=2,9=2,10=2,28=1/1;
 7/8=1,10=1,25=1/1,2,3,16;
 1/10=4,30=1/3;
 99//99;
 ------
 OPT-TS
 ------
 Symbolic Z-matrix:
 Charge =  0 Multiplicity = 1
 C                     1.72747  -1.94698   0.90571 
 C                     2.27314   0.3031    0.89051 
 C                     3.54306   0.04626   1.38909 
 C                     3.89791  -1.26847   1.67462 
 C                     2.97833  -2.27316   1.43152 
 C                     0.70617  -2.96043   0.58502 
 C                    -1.36318  -3.38809  -0.37432 
 C                    -1.30956  -4.726    -0.01533 
 C                    -0.19519  -5.185     0.67668 
 C                     0.81896  -4.29201   0.98368 
 H                     1.92265   1.31645   0.69015 
 H                     4.88998  -1.50304   2.05558 
 H                     3.2529   -3.30846   1.6109 
 H                    -2.23258  -2.96203  -0.87561 
 H                    -0.11982  -6.22582   0.98468 
 H                     1.68506  -4.62775   1.54744 
 N                     1.39189  -0.66762   0.65226 
 N                    -0.37663  -2.52863  -0.09361 
 Ir                   -0.57788  -0.35195  -0.44148 
 O                    -1.79285  -1.49659   2.12676 
 O                    -3.51215  -0.92399  -1.01773 
 O                    -0.08858   2.31096   0.90062 
 B                    -2.33813  -0.27814  -1.42743 
 B                    -1.80938  -0.41192   1.25224 
 B                    -0.89942   1.63531  -0.0135 
 O                    -1.81255   2.50931  -0.57824 
 O                    -2.75726   0.51475   1.66737 
 C                    -3.22283   0.12795   2.96802 
 C                    -2.9564   -1.40143   2.96306 
 C                    -0.31796   3.7195    0.73747 
 C                    -1.75211   3.75499   0.12991 
 C                    -4.59033  -0.32398  -1.75392 
 C                    -3.88362   0.07924  -3.07777 
 O                    -2.55412   0.37204  -2.63387 
 C                    -2.64488  -2.00383   4.31782 
 H                    -1.75009  -1.55627   4.76438 
 H                    -3.48855  -1.86931   5.01034 
 H                    -2.46464  -3.08142   4.21043 
 C                    -4.05775  -2.19834   2.27414 
 H                    -3.70285  -3.22849   2.13442 
 H                    -4.98002  -2.2318    2.87031 
 H                    -4.2787   -1.78265   1.28065 
 C                    -2.37357   0.87272   3.99192 
 H                    -2.68807   0.65918   5.02244 
 H                    -1.31154   0.61589   3.8834 
 H                    -2.47505   1.95351   3.82633 
 C                    -4.67742   0.52691   3.11034 
 H                    -4.76988   1.6195    3.04681 
 H                    -5.29578   0.09198   2.31727 
 H                    -5.07939   0.20666   4.08271 
 C                    -5.71464  -1.32757  -1.90147 
 H                    -6.13783  -1.55686  -0.91419 
 H                    -6.52171  -0.92202  -2.52861 
 H                    -5.36665  -2.26697  -2.34615 
 C                    -5.05837   0.88037  -0.944 
 H                    -5.92314   1.37444  -1.40791 
 H                    -5.34946   0.5399    0.05887 
 H                    -4.24455   1.60827  -0.8174 
 C                    -3.78711  -1.06966  -4.07323 
 H                    -4.75866  -1.30558  -4.52868 
 H                    -3.09147  -0.78533  -4.87288 
 H                    -3.39439  -1.97618  -3.59252 
 C                    -4.4538    1.31103  -3.75239 
 H                    -4.35135   2.19315  -3.11022 
 H                    -3.90966   1.50908  -4.68488 
 H                    -5.51586   1.1709   -4.0015 
 C                    -2.8487    3.74391   1.18581 
 H                    -3.81306   3.56224   0.69231 
 H                    -2.69159   2.9294    1.90091 
 H                    -2.90834   4.70165   1.72062 
 C                    -2.00341   4.88314  -0.85188 
 H                    -3.02962   4.80906  -1.235 
 H                    -1.89316   5.86208  -0.36307 
 H                    -1.324     4.83896  -1.70999 
 C                     0.74764   4.23239  -0.22345 
 H                     0.71075   5.32384  -0.34034 
 H                     1.73988   3.96335   0.16744 
 H                     0.63468   3.77344  -1.2156 
 C                    -0.17093   4.40103   2.08254 
 H                     0.86935   4.32613   2.42542 
 H                    -0.42883   5.46763   2.01289 
 H                    -0.80946   3.93349   2.84025 
 H                    -0.13506   0.66156  -1.64464 
 C                     3.03874  -0.70615  -2.14077 
 O                     2.97008  -1.88348  -1.79941 
 C                     4.36387   0.03941  -2.1462 
 H                     4.60287   0.36721  -3.17173 
 H                     4.2593    0.96947  -1.56244 
 C                     0.62017  -0.57949  -2.43764 
 H                     0.04253  -0.33482  -3.33686 
 H                     0.742    -1.6633   -2.37671 
 N                     1.93904   0.01114  -2.52696 
 C                     1.98978   1.43417  -2.78374 
 H                     2.8763    1.71121  -3.36268 
 H                     1.10815   1.72011  -3.36976 
 H                     1.98264   2.02495  -1.85027 
 C                     5.50699  -0.78239  -1.58111 
 H                     5.20248  -1.18969  -0.60481 
 H                     5.6887   -1.66219  -2.21617 
 C                     6.77691   0.03564  -1.41394 
 H                     7.13721   0.38554  -2.39712 
 H                     6.54854   0.94944  -0.83839 
 C                     7.88568  -0.72691  -0.70515 
 H                     7.49086  -1.12734   0.24382 
 H                     8.17087  -1.60524  -1.30642 
 C                     9.10143   0.1398   -0.42582 
 H                     8.83194   0.98647   0.22182 
 H                     9.90287  -0.41972   0.07248 
 H                     9.51359   0.55639  -1.35565 
 C                     4.48663   1.18151   1.62695 
 F                     4.29428   1.7481    2.82126 
 F                     5.76242   0.77599   1.57962 
 F                     4.33304   2.14521   0.70646 
 H                    -2.13467  -5.38724  -0.26729 
 

 GradGradGradGradGradGradGradGradGradGradGradGradGradGradGradGradGradGrad
 Berny optimization.
 Initialization pass.
 Trust Radius=3.00D-01 FncErr=1.00D-07 GrdErr=1.00D-07 EigMax=2.50D+02 EigMin=1.00D-04
 Number of steps in this run=      2 maximum allowed number of steps=      2.
 GradGradGradGradGradGradGradGradGradGradGradGradGradGradGradGradGradGrad

 Stoichiometry    C37H60B3F3IrN3O7
 Framework group  C1[X(C37H60B3F3IrN3O7)]
 Deg. of freedom   336
 Full point group                 C1      NOp   1
 Largest Abelian subgroup         C1      NOp   1
 Largest concise Abelian subgroup C1      NOp   1
                         Standard orientation:                         
 ---------------------------------------------------------------------
 Center     Atomic      Atomic             Coordinates (Angstroms)
 Number     Number       Type             X           Y           Z
 ---------------------------------------------------------------------
      1          6           0        1.727469   -1.946980    0.905710
      2          6           0        2.273139    0.303100    0.890510
      3          6           0        3.543059    0.046260    1.389090
      4          6           0        3.897909   -1.268470    1.674620
      5          6           0        2.978329   -2.273160    1.431520
      6          6           0        0.706169   -2.960430    0.585020
      7          6           0       -1.363181   -3.388090   -0.374320
      8          6           0       -1.309561   -4.726000   -0.015330
      9          6           0       -0.195191   -5.185000    0.676680
     10          6           0        0.818959   -4.292010    0.983680
     11          1           0        1.922650    1.316450    0.690150
     12          1           0        4.889979   -1.503040    2.055580
     13          1           0        3.252899   -3.308460    1.610900
     14          1           0       -2.232581   -2.962030   -0.875610
     15          1           0       -0.119821   -6.225820    0.984680
     16          1           0        1.685059   -4.627750    1.547440
     17          7           0        1.391889   -0.667620    0.652260
     18          7           0       -0.376631   -2.528630   -0.093610
     19         77           0       -0.577881   -0.351950   -0.441480
     20          8           0       -1.792851   -1.496590    2.126760
     21          8           0       -3.512151   -0.923990   -1.017730
     22          8           0       -0.088580    2.310960    0.900620
     23          5           0       -2.338131   -0.278140   -1.427430
     24          5           0       -1.809381   -0.411920    1.252240
     25          5           0       -0.899420    1.635310   -0.013500
     26          8           0       -1.812550    2.509310   -0.578240
     27          8           0       -2.757261    0.514750    1.667370
     28          6           0       -3.222831    0.127950    2.968020
     29          6           0       -2.956401   -1.401430    2.963060
     30          6           0       -0.317960    3.719500    0.737470
     31          6           0       -1.752110    3.754990    0.129910
     32          6           0       -4.590331   -0.323980   -1.753920
     33          6           0       -3.883621    0.079240   -3.077770
     34          8           0       -2.554121    0.372040   -2.633870
     35          6           0       -2.644881   -2.003830    4.317820
     36          1           0       -1.750091   -1.556270    4.764380
     37          1           0       -3.488551   -1.869310    5.010340
     38          1           0       -2.464641   -3.081420    4.210430
     39          6           0       -4.057751   -2.198340    2.274140
     40          1           0       -3.702851   -3.228490    2.134420
     41          1           0       -4.980021   -2.231800    2.870310
     42          1           0       -4.278701   -1.782650    1.280650
     43          6           0       -2.373570    0.872720    3.991920
     44          1           0       -2.688071    0.659180    5.022440
     45          1           0       -1.311541    0.615890    3.883400
     46          1           0       -2.475050    1.953510    3.826330
     47          6           0       -4.677421    0.526910    3.110340
     48          1           0       -4.769880    1.619500    3.046810
     49          1           0       -5.295781    0.091980    2.317270
     50          1           0       -5.079391    0.206660    4.082710
     51          6           0       -5.714641   -1.327570   -1.901470
     52          1           0       -6.137831   -1.556860   -0.914190
     53          1           0       -6.521711   -0.922020   -2.528610
     54          1           0       -5.366651   -2.266970   -2.346150
     55          6           0       -5.058370    0.880370   -0.944000
     56          1           0       -5.923140    1.374440   -1.407910
     57          1           0       -5.349461    0.539900    0.058870
     58          1           0       -4.244550    1.608270   -0.817400
     59          6           0       -3.787111   -1.069660   -4.073230
     60          1           0       -4.758661   -1.305580   -4.528680
     61          1           0       -3.091471   -0.785330   -4.872880
     62          1           0       -3.394391   -1.976180   -3.592520
     63          6           0       -4.453800    1.311030   -3.752390
     64          1           0       -4.351350    2.193150   -3.110220
     65          1           0       -3.909660    1.509080   -4.684880
     66          1           0       -5.515860    1.170900   -4.001500
     67          6           0       -2.848700    3.743910    1.185810
     68          1           0       -3.813060    3.562240    0.692310
     69          1           0       -2.691590    2.929400    1.900910
     70          1           0       -2.908340    4.701650    1.720620
     71          6           0       -2.003410    4.883140   -0.851880
     72          1           0       -3.029620    4.809060   -1.235000
     73          1           0       -1.893160    5.862080   -0.363070
     74          1           0       -1.324000    4.838960   -1.709990
     75          6           0        0.747640    4.232390   -0.223450
     76          1           0        0.710750    5.323840   -0.340340
     77          1           0        1.739880    3.963350    0.167440
     78          1           0        0.634680    3.773440   -1.215600
     79          6           0       -0.170930    4.401030    2.082540
     80          1           0        0.869350    4.326130    2.425420
     81          1           0       -0.428830    5.467630    2.012890
     82          1           0       -0.809460    3.933490    2.840250
     83          1           0       -0.135061    0.661560   -1.644640
     84          6           0        3.038739   -0.706150   -2.140770
     85          8           0        2.970079   -1.883480   -1.799410
     86          6           0        4.363869    0.039410   -2.146200
     87          1           0        4.602869    0.367210   -3.171730
     88          1           0        4.259300    0.969470   -1.562440
     89          6           0        0.620169   -0.579490   -2.437640
     90          1           0        0.042529   -0.334820   -3.336860
     91          1           0        0.741999   -1.663300   -2.376710
     92          7           0        1.939039    0.011140   -2.526960
     93          6           0        1.989780    1.434170   -2.783740
     94          1           0        2.876300    1.711210   -3.362680
     95          1           0        1.108150    1.720110   -3.369760
     96          1           0        1.982640    2.024950   -1.850270
     97          6           0        5.506989   -0.782390   -1.581110
     98          1           0        5.202479   -1.189690   -0.604810
     99          1           0        5.688699   -1.662190   -2.216170
    100          6           0        6.776909    0.035640   -1.413940
    101          1           0        7.137209    0.385540   -2.397120
    102          1           0        6.548540    0.949440   -0.838390
    103          6           0        7.885679   -0.726910   -0.705150
    104          1           0        7.490859   -1.127340    0.243820
    105          1           0        8.170869   -1.605240   -1.306420
    106          6           0        9.101429    0.139800   -0.425820
    107          1           0        8.831940    0.986470    0.221820
    108          1           0        9.902869   -0.419721    0.072480
    109          1           0        9.513589    0.556389   -1.355650
    110          6           0        4.486630    1.181510    1.626950
    111          9           0        4.294280    1.748100    2.821260
    112          9           0        5.762419    0.775990    1.579620
    113          9           0        4.333040    2.145210    0.706460
    114          1           0       -2.134671   -5.387240   -0.267290
 ---------------------------------------------------------------------
 Rotational constants (GHZ):           0.0742126           0.0390432           0.0370223
 General basis read from cards:  (5D, 7F)
 ======================================================================================================
                                       Pseudopotential Parameters
 ======================================================================================================
  Center     Atomic      Valence      Angular      Power
  Number     Number     Electrons     Momentum     of R      Exponent        Coefficient   SO-Coeffient
 ======================================================================================================
    1          6
                                   No pseudopotential on this center.
    2          6
                                   No pseudopotential on this center.
    3          6
                                   No pseudopotential on this center.
    4          6
                                   No pseudopotential on this center.
    5          6
                                   No pseudopotential on this center.
    6          6
                                   No pseudopotential on this center.
    7          6
                                   No pseudopotential on this center.
    8          6
                                   No pseudopotential on this center.
    9          6
                                   No pseudopotential on this center.
   10          6
                                   No pseudopotential on this center.
   11          1
                                   No pseudopotential on this center.
   12          1
                                   No pseudopotential on this center.
   13          1
                                   No pseudopotential on this center.
   14          1
                                   No pseudopotential on this center.
   15          1
                                   No pseudopotential on this center.
   16          1
                                   No pseudopotential on this center.
   17          7
                                   No pseudopotential on this center.
   18          7
                                   No pseudopotential on this center.
   19         77           17
                                      G and up 
                                                     1      823.5880147       -0.15780140    0.00000000
                                                     2      364.6613336    -1517.52704460    0.00000000
                                                     2       55.7082801     -316.53065290    0.00000000
                                                     2       12.0464544      -91.88809410    0.00000000
                                                     2        3.5120610       -9.22417730    0.00000000
                                      S - G
                                                     0      188.0490770        3.15780140    0.00000000
                                                     1      340.4194712       26.83225770    0.00000000
                                                     2      128.2373673      800.42500070    0.00000000
                                                     2       33.8644961      369.40506830    0.00000000
                                                     2        4.7560005      242.41718990    0.00000000
                                                     2        3.9649974     -118.21732820    0.00000000
                                      P - G
                                                     0      289.7291139        2.15780140    0.00000000
                                                     1       87.4633789       61.96786100    0.00000000
                                                     2       30.4363766      269.05819860    0.00000000
                                                     2        4.0553412      231.16547930    0.00000000
                                                     2        3.5525341     -133.69526670    0.00000000
                                      D - G
                                                     0      136.4017106        3.15780140    0.00000000
                                                     1       95.0776925       45.93498030    0.00000000
                                                     2       49.2258410      359.03446680    0.00000000
                                                     2       15.0874145      176.47401190    0.00000000
                                                     2        4.0405764       54.51552860    0.00000000
                                      F - G
                                                     0      127.3507908        3.95461970    0.00000000
                                                     1       66.2364374       52.97736550    0.00000000
                                                     2       34.4299229      274.86433830    0.00000000
                                                     2       10.1995721      137.20473380    0.00000000
                                                     2        2.5409702       14.86333050    0.00000000
   20          8
                                   No pseudopotential on this center.
   21          8
                                   No pseudopotential on this center.
   22          8
                                   No pseudopotential on this center.
   23          5
                                   No pseudopotential on this center.
   24          5
                                   No pseudopotential on this center.
   25          5
                                   No pseudopotential on this center.
   26          8
                                   No pseudopotential on this center.
   27          8
                                   No pseudopotential on this center.
   28          6
                                   No pseudopotential on this center.
   29          6
                                   No pseudopotential on this center.
   30          6
                                   No pseudopotential on this center.
   31          6
                                   No pseudopotential on this center.
   32          6
                                   No pseudopotential on this center.
   33          6
                                   No pseudopotential on this center.
   34          8
                                   No pseudopotential on this center.
   35          6
                                   No pseudopotential on this center.
   36          1
                                   No pseudopotential on this center.
   37          1
                                   No pseudopotential on this center.
   38          1
                                   No pseudopotential on this center.
   39          6
                                   No pseudopotential on this center.
   40          1
                                   No pseudopotential on this center.
   41          1
                                   No pseudopotential on this center.
   42          1
                                   No pseudopotential on this center.
   43          6
                                   No pseudopotential on this center.
   44          1
                                   No pseudopotential on this center.
   45          1
                                   No pseudopotential on this center.
   46          1
                                   No pseudopotential on this center.
   47          6
                                   No pseudopotential on this center.
   48          1
                                   No pseudopotential on this center.
   49          1
                                   No pseudopotential on this center.
   50          1
                                   No pseudopotential on this center.
   51          6
                                   No pseudopotential on this center.
   52          1
                                   No pseudopotential on this center.
   53          1
                                   No pseudopotential on this center.
   54          1
                                   No pseudopotential on this center.
   55          6
                                   No pseudopotential on this center.
   56          1
                                   No pseudopotential on this center.
   57          1
                                   No pseudopotential on this center.
   58          1
                                   No pseudopotential on this center.
   59          6
                                   No pseudopotential on this center.
   60          1
                                   No pseudopotential on this center.
   61          1
                                   No pseudopotential on this center.
   62          1
                                   No pseudopotential on this center.
   63          6
                                   No pseudopotential on this center.
   64          1
                                   No pseudopotential on this center.
   65          1
                                   No pseudopotential on this center.
   66          1
                                   No pseudopotential on this center.
   67          6
                                   No pseudopotential on this center.
   68          1
                                   No pseudopotential on this center.
   69          1
                                   No pseudopotential on this center.
   70          1
                                   No pseudopotential on this center.
   71          6
                                   No pseudopotential on this center.
   72          1
                                   No pseudopotential on this center.
   73          1
                                   No pseudopotential on this center.
   74          1
                                   No pseudopotential on this center.
   75          6
                                   No pseudopotential on this center.
   76          1
                                   No pseudopotential on this center.
   77          1
                                   No pseudopotential on this center.
   78          1
                                   No pseudopotential on this center.
   79          6
                                   No pseudopotential on this center.
   80          1
                                   No pseudopotential on this center.
   81          1
                                   No pseudopotential on this center.
   82          1
                                   No pseudopotential on this center.
   83          1
                                   No pseudopotential on this center.
   84          6
                                   No pseudopotential on this center.
   85          8
                                   No pseudopotential on this center.
   86          6
                                   No pseudopotential on this center.
   87          1
                                   No pseudopotential on this center.
   88          1
                                   No pseudopotential on this center.
   89          6
                                   No pseudopotential on this center.
   90          1
                                   No pseudopotential on this center.
   91          1
                                   No pseudopotential on this center.
   92          7
                                   No pseudopotential on this center.
   93          6
                                   No pseudopotential on this center.
   94          1
                                   No pseudopotential on this center.
   95          1
                                   No pseudopotential on this center.
   96          1
                                   No pseudopotential on this center.
   97          6
                                   No pseudopotential on this center.
   98          1
                                   No pseudopotential on this center.
   99          1
                                   No pseudopotential on this center.
  100          6
                                   No pseudopotential on this center.
  101          1
                                   No pseudopotential on this center.
  102          1
                                   No pseudopotential on this center.
  103          6
                                   No pseudopotential on this center.
  104          1
                                   No pseudopotential on this center.
  105          1
                                   No pseudopotential on this center.
  106          6
                                   No pseudopotential on this center.
  107          1
                                   No pseudopotential on this center.
  108          1
                                   No pseudopotential on this center.
  109          1
                                   No pseudopotential on this center.
  110          6
                                   No pseudopotential on this center.
  111          9
                                   No pseudopotential on this center.
  112          9
                                   No pseudopotential on this center.
  113          9
                                   No pseudopotential on this center.
  114          1
                                   No pseudopotential on this center.
 ======================================================================================================
 There are   939 symmetry adapted cartesian basis functions of A   symmetry.
 There are   884 symmetry adapted basis functions of A   symmetry.
   884 basis functions,  1767 primitive gaussians,   939 cartesian basis functions
   209 alpha electrons      209 beta electrons
       nuclear repulsion energy      9298.6487308464 Hartrees.
 NAtoms=  114 NActive=  114 NUniq=  114 SFac= 1.00D+00 NAtFMM=   60 NAOKFM=T Big=T
 Integral buffers will be    131072 words long.
 Raffenetti 2 integral format.
 Two-electron integral symmetry is turned on.
 One-electron integrals computed using PRISM.
   1 Symmetry operations used in ECPInt.
 ECPInt:  NShTT=   57970 NPrTT=  353525 LenC2=   42414 LenP2D=  130161.
 LDataN:  DoStor=T MaxTD1= 6 Len=  172
 NBasis=   884 RedAO= T EigKep=  4.70D-04  NBF=   884
 NBsUse=   884 1.00D-06 EigRej= -1.00D+00 NBFU=   884
 Defaulting to unpruned grid for atomic number  77.
 ExpMin= 2.90D-02 ExpMax= 7.00D+03 ExpMxC= 1.05D+03 IAcc=3 IRadAn=         5 AccDes= 0.00D+00
 Harris functional with IExCor= 1009 and IRadAn=       5 diagonalized for initial guess.
 HarFok:  IExCor= 1009 AccDes= 0.00D+00 IRadAn=         5 IDoV= 1 UseB2=F ITyADJ=14
 ICtDFT=  3500011 ScaDFX=  1.000000  1.000000  1.000000  1.000000
 Defaulting to unpruned grid for atomic number  77.
 FoFCou: FMM=F IPFlag=           0 FMFlag=      100000 FMFlg1=        2001
         NFxFlg=           0 DoJE=T BraDBF=F KetDBF=T FulRan=T
         wScrn=  0.000000 ICntrl=       500 IOpCl=  0 I1Cent=   200000004 NGrid=           0
         NMat0=    1 NMatS0=      1 NMatT0=    0 NMatD0=    1 NMtDS0=    0 NMtDT0=    0
 Petite list used in FoFCou.
 Requested convergence on RMS density matrix=1.00D-08 within 128 cycles.
 Requested convergence on MAX density matrix=1.00D-06.
 Requested convergence on             energy=1.00D-06.
 No special actions if energy rises.
 Defaulting to unpruned grid for atomic number  77.
 Defaulting to unpruned grid for atomic number  77.
 Defaulting to unpruned grid for atomic number  77.
 Defaulting to unpruned grid for atomic number  77.
 Defaulting to unpruned grid for atomic number  77.
 Defaulting to unpruned grid for atomic number  77.
 Defaulting to unpruned grid for atomic number  77.
 Defaulting to unpruned grid for atomic number  77.
 Defaulting to unpruned grid for atomic number  77.
 Defaulting to unpruned grid for atomic number  77.
 Defaulting to unpruned grid for atomic number  77.
 Defaulting to unpruned grid for atomic number  77.
 Defaulting to unpruned grid for atomic number  77.
 Defaulting to unpruned grid for atomic number  77.
 Defaulting to unpruned grid for atomic number  77.
 Defaulting to unpruned grid for atomic number  77.
 SCF Done:  E(RM06) =  -2614.44455476     A.U. after   15 cycles
            NFock= 15  Conv=0.66D-08     -V/T= 2.0345
 DoSCS=F DFT=T ScalE2(SS,OS)=  1.000000  1.000000
 Range of M.O.s used for correlation:     1   884
 NBasis=   884 NAE=   209 NBE=   209 NFC=     0 NFV=     0
 NROrb=    884 NOA=   209 NOB=   209 NVA=   675 NVB=   675

 **** Warning!!: The largest alpha MO coefficient is  0.12236674D+02

   1 Symmetry operations used in ECPInt.
 ECPInt:  NShTT=   57970 NPrTT=  353525 LenC2=   42414 LenP2D=  130161.
 LDataN:  DoStor=T MaxTD1= 7 Len=  274
 Number of processors reduced to   7 by ecpmxn.
 Symmetrizing basis deriv contribution to polar:
 IMax=3 JMax=2 DiffMx= 0.00D+00
 G2DrvN: will do   115 centers at a time, making    1 passes.
 Calling FoFCou, ICntrl=  3107 FMM=T I1Cent=   0 AccDes= 0.00D+00.
 Defaulting to unpruned grid for atomic number  77.
 Defaulting to unpruned grid for atomic number  77.
 Defaulting to unpruned grid for atomic number  77.
 Defaulting to unpruned grid for atomic number  77.
 Defaulting to unpruned grid for atomic number  77.
 Defaulting to unpruned grid for atomic number  77.
 Defaulting to unpruned grid for atomic number  77.
 Defaulting to unpruned grid for atomic number  77.
 Defaulting to unpruned grid for atomic number  77.
 Defaulting to unpruned grid for atomic number  77.
 Defaulting to unpruned grid for atomic number  77.
 Defaulting to unpruned grid for atomic number  77.
 Defaulting to unpruned grid for atomic number  77.
 Defaulting to unpruned grid for atomic number  77.
 Defaulting to unpruned grid for atomic number  77.
 Defaulting to unpruned grid for atomic number  77.
 End of G2Drv F.D. properties file   721 does not exist.
 End of G2Drv F.D. properties file   722 does not exist.
 End of G2Drv F.D. properties file   788 does not exist.
          IDoAtm=11111111111111111111111111111111111111111111111111
          IDoAtm=11111111111111111111111111111111111111111111111111
          IDoAtm=11111111111111
          Differentiating once with respect to electric field.
                with respect to dipole field.
          Differentiating once with respect to nuclear coordinates.
 Defaulting to unpruned grid for atomic number  77.
 CalDSu exits because no D1Ps are significant.
 Defaulting to unpruned grid for atomic number  77.
 Defaulting to unpruned grid for atomic number  77.
 Defaulting to unpruned grid for atomic number  77.
 Defaulting to unpruned grid for atomic number  77.
 Defaulting to unpruned grid for atomic number  77.
 Defaulting to unpruned grid for atomic number  77.
 Defaulting to unpruned grid for atomic number  77.
 Defaulting to unpruned grid for atomic number  77.
 Defaulting to unpruned grid for atomic number  77.
 Defaulting to unpruned grid for atomic number  77.
 Defaulting to unpruned grid for atomic number  77.
 Defaulting to unpruned grid for atomic number  77.
 Defaulting to unpruned grid for atomic number  77.
 Defaulting to unpruned grid for atomic number  77.
 Defaulting to unpruned grid for atomic number  77.
 Defaulting to unpruned grid for atomic number  77.
          There are   345 degrees of freedom in the 1st order CPHF.  IDoFFX=6 NUNeed=     3.
    342 vectors produced by pass  0 Test12= 1.41D-13 1.00D-09 XBig12= 4.88D+02 7.22D+00.
 AX will form    72 AO Fock derivatives at one time.
    342 vectors produced by pass  1 Test12= 1.41D-13 1.00D-09 XBig12= 8.58D+01 1.01D+00.
    342 vectors produced by pass  2 Test12= 1.41D-13 1.00D-09 XBig12= 9.26D-01 7.34D-02.
    342 vectors produced by pass  3 Test12= 1.41D-13 1.00D-09 XBig12= 5.17D-03 5.48D-03.
    342 vectors produced by pass  4 Test12= 1.41D-13 1.00D-09 XBig12= 1.83D-05 3.55D-04.
    299 vectors produced by pass  5 Test12= 1.41D-13 1.00D-09 XBig12= 3.61D-08 1.05D-05.
     76 vectors produced by pass  6 Test12= 1.41D-13 1.00D-09 XBig12= 5.30D-11 3.56D-07.
      3 vectors produced by pass  7 Test12= 1.41D-13 1.00D-09 XBig12= 7.18D-14 1.69D-08.
 InvSVY:  IOpt=1 It=  1 EMax= 2.84D-14
 Solved reduced A of dimension  2088 with   345 vectors.
 Isotropic polarizability for W=    0.000000      510.20 Bohr**3.
 End of Minotr F.D. properties file   721 does not exist.
 End of Minotr F.D. properties file   722 does not exist.
 End of Minotr F.D. properties file   788 does not exist.
 Hyperfine terms turned off by default for NAtoms > 100.

 **********************************************************************

            Population analysis using the SCF Density.

 **********************************************************************

 Orbital symmetries:
       Occupied  (A) (A) (A) (A) (A) (A) (A) (A) (A) (A) (A) (A)
                 (A) (A) (A) (A) (A) (A) (A) (A) (A) (A) (A) (A)
                 (A) (A) (A) (A) (A) (A) (A) (A) (A) (A) (A) (A)
                 (A) (A) (A) (A) (A) (A) (A) (A) (A) (A) (A) (A)
                 (A) (A) (A) (A) (A) (A) (A) (A) (A) (A) (A) (A)
                 (A) (A) (A) (A) (A) (A) (A) (A) (A) (A) (A) (A)
                 (A) (A) (A) (A) (A) (A) (A) (A) (A) (A) (A) (A)
                 (A) (A) (A) (A) (A) (A) (A) (A) (A) (A) (A) (A)
                 (A) (A) (A) (A) (A) (A) (A) (A) (A) (A) (A) (A)
                 (A) (A) (A) (A) (A) (A) (A) (A) (A) (A) (A) (A)
                 (A) (A) (A) (A) (A) (A) (A) (A) (A) (A) (A) (A)
                 (A) (A) (A) (A) (A) (A) (A) (A) (A) (A) (A) (A)
                 (A) (A) (A) (A) (A) (A) (A) (A) (A) (A) (A) (A)
                 (A) (A) (A) (A) (A) (A) (A) (A) (A) (A) (A) (A)
                 (A) (A) (A) (A) (A) (A) (A) (A) (A) (A) (A) (A)
                 (A) (A) (A) (A) (A) (A) (A) (A) (A) (A) (A) (A)
                 (A) (A) (A) (A) (A) (A) (A) (A) (A) (A) (A) (A)
                 (A) (A) (A) (A) (A)
       Virtual   (A) (A) (A) (A) (A) (A) (A) (A) (A) (A) (A) (A)
                 (A) (A) (A) (A) (A) (A) (A) (A) (A) (A) (A) (A)
                 (A) (A) (A) (A) (A) (A) (A) (A) (A) (A) (A) (A)
                 (A) (A) (A) (A) (A) (A) (A) (A) (A) (A) (A) (A)
                 (A) (A) (A) (A) (A) (A) (A) (A) (A) (A) (A) (A)
                 (A) (A) (A) (A) (A) (A) (A) (A) (A) (A) (A) (A)
                 (A) (A) (A) (A) (A) (A) (A) (A) (A) (A) (A) (A)
                 (A) (A) (A) (A) (A) (A) (A) (A) (A) (A) (A) (A)
                 (A) (A) (A) (A) (A) (A) (A) (A) (A) (A) (A) (A)
                 (A) (A) (A) (A) (A) (A) (A) (A) (A) (A) (A) (A)
                 (A) (A) (A) (A) (A) (A) (A) (A) (A) (A) (A) (A)
                 (A) (A) (A) (A) (A) (A) (A) (A) (A) (A) (A) (A)
                 (A) (A) (A) (A) (A) (A) (A) (A) (A) (A) (A) (A)
                 (A) (A) (A) (A) (A) (A) (A) (A) (A) (A) (A) (A)
                 (A) (A) (A) (A) (A) (A) (A) (A) (A) (A) (A) (A)
                 (A) (A) (A) (A) (A) (A) (A) (A) (A) (A) (A) (A)
                 (A) (A) (A) (A) (A) (A) (A) (A) (A) (A) (A) (A)
                 (A) (A) (A) (A) (A) (A) (A) (A) (A) (A) (A) (A)
                 (A) (A) (A) (A) (A) (A) (A) (A) (A) (A) (A) (A)
                 (A) (A) (A) (A) (A) (A) (A) (A) (A) (A) (A) (A)
                 (A) (A) (A) (A) (A) (A) (A) (A) (A) (A) (A) (A)
                 (A) (A) (A) (A) (A) (A) (A) (A) (A) (A) (A) (A)
                 (A) (A) (A) (A) (A) (A) (A) (A) (A) (A) (A) (A)
                 (A) (A) (A) (A) (A) (A) (A) (A) (A) (A) (A) (A)
                 (A) (A) (A) (A) (A) (A) (A) (A) (A) (A) (A) (A)
                 (A) (A) (A) (A) (A) (A) (A) (A) (A) (A) (A) (A)
                 (A) (A) (A) (A) (A) (A) (A) (A) (A) (A) (A) (A)
                 (A) (A) (A) (A) (A) (A) (A) (A) (A) (A) (A) (A)
                 (A) (A) (A) (A) (A) (A) (A) (A) (A) (A) (A) (A)
                 (A) (A) (A) (A) (A) (A) (A) (A) (A) (A) (A) (A)
                 (A) (A) (A) (A) (A) (A) (A) (A) (A) (A) (A) (A)
                 (A) (A) (A) (A) (A) (A) (A) (A) (A) (A) (A) (A)
                 (A) (A) (A) (A) (A) (A) (A) (A) (A) (A) (A) (A)
                 (A) (A) (A) (A) (A) (A) (A) (A) (A) (A) (A) (A)
                 (A) (A) (A) (A) (A) (A) (A) (A) (A) (A) (A) (A)
                 (A) (A) (A) (A) (A) (A) (A) (A) (A) (A) (A) (A)
                 (A) (A) (A) (A) (A) (A) (A) (A) (A) (A) (A) (A)
                 (A) (A) (A) (A) (A) (A) (A) (A) (A) (A) (A) (A)
                 (A) (A) (A) (A) (A) (A) (A) (A) (A) (A) (A) (A)
                 (A) (A) (A) (A) (A) (A) (A) (A) (A) (A) (A) (A)
                 (A) (A) (A) (A) (A) (A) (A) (A) (A) (A) (A) (A)
                 (A) (A) (A) (A) (A) (A) (A) (A) (A) (A) (A) (A)
                 (A) (A) (A) (A) (A) (A) (A) (A) (A) (A) (A) (A)
                 (A) (A) (A) (A) (A) (A) (A) (A) (A) (A) (A) (A)
                 (A) (A) (A) (A) (A) (A) (A) (A) (A) (A) (A) (A)
                 (A) (A) (A) (A) (A) (A) (A) (A) (A) (A) (A) (A)
                 (A) (A) (A) (A) (A) (A) (A) (A) (A) (A) (A) (A)
                 (A) (A) (A) (A) (A) (A) (A) (A) (A) (A) (A) (A)
                 (A) (A) (A) (A) (A) (A) (A) (A) (A) (A) (A) (A)
                 (A) (A) (A) (A) (A) (A) (A) (A) (A) (A) (A) (A)
                 (A) (A) (A) (A) (A) (A) (A) (A) (A) (A) (A) (A)
                 (A) (A) (A) (A) (A) (A) (A) (A) (A) (A) (A) (A)
                 (A) (A) (A) (A) (A) (A) (A) (A) (A) (A) (A) (A)
                 (A) (A) (A) (A) (A) (A) (A) (A) (A) (A) (A) (A)
                 (A) (A) (A) (A) (A) (A) (A) (A) (A) (A) (A) (A)
                 (A) (A) (A) (A) (A) (A) (A) (A) (A) (A) (A) (A)
                 (A) (A) (A)
 The electronic state is 1-A.
 Alpha  occ. eigenvalues --  -24.83451 -24.83380 -24.82750 -19.20414 -19.20002
 Alpha  occ. eigenvalues --  -19.19913 -19.19886 -19.19835 -19.19348 -19.17741
 Alpha  occ. eigenvalues --  -14.44958 -14.44777 -14.41686 -10.51631 -10.33327
 Alpha  occ. eigenvalues --  -10.32409 -10.31906 -10.30964 -10.30235 -10.29636
 Alpha  occ. eigenvalues --  -10.29474 -10.29251 -10.29125 -10.29098 -10.29056
 Alpha  occ. eigenvalues --  -10.28799 -10.28746 -10.28701 -10.28506 -10.28150
 Alpha  occ. eigenvalues --  -10.27634 -10.27155 -10.25641 -10.24349 -10.23497
 Alpha  occ. eigenvalues --  -10.23235 -10.23157 -10.22949 -10.22797 -10.22782
 Alpha  occ. eigenvalues --  -10.22749 -10.22674 -10.22643 -10.22530 -10.22370
 Alpha  occ. eigenvalues --  -10.22182 -10.22121 -10.21954 -10.21589 -10.21274
 Alpha  occ. eigenvalues --   -6.80526  -6.79320  -6.78789  -3.63334  -2.05919
 Alpha  occ. eigenvalues --   -2.05311  -2.04505  -1.35969  -1.27445  -1.27035
 Alpha  occ. eigenvalues --   -1.06174  -1.05913  -1.05576  -1.03518  -1.00196
 Alpha  occ. eigenvalues --   -0.99217  -0.98948  -0.98614  -0.97699  -0.93347
 Alpha  occ. eigenvalues --   -0.86082  -0.83883  -0.83237  -0.81228  -0.80389
 Alpha  occ. eigenvalues --   -0.80198  -0.79825  -0.79001  -0.76890  -0.74813
 Alpha  occ. eigenvalues --   -0.74701  -0.74313  -0.73829  -0.71376  -0.70640
 Alpha  occ. eigenvalues --   -0.70366  -0.70239  -0.69874  -0.68767  -0.68505
 Alpha  occ. eigenvalues --   -0.67545  -0.67493  -0.67141  -0.66273  -0.65293
 Alpha  occ. eigenvalues --   -0.64300  -0.61991  -0.61873  -0.61773  -0.61235
 Alpha  occ. eigenvalues --   -0.60934  -0.60429  -0.60347  -0.57814  -0.57154
 Alpha  occ. eigenvalues --   -0.54642  -0.54526  -0.54043  -0.53743  -0.53658
 Alpha  occ. eigenvalues --   -0.53044  -0.52815  -0.52677  -0.52241  -0.50299
 Alpha  occ. eigenvalues --   -0.49814  -0.49735  -0.49285  -0.49099  -0.48647
 Alpha  occ. eigenvalues --   -0.47811  -0.47336  -0.47179  -0.47073  -0.46637
 Alpha  occ. eigenvalues --   -0.46576  -0.46256  -0.46054  -0.45876  -0.45680
 Alpha  occ. eigenvalues --   -0.45574  -0.45227  -0.45117  -0.44550  -0.44482
 Alpha  occ. eigenvalues --   -0.44181  -0.44060  -0.43930  -0.43754  -0.43542
 Alpha  occ. eigenvalues --   -0.43281  -0.43181  -0.43039  -0.42900  -0.42570
 Alpha  occ. eigenvalues --   -0.41507  -0.40901  -0.40192  -0.40135  -0.40048
 Alpha  occ. eigenvalues --   -0.40002  -0.39913  -0.39857  -0.39725  -0.39653
 Alpha  occ. eigenvalues --   -0.39561  -0.39366  -0.39303  -0.39175  -0.39027
 Alpha  occ. eigenvalues --   -0.38913  -0.38717  -0.38550  -0.38406  -0.37753
 Alpha  occ. eigenvalues --   -0.37506  -0.37353  -0.37038  -0.36632  -0.36469
 Alpha  occ. eigenvalues --   -0.36315  -0.36072  -0.35969  -0.35819  -0.35692
 Alpha  occ. eigenvalues --   -0.35537  -0.35372  -0.35091  -0.34781  -0.34603
 Alpha  occ. eigenvalues --   -0.34353  -0.34018  -0.33378  -0.33079  -0.33005
 Alpha  occ. eigenvalues --   -0.32619  -0.32508  -0.32261  -0.32090  -0.31722
 Alpha  occ. eigenvalues --   -0.31633  -0.31388  -0.31216  -0.30704  -0.30199
 Alpha  occ. eigenvalues --   -0.29732  -0.29625  -0.28063  -0.27082  -0.26982
 Alpha  occ. eigenvalues --   -0.26469  -0.26100  -0.25944  -0.25760  -0.24979
 Alpha  occ. eigenvalues --   -0.24769  -0.22903  -0.22417  -0.18854
 Alpha virt. eigenvalues --   -0.07441  -0.04016  -0.03171   0.00821   0.02495
 Alpha virt. eigenvalues --    0.03466   0.04913   0.05920   0.06861   0.07262
 Alpha virt. eigenvalues --    0.07857   0.08533   0.09313   0.09694   0.09958
 Alpha virt. eigenvalues --    0.10104   0.10472   0.10868   0.11056   0.11650
 Alpha virt. eigenvalues --    0.11734   0.11935   0.12449   0.12649   0.12748
 Alpha virt. eigenvalues --    0.12893   0.13601   0.13816   0.13982   0.14160
 Alpha virt. eigenvalues --    0.14289   0.14489   0.14768   0.15205   0.15346
 Alpha virt. eigenvalues --    0.15605   0.15764   0.15925   0.15963   0.16087
 Alpha virt. eigenvalues --    0.16311   0.16351   0.16558   0.16667   0.16796
 Alpha virt. eigenvalues --    0.17239   0.17601   0.17911   0.18049   0.18287
 Alpha virt. eigenvalues --    0.18344   0.18713   0.18856   0.19002   0.19112
 Alpha virt. eigenvalues --    0.19320   0.19468   0.19687   0.19968   0.20049
 Alpha virt. eigenvalues --    0.20254   0.20439   0.20499   0.20640   0.20789
 Alpha virt. eigenvalues --    0.20991   0.21262   0.21339   0.21849   0.21982
 Alpha virt. eigenvalues --    0.22125   0.22187   0.22240   0.22617   0.22682
 Alpha virt. eigenvalues --    0.22987   0.23261   0.23355   0.23577   0.23764
 Alpha virt. eigenvalues --    0.24115   0.24393   0.24463   0.24648   0.24764
 Alpha virt. eigenvalues --    0.25094   0.25215   0.25339   0.25837   0.26097
 Alpha virt. eigenvalues --    0.26363   0.26649   0.27069   0.27163   0.27375
 Alpha virt. eigenvalues --    0.27451   0.27682   0.28068   0.28450   0.28738
 Alpha virt. eigenvalues --    0.29197   0.29399   0.29778   0.29911   0.30652
 Alpha virt. eigenvalues --    0.30901   0.31380   0.31660   0.31965   0.32675
 Alpha virt. eigenvalues --    0.32905   0.33188   0.34245   0.35030   0.35520
 Alpha virt. eigenvalues --    0.36311   0.36487   0.37053   0.37333   0.38449
 Alpha virt. eigenvalues --    0.38640   0.38942   0.40841   0.40952   0.41597
 Alpha virt. eigenvalues --    0.42500   0.44221   0.45302   0.45564   0.46465
 Alpha virt. eigenvalues --    0.47379   0.47661   0.48675   0.49327   0.49453
 Alpha virt. eigenvalues --    0.49772   0.51056   0.51168   0.51514   0.51542
 Alpha virt. eigenvalues --    0.51753   0.52032   0.52262   0.52783   0.53102
 Alpha virt. eigenvalues --    0.53491   0.53764   0.54222   0.54459   0.54943
 Alpha virt. eigenvalues --    0.55569   0.55633   0.56114   0.56221   0.56528
 Alpha virt. eigenvalues --    0.56809   0.56968   0.57534   0.57792   0.58073
 Alpha virt. eigenvalues --    0.58142   0.58468   0.58560   0.58751   0.58819
 Alpha virt. eigenvalues --    0.59107   0.59391   0.59797   0.59990   0.60182
 Alpha virt. eigenvalues --    0.60646   0.60724   0.61391   0.61576   0.61988
 Alpha virt. eigenvalues --    0.62294   0.62590   0.62861   0.63292   0.63530
 Alpha virt. eigenvalues --    0.63825   0.64353   0.64567   0.64624   0.65404
 Alpha virt. eigenvalues --    0.66136   0.66428   0.66696   0.66839   0.66891
 Alpha virt. eigenvalues --    0.67172   0.67630   0.67722   0.67973   0.68482
 Alpha virt. eigenvalues --    0.68509   0.68792   0.69259   0.69569   0.70204
 Alpha virt. eigenvalues --    0.70323   0.70760   0.70884   0.71335   0.71786
 Alpha virt. eigenvalues --    0.72417   0.72520   0.72867   0.73029   0.73126
 Alpha virt. eigenvalues --    0.73683   0.74080   0.74192   0.74528   0.74755
 Alpha virt. eigenvalues --    0.74883   0.75318   0.75735   0.76094   0.76496
 Alpha virt. eigenvalues --    0.77103   0.77744   0.78131   0.78204   0.78604
 Alpha virt. eigenvalues --    0.79088   0.79477   0.79578   0.79809   0.80520
 Alpha virt. eigenvalues --    0.80778   0.81158   0.81738   0.81881   0.82372
 Alpha virt. eigenvalues --    0.82556   0.83001   0.83189   0.83285   0.83625
 Alpha virt. eigenvalues --    0.83814   0.84137   0.84310   0.84930   0.85161
 Alpha virt. eigenvalues --    0.85273   0.85747   0.85772   0.85802   0.85977
 Alpha virt. eigenvalues --    0.86508   0.86564   0.86824   0.87262   0.87441
 Alpha virt. eigenvalues --    0.87543   0.88001   0.88273   0.88352   0.88494
 Alpha virt. eigenvalues --    0.88988   0.89194   0.89581   0.89715   0.89864
 Alpha virt. eigenvalues --    0.89878   0.90138   0.90354   0.90707   0.90940
 Alpha virt. eigenvalues --    0.91343   0.91686   0.91716   0.91803   0.91858
 Alpha virt. eigenvalues --    0.92181   0.92310   0.92889   0.92949   0.93588
 Alpha virt. eigenvalues --    0.94051   0.94158   0.94377   0.94632   0.94799
 Alpha virt. eigenvalues --    0.95084   0.95286   0.95439   0.95786   0.96090
 Alpha virt. eigenvalues --    0.96742   0.96952   0.97291   0.97566   0.98004
 Alpha virt. eigenvalues --    0.98359   0.98455   0.98679   0.99277   0.99463
 Alpha virt. eigenvalues --    0.99957   1.00260   1.00691   1.01017   1.01051
 Alpha virt. eigenvalues --    1.01409   1.01987   1.02348   1.03475   1.03508
 Alpha virt. eigenvalues --    1.03987   1.04858   1.05462   1.05935   1.06372
 Alpha virt. eigenvalues --    1.06666   1.06974   1.07931   1.08490   1.09175
 Alpha virt. eigenvalues --    1.10024   1.10396   1.10774   1.11278   1.12050
 Alpha virt. eigenvalues --    1.12716   1.12949   1.13632   1.13810   1.14469
 Alpha virt. eigenvalues --    1.15264   1.16090   1.16591   1.17180   1.17500
 Alpha virt. eigenvalues --    1.17847   1.18584   1.19103   1.19595   1.20189
 Alpha virt. eigenvalues --    1.20552   1.21044   1.21442   1.21632   1.22398
 Alpha virt. eigenvalues --    1.22931   1.22989   1.23870   1.24769   1.25551
 Alpha virt. eigenvalues --    1.26011   1.26423   1.26985   1.28107   1.28382
 Alpha virt. eigenvalues --    1.29002   1.29228   1.29607   1.30131   1.31113
 Alpha virt. eigenvalues --    1.31516   1.32391   1.33523   1.34116   1.35192
 Alpha virt. eigenvalues --    1.35580   1.35602   1.36460   1.36747   1.37045
 Alpha virt. eigenvalues --    1.37524   1.38118   1.38618   1.39469   1.39695
 Alpha virt. eigenvalues --    1.40266   1.40888   1.41402   1.41873   1.42343
 Alpha virt. eigenvalues --    1.42662   1.43009   1.43135   1.43564   1.44347
 Alpha virt. eigenvalues --    1.44823   1.45033   1.45577   1.45772   1.46350
 Alpha virt. eigenvalues --    1.46513   1.47262   1.47354   1.47738   1.48125
 Alpha virt. eigenvalues --    1.49207   1.49608   1.49783   1.51030   1.51266
 Alpha virt. eigenvalues --    1.52208   1.52472   1.53157   1.53609   1.54566
 Alpha virt. eigenvalues --    1.56076   1.56747   1.56933   1.58068   1.58273
 Alpha virt. eigenvalues --    1.59790   1.60387   1.60915   1.61430   1.62158
 Alpha virt. eigenvalues --    1.63664   1.63744   1.64424   1.65335   1.65629
 Alpha virt. eigenvalues --    1.66078   1.66681   1.67841   1.68341   1.68726
 Alpha virt. eigenvalues --    1.69209   1.69588   1.69982   1.70198   1.71409
 Alpha virt. eigenvalues --    1.71604   1.72175   1.73110   1.73426   1.74637
 Alpha virt. eigenvalues --    1.74795   1.75807   1.76235   1.76901   1.77041
 Alpha virt. eigenvalues --    1.77701   1.78148   1.78633   1.79029   1.79634
 Alpha virt. eigenvalues --    1.80733   1.81094   1.81681   1.82141   1.82310
 Alpha virt. eigenvalues --    1.83176   1.83466   1.83986   1.84387   1.84627
 Alpha virt. eigenvalues --    1.85186   1.85443   1.85889   1.86456   1.86704
 Alpha virt. eigenvalues --    1.87188   1.87459   1.88002   1.88415   1.88517
 Alpha virt. eigenvalues --    1.89066   1.89234   1.90290   1.90518   1.90700
 Alpha virt. eigenvalues --    1.91075   1.91346   1.91576   1.91888   1.92007
 Alpha virt. eigenvalues --    1.92199   1.92340   1.92519   1.92877   1.93103
 Alpha virt. eigenvalues --    1.93199   1.93599   1.93937   1.94292   1.94657
 Alpha virt. eigenvalues --    1.95552   1.95737   1.96865   1.97242   1.97508
 Alpha virt. eigenvalues --    1.98050   1.98242   1.98679   1.99345   1.99688
 Alpha virt. eigenvalues --    2.00150   2.00482   2.01262   2.01832   2.01980
 Alpha virt. eigenvalues --    2.02443   2.02841   2.03117   2.03525   2.03826
 Alpha virt. eigenvalues --    2.03915   2.04342   2.04385   2.05189   2.05991
 Alpha virt. eigenvalues --    2.06383   2.06668   2.07368   2.07496   2.07738
 Alpha virt. eigenvalues --    2.08083   2.08272   2.08809   2.08986   2.09430
 Alpha virt. eigenvalues --    2.09905   2.10650   2.10680   2.11076   2.11588
 Alpha virt. eigenvalues --    2.11704   2.12475   2.12935   2.13264   2.13844
 Alpha virt. eigenvalues --    2.14177   2.14522   2.14584   2.14927   2.15106
 Alpha virt. eigenvalues --    2.15898   2.16137   2.16315   2.16808   2.17113
 Alpha virt. eigenvalues --    2.17725   2.18279   2.18616   2.18755   2.19104
 Alpha virt. eigenvalues --    2.19406   2.19801   2.20046   2.20529   2.21009
 Alpha virt. eigenvalues --    2.21054   2.21877   2.22016   2.22200   2.22414
 Alpha virt. eigenvalues --    2.22796   2.23627   2.24089   2.24421   2.24659
 Alpha virt. eigenvalues --    2.24880   2.25537   2.25744   2.25808   2.26201
 Alpha virt. eigenvalues --    2.26596   2.27001   2.27611   2.27803   2.28153
 Alpha virt. eigenvalues --    2.28388   2.28978   2.30090   2.31196   2.31445
 Alpha virt. eigenvalues --    2.32127   2.32619   2.32887   2.33248   2.33755
 Alpha virt. eigenvalues --    2.34188   2.34694   2.35234   2.35804   2.36727
 Alpha virt. eigenvalues --    2.37635   2.38794   2.39397   2.39546   2.39804
 Alpha virt. eigenvalues --    2.40412   2.40939   2.42345   2.44125   2.45028
 Alpha virt. eigenvalues --    2.45894   2.46794   2.47814   2.48651   2.48934
 Alpha virt. eigenvalues --    2.49127   2.49182   2.50003   2.50450   2.51296
 Alpha virt. eigenvalues --    2.52612   2.53387   2.54217   2.54665   2.56292
 Alpha virt. eigenvalues --    2.58388   2.59018   2.59891   2.60233   2.60620
 Alpha virt. eigenvalues --    2.61466   2.61665   2.62393   2.64419   2.64652
 Alpha virt. eigenvalues --    2.64964   2.65341   2.66178   2.67046   2.67756
 Alpha virt. eigenvalues --    2.68687   2.70082   2.70598   2.71985   2.76918
 Alpha virt. eigenvalues --    2.76971   2.77786   2.77946   2.78507   2.79098
 Alpha virt. eigenvalues --    2.79677   2.80300   2.80811   2.80930   2.81250
 Alpha virt. eigenvalues --    2.81952   2.82313   2.82677   2.83525   2.83912
 Alpha virt. eigenvalues --    2.84553   2.85270   2.86137   2.88976   2.90926
 Alpha virt. eigenvalues --    2.91666   2.92342   2.94076   2.94974   2.95929
 Alpha virt. eigenvalues --    2.97159   2.97879   2.98879   2.99819   3.04178
 Alpha virt. eigenvalues --    3.05740   3.06764   3.07324   3.08340   3.08758
 Alpha virt. eigenvalues --    3.11722   3.11951   3.12359   3.13026   3.14155
 Alpha virt. eigenvalues --    3.21280   3.25986   3.31743   3.45206  13.34560
          Condensed to atoms (all electrons):
 Mulliken charges:
               1
     1  C    0.324061
     2  C    0.031793
     3  C   -0.071744
     4  C   -0.160004
     5  C   -0.168094
     6  C    0.340159
     7  C    0.065920
     8  C   -0.173088
     9  C   -0.138514
    10  C   -0.173828
    11  H    0.208504
    12  H    0.196372
    13  H    0.180547
    14  H    0.212625
    15  H    0.182132
    16  H    0.171081
    17  N   -0.481406
    18  N   -0.508857
    19  Ir  -0.276747
    20  O   -0.525989
    21  O   -0.539754
    22  O   -0.530820
    23  B    0.485609
    24  B    0.525127
    25  B    0.538352
    26  O   -0.503266
    27  O   -0.527459
    28  C    0.296915
    29  C    0.295812
    30  C    0.298044
    31  C    0.288711
    32  C    0.288200
    33  C    0.305584
    34  O   -0.513463
    35  C   -0.512640
    36  H    0.170594
    37  H    0.149585
    38  H    0.164401
    39  C   -0.512044
    40  H    0.156899
    41  H    0.145535
    42  H    0.187179
    43  C   -0.510102
    44  H    0.150233
    45  H    0.182851
    46  H    0.159716
    47  C   -0.507852
    48  H    0.166709
    49  H    0.169146
    50  H    0.149717
    51  C   -0.513064
    52  H    0.164545
    53  H    0.152151
    54  H    0.163261
    55  C   -0.499166
    56  H    0.141834
    57  H    0.151911
    58  H    0.193964
    59  C   -0.506918
    60  H    0.148635
    61  H    0.170955
    62  H    0.162149
    63  C   -0.506690
    64  H    0.176590
    65  H    0.165830
    66  H    0.144817
    67  C   -0.495277
    68  H    0.161919
    69  H    0.177058
    70  H    0.142064
    71  C   -0.506723
    72  H    0.168568
    73  H    0.147213
    74  H    0.169534
    75  C   -0.506567
    76  H    0.157139
    77  H    0.159651
    78  H    0.163561
    79  C   -0.506995
    80  H    0.167540
    81  H    0.150512
    82  H    0.171663
    83  H    0.192398
    84  C    0.583551
    85  O   -0.520736
    86  C   -0.418314
    87  H    0.174971
    88  H    0.154804
    89  C   -0.335605
    90  H    0.195743
    91  H    0.226740
    92  N   -0.361751
    93  C   -0.365335
    94  H    0.179425
    95  H    0.198564
    96  H    0.163106
    97  C   -0.259379
    98  H    0.129394
    99  H    0.163889
   100  C   -0.275959
   101  H    0.139290
   102  H    0.130991
   103  C   -0.275799
   104  H    0.134098
   105  H    0.148928
   106  C   -0.495615
   107  H    0.159199
   108  H    0.162342
   109  H    0.158807
   110  C    0.969713
   111  F   -0.301314
   112  F   -0.312151
   113  F   -0.311430
   114  H    0.183338
 Sum of Mulliken charges =  -0.00000
 Mulliken charges with hydrogens summed into heavy atoms:
               1
     1  C    0.324061
     2  C    0.240297
     3  C   -0.071744
     4  C    0.036368
     5  C    0.012453
     6  C    0.340159
     7  C    0.278545
     8  C    0.010251
     9  C    0.043618
    10  C   -0.002747
    17  N   -0.481406
    18  N   -0.508857
    19  Ir  -0.084349
    20  O   -0.525989
    21  O   -0.539754
    22  O   -0.530820
    23  B    0.485609
    24  B    0.525127
    25  B    0.538352
    26  O   -0.503266
    27  O   -0.527459
    28  C    0.296915
    29  C    0.295812
    30  C    0.298044
    31  C    0.288711
    32  C    0.288200
    33  C    0.305584
    34  O   -0.513463
    35  C   -0.028060
    39  C   -0.022432
    43  C   -0.017302
    47  C   -0.022280
    51  C   -0.033107
    55  C   -0.011458
    59  C   -0.025179
    63  C   -0.019453
    67  C   -0.014236
    71  C   -0.021409
    75  C   -0.026217
    79  C   -0.017280
    84  C    0.583551
    85  O   -0.520736
    86  C   -0.088538
    89  C    0.086878
    92  N   -0.361751
    93  C    0.175759
    97  C    0.033904
   100  C   -0.005679
   103  C    0.007226
   106  C   -0.015267
   110  C    0.969713
   111  F   -0.301314
   112  F   -0.312151
   113  F   -0.311430
 APT charges:
               1
     1  C    0.241928
     2  C    0.077262
     3  C   -0.235319
     4  C    0.103256
     5  C   -0.172198
     6  C    0.163019
     7  C    0.031537
     8  C   -0.044240
     9  C    0.107501
    10  C   -0.166910
    11  H    0.124386
    12  H    0.063514
    13  H    0.045562
    14  H    0.094069
    15  H    0.030210
    16  H    0.041970
    17  N   -0.204023
    18  N   -0.073305
    19  Ir  -1.102651
    20  O   -0.930901
    21  O   -1.010052
    22  O   -0.968440
    23  B    1.274991
    24  B    1.239919
    25  B    1.289667
    26  O   -0.952085
    27  O   -0.957955
    28  C    0.462356
    29  C    0.466931
    30  C    0.489147
    31  C    0.481542
    32  C    0.497342
    33  C    0.508406
    34  O   -0.991787
    35  C   -0.010651
    36  H    0.001401
    37  H   -0.015825
    38  H   -0.003700
    39  C   -0.031763
    40  H   -0.014314
    41  H   -0.025867
    42  H    0.037598
    43  C   -0.026665
    44  H   -0.024604
    45  H    0.006997
    46  H   -0.003386
    47  C   -0.006299
    48  H    0.004585
    49  H    0.006326
    50  H   -0.021186
    51  C   -0.007526
    52  H   -0.004684
    53  H   -0.017374
    54  H   -0.002793
    55  C   -0.027998
    56  H   -0.031523
    57  H   -0.008674
    58  H    0.024521
    59  C   -0.030372
    60  H   -0.026184
    61  H    0.001466
    62  H   -0.004062
    63  C   -0.011329
    64  H    0.004205
    65  H   -0.005723
    66  H   -0.021343
    67  C   -0.035169
    68  H    0.000248
    69  H    0.033956
    70  H   -0.028783
    71  C   -0.006559
    72  H    0.004732
    73  H   -0.017237
    74  H    0.000133
    75  C   -0.034464
    76  H   -0.021884
    77  H   -0.004893
    78  H    0.005648
    79  C   -0.008382
    80  H   -0.002812
    81  H   -0.017055
    82  H    0.002978
    83  H    0.273738
    84  C    0.869546
    85  O   -0.668531
    86  C   -0.025137
    87  H   -0.020628
    88  H   -0.004435
    89  C    0.403253
    90  H   -0.044196
    91  H    0.001904
    92  N   -0.802070
    93  C    0.278984
    94  H   -0.011994
    95  H    0.024190
    96  H   -0.041253
    97  C    0.096384
    98  H   -0.022845
    99  H   -0.027064
   100  C    0.099074
   101  H   -0.056814
   102  H   -0.029837
   103  C    0.129113
   104  H   -0.058651
   105  H   -0.052505
   106  C    0.064125
   107  H   -0.014559
   108  H   -0.039758
   109  H   -0.023176
   110  C    1.765912
   111  F   -0.589698
   112  F   -0.591041
   113  F   -0.520746
   114  H    0.040355
 Sum of APT charges =  -0.00000
 APT charges with hydrogens summed into heavy atoms:
               1
     1  C    0.241928
     2  C    0.201648
     3  C   -0.235319
     4  C    0.166769
     5  C   -0.126637
     6  C    0.163019
     7  C    0.125606
     8  C   -0.003885
     9  C    0.137711
    10  C   -0.124939
    17  N   -0.204023
    18  N   -0.073305
    19  Ir  -0.828914
    20  O   -0.930901
    21  O   -1.010052
    22  O   -0.968440
    23  B    1.274991
    24  B    1.239919
    25  B    1.289667
    26  O   -0.952085
    27  O   -0.957955
    28  C    0.462356
    29  C    0.466931
    30  C    0.489147
    31  C    0.481542
    32  C    0.497342
    33  C    0.508406
    34  O   -0.991787
    35  C   -0.028774
    39  C   -0.034345
    43  C   -0.047658
    47  C   -0.016574
    51  C   -0.032377
    55  C   -0.043674
    59  C   -0.059152
    63  C   -0.034189
    67  C   -0.029747
    71  C   -0.018931
    75  C   -0.055594
    79  C   -0.025271
    84  C    0.869546
    85  O   -0.668531
    86  C   -0.050200
    89  C    0.360962
    92  N   -0.802070
    93  C    0.249928
    97  C    0.046474
   100  C    0.012423
   103  C    0.017956
   106  C   -0.013368
   110  C    1.765912
   111  F   -0.589698
   112  F   -0.591041
   113  F   -0.520746
 Electronic spatial extent (au):  <R**2>=          33754.2524
 Charge=             -0.0000 electrons
 Dipole moment (field-independent basis, Debye):
    X=              0.1680    Y=             -2.7153    Z=              1.7831  Tot=              3.2527
 Quadrupole moment (field-independent basis, Debye-Ang):
   XX=           -329.8462   YY=           -307.4460   ZZ=           -332.0809
   XY=              1.1580   XZ=              1.9468   YZ=            -12.0957
 Traceless Quadrupole moment (field-independent basis, Debye-Ang):
   XX=             -6.7218   YY=             15.6784   ZZ=             -8.9566
   XY=              1.1580   XZ=              1.9468   YZ=            -12.0957
 Octapole moment (field-independent basis, Debye-Ang**2):
  XXX=            -67.1664  YYY=           -109.3751  ZZZ=            -30.4685  XYY=            -23.8708
  XXY=            -37.1617  XXZ=            -13.0914  XZZ=            -16.8450  YZZ=              2.2540
  YYZ=             31.3805  XYZ=            -50.1888
 Hexadecapole moment (field-independent basis, Debye-Ang**3):
 XXXX=         -25931.5218 YYYY=          -9226.5418 ZZZZ=          -8296.8371 XXXY=            -12.7428
 XXXZ=            224.4712 YYYX=            180.9179 YYYZ=            -61.9763 ZZZX=             70.8053
 ZZZY=             14.4728 XXYY=          -6030.7391 XXZZ=          -5502.2929 YYZZ=          -3148.1332
 XXYZ=           -119.7681 YYXZ=            145.2987 ZZXY=             61.3865
 N-N= 9.298648730846D+03 E-N=-2.467611591849D+04  KE= 2.527238232184D+03
  Exact polarizability:     585.554      10.112     515.733      19.091     -20.639     429.311
 Approx polarizability:     773.190      19.962     786.361      50.340     -39.048     639.615
   1 Symmetry operations used in ECPInt.
 ECPInt:  NShTT=   57970 NPrTT=  353525 LenC2=   42414 LenP2D=  130161.
 LDataN:  DoStor=T MaxTD1= 8 Len=  415
 Calling FoFJK, ICntrl=    100127 FMM=F ISym2X=0 I1Cent= 0 IOpClX= 0 NMat=1 NMatS=1 NMatT=0.
 Defaulting to unpruned grid for atomic number  77.
 Defaulting to unpruned grid for atomic number  77.
 Defaulting to unpruned grid for atomic number  77.
 Defaulting to unpruned grid for atomic number  77.
 Defaulting to unpruned grid for atomic number  77.
 Defaulting to unpruned grid for atomic number  77.
 Defaulting to unpruned grid for atomic number  77.
 Defaulting to unpruned grid for atomic number  77.
 Defaulting to unpruned grid for atomic number  77.
 Defaulting to unpruned grid for atomic number  77.
 Defaulting to unpruned grid for atomic number  77.
 Defaulting to unpruned grid for atomic number  77.
 Defaulting to unpruned grid for atomic number  77.
 Defaulting to unpruned grid for atomic number  77.
 Defaulting to unpruned grid for atomic number  77.
 Defaulting to unpruned grid for atomic number  77.
 Full mass-weighted force constant matrix:
 Low frequencies --- -775.2519   -8.0771   -1.8677   -0.0006    0.0003    0.0009
 Low frequencies ---    5.6964   13.9983   20.8753
 ******    1 imaginary frequencies (negative Signs) ****** 
 Diagonal vibrational polarizability:
      108.4652323      61.9065027     122.9748781
 Harmonic frequencies (cm**-1), IR intensities (KM/Mole), Raman scattering
 activities (A**4/AMU), depolarization ratios for plane and unpolarized
 incident light, reduced masses (AMU), force constants (mDyne/A),
 and normal coordinates:
                      1                      2                      3
                      A                      A                      A
 Frequencies --   -775.2518                13.4429                20.5061
 Red. masses --      1.1304                 4.8041                 4.7196
 Frc consts  --      0.4003                 0.0005                 0.0012
 IR Inten    --    357.6847                 0.0630                 0.2844
  Atom AN      X      Y      Z        X      Y      Z        X      Y      Z
     1   6    -0.00   0.00   0.00    -0.01  -0.02  -0.03     0.00  -0.04  -0.01
     2   6     0.00  -0.00  -0.00    -0.00  -0.02  -0.01     0.01  -0.04   0.02
     3   6    -0.00  -0.00   0.00    -0.01  -0.03   0.03     0.01  -0.06  -0.01
     4   6     0.00  -0.00  -0.00    -0.02  -0.03   0.02     0.02  -0.06  -0.05
     5   6    -0.00   0.00  -0.00    -0.02  -0.03  -0.01     0.01  -0.06  -0.05
     6   6    -0.00   0.01   0.00    -0.01  -0.02  -0.04    -0.01  -0.03   0.00
     7   6    -0.00   0.00   0.00    -0.02  -0.00  -0.04    -0.04  -0.01   0.05
     8   6     0.00   0.00  -0.00    -0.02  -0.01  -0.06    -0.04  -0.01   0.04
     9   6     0.00   0.00  -0.00    -0.01  -0.02  -0.07    -0.03  -0.03   0.00
    10   6    -0.00   0.00  -0.00    -0.01  -0.02  -0.07    -0.01  -0.04  -0.01
    11   1     0.01  -0.00  -0.01     0.01  -0.02  -0.01     0.00  -0.04   0.04
    12   1     0.00  -0.00  -0.00    -0.04  -0.04   0.05     0.03  -0.07  -0.08
    13   1     0.00   0.00  -0.00    -0.03  -0.03  -0.00     0.02  -0.06  -0.08
    14   1    -0.00   0.00   0.00    -0.02   0.01  -0.02    -0.05   0.00   0.07
    15   1    -0.00   0.00   0.00    -0.01  -0.02  -0.09    -0.03  -0.03  -0.01
    16   1     0.00   0.01  -0.01    -0.01  -0.04  -0.08    -0.00  -0.05  -0.04
    17   7    -0.00   0.00  -0.00     0.00  -0.02  -0.03    -0.00  -0.04   0.02
    18   7    -0.01   0.02   0.01    -0.01  -0.01  -0.03    -0.03  -0.02   0.03
    19  77     0.01  -0.00  -0.01    -0.00  -0.00  -0.03    -0.00  -0.02   0.03
    20   8    -0.00   0.00   0.00     0.08   0.04   0.02    -0.05   0.01   0.02
    21   8     0.00  -0.00   0.00    -0.01  -0.01   0.02    -0.01   0.02   0.01
    22   8     0.00  -0.00   0.00     0.02  -0.00  -0.04     0.02  -0.01   0.00
    23   5    -0.00  -0.01  -0.01    -0.02  -0.00  -0.00     0.00  -0.01   0.01
    24   5    -0.01   0.00   0.01     0.04   0.02  -0.01    -0.02   0.01   0.01
    25   5    -0.01   0.01   0.02     0.01  -0.00  -0.04     0.02  -0.01   0.00
    26   8    -0.00  -0.00   0.00     0.02   0.00  -0.04     0.03  -0.01  -0.01
    27   8    -0.00   0.00   0.00     0.03   0.01  -0.00    -0.01   0.03  -0.01
    28   6    -0.00  -0.00   0.00     0.07   0.03   0.02    -0.04   0.04  -0.01
    29   6    -0.00  -0.00   0.00     0.10   0.04   0.05    -0.07   0.04   0.00
    30   6     0.00   0.00  -0.00     0.02  -0.00  -0.04     0.03  -0.01  -0.00
    31   6    -0.00   0.00   0.00     0.02   0.00  -0.04     0.03  -0.00  -0.02
    32   6    -0.00  -0.00  -0.00    -0.02  -0.01   0.04     0.01   0.02  -0.02
    33   6    -0.00   0.00   0.00    -0.05  -0.01   0.03     0.03  -0.01  -0.01
    34   8    -0.00   0.00   0.00    -0.04  -0.00   0.00     0.03  -0.02   0.00
    35   6    -0.00  -0.00   0.00     0.14   0.08   0.05    -0.10   0.04   0.01
    36   1     0.00  -0.00  -0.00     0.14   0.10   0.02    -0.09   0.03   0.02
    37   1     0.00  -0.00   0.00     0.15   0.08   0.07    -0.10   0.07  -0.00
    38   1     0.00   0.00   0.00     0.15   0.08   0.08    -0.12   0.04   0.02
    39   6    -0.00  -0.00   0.00     0.10   0.00   0.09    -0.07   0.05  -0.01
    40   1     0.00   0.00   0.00     0.11   0.01   0.10    -0.08   0.05  -0.00
    41   1    -0.00  -0.00  -0.00     0.11  -0.00   0.11    -0.08   0.07  -0.02
    42   1    -0.00  -0.00   0.00     0.07  -0.02   0.09    -0.05   0.05  -0.01
    43   6    -0.00  -0.00   0.00     0.08   0.07  -0.02    -0.04   0.03  -0.00
    44   1     0.00   0.00   0.00     0.11   0.09  -0.01    -0.06   0.04  -0.01
    45   1    -0.00  -0.00  -0.00     0.08   0.10  -0.04    -0.04   0.02   0.01
    46   1    -0.00   0.00   0.00     0.05   0.07  -0.04    -0.02   0.03  -0.01
    47   6    -0.00  -0.00   0.00     0.07   0.01   0.04    -0.03   0.07  -0.03
    48   1    -0.00   0.00   0.00     0.04   0.01   0.01    -0.02   0.07  -0.04
    49   1    -0.00  -0.00   0.00     0.05  -0.02   0.07    -0.03   0.08  -0.04
    50   1    -0.00   0.00   0.00     0.09   0.03   0.06    -0.05   0.08  -0.04
    51   6     0.00  -0.00   0.00    -0.02  -0.01   0.06    -0.01   0.04  -0.01
    52   1    -0.00  -0.00   0.00    -0.00  -0.02   0.07    -0.02   0.06  -0.02
    53   1     0.00   0.00   0.00    -0.04  -0.01   0.08     0.01   0.04  -0.03
    54   1     0.00   0.00  -0.00    -0.03  -0.01   0.05    -0.01   0.02   0.00
    55   6     0.00  -0.00   0.00    -0.01  -0.01   0.05     0.02   0.04  -0.04
    56   1     0.00  -0.00  -0.00    -0.02  -0.01   0.07     0.03   0.05  -0.06
    57   1    -0.00   0.00   0.00     0.02  -0.01   0.06    -0.00   0.06  -0.04
    58   1    -0.00   0.00  -0.00    -0.01  -0.01   0.03     0.02   0.03  -0.04
    59   6     0.00   0.00   0.00    -0.07  -0.01   0.02     0.03  -0.03   0.01
    60   1    -0.00   0.00   0.00    -0.08  -0.01   0.04     0.03  -0.02  -0.00
    61   1     0.00  -0.00   0.00    -0.08  -0.00   0.01     0.05  -0.05   0.01
    62   1     0.00   0.00  -0.00    -0.05  -0.01   0.01     0.01  -0.03   0.03
    63   6    -0.00   0.00   0.00    -0.07  -0.01   0.04     0.06  -0.01  -0.04
    64   1    -0.00   0.00  -0.00    -0.06  -0.01   0.04     0.06  -0.00  -0.06
    65   1     0.00  -0.00   0.00    -0.09  -0.01   0.03     0.07  -0.04  -0.04
    66   1     0.00  -0.00  -0.00    -0.07  -0.01   0.06     0.06  -0.00  -0.06
    67   6    -0.00  -0.00   0.00     0.02   0.01  -0.04     0.03   0.01  -0.03
    68   1    -0.00   0.00   0.00     0.02   0.03  -0.04     0.03   0.02  -0.03
    69   1    -0.00   0.00   0.00     0.01   0.00  -0.05     0.01   0.02  -0.02
    70   1     0.00  -0.00  -0.00     0.03   0.01  -0.03     0.03   0.02  -0.03
    71   6    -0.00  -0.00  -0.00     0.03   0.01  -0.04     0.05  -0.01  -0.03
    72   1    -0.00  -0.00   0.00     0.03   0.01  -0.04     0.05  -0.01  -0.04
    73   1     0.00  -0.00   0.00     0.04   0.01  -0.04     0.05  -0.01  -0.03
    74   1     0.00  -0.00  -0.00     0.03   0.00  -0.04     0.06  -0.02  -0.02
    75   6     0.00  -0.00  -0.00     0.03   0.00  -0.03     0.04  -0.01   0.01
    76   1    -0.00  -0.00   0.00     0.03   0.00  -0.02     0.05  -0.01   0.01
    77   1     0.00   0.00  -0.00     0.02  -0.01  -0.03     0.03  -0.02   0.01
    78   1     0.00  -0.00  -0.00     0.02   0.01  -0.03     0.04  -0.01   0.00
    79   6     0.00  -0.00  -0.00     0.02  -0.01  -0.03     0.02  -0.01  -0.00
    80   1    -0.00   0.00  -0.00     0.02  -0.02  -0.03     0.02  -0.01   0.01
    81   1    -0.00  -0.00  -0.00     0.02  -0.01  -0.02     0.03  -0.01  -0.01
    82   1     0.00  -0.00   0.00     0.02  -0.01  -0.03     0.01  -0.01  -0.01
    83   1    -0.35   0.68   0.57    -0.02  -0.02  -0.05     0.00  -0.04   0.02
    84   6    -0.00   0.00  -0.00    -0.02   0.00  -0.03     0.01   0.02  -0.00
    85   8     0.00   0.00   0.00    -0.01   0.00  -0.02     0.05   0.02   0.00
    86   6    -0.00   0.00  -0.00    -0.03   0.02   0.00    -0.01   0.06  -0.02
    87   1     0.01   0.00  -0.00    -0.01   0.04   0.01    -0.04   0.08  -0.02
    88   1     0.00   0.00  -0.00    -0.06   0.01   0.01    -0.03   0.05  -0.01
    89   6     0.00  -0.07   0.04    -0.02  -0.02  -0.04     0.01  -0.05   0.03
    90   1    -0.08   0.11   0.15    -0.02  -0.03  -0.04    -0.01  -0.08   0.03
    91   1     0.07  -0.07  -0.19    -0.01  -0.02  -0.03     0.03  -0.04   0.06
    92   7    -0.01  -0.01   0.01    -0.02  -0.01  -0.05    -0.01  -0.01   0.01
    93   6    -0.01  -0.01   0.00    -0.03  -0.01  -0.05    -0.05  -0.01  -0.00
    94   1    -0.01  -0.01   0.00    -0.02  -0.00  -0.02    -0.07   0.00  -0.02
    95   1    -0.01  -0.01   0.00    -0.02  -0.03  -0.08    -0.07  -0.04   0.02
    96   1    -0.00   0.00   0.00    -0.08  -0.01  -0.05    -0.04  -0.01  -0.00
    97   6    -0.00   0.00  -0.00    -0.03   0.03   0.02     0.03   0.10  -0.04
    98   1    -0.00   0.00  -0.00    -0.04   0.01   0.00     0.06   0.07  -0.04
    99   1    -0.00   0.00   0.00     0.01   0.05   0.00     0.06   0.11  -0.06
   100   6    -0.00  -0.00  -0.00    -0.05   0.05   0.07    -0.00   0.15  -0.06
   101   1     0.00  -0.00   0.00    -0.03   0.09   0.09    -0.04   0.19  -0.06
   102   1     0.00   0.00  -0.00    -0.08   0.03   0.09    -0.03   0.12  -0.02
   103   6     0.00   0.00  -0.00    -0.05   0.06   0.08     0.05   0.18  -0.11
   104   1     0.00  -0.00   0.00    -0.07  -0.02   0.03     0.09   0.11  -0.12
   105   1     0.00  -0.00   0.00     0.03   0.12   0.03     0.09   0.22  -0.15
   106   6     0.00  -0.00   0.00    -0.10   0.10   0.20     0.01   0.24  -0.09
   107   1    -0.00   0.00  -0.00    -0.18   0.04   0.25    -0.03   0.19  -0.04
   108   1     0.00   0.00   0.00    -0.10   0.11   0.19     0.05   0.26  -0.13
   109   1    -0.00   0.00  -0.00    -0.09   0.20   0.25    -0.04   0.31  -0.07
   110   6     0.00  -0.00  -0.00    -0.02  -0.04   0.07     0.02  -0.06   0.02
   111   9    -0.00  -0.00   0.00    -0.04  -0.07   0.08     0.04  -0.11   0.04
   112   9    -0.00   0.00   0.00    -0.02  -0.04   0.08     0.02  -0.06  -0.02
   113   9    -0.00   0.00   0.00    -0.00  -0.01   0.10    -0.00  -0.03   0.06
[...]
 00006239,0.00000485,0.00074105,0.00064085,0.00072073,0.00010495,0.0001
 6592,0.00000376,-0.00017461,-0.00005363,0.00036282,-0.00000337,-0.0001
 0653,0.00020861,-0.00000648,-0.00006503,0.00007944,-0.00013329,-0.0004
 0534,0.00020103,0.00004698,0.00011573,-0.00013736,-0.00001955,0.000106
 96,-0.00022775,0.00014562,0.00032460,-0.00008380,-0.00005750,-0.000157
 57,0.00005567,-0.00004867,-0.00007420,0.00016798,0.00000066,-0.0000006
 0,-0.00013198,-0.00000364,0.00000583,-0.00002175,0.00018633,0.00033299
 ,-0.00043320,0.00005451,0.00002649,0.00009361,-0.00001505,0.00001947,-
 0.00002613,0.00003044,0.00001064,-0.00000081,-0.00001237,-0.00007131,0
 .00011246,-0.00002614,-0.00001860,-0.00000946,0.00000661,0.00001349,0.
 00001262,0.00000641,-0.00000274,0.00000715,-0.00000278,-0.00000863,0.0
 0000208,-0.00000359,0.00000838,0.00001330,0.00000022,-0.00000547,-0.00
 000056,-0.00000201,-0.00000241,-0.00000192,0.00000863,0.00000387,0.000
 00185,-0.00003042,0.00004798,0.00003615,-0.00000738,-0.00000765,0.0000
 1655,0.00000505,-0.00001661,-0.00002403,0.00000625,-0.00000919,-0.0000
 1381,0.00000339,0.00000973,0.00002830,0.00000204,-0.00000566,-0.000010
 46,0.00001561,0.00000700,0.00000199,-0.00000940,-0.00000356,0.00000828
 ,0.00000488,-0.00000409,0.00000391,-0.00000759,-0.00000059,0.00000783,
 0.00000436,-0.00000063,0.00000086,0.00000012,-0.00000008,-0.00000570,0
 .00001081,0.00000237,-0.00000181,0.00000369,-0.00000163,0.00000058,-0.
 00000796,-0.00000493,0.00000810,0.00000346,0.00000200,-0.00000462,0.00
 000562,0.00000328,-0.00000734,-0.00000604,0.00000095,0.00000035,-0.000
 00014,-0.00000281,0.00001368,0.00000590,-0.00000354,-0.00000333,0.0000
 0102,0.00000592,-0.00000193,0.00000774,-0.00000086,-0.00000648,0.00000
 186,0.00000036,0.00001530,-0.00000623,-0.00000555,0.00000009,-0.000053
 76,-0.00002854,-0.00003828,-0.00002783,0.00000420,0.00001361,0.0000026
 6,0.00000303,0.00001066,-0.00000094,0.00001030,0.00000108,0.00000304,-
 0.00001478,-0.00002592,-0.00002816,-0.00000355,0.00000651,0.00001348,-
 0.00000671,-0.00000189,0.00000887,-0.00000437,0.00005449,0.00030497,-0
 .00012982,0.00034497,-0.00009171,0.00001949,0.00000093,-0.00041090,0.0
 0022285,-0.00053551,0.00005768,0.00000801,0.00006704,-0.00010491,-0.00
 007462,0.00005049,0.00004409,0.00005677,-0.00009870,0.00002862,-0.0000
 1685,0.00000969,-0.00007719,0.00000585,0.00005759,0.00018102,-0.000056
 77,-0.00024116,0.00196133,0.00082120,-0.00051874,-0.00075401,-0.000909
 95,0.00065789,-0.00089501,0.00185986,0.00017574,-0.00000104,-0.0005189
 1,-0.00033410,0.00154722,-0.00154767,0.00025048,0.00067851,0.00039073,
 -0.00033527,-0.00011908,0.00001614,0.00007555,-0.00002826,-0.00003597,
 0.00008007,-0.00098169,-0.00045591,0.00012391,-0.00020492,0.00075587,0
 .00034001,-0.00002631,-0.00005686,0.00014144,-0.00005226,-0.00012899,-
 0.00018751,0.00053339,-0.00026395,0.00005359,-0.00020221,0.00011428,-0
 .00040817,-0.00000501,0.00000463,0.00017486,0.00019381,-0.00027887,0.0
 0009015,-0.00025877,0.00012980,0.00042429,-0.00000703,-0.00000966,0.00
 007102,-0.00018015,0.00010763,-0.00031845,0.00007719,0.00017966,-0.000
 52997,-0.00006952,-0.00019193,0.00024165,0.00004647,-0.00010091,0.0001
 2465,0.00006310,-0.00016901,0.00009142,0.00001117,0.00013129,-0.000088
 32,0.00010581,-0.00002184,0.00002048,-0.00007240,0.00002090,0.00006388
 ,-0.00215323,0.10168219,-0.15927459,0.00111930,0.02983317,-0.08297113,
 -0.02517945,0.02146029,-0.00049401,0.02604311,-0.16569578,0.24251356,-
 0.00018483,0.00011054,0.00058545,-0.00003518,-0.00002143,-0.00000710,0
 .00001021,-0.00006626,0.00002072,0.00004240,0.00005674,0.00002305,-0.0
 0011092,-0.00003159,-0.00005070,-0.00022064,0.00103200,-0.00015713,0.0
 0395886,0.00285583,0.00093859,-0.21702141,-0.13380442,-0.05868396,-0.0
 1298812,-0.01687048,-0.00362382,-0.00108243,0.00207800,-0.00484626,-0.
 00000732,0.00000152,-0.00000055,-0.00000553,0.00000074,0.00000545,0.00
 007251,-0.00001779,-0.00002311,-0.00040313,0.00003876,0.00143840,0.000
 13541,0.00045721,0.00187408,-0.00060458,-0.00089346,-0.00021372,-0.000
 00525,-0.00000582,-0.00002057,0.00322714,0.00065495,-0.00275970,0.0000
 2407,-0.00008454,0.00006239,0.00005110,0.00003148,-0.00003155,0.000033
 79,-0.00002549,0.00002020,0.00000357,-0.00004787,-0.00001334,-0.000066
 17,0.00002079,-0.00006582,-0.00009925,0.00004709,0.00007430,-0.0000167
 5,0.00008920,0.00003009,0.00002183,-0.00005337,-0.00000364,0.00002744,
 -0.00001206,-0.00002938,-0.00000659,-0.00000330,0.00001064,0.00000490,
 0.00000295,0.00001219,-0.00000044,0.00002498,-0.00000260,-0.00000107,0
 .00001859,0.00000825,-0.00001251,0.00001796,-0.00002264,-0.00002647,-0
 .00001095,-0.00003258,0.00004283,-0.00001298,0.00006016,-0.00000194,-0
 .00000974,-0.00000464,-0.00000208,0.00000379,0.00000052,0.00000314,0.0
 0000029,-0.00000123,-0.00000467,0.00000204,0.00000187,-0.00001226,-0.0
 0001445,-0.00002813,0.00003310,-0.00004986,-0.00001885,0.00000143,-0.0
 0000023,-0.00000167,-0.00000007,0.00001668,-0.00000446,-0.00000143,0.0
 0000030,-0.00000132,0.00000080,0.00000012,-0.00000320,0.00000067,0.000
 00050,0.00000183,-0.00000017,-0.00000117,0.00000045,0.00000107,-0.0000
 0063,0.00000024,-0.00000052,-0.00000184,0.00000027,-0.00000079,0.00000
 134,0.,0.00000128,0.00000084,-0.00000169,0.00000232,-0.00000010,0.0000
 0528,-0.00000739,0.00000804,0.00000645,0.00000419,-0.00000712,0.000003
 04,0.00000272,0.00000099,-0.00001520,0.00000042,-0.00000557,0.00000626
 ,0.00000415,-0.00000265,0.00000039,-0.00000160,0.00000199,0.00000204,-
 0.00000140,-0.00000001,-0.00000113,0.00000250,-0.00000056,0.00001346,0
 .00000264,0.00000347,0.00000007,-0.00000336,-0.00000596,0.00000300,0.0
 0000285,-0.00000054,-0.00001547,0.00000276,0.00000435,0.00000652,-0.00
 000158,0.00000334,-0.00000085,-0.00000209,-0.00000277,0.00000251,0.000
 00290,-0.00000077,0.00000013,0.00000024,-0.00000291,-0.00000133,0.0000
 0052,0.00000133,0.00000051,-0.00000019,0.00000126,0.00000156,0.0000004
 7,-0.00000256,-0.00000194,0.00000125,-0.00000212,-0.00000039,0.0000014
 2,0.00000055,0.00000060,-0.00000029,-0.00000237,-0.00000054,-0.0000009
 4,0.00000060,-0.00000018,-0.00000239,-0.00000287,0.00000040,0.00000048
 ,-0.00000372,0.00000034,0.00000134,0.00000205,0.00000048,-0.00000024,0
 .00000132,-0.00000155,-0.00000091,-0.00000295,-0.00000034,-0.00000014,
 0.00000150,0.,0.00000078,-0.00000300,-0.00000028,-0.00000012,0.0000009
 8,0.00000040,0.00000495,-0.00001689,-0.00001587,0.00002057,-0.00001337
 ,-0.00000817,-0.00001296,0.00001288,0.00003246,-0.00000219,-0.00000449
 ,-0.00000344,-0.00000165,-0.00000228,0.00000378,-0.00000084,0.00000315
 ,-0.00000182,0.00002504,-0.00001151,-0.00003107,-0.00000605,-0.0000038
 0,0.00001666,-0.00000285,0.00000375,-0.00002709,-0.00004231,-0.0000011
 1,0.00003086,-0.00000130,0.00001053,-0.00000827,-0.00000436,-0.0000011
 7,0.00000143,0.00000282,0.00000039,-0.00000083,0.00000070,0.00000055,0
 .00000186,0.00000348,-0.00000166,-0.00000947,0.00000256,-0.00000250,0.
 00000399,-0.00000216,0.00000195,0.00000267,0.00000133,0.00000109,-0.00
 000057,-0.00000261,-0.00000185,0.00000290,0.00000085,0.00000293,-0.000
 00066,0.00000289,-0.00000221,-0.00000463,-0.00000033,-0.00000166,0.000
 00314,-0.00000127,0.00000179,0.00000154,0.00000008,0.00000087,0.000000
 04,0.00000075,0.00000096,0.00000027,-0.00000183,0.00000045,-0.00000144
 ,-0.00000069,-0.00000134,0.00000160,0.00007464,0.00006247,-0.00000347,
 -0.00001714,-0.00002781,-0.00002095,-0.00002749,-0.00000958,0.00000079
 ,-0.00001219,-0.00002353,0.00000876,0.22521323,0.00002149,0.00001259,-
 0.00034263,0.00003562,0.00004558,0.00000719,-0.00003559,0.00001899,-0.
 00001365,-0.00004499,-0.00002100,-0.00001860,0.00003749,-0.00003108,0.
 00002077,0.00164824,-0.00088797,0.00097355,-0.02438307,-0.01037124,-0.
 00941688,-0.13345795,-0.16313522,-0.03542609,0.00982912,0.01086227,0.0
 0285428,0.00170235,0.00039686,0.00264128,0.00000321,-0.00000109,-0.000
 00150,-0.00000330,-0.00000325,-0.00000362,-0.00001993,0.00001261,0.000
 01239,0.00054406,0.00056570,-0.00069389,-0.00007674,0.00036602,-0.0010
 9841,0.00054619,0.00045753,0.00026378,0.00000561,-0.00011454,0.0000197
 6,-0.00060898,-0.00590372,0.00304480,-0.00029372,0.00070479,-0.0001533
 9,0.00021323,0.00008359,-0.00019382,0.00029075,0.00015206,0.00002599,0
 .00000858,-0.00012870,-0.00005527,-0.00045715,-0.00002289,-0.00012697,
 -0.00020943,-0.00001976,0.00024079,-0.00004641,0.00007499,0.00013394,0
 .00007878,-0.00017687,-0.00003642,0.00011318,0.00002971,-0.00010190,0.
 00001784,-0.00004176,0.00006707,-0.00023533,-0.00003998,0.00001553,-0.
 00000372,0.00004109,-0.00001118,-0.00000479,0.00003287,0.00002995,-0.0
 0003275,-0.00004330,-0.00002327,-0.00008215,-0.00003879,-0.00002699,0.
 00017204,0.00002349,0.00007858,0.00004145,0.00000665,-0.00000045,0.000
 01053,0.00000564,0.00001978,-0.00000020,0.00000360,-0.00001035,-0.0000
 1410,0.00000820,-0.00001328,0.00009660,-0.00012633,0.00003245,-0.00004
 268,0.00005549,-0.00011601,-0.00000170,0.00004611,0.00002254,-0.000001
 36,-0.00004503,0.00001361,-0.00000149,0.00002508,-0.00001531,0.0000007
 3,-0.00000238,-0.00000543,0.00000440,-0.00000367,0.00000506,0.00000209
 ,0.00001081,0.00000717,-0.00000150,0.00000339,-0.00001620,0.00000279,0
 .00000855,0.00000484,0.00001055,-0.00000793,0.00001015,0.00000575,-0.0
 0000367,-0.00000573,0.00000174,-0.00003433,-0.00002573,0.00002253,-0.0
 0001163,-0.00001395,-0.00000121,0.00002857,-0.00000438,0.00000288,0.00
 001397,0.00004740,0.00001481,0.00000263,0.00001553,0.00000106,-0.00000
 210,-0.00000213,0.00000036,-0.00000354,-0.00000632,-0.00000519,0.00001
 260,0.00000094,0.00002824,-0.00002480,0.00002492,0.00000487,0.00000687
 ,0.00000895,-0.00000110,0.00001190,-0.00001167,-0.00001882,0.00000410,
 -0.00000059,0.00001454,0.00001142,0.00000843,-0.00000535,0.00000837,0.
 00000161,-0.00000007,-0.00000049,-0.00000540,0.00000657,-0.00000490,0.
 00000523,-0.00000325,-0.00001255,-0.00000586,0.00000515,-0.00000255,0.
 00000283,-0.00000531,-0.00000094,0.00000092,0.00000548,-0.00000199,-0.
 00000555,0.00000122,-0.00000702,-0.00000955,0.00000357,-0.00000164,0.0
 0000192,0.00000082,-0.00000606,0.00000227,-0.00000099,0.00000219,-0.00
 000214,0.00000314,-0.00000734,0.00000342,-0.00000174,-0.00000583,0.000
 00034,0.00000147,0.00000206,0.00000043,-0.00000011,0.00000360,-0.00000
 454,-0.00000035,-0.00000947,0.00000500,-0.00000027,0.00000107,-0.00000
 061,0.,-0.00000541,-0.00000390,0.00000078,0.00000123,-0.00000179,0.000
 08236,-0.00017473,-0.00009187,0.00004408,-0.00001510,0.00000916,-0.000
 03107,0.00000938,0.00000280,-0.00000391,-0.00000285,-0.00000139,-0.000
 00248,-0.00000162,0.00000149,-0.00000194,-0.00000007,0.00000027,0.0000
 1719,0.00022988,-0.00003255,-0.00000336,-0.00002354,0.00000965,-0.0000
 3069,-0.00003393,0.00003802,-0.00002367,-0.00002121,0.00000040,-0.0000
 1146,0.00000309,-0.00001649,-0.00000608,-0.00000121,0.00000303,0.00000
 396,0.00000112,-0.00000351,0.00000052,-0.00000401,0.00000761,0.0000011
 3,-0.00000353,-0.00000044,0.00000067,-0.00000021,0.00000130,-0.0000004
 4,0.00000081,0.00000045,0.00000058,0.00000291,-0.00000144,-0.00000107,
 -0.00000067,0.00000116,0.00000026,0.00000044,-0.00000020,0.00000044,-0
 .00000212,-0.00000013,-0.00000001,-0.00000043,0.00000070,-0.00000040,0
 .00000054,0.00000019,-0.00000026,0.00000130,-0.00000058,0.00000052,-0.
 00000018,0.,-0.00000148,0.00000027,-0.00000073,-0.00000016,-0.00000054
 ,0.00000075,0.00001532,0.00002756,0.00002548,-0.00000143,-0.00000861,-
 0.00001123,-0.00001495,-0.00000583,-0.00000414,-0.00000565,-0.00000741
 ,-0.00000305,0.14451433,0.16717846,0.00058680,-0.00030242,-0.00100989,
 0.00009331,0.00001885,0.00002140,-0.00006825,0.00004517,-0.00004790,0.
 00002510,-0.00011975,-0.00000810,0.00002122,0.00012395,0.00005484,-0.0
 0002142,0.00057467,-0.00055044,0.00799655,0.00498067,0.00356478,-0.058
 54963,-0.03613158,-0.05594069,-0.01057949,-0.01060377,-0.00001335,-0.0
 0470319,0.00275301,0.00410819,-0.00000467,0.00000127,-0.00000225,0.000
 00484,-0.00000089,-0.00001253,0.00001674,-0.00002042,0.00007496,0.0010
 6217,-0.00080856,-0.00250389,0.00200478,-0.00082099,-0.00249780,-0.000
 53581,-0.00048324,0.00001129,-0.00012713,-0.00007609,0.00001398,-0.003
 00883,0.00363298,0.00604708,0.00022035,-0.00017975,-0.00008518,0.00010
 645,0.00008525,-0.00014217,0.00002856,-0.00002992,-0.00002027,0.000013
 41,-0.00001087,-0.00000703,0.00004593,-0.00002106,0.00006581,-0.000057
 35,-0.00016523,0.00012870,-0.00004523,0.00001419,0.00000428,0.00000581
 ,-0.00000171,-0.00000762,0.00006256,0.00004971,-0.00010082,0.00002446,
 -0.00004706,0.00005913,-0.00018294,-0.00002081,0.00002698,-0.00000609,
 0.00000249,0.00000305,-0.00000687,0.00000579,0.00000776,-0.00000728,-0
 .00000749,0.00000876,0.00002066,0.00001917,0.00003960,-0.00002283,0.00
 000186,-0.00005745,0.00002419,-0.00002343,-0.00000215,0.00000776,0.000
 01365,0.00001347,-0.00000007,0.00000303,-0.00000611,-0.00002076,0.0000
 1495,-0.00001342,0.00011212,-0.00022864,0.00002420,-0.00006566,0.00009
 918,-0.00004319,-0.00000132,0.00004764,0.00001258,-0.00001405,0.000012
 66,0.00002050,-0.00000551,0.00002535,-0.00001263,0.00000149,-0.0000039
 2,-0.00000591,0.00000082,-0.00000450,0.00000393,0.00000258,0.00001252,
 0.00000539,0.00000372,0.00001210,-0.00000954,0.00000173,0.00001129,0.0
 0000476,0.00000634,-0.00001178,0.00001005,0.00000405,-0.00000515,-0.00
 000790,-0.00001628,0.00001985,0.00002533,0.00001126,-0.00000680,-0.000
 01118,0.00000181,-0.00000252,-0.00000557,-0.00000410,-0.00000637,-0.00
 000314,-0.00000432,-0.00000538,0.00000798,0.00000063,-0.00000080,-0.00
 000321,0.00000646,0.00000090,-0.00000812,0.00000031,-0.00000270,0.0000
 0018,-0.00000884,0.00001390,-0.00002826,-0.00000163,-0.00000181,-0.000
 00097,0.00000301,-0.00000163,-0.00000124,0.00000983,-0.00000130,0.0000
 1988,-0.00000353,-0.00000922,-0.00001167,0.00000157,-0.00000844,0.0000
 0008,0.00000097,0.00000336,-0.00000203,-0.00000057,0.00000199,0.000000
 89,0.00000466,-0.00000187,0.00000080,0.00000046,-0.00000027,0.00000151
 ,-0.00000351,-0.00000220,-0.00000075,0.00000018,0.00000030,-0.00000098
 ,0.00000253,-0.00000065,-0.00000099,-0.00000013,0.00000044,0.00000144,
 -0.00000048,-0.00000051,-0.00000030,0.00000134,0.00000123,-0.00000205,
 0.00000123,-0.00000119,-0.00000128,0.00000051,-0.00000047,-0.00000002,
 0.00000163,0.00000086,0.00000152,-0.00000207,-0.00000020,-0.00000159,-
 0.00000172,-0.00000098,0.00000113,0.00000045,0.00000030,0.00000028,0.0
 0000009,-0.00000017,-0.00000077,0.00000095,-0.00000006,-0.00000185,0.0
 0001177,0.00008417,-0.00002511,0.00002999,-0.00001170,0.00001384,0.000
 00260,0.00000571,-0.00000790,-0.00000173,-0.00000010,-0.00000315,0.000
 00079,0.00000096,-0.00000010,-0.00000131,-0.00000201,-0.00000223,0.000
 07329,0.00006732,-0.00006895,-0.00000849,0.00001289,0.00000683,-0.0000
 0681,0.00000148,0.00005682,-0.00005703,-0.00001170,-0.00001657,-0.0000
 0015,0.00001467,-0.00000477,-0.00000045,-0.00000300,-0.00000017,-0.000
 00022,0.00000157,0.00000422,-0.00000328,-0.00000774,-0.00000263,-0.000
 00041,0.00000058,0.00000123,-0.00000005,0.00000176,0.00000141,0.000001
 34,-0.00000073,-0.00000108,0.00000089,0.00000154,-0.00000011,-0.000000
 69,-0.00000011,0.00000046,-0.00000017,-0.00000096,-0.00000062,0.000000
 13,-0.00000068,0.00000072,0.00000007,0.00000015,0.00000043,0.00000034,
 -0.00000040,-0.00000052,0.00000004,0.00000098,-0.00000005,0.00000040,-
 0.00000087,-0.00000028,-0.00000138,0.00000042,-0.00000052,-0.00000011,
 -0.00000032,0.00000040,-0.00000045,0.00003671,0.00005756,0.00000468,-0
 .00000521,-0.00000928,-0.00000758,-0.00000682,-0.00000916,-0.00000384,
 -0.00001973,-0.00000399,0.06549498,0.03742122,0.04881100\\-0.00000487,
 -0.00000140,-0.00000125,-0.00000006,0.00000894,-0.00000165,0.00000102,
 -0.00000470,0.00000461,0.00000080,0.00000726,0.00000047,0.00000270,0.0
 0000235,0.00000104,-0.00000251,0.00000338,-0.00000180,-0.00000372,0.00
 000626,-0.00000467,0.00000271,-0.00000982,0.00000295,-0.00000012,0.000
 00301,-0.00000136,-0.00000126,0.00000015,-0.00000185,-0.00000065,-0.00
 000212,0.00000070,0.00000050,0.00000093,0.00000170,0.00000032,-0.00000
 159,0.00000164,0.00000474,-0.00000243,0.00000166,0.00000080,0.00000068
 ,-0.00000080,0.00000313,-0.00000012,0.00000211,-0.00000156,-0.00000401
 ,0.00000182,0.00000462,-0.00000082,0.00000273,0.00000318,-0.00000092,0
 .00000043,-0.00000217,-0.00000128,0.00000104,-0.00000355,-0.00000254,0
 .00000048,-0.00000087,-0.00000114,0.00000007,0.00000061,0.00000288,-0.
 00000487,0.00000057,0.00000054,-0.00000039,-0.00000314,0.00000147,-0.0
 0000086,0.00000215,-0.00000431,-0.00000172,0.00000034,-0.00000257,0.00
 000012,-0.00000488,-0.00000565,-0.00000350,-0.00000052,0.00000527,-0.0
 0000689,-0.00000001,-0.00000367,0.00000046,-0.00000090,0.00000026,0.00
 000338,0.00000354,-0.00000475,-0.00000123,0.00000446,-0.00000076,-0.00
 000282,0.00000177,-0.00000195,0.00000220,0.00000219,0.00000143,0.00000
 496,-0.00000329,-0.00000165,-0.00000236,-0.00000050,-0.00000179,-0.000
 00192,-0.00000036,-0.00000307,-0.00000070,0.00000496,0.00000024,-0.000
 00331,-0.00000062,-0.00000048,-0.00000155,-0.00000310,-0.00000146,0.00
 000024,0.00000035,-0.00000287,-0.00000016,0.00000333,-0.00000254,-0.00
 000080,-0.00000221,-0.00000191,0.00000157,-0.00000271,0.00000011,0.000
 00042,-0.00000180,0.00000283,-0.00000128,-0.00000124,-0.00000196,-0.00
 000582,-0.00000190,-0.00000186,-0.00000072,0.00000172,-0.00000026,0.00
 000051,-0.00000188,-0.00000133,0.00000094,0.00000520,-0.00001024,0.000
 00008,0.00000126,-0.00000151,-0.00000312,-0.00000241,0.00000049,-0.000
 00437,-0.00000043,0.00000406,0.00000147,-0.00000180,0.00000441,-0.0000
 0458,0.00000202,-0.00000211,-0.00000093,-0.00000148,-0.00000314,0.0000
 0097,-0.00000124,-0.00000146,-0.00000178,0.00000093,-0.00000283,0.0000
 0201,0.00000286,-0.00000170,-0.00000178,0.00000161,-0.00000059,-0.0000
 0138,0.00000021,0.00000141,-0.00000263,-0.00000315,0.00000080,0.000000
 16,0.00000110,-0.00000204,-0.00000218,0.00000109,-0.00000124,-0.000001
 07,0.00000231,-0.00000124,-0.00000211,-0.00000296,0.00000115,0.0000001
 2,-0.00000126,-0.00000055,-0.00000174,0.,-0.00000072,0.,-0.00000157,-0
 .00000198,-0.00000098,0.00000015,-0.00000436,-0.00000711,-0.00000180,-
 0.00000045,-0.00000079,-0.00000083,0.00000317,0.00000127,-0.00000256,0
 .00000043,0.00000224,-0.00000487,0.00000429,0.00000175,-0.00000057,0.0
 0000037,0.00000022,0.00000100,-0.00000035,0.00000122,-0.00000024,-0.00
 000124,-0.00000151,0.00000060,0.00000052,-0.00000118,-0.00000292,0.000
 00027,-0.00000040,-0.00000252,0.00000115,0.00000067,-0.00000297,-0.000
 00087,0.00000040,0.00000081,0.00000117,-0.00000047,0.00000659,0.000000
 44,0.00000188,0.00000234,-0.00000127,0.00000188,-0.00000198,-0.0000010
 8,0.00000183,0.00000153,0.00000192,0.00000149,0.00000050,0.00000123,0.
 00000097,-0.00000065,0.00000323,0.00000154,0.00000067,-0.00000032,0.00
 000003,0.00000073,-0.00000252,-0.00000065,-0.00000097,0.00000527,-0.00
 000002,0.00000027,0.00000283,0.00000274,0.00000052,0.00000057,0.000001
 48,0.00000058,0.00000072,0.00000051,-0.00000021,-0.00000226,-0.0000023
 2,0.00000007,0.00000199,-0.00000026,0.00000127,0.00000296,0.00000121,0
 .00000083,0.00000319,0.00000270,-0.00000270,0.00000059,0.00000676,0.00
 000152,0.00000298,0.00000008,0.00000048,0.00000105,0.00000064,-0.00000
 383,-0.00000440,-0.00000048,0.00000154,0.00000357,0.00000022,0.0000000
 8,0.00000556,0.00000500,0.00000834,0.00000184,0.00000486,-0.00000045,0
 .00000420,0.00000261,-0.00000244,0.00000457,0.00000124,-0.00000095,0.0
 0000267,0.00000426,0.00000218,0.00000242,0.00000203,-0.00000207,0.0000
 0054,-0.00000154,-0.00000157,0.00000085,0.00000025,-0.00000055,0.00000
 043,0.00000327,0.00000268,0.00000093,-0.00000063\\\@
 The archive entry for this job was punched.


 THERE'S A SUCKER BORN EVERY MINUTE

              -- PHINEAS TAYLOR (P.T.) BARNUM
 Job cpu time:       2 days  1 hours 36 minutes 19.4 seconds.
 Elapsed time:       0 days  3 hours  9 minutes 35.2 seconds.
 File lengths (MBytes):  RWF=  10098 Int=      0 D2E=      0 Chk=     55 Scr=      1
 Normal termination of Gaussian 16 at Sat Dec  7 21:58:39 2024.
