/mnt/lustre/scratch/nvme/SLURM/9663535/usccqdma.jpvOxCbj5e
OMP_STACKSIZE=0m
GAUSS_PDEF=16
GAUSS_MDEF=65536MB
GAUSS_RDEF=SCF=Direct
 Entering Gaussian System, Link 0=g16.exe
 Initial command:
 /opt/cesga/2020/software/Core/g16/c1/l1.exe "/mnt/lustre/scratch/nvme/SLURM/9663535/usccqdma.jpvOxCbj5e/Gau-417676.inp" -scrdir="/mnt/lustre/scratch/nvme/SLURM/9663535/usccqdma.jpvOxCbj5e/"
 Default is to use a total of  16 processors:
                               16 via shared-memory
                                1 via Linda
 Entering Link 1 = /opt/cesga/2020/software/Core/g16/c1/l1.exe PID=    417703.
  
 Copyright (c) 1988-2019, Gaussian, Inc.  All Rights Reserved.
  
 This is part of the Gaussian(R) 16 program.  It is based on
 the Gaussian(R) 09 system (copyright 2009, Gaussian, Inc.),
 the Gaussian(R) 03 system (copyright 2003, Gaussian, Inc.),
 the Gaussian(R) 98 system (copyright 1998, Gaussian, Inc.),
 the Gaussian(R) 94 system (copyright 1995, Gaussian, Inc.),
 the Gaussian 92(TM) system (copyright 1992, Gaussian, Inc.),
 the Gaussian 90(TM) system (copyright 1990, Gaussian, Inc.),
 the Gaussian 88(TM) system (copyright 1988, Gaussian, Inc.),
 the Gaussian 86(TM) system (copyright 1986, Carnegie Mellon
 University), and the Gaussian 82(TM) system (copyright 1983,
 Carnegie Mellon University). Gaussian is a federally registered
 trademark of Gaussian, Inc.
  
 This software contains proprietary and confidential information,
 including trade secrets, belonging to Gaussian, Inc.
  
 This software is provided under written license and may be
 used, copied, transmitted, or stored only in accord with that
 written license.
  
 The following legend is applicable only to US Government
 contracts under FAR:
  
                    RESTRICTED RIGHTS LEGEND
  
 Use, reproduction and disclosure by the US Government is
 subject to restrictions as set forth in subparagraphs (a)
 and (c) of the Commercial Computer Software - Restricted
 Rights clause in FAR 52.227-19.
  
 Gaussian, Inc.
 340 Quinnipiac St., Bldg. 40, Wallingford CT 06492
  
  
 ---------------------------------------------------------------
 Warning -- This program may not be used in any manner that
 competes with the business of Gaussian, Inc. or will provide
 assistance to any competitor of Gaussian, Inc.  The licensee
 of this program is prohibited from giving any competitor of
 Gaussian, Inc. access to this program.  By using this program,
 the user acknowledges that Gaussian, Inc. is engaged in the
 business of creating and licensing software in the field of
 computational chemistry and represents and warrants to the
 licensee that it is not a competitor of Gaussian, Inc. and that
 it will not use this program in any manner prohibited above.
 ---------------------------------------------------------------
  

 Cite this work as:
 Gaussian 16, Revision C.01,
 M. J. Frisch, G. W. Trucks, H. B. Schlegel, G. E. Scuseria, 
 M. A. Robb, J. R. Cheeseman, G. Scalmani, V. Barone, 
 G. A. Petersson, H. Nakatsuji, X. Li, M. Caricato, A. V. Marenich, 
 J. Bloino, B. G. Janesko, R. Gomperts, B. Mennucci, H. P. Hratchian, 
 J. V. Ortiz, A. F. Izmaylov, J. L. Sonnenberg, D. Williams-Young, 
 F. Ding, F. Lipparini, F. Egidi, J. Goings, B. Peng, A. Petrone, 
 T. Henderson, D. Ranasinghe, V. G. Zakrzewski, J. Gao, N. Rega, 
 G. Zheng, W. Liang, M. Hada, M. Ehara, K. Toyota, R. Fukuda, 
 J. Hasegawa, M. Ishida, T. Nakajima, Y. Honda, O. Kitao, H. Nakai, 
 T. Vreven, K. Throssell, J. A. Montgomery, Jr., J. E. Peralta, 
 F. Ogliaro, M. J. Bearpark, J. J. Heyd, E. N. Brothers, K. N. Kudin, 
 V. N. Staroverov, T. A. Keith, R. Kobayashi, J. Normand, 
 K. Raghavachari, A. P. Rendell, J. C. Burant, S. S. Iyengar, 
 J. Tomasi, M. Cossi, J. M. Millam, M. Klene, C. Adamo, R. Cammi, 
 J. W. Ochterski, R. L. Martin, K. Morokuma, O. Farkas, 
 J. B. Foresman, and D. J. Fox, Gaussian, Inc., Wallingford CT, 2019.
 
 ******************************************
 Gaussian 16:  ES64L-G16RevC.01  3-Jul-2019
                 7-Dec-2024 
 ******************************************
 Default route: SCF=Direct
 ----------------------------------------------------
 # m06/genecp scf=tight int=ultrafine 5d freq=noraman
 ----------------------------------------------------
 1/10=4,30=1,38=1/1,3;
 2/12=2,17=6,18=5,40=1/2;
 3/5=7,8=1,11=2,16=1,17=8,25=1,30=1,71=2,74=-54,75=-5,140=1/1,2,3;
 4//1;
 5/5=2,32=2,38=5,98=1/2;
 8/6=4,10=90,11=11/1;
 11/6=1,8=1,9=11,15=111,16=1/1,2,10;
 10/6=1/2;
 6/7=2,8=2,9=2,10=2,28=1/1;
 7/8=1,10=1,25=1/1,2,3,16;
 1/10=4,30=1/3;
 99//99;
 ------
 OPT-TS
 ------
 Symbolic Z-matrix:
 Charge =  0 Multiplicity = 1
 C                     1.51039  -0.99821   1.86899 
 C                    -0.55732  -0.2272    2.56578 
 C                    -0.30542  -0.59972   3.87968 
 C                     0.91582  -1.17997   4.18958 
 C                     1.83905  -1.3679    3.17109 
 C                     2.43595  -1.17527   0.73061 
 C                     2.89546  -0.6556   -1.47582 
 C                     4.04831  -1.43121  -1.47899 
 C                     4.38298  -2.11222  -0.31435 
 C                     3.57075  -1.98041   0.80368 
 H                    -1.49809   0.23779   2.27658 
 H                     1.14613  -1.46937   5.21208 
 H                     2.81764  -1.78145   3.39792 
 H                     2.56562  -0.11781  -2.36526 
 H                     5.26787  -2.74467  -0.2756 
 H                     3.80924  -2.51978   1.71655 
 N                     0.316    -0.44116   1.58573 
 N                     2.10989  -0.53425  -0.40535 
 Ir                   -0.08271   0.15655  -0.52625 
 O                    -2.53861  -1.02654   0.64135 
 O                     0.38838  -2.79028  -0.6455 
 O                    -2.05832   2.51411   0.10774 
 B                    -0.33298  -1.75597  -1.23861 
 B                    -2.07217  -0.26723  -0.44118 
 B                    -0.96051   2.13908  -0.69544 
 O                    -0.96799   2.88699  -1.87751 
 O                    -3.11719  -0.00747  -1.30997 
 C                    -4.26451  -0.75927  -0.88487 
 C                    -3.97239  -0.98184   0.62602 
 C                    -2.62739   3.70636  -0.45182 
 C                    -2.18261   3.63721  -1.94713 
 C                    -0.00063  -4.02228  -1.26893 
 C                    -0.53023  -3.53211  -2.64594 
 O                    -1.03686  -2.22554  -2.33277 
 C                    -4.3887    0.19253   1.50432 
 H                    -3.9985    0.02821   2.51926 
 H                    -3.96528   1.13275   1.12524 
 H                    -5.48052   0.28984   1.57658 
 C                    -4.51176  -2.27329   1.20722 
 H                    -4.21264  -2.35113   2.26099 
 H                    -5.61029  -2.29389   1.16269 
 H                    -4.12529  -3.15356   0.68113 
 C                    -5.52354   0.02955  -1.18205 
 H                    -5.51661   1.01396  -0.70171 
 H                    -5.61933   0.1792   -2.26564 
 H                    -6.41294  -0.51586  -0.83432 
 C                    -4.27881  -2.05464  -1.68443 
 H                    -5.18212  -2.6475   -1.48568 
 H                    -4.24434  -1.8091   -2.75362 
 H                    -3.3908   -2.65825  -1.46508 
 C                     1.20916  -4.93416  -1.33414 
 H                     0.99157  -5.84248  -1.9143 
 H                     2.07002  -4.42406  -1.78343 
 H                     1.49504  -5.24184  -0.31959 
 C                    -1.08133  -4.64466  -0.39636 
 H                    -0.68239  -4.77906   0.61687 
 H                    -1.95505  -3.98306  -0.32037 
 H                    -1.4043   -5.62414  -0.77414 
 C                     0.58025  -3.33464  -3.67143 
 H                     0.1712   -2.78942  -4.53075 
 H                     1.40052  -2.73468  -3.25267 
 H                     0.98994  -4.28959  -4.02722 
 C                    -1.63769  -4.37238  -3.24864 
 H                    -1.97351  -3.9167   -4.189 
 H                    -1.27817  -5.38773  -3.47032 
 H                    -2.50624  -4.44892  -2.58582 
 C                    -3.1511    2.8724   -2.83925 
 H                    -4.09268   3.42054  -2.98523 
 H                    -2.67955   2.73559  -3.82102 
 H                    -3.36198   1.8772   -2.43078 
 C                    -1.88111   4.98659  -2.57628 
 H                    -2.77757   5.6234   -2.58989 
 H                    -1.08292   5.52169  -2.04828 
 H                    -1.55696   4.8396   -3.61449 
 C                    -2.04334   4.90192   0.29619 
 H                    -2.20014   4.75457   1.37245 
 H                    -0.96528   5.01895   0.12393 
 H                    -2.53041   5.84134   0.00154 
 C                    -4.12802   3.68835  -0.24267 
 H                    -4.35691   3.71699   0.83134 
 H                    -4.5992    4.56308  -0.71383 
 H                    -4.57476   2.78355  -0.66749 
 H                    -0.24226   0.46654  -2.08617 
 C                     3.00726   2.1727    0.35851 
 O                     2.92315   1.70382   1.49217 
 C                     4.3621    2.27954  -0.32679 
 H                     4.29201   1.88525  -1.35411 
 H                     4.64656   3.33948  -0.43688 
 C                     0.59272   2.37092   0.24024 
 H                     0.74005   1.97174   1.24515 
 H                     0.15891   3.36592   0.42178 
 N                     1.91076   2.57067  -0.34896 
 C                     1.95627   3.19751  -1.65318 
 H                     1.28905   4.06934  -1.66427 
 H                     2.96758   3.53506  -1.89099 
 H                     1.59695   2.517    -2.43831 
 C                     5.44303   1.52592   0.4284 
 H                     5.58612   1.97807   1.42062 
 H                     5.09506   0.49926   0.625 
 C                     6.75871   1.47982  -0.33008 
 H                     6.59227   1.04607  -1.33345 
 H                     7.12896   2.50463  -0.50917 
 C                     7.82892   0.67217   0.38833 
 H                     7.98828   1.09428   1.39363 
 H                     7.45388  -0.35267   0.55113 
 C                     9.14373   0.62913  -0.37158 
 H                     9.90484   0.03908   0.15392 
 H                     9.00916   0.18735  -1.36912 
 H                     9.54817   1.64068  -0.51584 
 C                    -1.39089  -0.38371   4.88609 
 F                    -1.79553   0.8891    4.90054 
 F                    -2.46659  -1.12805   4.59258 
 F                    -0.99865  -0.70657   6.12113 
 H                     4.65652  -1.50485  -2.37714 
 

 GradGradGradGradGradGradGradGradGradGradGradGradGradGradGradGradGradGrad
 Berny optimization.
 Initialization pass.
 Trust Radius=3.00D-01 FncErr=1.00D-07 GrdErr=1.00D-07 EigMax=2.50D+02 EigMin=1.00D-04
 Number of steps in this run=      2 maximum allowed number of steps=      2.
 GradGradGradGradGradGradGradGradGradGradGradGradGradGradGradGradGradGrad

 Stoichiometry    C37H60B3F3IrN3O7
 Framework group  C1[X(C37H60B3F3IrN3O7)]
 Deg. of freedom   336
 Full point group                 C1      NOp   1
 Largest Abelian subgroup         C1      NOp   1
 Largest concise Abelian subgroup C1      NOp   1
                         Standard orientation:                         
 ---------------------------------------------------------------------
 Center     Atomic      Atomic             Coordinates (Angstroms)
 Number     Number       Type             X           Y           Z
 ---------------------------------------------------------------------
      1          6           0        1.510390   -0.998210    1.868989
      2          6           0       -0.557319   -0.227199    2.565779
      3          6           0       -0.305420   -0.599719    3.879679
      4          6           0        0.915820   -1.179970    4.189579
      5          6           0        1.839050   -1.367900    3.171089
      6          6           0        2.435950   -1.175271    0.730609
      7          6           0        2.895460   -0.655601   -1.475821
      8          6           0        4.048310   -1.431212   -1.478991
      9          6           0        4.382979   -2.112222   -0.314351
     10          6           0        3.570749   -1.980411    0.803679
     11          1           0       -1.498089    0.237792    2.276579
     12          1           0        1.146130   -1.469370    5.212079
     13          1           0        2.817640   -1.781451    3.397919
     14          1           0        2.565621   -0.117811   -2.365261
     15          1           0        5.267869   -2.744673   -0.275601
     16          1           0        3.809239   -2.519782    1.716549
     17          7           0        0.316000   -0.441159    1.585729
     18          7           0        2.109890   -0.534251   -0.405351
     19         77           0       -0.082709    0.156551   -0.526251
     20          8           0       -2.538610   -1.026538    0.641349
     21          8           0        0.388379   -2.790279   -0.645501
     22          8           0       -2.058318    2.514112    0.107739
     23          5           0       -0.332980   -1.755969   -1.238611
     24          5           0       -2.072170   -0.267228   -0.441181
     25          5           0       -0.960508    2.139081   -0.695441
     26          8           0       -0.967987    2.886991   -1.877511
     27          8           0       -3.117189   -0.007467   -1.309971
     28          6           0       -4.264510   -0.759266   -0.884871
     29          6           0       -3.972390   -0.981837    0.626019
     30          6           0       -2.627387    3.706362   -0.451821
     31          6           0       -2.182607    3.637212   -1.947131
     32          6           0       -0.000632   -4.022279   -1.268931
     33          6           0       -0.530232   -3.532109   -2.645941
     34          8           0       -1.036861   -2.225539   -2.332771
     35          6           0       -4.388699    0.192534    1.504319
     36          1           0       -3.998499    0.028213    2.519259
     37          1           0       -3.965279    1.132753    1.125239
     38          1           0       -5.480519    0.289844    1.576579
     39          6           0       -4.511761   -2.273286    1.207219
     40          1           0       -4.212641   -2.351127    2.260989
     41          1           0       -5.610291   -2.293886    1.162689
     42          1           0       -4.125291   -3.153557    0.681129
     43          6           0       -5.523539    0.029554   -1.182051
     44          1           0       -5.516609    1.013964   -0.701711
     45          1           0       -5.619329    0.179204   -2.265641
     46          1           0       -6.412940   -0.515855   -0.834321
     47          6           0       -4.278811   -2.054636   -1.684431
     48          1           0       -5.182121   -2.647496   -1.485681
     49          1           0       -4.244340   -1.809096   -2.753621
     50          1           0       -3.390801   -2.658247   -1.465081
     51          6           0        1.209158   -4.934160   -1.334141
     52          1           0        0.991567   -5.842480   -1.914301
     53          1           0        2.070018   -4.424061   -1.783431
     54          1           0        1.495037   -5.241840   -0.319591
     55          6           0       -1.081332   -4.644659   -0.396361
     56          1           0       -0.682392   -4.779059    0.616869
     57          1           0       -1.955052   -3.983058   -0.320371
     58          1           0       -1.404303   -5.624138   -0.774141
     59          6           0        0.580249   -3.334640   -3.671431
     60          1           0        0.171199   -2.789419   -4.530751
     61          1           0        1.400519   -2.734680   -3.252671
     62          1           0        0.989938   -4.289590   -4.027221
     63          6           0       -1.637692   -4.372378   -3.248641
     64          1           0       -1.973512   -3.916698   -4.189001
     65          1           0       -1.278173   -5.387728   -3.470321
     66          1           0       -2.506242   -4.448918   -2.585821
     67          6           0       -3.151097    2.872403   -2.839251
     68          1           0       -4.092677    3.420543   -2.985231
     69          1           0       -2.679548    2.735593   -3.821021
     70          1           0       -3.361978    1.877203   -2.430781
     71          6           0       -1.881106    4.986592   -2.576281
     72          1           0       -2.777566    5.623403   -2.589891
     73          1           0       -1.082916    5.521691   -2.048281
     74          1           0       -1.556956    4.839602   -3.614491
     75          6           0       -2.043336    4.901922    0.296189
     76          1           0       -2.200136    4.754572    1.372449
     77          1           0       -0.965276    5.018951    0.123929
     78          1           0       -2.530406    5.841342    0.001539
     79          6           0       -4.128017    3.688353   -0.242671
     80          1           0       -4.356907    3.716994    0.831339
     81          1           0       -4.599196    4.563084   -0.713831
     82          1           0       -4.574758    2.783554   -0.667491
     83          1           0       -0.242259    0.466541   -2.086171
     84          6           0        3.007262    2.172699    0.358509
     85          8           0        2.923152    1.703819    1.492169
     86          6           0        4.362102    2.279538   -0.326791
     87          1           0        4.292012    1.885248   -1.354111
     88          1           0        4.646563    3.339478   -0.436881
     89          6           0        0.592722    2.370920    0.240239
     90          1           0        0.740052    1.971740    1.245149
     91          1           0        0.158913    3.365921    0.421779
     92          7           0        1.910762    2.570670   -0.348961
     93          6           0        1.956273    3.197510   -1.653181
     94          1           0        1.289053    4.069340   -1.664271
     95          1           0        2.967583    3.535059   -1.890991
     96          1           0        1.596952    2.517000   -2.438311
     97          6           0        5.443032    1.525917    0.428399
     98          1           0        5.586122    1.978067    1.420619
     99          1           0        5.095061    0.499258    0.624999
    100          6           0        6.758712    1.479816   -0.330081
    101          1           0        6.592271    1.046067   -1.333451
    102          1           0        7.128962    2.504626   -0.509171
    103          6           0        7.828921    0.672166    0.388329
    104          1           0        7.988281    1.094276    1.393629
    105          1           0        7.453880   -0.352674    0.551129
    106          6           0        9.143731    0.629125   -0.371581
    107          1           0        9.904841    0.039074    0.153919
    108          1           0        9.009161    0.187345   -1.369121
    109          1           0        9.548172    1.640675   -0.515841
    110          6           0       -1.390890   -0.383708    4.886089
    111          9           0       -1.795529    0.889102    4.900539
    112          9           0       -2.466590   -1.128048    4.592579
    113          9           0       -0.998650   -0.706569    6.121129
    114          1           0        4.656520   -1.504852   -2.377141
 ---------------------------------------------------------------------
 Rotational constants (GHZ):           0.0596840           0.0423596           0.0404807
 General basis read from cards:  (5D, 7F)
 ======================================================================================================
                                       Pseudopotential Parameters
 ======================================================================================================
  Center     Atomic      Valence      Angular      Power
  Number     Number     Electrons     Momentum     of R      Exponent        Coefficient   SO-Coeffient
 ======================================================================================================
    1          6
                                   No pseudopotential on this center.
    2          6
                                   No pseudopotential on this center.
    3          6
                                   No pseudopotential on this center.
    4          6
                                   No pseudopotential on this center.
    5          6
                                   No pseudopotential on this center.
    6          6
                                   No pseudopotential on this center.
    7          6
                                   No pseudopotential on this center.
    8          6
                                   No pseudopotential on this center.
    9          6
                                   No pseudopotential on this center.
   10          6
                                   No pseudopotential on this center.
   11          1
                                   No pseudopotential on this center.
   12          1
                                   No pseudopotential on this center.
   13          1
                                   No pseudopotential on this center.
   14          1
                                   No pseudopotential on this center.
   15          1
                                   No pseudopotential on this center.
   16          1
                                   No pseudopotential on this center.
   17          7
                                   No pseudopotential on this center.
   18          7
                                   No pseudopotential on this center.
   19         77           17
                                      G and up 
                                                     1      823.5880147       -0.15780140    0.00000000
                                                     2      364.6613336    -1517.52704460    0.00000000
                                                     2       55.7082801     -316.53065290    0.00000000
                                                     2       12.0464544      -91.88809410    0.00000000
                                                     2        3.5120610       -9.22417730    0.00000000
                                      S - G
                                                     0      188.0490770        3.15780140    0.00000000
                                                     1      340.4194712       26.83225770    0.00000000
                                                     2      128.2373673      800.42500070    0.00000000
                                                     2       33.8644961      369.40506830    0.00000000
                                                     2        4.7560005      242.41718990    0.00000000
                                                     2        3.9649974     -118.21732820    0.00000000
                                      P - G
                                                     0      289.7291139        2.15780140    0.00000000
                                                     1       87.4633789       61.96786100    0.00000000
                                                     2       30.4363766      269.05819860    0.00000000
                                                     2        4.0553412      231.16547930    0.00000000
                                                     2        3.5525341     -133.69526670    0.00000000
                                      D - G
                                                     0      136.4017106        3.15780140    0.00000000
                                                     1       95.0776925       45.93498030    0.00000000
                                                     2       49.2258410      359.03446680    0.00000000
                                                     2       15.0874145      176.47401190    0.00000000
                                                     2        4.0405764       54.51552860    0.00000000
                                      F - G
                                                     0      127.3507908        3.95461970    0.00000000
                                                     1       66.2364374       52.97736550    0.00000000
                                                     2       34.4299229      274.86433830    0.00000000
                                                     2       10.1995721      137.20473380    0.00000000
                                                     2        2.5409702       14.86333050    0.00000000
   20          8
                                   No pseudopotential on this center.
   21          8
                                   No pseudopotential on this center.
   22          8
                                   No pseudopotential on this center.
   23          5
                                   No pseudopotential on this center.
   24          5
                                   No pseudopotential on this center.
   25          5
                                   No pseudopotential on this center.
   26          8
                                   No pseudopotential on this center.
   27          8
                                   No pseudopotential on this center.
   28          6
                                   No pseudopotential on this center.
   29          6
                                   No pseudopotential on this center.
   30          6
                                   No pseudopotential on this center.
   31          6
                                   No pseudopotential on this center.
   32          6
                                   No pseudopotential on this center.
   33          6
                                   No pseudopotential on this center.
   34          8
                                   No pseudopotential on this center.
   35          6
                                   No pseudopotential on this center.
   36          1
                                   No pseudopotential on this center.
   37          1
                                   No pseudopotential on this center.
   38          1
                                   No pseudopotential on this center.
   39          6
                                   No pseudopotential on this center.
   40          1
                                   No pseudopotential on this center.
   41          1
                                   No pseudopotential on this center.
   42          1
                                   No pseudopotential on this center.
   43          6
                                   No pseudopotential on this center.
   44          1
                                   No pseudopotential on this center.
   45          1
                                   No pseudopotential on this center.
   46          1
                                   No pseudopotential on this center.
   47          6
                                   No pseudopotential on this center.
   48          1
                                   No pseudopotential on this center.
   49          1
                                   No pseudopotential on this center.
   50          1
                                   No pseudopotential on this center.
   51          6
                                   No pseudopotential on this center.
   52          1
                                   No pseudopotential on this center.
   53          1
                                   No pseudopotential on this center.
   54          1
                                   No pseudopotential on this center.
   55          6
                                   No pseudopotential on this center.
   56          1
                                   No pseudopotential on this center.
   57          1
                                   No pseudopotential on this center.
   58          1
                                   No pseudopotential on this center.
   59          6
                                   No pseudopotential on this center.
   60          1
                                   No pseudopotential on this center.
   61          1
                                   No pseudopotential on this center.
   62          1
                                   No pseudopotential on this center.
   63          6
                                   No pseudopotential on this center.
   64          1
                                   No pseudopotential on this center.
   65          1
                                   No pseudopotential on this center.
   66          1
                                   No pseudopotential on this center.
   67          6
                                   No pseudopotential on this center.
   68          1
                                   No pseudopotential on this center.
   69          1
                                   No pseudopotential on this center.
   70          1
                                   No pseudopotential on this center.
   71          6
                                   No pseudopotential on this center.
   72          1
                                   No pseudopotential on this center.
   73          1
                                   No pseudopotential on this center.
   74          1
                                   No pseudopotential on this center.
   75          6
                                   No pseudopotential on this center.
   76          1
                                   No pseudopotential on this center.
   77          1
                                   No pseudopotential on this center.
   78          1
                                   No pseudopotential on this center.
   79          6
                                   No pseudopotential on this center.
   80          1
                                   No pseudopotential on this center.
   81          1
                                   No pseudopotential on this center.
   82          1
                                   No pseudopotential on this center.
   83          1
                                   No pseudopotential on this center.
   84          6
                                   No pseudopotential on this center.
   85          8
                                   No pseudopotential on this center.
   86          6
                                   No pseudopotential on this center.
   87          1
                                   No pseudopotential on this center.
   88          1
                                   No pseudopotential on this center.
   89          6
                                   No pseudopotential on this center.
   90          1
                                   No pseudopotential on this center.
   91          1
                                   No pseudopotential on this center.
   92          7
                                   No pseudopotential on this center.
   93          6
                                   No pseudopotential on this center.
   94          1
                                   No pseudopotential on this center.
   95          1
                                   No pseudopotential on this center.
   96          1
                                   No pseudopotential on this center.
   97          6
                                   No pseudopotential on this center.
   98          1
                                   No pseudopotential on this center.
   99          1
                                   No pseudopotential on this center.
  100          6
                                   No pseudopotential on this center.
  101          1
                                   No pseudopotential on this center.
  102          1
                                   No pseudopotential on this center.
  103          6
                                   No pseudopotential on this center.
  104          1
                                   No pseudopotential on this center.
  105          1
                                   No pseudopotential on this center.
  106          6
                                   No pseudopotential on this center.
  107          1
                                   No pseudopotential on this center.
  108          1
                                   No pseudopotential on this center.
  109          1
                                   No pseudopotential on this center.
  110          6
                                   No pseudopotential on this center.
  111          9
                                   No pseudopotential on this center.
  112          9
                                   No pseudopotential on this center.
  113          9
                                   No pseudopotential on this center.
  114          1
                                   No pseudopotential on this center.
 ======================================================================================================
 There are   939 symmetry adapted cartesian basis functions of A   symmetry.
 There are   884 symmetry adapted basis functions of A   symmetry.
   884 basis functions,  1767 primitive gaussians,   939 cartesian basis functions
   209 alpha electrons      209 beta electrons
       nuclear repulsion energy      9298.7500054433 Hartrees.
 NAtoms=  114 NActive=  114 NUniq=  114 SFac= 1.00D+00 NAtFMM=   60 NAOKFM=T Big=T
 Integral buffers will be    131072 words long.
 Raffenetti 2 integral format.
 Two-electron integral symmetry is turned on.
 One-electron integrals computed using PRISM.
   1 Symmetry operations used in ECPInt.
 ECPInt:  NShTT=   57970 NPrTT=  353525 LenC2=   42622 LenP2D=  130807.
 LDataN:  DoStor=T MaxTD1= 6 Len=  172
 NBasis=   884 RedAO= T EigKep=  5.06D-04  NBF=   884
 NBsUse=   884 1.00D-06 EigRej= -1.00D+00 NBFU=   884
 Defaulting to unpruned grid for atomic number  77.
 ExpMin= 2.90D-02 ExpMax= 7.00D+03 ExpMxC= 1.05D+03 IAcc=3 IRadAn=         5 AccDes= 0.00D+00
 Harris functional with IExCor= 1009 and IRadAn=       5 diagonalized for initial guess.
 HarFok:  IExCor= 1009 AccDes= 0.00D+00 IRadAn=         5 IDoV= 1 UseB2=F ITyADJ=14
 ICtDFT=  3500011 ScaDFX=  1.000000  1.000000  1.000000  1.000000
 Defaulting to unpruned grid for atomic number  77.
 FoFCou: FMM=F IPFlag=           0 FMFlag=      100000 FMFlg1=        2001
         NFxFlg=           0 DoJE=T BraDBF=F KetDBF=T FulRan=T
         wScrn=  0.000000 ICntrl=       500 IOpCl=  0 I1Cent=   200000004 NGrid=           0
         NMat0=    1 NMatS0=      1 NMatT0=    0 NMatD0=    1 NMtDS0=    0 NMtDT0=    0
 Petite list used in FoFCou.
 Requested convergence on RMS density matrix=1.00D-08 within 128 cycles.
 Requested convergence on MAX density matrix=1.00D-06.
 Requested convergence on             energy=1.00D-06.
 No special actions if energy rises.
 Defaulting to unpruned grid for atomic number  77.
 Defaulting to unpruned grid for atomic number  77.
 Defaulting to unpruned grid for atomic number  77.
 Defaulting to unpruned grid for atomic number  77.
 Defaulting to unpruned grid for atomic number  77.
 Defaulting to unpruned grid for atomic number  77.
 Defaulting to unpruned grid for atomic number  77.
 Defaulting to unpruned grid for atomic number  77.
 Defaulting to unpruned grid for atomic number  77.
 Defaulting to unpruned grid for atomic number  77.
 Defaulting to unpruned grid for atomic number  77.
 Defaulting to unpruned grid for atomic number  77.
 Defaulting to unpruned grid for atomic number  77.
 Defaulting to unpruned grid for atomic number  77.
 Defaulting to unpruned grid for atomic number  77.
 Defaulting to unpruned grid for atomic number  77.
 SCF Done:  E(RM06) =  -2614.44383318     A.U. after   15 cycles
            NFock= 15  Conv=0.78D-08     -V/T= 2.0345
 DoSCS=F DFT=T ScalE2(SS,OS)=  1.000000  1.000000
 Range of M.O.s used for correlation:     1   884
 NBasis=   884 NAE=   209 NBE=   209 NFC=     0 NFV=     0
 NROrb=    884 NOA=   209 NOB=   209 NVA=   675 NVB=   675
   1 Symmetry operations used in ECPInt.
 ECPInt:  NShTT=   57970 NPrTT=  353525 LenC2=   42622 LenP2D=  130807.
 LDataN:  DoStor=T MaxTD1= 7 Len=  274
 Number of processors reduced to   7 by ecpmxn.
 Symmetrizing basis deriv contribution to polar:
 IMax=3 JMax=2 DiffMx= 0.00D+00
 G2DrvN: will do   115 centers at a time, making    1 passes.
 Calling FoFCou, ICntrl=  3107 FMM=T I1Cent=   0 AccDes= 0.00D+00.
 Defaulting to unpruned grid for atomic number  77.
 Defaulting to unpruned grid for atomic number  77.
 Defaulting to unpruned grid for atomic number  77.
 Defaulting to unpruned grid for atomic number  77.
 Defaulting to unpruned grid for atomic number  77.
 Defaulting to unpruned grid for atomic number  77.
 Defaulting to unpruned grid for atomic number  77.
 Defaulting to unpruned grid for atomic number  77.
 Defaulting to unpruned grid for atomic number  77.
 Defaulting to unpruned grid for atomic number  77.
 Defaulting to unpruned grid for atomic number  77.
 Defaulting to unpruned grid for atomic number  77.
 Defaulting to unpruned grid for atomic number  77.
 Defaulting to unpruned grid for atomic number  77.
 Defaulting to unpruned grid for atomic number  77.
 Defaulting to unpruned grid for atomic number  77.
 End of G2Drv F.D. properties file   721 does not exist.
 End of G2Drv F.D. properties file   722 does not exist.
 End of G2Drv F.D. properties file   788 does not exist.
          IDoAtm=11111111111111111111111111111111111111111111111111
          IDoAtm=11111111111111111111111111111111111111111111111111
          IDoAtm=11111111111111
          Differentiating once with respect to electric field.
                with respect to dipole field.
          Differentiating once with respect to nuclear coordinates.
 Defaulting to unpruned grid for atomic number  77.
 CalDSu exits because no D1Ps are significant.
 Defaulting to unpruned grid for atomic number  77.
 Defaulting to unpruned grid for atomic number  77.
 Defaulting to unpruned grid for atomic number  77.
 Defaulting to unpruned grid for atomic number  77.
 Defaulting to unpruned grid for atomic number  77.
 Defaulting to unpruned grid for atomic number  77.
 Defaulting to unpruned grid for atomic number  77.
 Defaulting to unpruned grid for atomic number  77.
 Defaulting to unpruned grid for atomic number  77.
 Defaulting to unpruned grid for atomic number  77.
 Defaulting to unpruned grid for atomic number  77.
 Defaulting to unpruned grid for atomic number  77.
 Defaulting to unpruned grid for atomic number  77.
 Defaulting to unpruned grid for atomic number  77.
 Defaulting to unpruned grid for atomic number  77.
 Defaulting to unpruned grid for atomic number  77.
          There are   345 degrees of freedom in the 1st order CPHF.  IDoFFX=6 NUNeed=     3.
    342 vectors produced by pass  0 Test12= 1.41D-13 1.00D-09 XBig12= 4.55D+02 7.08D+00.
 AX will form    72 AO Fock derivatives at one time.
    342 vectors produced by pass  1 Test12= 1.41D-13 1.00D-09 XBig12= 7.96D+01 8.40D-01.
    342 vectors produced by pass  2 Test12= 1.41D-13 1.00D-09 XBig12= 1.00D+00 9.21D-02.
    342 vectors produced by pass  3 Test12= 1.41D-13 1.00D-09 XBig12= 6.02D-03 5.98D-03.
    342 vectors produced by pass  4 Test12= 1.41D-13 1.00D-09 XBig12= 2.32D-05 3.42D-04.
    301 vectors produced by pass  5 Test12= 1.41D-13 1.00D-09 XBig12= 4.61D-08 1.36D-05.
     75 vectors produced by pass  6 Test12= 1.41D-13 1.00D-09 XBig12= 6.58D-11 5.53D-07.
      3 vectors produced by pass  7 Test12= 1.41D-13 1.00D-09 XBig12= 8.62D-14 1.76D-08.
 InvSVY:  IOpt=1 It=  1 EMax= 1.07D-14
 Solved reduced A of dimension  2089 with   345 vectors.
 Isotropic polarizability for W=    0.000000      505.59 Bohr**3.
 End of Minotr F.D. properties file   721 does not exist.
 End of Minotr F.D. properties file   722 does not exist.
 End of Minotr F.D. properties file   788 does not exist.
 Hyperfine terms turned off by default for NAtoms > 100.

 **********************************************************************

            Population analysis using the SCF Density.

 **********************************************************************

 Orbital symmetries:
       Occupied  (A) (A) (A) (A) (A) (A) (A) (A) (A) (A) (A) (A)
                 (A) (A) (A) (A) (A) (A) (A) (A) (A) (A) (A) (A)
                 (A) (A) (A) (A) (A) (A) (A) (A) (A) (A) (A) (A)
                 (A) (A) (A) (A) (A) (A) (A) (A) (A) (A) (A) (A)
                 (A) (A) (A) (A) (A) (A) (A) (A) (A) (A) (A) (A)
                 (A) (A) (A) (A) (A) (A) (A) (A) (A) (A) (A) (A)
                 (A) (A) (A) (A) (A) (A) (A) (A) (A) (A) (A) (A)
                 (A) (A) (A) (A) (A) (A) (A) (A) (A) (A) (A) (A)
                 (A) (A) (A) (A) (A) (A) (A) (A) (A) (A) (A) (A)
                 (A) (A) (A) (A) (A) (A) (A) (A) (A) (A) (A) (A)
                 (A) (A) (A) (A) (A) (A) (A) (A) (A) (A) (A) (A)
                 (A) (A) (A) (A) (A) (A) (A) (A) (A) (A) (A) (A)
                 (A) (A) (A) (A) (A) (A) (A) (A) (A) (A) (A) (A)
                 (A) (A) (A) (A) (A) (A) (A) (A) (A) (A) (A) (A)
                 (A) (A) (A) (A) (A) (A) (A) (A) (A) (A) (A) (A)
                 (A) (A) (A) (A) (A) (A) (A) (A) (A) (A) (A) (A)
                 (A) (A) (A) (A) (A) (A) (A) (A) (A) (A) (A) (A)
                 (A) (A) (A) (A) (A)
       Virtual   (A) (A) (A) (A) (A) (A) (A) (A) (A) (A) (A) (A)
                 (A) (A) (A) (A) (A) (A) (A) (A) (A) (A) (A) (A)
                 (A) (A) (A) (A) (A) (A) (A) (A) (A) (A) (A) (A)
                 (A) (A) (A) (A) (A) (A) (A) (A) (A) (A) (A) (A)
                 (A) (A) (A) (A) (A) (A) (A) (A) (A) (A) (A) (A)
                 (A) (A) (A) (A) (A) (A) (A) (A) (A) (A) (A) (A)
                 (A) (A) (A) (A) (A) (A) (A) (A) (A) (A) (A) (A)
                 (A) (A) (A) (A) (A) (A) (A) (A) (A) (A) (A) (A)
                 (A) (A) (A) (A) (A) (A) (A) (A) (A) (A) (A) (A)
                 (A) (A) (A) (A) (A) (A) (A) (A) (A) (A) (A) (A)
                 (A) (A) (A) (A) (A) (A) (A) (A) (A) (A) (A) (A)
                 (A) (A) (A) (A) (A) (A) (A) (A) (A) (A) (A) (A)
                 (A) (A) (A) (A) (A) (A) (A) (A) (A) (A) (A) (A)
                 (A) (A) (A) (A) (A) (A) (A) (A) (A) (A) (A) (A)
                 (A) (A) (A) (A) (A) (A) (A) (A) (A) (A) (A) (A)
                 (A) (A) (A) (A) (A) (A) (A) (A) (A) (A) (A) (A)
                 (A) (A) (A) (A) (A) (A) (A) (A) (A) (A) (A) (A)
                 (A) (A) (A) (A) (A) (A) (A) (A) (A) (A) (A) (A)
                 (A) (A) (A) (A) (A) (A) (A) (A) (A) (A) (A) (A)
                 (A) (A) (A) (A) (A) (A) (A) (A) (A) (A) (A) (A)
                 (A) (A) (A) (A) (A) (A) (A) (A) (A) (A) (A) (A)
                 (A) (A) (A) (A) (A) (A) (A) (A) (A) (A) (A) (A)
                 (A) (A) (A) (A) (A) (A) (A) (A) (A) (A) (A) (A)
                 (A) (A) (A) (A) (A) (A) (A) (A) (A) (A) (A) (A)
                 (A) (A) (A) (A) (A) (A) (A) (A) (A) (A) (A) (A)
                 (A) (A) (A) (A) (A) (A) (A) (A) (A) (A) (A) (A)
                 (A) (A) (A) (A) (A) (A) (A) (A) (A) (A) (A) (A)
                 (A) (A) (A) (A) (A) (A) (A) (A) (A) (A) (A) (A)
                 (A) (A) (A) (A) (A) (A) (A) (A) (A) (A) (A) (A)
                 (A) (A) (A) (A) (A) (A) (A) (A) (A) (A) (A) (A)
                 (A) (A) (A) (A) (A) (A) (A) (A) (A) (A) (A) (A)
                 (A) (A) (A) (A) (A) (A) (A) (A) (A) (A) (A) (A)
                 (A) (A) (A) (A) (A) (A) (A) (A) (A) (A) (A) (A)
                 (A) (A) (A) (A) (A) (A) (A) (A) (A) (A) (A) (A)
                 (A) (A) (A) (A) (A) (A) (A) (A) (A) (A) (A) (A)
                 (A) (A) (A) (A) (A) (A) (A) (A) (A) (A) (A) (A)
                 (A) (A) (A) (A) (A) (A) (A) (A) (A) (A) (A) (A)
                 (A) (A) (A) (A) (A) (A) (A) (A) (A) (A) (A) (A)
                 (A) (A) (A) (A) (A) (A) (A) (A) (A) (A) (A) (A)
                 (A) (A) (A) (A) (A) (A) (A) (A) (A) (A) (A) (A)
                 (A) (A) (A) (A) (A) (A) (A) (A) (A) (A) (A) (A)
                 (A) (A) (A) (A) (A) (A) (A) (A) (A) (A) (A) (A)
                 (A) (A) (A) (A) (A) (A) (A) (A) (A) (A) (A) (A)
                 (A) (A) (A) (A) (A) (A) (A) (A) (A) (A) (A) (A)
                 (A) (A) (A) (A) (A) (A) (A) (A) (A) (A) (A) (A)
                 (A) (A) (A) (A) (A) (A) (A) (A) (A) (A) (A) (A)
                 (A) (A) (A) (A) (A) (A) (A) (A) (A) (A) (A) (A)
                 (A) (A) (A) (A) (A) (A) (A) (A) (A) (A) (A) (A)
                 (A) (A) (A) (A) (A) (A) (A) (A) (A) (A) (A) (A)
                 (A) (A) (A) (A) (A) (A) (A) (A) (A) (A) (A) (A)
                 (A) (A) (A) (A) (A) (A) (A) (A) (A) (A) (A) (A)
                 (A) (A) (A) (A) (A) (A) (A) (A) (A) (A) (A) (A)
                 (A) (A) (A) (A) (A) (A) (A) (A) (A) (A) (A) (A)
                 (A) (A) (A) (A) (A) (A) (A) (A) (A) (A) (A) (A)
                 (A) (A) (A) (A) (A) (A) (A) (A) (A) (A) (A) (A)
                 (A) (A) (A) (A) (A) (A) (A) (A) (A) (A) (A) (A)
                 (A) (A) (A)
 The electronic state is 1-A.
 Alpha  occ. eigenvalues --  -24.83084 -24.82390 -24.82330 -19.20816 -19.20591
 Alpha  occ. eigenvalues --  -19.19899 -19.19471 -19.19142 -19.18758 -19.17627
 Alpha  occ. eigenvalues --  -14.45261 -14.44812 -14.41603 -10.51139 -10.33402
 Alpha  occ. eigenvalues --  -10.32639 -10.32470 -10.31322 -10.31091 -10.29827
 Alpha  occ. eigenvalues --  -10.29788 -10.29733 -10.29565 -10.29095 -10.28809
 Alpha  occ. eigenvalues --  -10.28753 -10.28743 -10.28643 -10.28612 -10.28468
 Alpha  occ. eigenvalues --  -10.28317 -10.26101 -10.25091 -10.24715 -10.24247
 Alpha  occ. eigenvalues --  -10.24038 -10.23541 -10.23524 -10.23501 -10.23051
 Alpha  occ. eigenvalues --  -10.22947 -10.22756 -10.22367 -10.22303 -10.22229
 Alpha  occ. eigenvalues --  -10.22088 -10.22059 -10.21607 -10.21438 -10.20144
 Alpha  occ. eigenvalues --   -6.81831  -6.80283  -6.79931  -3.63066  -2.05561
 Alpha  occ. eigenvalues --   -2.05033  -2.04318  -1.35485  -1.27064  -1.26385
 Alpha  occ. eigenvalues --   -1.06742  -1.05720  -1.05002  -1.03557  -1.00600
 Alpha  occ. eigenvalues --   -0.99723  -0.98736  -0.98236  -0.98164  -0.93032
 Alpha  occ. eigenvalues --   -0.86101  -0.84380  -0.83602  -0.81763  -0.80889
 Alpha  occ. eigenvalues --   -0.79884  -0.79631  -0.79323  -0.77368  -0.75370
 Alpha  occ. eigenvalues --   -0.74346  -0.74004  -0.73742  -0.71783  -0.70907
 Alpha  occ. eigenvalues --   -0.70466  -0.69875  -0.69515  -0.68783  -0.68777
 Alpha  occ. eigenvalues --   -0.68159  -0.67052  -0.67008  -0.66569  -0.65683
 Alpha  occ. eigenvalues --   -0.64585  -0.62140  -0.61518  -0.61447  -0.61412
 Alpha  occ. eigenvalues --   -0.61058  -0.60323  -0.60182  -0.58440  -0.57501
 Alpha  occ. eigenvalues --   -0.55163  -0.54270  -0.54208  -0.54032  -0.53886
 Alpha  occ. eigenvalues --   -0.53341  -0.52916  -0.52534  -0.52341  -0.50792
 Alpha  occ. eigenvalues --   -0.49836  -0.49412  -0.49065  -0.48912  -0.48744
 Alpha  occ. eigenvalues --   -0.48223  -0.47640  -0.47587  -0.47115  -0.46946
 Alpha  occ. eigenvalues --   -0.46707  -0.46396  -0.46187  -0.45768  -0.45735
 Alpha  occ. eigenvalues --   -0.45310  -0.45210  -0.44965  -0.44800  -0.44510
 Alpha  occ. eigenvalues --   -0.44267  -0.44046  -0.43969  -0.43928  -0.43513
 Alpha  occ. eigenvalues --   -0.43155  -0.43015  -0.42746  -0.42665  -0.42422
 Alpha  occ. eigenvalues --   -0.41414  -0.41179  -0.40548  -0.40453  -0.40298
 Alpha  occ. eigenvalues --   -0.40020  -0.39827  -0.39714  -0.39689  -0.39645
 Alpha  occ. eigenvalues --   -0.39582  -0.39431  -0.39342  -0.39005  -0.38814
 Alpha  occ. eigenvalues --   -0.38676  -0.38474  -0.38367  -0.38073  -0.37863
 Alpha  occ. eigenvalues --   -0.37349  -0.37157  -0.37067  -0.36760  -0.36567
 Alpha  occ. eigenvalues --   -0.36355  -0.36171  -0.35988  -0.35914  -0.35566
 Alpha  occ. eigenvalues --   -0.35483  -0.35382  -0.35094  -0.34798  -0.34572
 Alpha  occ. eigenvalues --   -0.34141  -0.34007  -0.33755  -0.33476  -0.33402
 Alpha  occ. eigenvalues --   -0.33111  -0.32871  -0.32519  -0.32062  -0.31716
 Alpha  occ. eigenvalues --   -0.31595  -0.31271  -0.30783  -0.30711  -0.30508
 Alpha  occ. eigenvalues --   -0.29732  -0.29006  -0.28711  -0.27788  -0.27326
 Alpha  occ. eigenvalues --   -0.27127  -0.26224  -0.25719  -0.25103  -0.24943
 Alpha  occ. eigenvalues --   -0.24204  -0.22232  -0.21564  -0.20339
 Alpha virt. eigenvalues --   -0.07695  -0.04483  -0.03580   0.00384   0.01673
 Alpha virt. eigenvalues --    0.03049   0.04657   0.06085   0.06348   0.06999
 Alpha virt. eigenvalues --    0.08035   0.08502   0.08952   0.09474   0.10135
 Alpha virt. eigenvalues --    0.10188   0.10803   0.11358   0.11507   0.11567
 Alpha virt. eigenvalues --    0.12219   0.12660   0.13009   0.13046   0.13229
 Alpha virt. eigenvalues --    0.13271   0.13375   0.13622   0.13875   0.14321
 Alpha virt. eigenvalues --    0.14392   0.14941   0.14967   0.15285   0.15411
 Alpha virt. eigenvalues --    0.15517   0.15624   0.15832   0.16011   0.16300
 Alpha virt. eigenvalues --    0.16449   0.16676   0.16879   0.17020   0.17325
 Alpha virt. eigenvalues --    0.17435   0.17567   0.17638   0.17970   0.18165
 Alpha virt. eigenvalues --    0.18328   0.18404   0.18585   0.18933   0.19131
 Alpha virt. eigenvalues --    0.19244   0.19404   0.19628   0.19791   0.19828
 Alpha virt. eigenvalues --    0.19870   0.20188   0.20315   0.20411   0.20568
 Alpha virt. eigenvalues --    0.20796   0.21034   0.21268   0.21574   0.21976
 Alpha virt. eigenvalues --    0.22099   0.22250   0.22396   0.22822   0.22891
 Alpha virt. eigenvalues --    0.23045   0.23182   0.23378   0.23580   0.23848
 Alpha virt. eigenvalues --    0.23996   0.24047   0.24180   0.24424   0.24654
 Alpha virt. eigenvalues --    0.24875   0.25159   0.25218   0.25590   0.25817
 Alpha virt. eigenvalues --    0.26096   0.26627   0.27034   0.27158   0.27327
 Alpha virt. eigenvalues --    0.27726   0.27958   0.28039   0.28443   0.28635
 Alpha virt. eigenvalues --    0.29223   0.29348   0.29899   0.30209   0.30791
 Alpha virt. eigenvalues --    0.30908   0.31723   0.31891   0.32518   0.33082
 Alpha virt. eigenvalues --    0.33574   0.33778   0.34535   0.35442   0.35735
 Alpha virt. eigenvalues --    0.36213   0.36648   0.37101   0.37456   0.37994
 Alpha virt. eigenvalues --    0.38643   0.39462   0.40581   0.41291   0.41740
 Alpha virt. eigenvalues --    0.42694   0.43496   0.44138   0.46338   0.47077
 Alpha virt. eigenvalues --    0.47611   0.48378   0.48648   0.49037   0.49514
 Alpha virt. eigenvalues --    0.50100   0.50152   0.50818   0.50946   0.51300
 Alpha virt. eigenvalues --    0.51605   0.52036   0.52153   0.52401   0.52963
 Alpha virt. eigenvalues --    0.53227   0.53548   0.54029   0.54450   0.54508
 Alpha virt. eigenvalues --    0.55043   0.55398   0.55643   0.55850   0.56550
 Alpha virt. eigenvalues --    0.56757   0.57078   0.57383   0.57417   0.57673
 Alpha virt. eigenvalues --    0.57998   0.58438   0.58718   0.58899   0.59183
 Alpha virt. eigenvalues --    0.59304   0.59525   0.59810   0.60277   0.60538
 Alpha virt. eigenvalues --    0.61048   0.61178   0.61605   0.61678   0.62267
 Alpha virt. eigenvalues --    0.62600   0.62727   0.62797   0.63139   0.63612
 Alpha virt. eigenvalues --    0.63843   0.64046   0.64379   0.64710   0.64831
 Alpha virt. eigenvalues --    0.65292   0.65469   0.65754   0.65962   0.66127
 Alpha virt. eigenvalues --    0.66878   0.67086   0.67157   0.67886   0.68241
 Alpha virt. eigenvalues --    0.68379   0.68898   0.69534   0.69891   0.70260
 Alpha virt. eigenvalues --    0.70346   0.70696   0.71120   0.71295   0.71624
 Alpha virt. eigenvalues --    0.71902   0.72430   0.72516   0.72779   0.73251
 Alpha virt. eigenvalues --    0.73510   0.73782   0.74119   0.74336   0.74853
 Alpha virt. eigenvalues --    0.75254   0.75468   0.75997   0.76221   0.76306
 Alpha virt. eigenvalues --    0.76713   0.77277   0.77809   0.78239   0.78342
 Alpha virt. eigenvalues --    0.78765   0.79114   0.79553   0.79755   0.80128
 Alpha virt. eigenvalues --    0.80431   0.81149   0.81438   0.81703   0.82187
 Alpha virt. eigenvalues --    0.82312   0.82732   0.83408   0.83584   0.83888
 Alpha virt. eigenvalues --    0.83964   0.84254   0.84570   0.84753   0.85098
 Alpha virt. eigenvalues --    0.85346   0.85574   0.85776   0.85967   0.86360
 Alpha virt. eigenvalues --    0.86508   0.86747   0.86825   0.87111   0.87199
 Alpha virt. eigenvalues --    0.87342   0.87795   0.88061   0.88279   0.88378
 Alpha virt. eigenvalues --    0.88769   0.88877   0.89389   0.89598   0.89851
 Alpha virt. eigenvalues --    0.90025   0.90350   0.90650   0.90791   0.90934
 Alpha virt. eigenvalues --    0.91211   0.91406   0.91543   0.91694   0.92126
 Alpha virt. eigenvalues --    0.92254   0.92828   0.93048   0.93582   0.93859
 Alpha virt. eigenvalues --    0.93887   0.94063   0.94257   0.94315   0.94950
 Alpha virt. eigenvalues --    0.95171   0.95458   0.95861   0.96239   0.96571
 Alpha virt. eigenvalues --    0.96788   0.96877   0.97344   0.97796   0.97974
 Alpha virt. eigenvalues --    0.98803   0.99120   0.99347   1.00098   1.00347
 Alpha virt. eigenvalues --    1.00885   1.01083   1.01432   1.01588   1.01954
 Alpha virt. eigenvalues --    1.02748   1.03455   1.04102   1.04339   1.05048
 Alpha virt. eigenvalues --    1.05338   1.05900   1.06305   1.07087   1.07757
 Alpha virt. eigenvalues --    1.08478   1.08668   1.09513   1.09768   1.09838
 Alpha virt. eigenvalues --    1.10777   1.11291   1.11551   1.12438   1.13053
 Alpha virt. eigenvalues --    1.13273   1.14213   1.14466   1.14529   1.15040
 Alpha virt. eigenvalues --    1.15616   1.16137   1.17188   1.17818   1.17995
 Alpha virt. eigenvalues --    1.18538   1.18998   1.19697   1.20189   1.20718
 Alpha virt. eigenvalues --    1.21380   1.21656   1.22267   1.22808   1.23255
 Alpha virt. eigenvalues --    1.23965   1.24363   1.25237   1.25500   1.26156
 Alpha virt. eigenvalues --    1.26605   1.27013   1.27313   1.28211   1.29155
 Alpha virt. eigenvalues --    1.29612   1.29989   1.30543   1.31331   1.31857
 Alpha virt. eigenvalues --    1.32441   1.33400   1.33942   1.34621   1.34911
 Alpha virt. eigenvalues --    1.35576   1.35727   1.35968   1.37068   1.37412
 Alpha virt. eigenvalues --    1.37572   1.38227   1.38774   1.38930   1.39453
 Alpha virt. eigenvalues --    1.39726   1.40667   1.41224   1.41445   1.41810
 Alpha virt. eigenvalues --    1.42239   1.42663   1.43036   1.43805   1.44393
 Alpha virt. eigenvalues --    1.44559   1.44848   1.45295   1.45889   1.46014
 Alpha virt. eigenvalues --    1.46348   1.46851   1.47370   1.47809   1.48061
 Alpha virt. eigenvalues --    1.48868   1.49279   1.49983   1.50436   1.51104
 Alpha virt. eigenvalues --    1.51612   1.52144   1.53618   1.54205   1.55777
 Alpha virt. eigenvalues --    1.56061   1.56610   1.57613   1.58575   1.59803
 Alpha virt. eigenvalues --    1.60339   1.60817   1.62455   1.63351   1.63855
 Alpha virt. eigenvalues --    1.64087   1.64821   1.65379   1.66430   1.66980
 Alpha virt. eigenvalues --    1.67346   1.67836   1.68306   1.68555   1.68726
 Alpha virt. eigenvalues --    1.69793   1.70112   1.70489   1.70872   1.71511
 Alpha virt. eigenvalues --    1.72467   1.72789   1.73641   1.74310   1.74718
 Alpha virt. eigenvalues --    1.75710   1.76357   1.77201   1.77412   1.77775
 Alpha virt. eigenvalues --    1.78131   1.78195   1.78519   1.79041   1.79391
 Alpha virt. eigenvalues --    1.80084   1.80606   1.81597   1.81673   1.82013
 Alpha virt. eigenvalues --    1.82820   1.83077   1.83275   1.83860   1.84672
 Alpha virt. eigenvalues --    1.84865   1.85124   1.85310   1.85926   1.85961
 Alpha virt. eigenvalues --    1.86745   1.87044   1.87656   1.88156   1.88382
 Alpha virt. eigenvalues --    1.89276   1.89811   1.89931   1.90494   1.90751
 Alpha virt. eigenvalues --    1.90910   1.91360   1.91689   1.91789   1.91979
 Alpha virt. eigenvalues --    1.92368   1.92589   1.92772   1.93037   1.93196
 Alpha virt. eigenvalues --    1.93716   1.93849   1.94319   1.94624   1.94956
 Alpha virt. eigenvalues --    1.95292   1.95553   1.96156   1.96748   1.97068
 Alpha virt. eigenvalues --    1.97586   1.97860   1.98144   1.98986   1.99423
 Alpha virt. eigenvalues --    1.99973   2.00721   2.01385   2.01804   2.02302
 Alpha virt. eigenvalues --    2.02805   2.03032   2.03274   2.03491   2.04277
 Alpha virt. eigenvalues --    2.04721   2.04792   2.05545   2.06150   2.06571
 Alpha virt. eigenvalues --    2.06835   2.07133   2.07436   2.07853   2.08166
 Alpha virt. eigenvalues --    2.08587   2.08740   2.09285   2.09602   2.10147
 Alpha virt. eigenvalues --    2.10468   2.10634   2.11339   2.11583   2.12017
 Alpha virt. eigenvalues --    2.12350   2.12811   2.13320   2.13778   2.13957
 Alpha virt. eigenvalues --    2.14571   2.14653   2.15182   2.15355   2.15648
 Alpha virt. eigenvalues --    2.15747   2.16271   2.17085   2.17367   2.17691
 Alpha virt. eigenvalues --    2.17927   2.18527   2.19021   2.19165   2.19519
 Alpha virt. eigenvalues --    2.19593   2.20359   2.20561   2.21051   2.21146
 Alpha virt. eigenvalues --    2.21567   2.21954   2.22513   2.22784   2.23658
 Alpha virt. eigenvalues --    2.23968   2.24170   2.24717   2.24876   2.25231
 Alpha virt. eigenvalues --    2.25511   2.25793   2.26215   2.26452   2.27018
 Alpha virt. eigenvalues --    2.27493   2.27881   2.28226   2.28279   2.28801
 Alpha virt. eigenvalues --    2.29857   2.30085   2.31071   2.31857   2.32350
 Alpha virt. eigenvalues --    2.32913   2.33243   2.33578   2.34008   2.34407
 Alpha virt. eigenvalues --    2.34759   2.35477   2.35903   2.36337   2.37264
 Alpha virt. eigenvalues --    2.37827   2.38757   2.39060   2.40271   2.40866
 Alpha virt. eigenvalues --    2.41653   2.42410   2.44672   2.45234   2.45632
 Alpha virt. eigenvalues --    2.46346   2.46837   2.47714   2.48706   2.48924
 Alpha virt. eigenvalues --    2.49507   2.49837   2.50573   2.50876   2.51276
 Alpha virt. eigenvalues --    2.52313   2.53251   2.54271   2.54486   2.57563
 Alpha virt. eigenvalues --    2.58146   2.59510   2.59995   2.60276   2.61336
 Alpha virt. eigenvalues --    2.61860   2.62504   2.64155   2.64359   2.64715
 Alpha virt. eigenvalues --    2.65660   2.66158   2.66743   2.67313   2.68155
 Alpha virt. eigenvalues --    2.68640   2.70693   2.72982   2.75727   2.76541
 Alpha virt. eigenvalues --    2.77209   2.77581   2.77916   2.78227   2.78466
 Alpha virt. eigenvalues --    2.79302   2.79477   2.80502   2.80732   2.80938
 Alpha virt. eigenvalues --    2.81504   2.82279   2.82915   2.82952   2.83785
 Alpha virt. eigenvalues --    2.84090   2.85963   2.87026   2.88198   2.90090
 Alpha virt. eigenvalues --    2.91375   2.91652   2.93566   2.94854   2.95536
 Alpha virt. eigenvalues --    2.96277   2.97078   2.97870   3.00544   3.03685
 Alpha virt. eigenvalues --    3.04642   3.05953   3.06316   3.07654   3.08822
 Alpha virt. eigenvalues --    3.09968   3.11206   3.12984   3.14389   3.16994
 Alpha virt. eigenvalues --    3.22305   3.25803   3.31994   3.44866  12.81666
          Condensed to atoms (all electrons):
 Mulliken charges:
               1
     1  C    0.366130
     2  C    0.086103
     3  C   -0.081565
     4  C   -0.150224
     5  C   -0.188109
     6  C    0.338392
     7  C    0.027452
     8  C   -0.162080
     9  C   -0.142875
    10  C   -0.175182
    11  H    0.219022
    12  H    0.199207
    13  H    0.178778
    14  H    0.207414
    15  H    0.184942
    16  H    0.173017
    17  N   -0.531453
    18  N   -0.469186
    19  Ir  -0.350632
    20  O   -0.533626
    21  O   -0.516075
    22  O   -0.537855
    23  B    0.464335
    24  B    0.453279
    25  B    0.684095
    26  O   -0.528938
    27  O   -0.511745
    28  C    0.290656
    29  C    0.296211
    30  C    0.301131
    31  C    0.304720
    32  C    0.300714
    33  C    0.289214
    34  O   -0.506303
    35  C   -0.520913
    36  H    0.155590
    37  H    0.192059
    38  H    0.148934
    39  C   -0.505820
    40  H    0.168685
    41  H    0.150244
    42  H    0.164107
    43  C   -0.517850
    44  H    0.168737
    45  H    0.171125
    46  H    0.150828
    47  C   -0.488068
    48  H    0.140833
    49  H    0.174875
    50  H    0.156402
    51  C   -0.505753
    52  H    0.152901
    53  H    0.161220
    54  H    0.163773
    55  C   -0.506862
    56  H    0.172145
    57  H    0.176350
    58  H    0.150265
    59  C   -0.502215
    60  H    0.183083
    61  H    0.153784
    62  H    0.149034
    63  C   -0.510339
    64  H    0.176071
    65  H    0.149564
    66  H    0.170229
    67  C   -0.523545
    68  H    0.133226
    69  H    0.164685
    70  H    0.216178
    71  C   -0.505798
    72  H    0.148179
    73  H    0.153140
    74  H    0.168586
    75  C   -0.508615
    76  H    0.174190
    77  H    0.154941
    78  H    0.152848
    79  C   -0.510317
    80  H    0.163759
    81  H    0.149387
    82  H    0.167589
    83  H    0.189104
    84  C    0.602010
    85  O   -0.534039
    86  C   -0.416843
    87  H    0.149474
    88  H    0.176727
    89  C   -0.386236
    90  H    0.234862
    91  H    0.193418
    92  N   -0.370983
    93  C   -0.353251
    94  H    0.175630
    95  H    0.164353
    96  H    0.205842
    97  C   -0.255010
    98  H    0.166494
    99  H    0.131731
   100  C   -0.275222
   101  H    0.124812
   102  H    0.141594
   103  C   -0.275685
   104  H    0.152708
   105  H    0.132111
   106  C   -0.498004
   107  H    0.164610
   108  H    0.155800
   109  H    0.162240
   110  C    0.971651
   111  F   -0.308101
   112  F   -0.308310
   113  F   -0.318390
   114  H    0.184489
 Sum of Mulliken charges =  -0.00000
 Mulliken charges with hydrogens summed into heavy atoms:
               1
     1  C    0.366130
     2  C    0.305125
     3  C   -0.081565
     4  C    0.048983
     5  C   -0.009332
     6  C    0.338392
     7  C    0.234866
     8  C    0.022409
     9  C    0.042067
    10  C   -0.002165
    17  N   -0.531453
    18  N   -0.469186
    19  Ir  -0.161528
    20  O   -0.533626
    21  O   -0.516075
    22  O   -0.537855
    23  B    0.464335
    24  B    0.453279
    25  B    0.684095
    26  O   -0.528938
    27  O   -0.511745
    28  C    0.290656
    29  C    0.296211
    30  C    0.301131
    31  C    0.304720
    32  C    0.300714
    33  C    0.289214
    34  O   -0.506303
    35  C   -0.024331
    39  C   -0.022784
    43  C   -0.027159
    47  C   -0.015957
    51  C   -0.027858
    55  C   -0.008103
    59  C   -0.016314
    63  C   -0.014475
    67  C   -0.009457
    71  C   -0.035893
    75  C   -0.026636
    79  C   -0.029582
    84  C    0.602010
    85  O   -0.534039
    86  C   -0.090642
    89  C    0.042045
    92  N   -0.370983
    93  C    0.192574
    97  C    0.043214
   100  C   -0.008816
   103  C    0.009134
   106  C   -0.015354
   110  C    0.971651
   111  F   -0.308101
   112  F   -0.308310
   113  F   -0.318390
 APT charges:
               1
     1  C    0.267899
     2  C    0.106278
     3  C   -0.235497
     4  C    0.135912
     5  C   -0.194810
     6  C    0.251023
     7  C    0.076002
     8  C   -0.100189
     9  C    0.123462
    10  C   -0.175718
    11  H    0.109379
    12  H    0.064926
    13  H    0.045690
    14  H    0.056850
    15  H    0.039309
    16  H    0.047734
    17  N   -0.171094
    18  N   -0.255083
    19  Ir  -0.699494
    20  O   -0.953863
    21  O   -0.950748
    22  O   -1.074085
    23  B    1.229961
    24  B    1.247213
    25  B    1.602031
    26  O   -1.044591
    27  O   -0.973194
    28  C    0.480693
    29  C    0.489968
    30  C    0.535168
    31  C    0.544203
    32  C    0.469664
    33  C    0.474388
    34  O   -0.949049
    35  C   -0.035604
    36  H   -0.011118
    37  H    0.036393
    38  H   -0.022840
    39  C   -0.003549
    40  H    0.005770
    41  H   -0.017876
    42  H   -0.003006
    43  C   -0.008141
    44  H    0.000029
    45  H    0.003068
    46  H   -0.019389
    47  C   -0.029120
    48  H   -0.028612
    49  H    0.007285
    50  H    0.006175
    51  C   -0.009883
    52  H   -0.014328
    53  H   -0.008237
    54  H   -0.001708
    55  C   -0.022317
    56  H   -0.002370
    57  H   -0.000224
    58  H   -0.022907
    59  C   -0.019042
    60  H    0.008285
    61  H   -0.014751
    62  H   -0.021655
    63  C   -0.009650
    64  H    0.004847
    65  H   -0.017490
    66  H    0.008270
    67  C   -0.060642
    68  H   -0.032574
    69  H   -0.004149
    70  H    0.069052
    71  C   -0.009830
    72  H   -0.020730
    73  H   -0.009028
    74  H   -0.001055
    75  C   -0.063754
    76  H    0.007896
    77  H   -0.003579
    78  H   -0.028628
    79  C   -0.012955
    80  H    0.001282
    81  H   -0.023361
    82  H    0.010800
    83  H   -0.012291
    84  C    0.915254
    85  O   -0.729135
    86  C   -0.019133
    87  H   -0.019011
    88  H   -0.021539
    89  C   -0.008530
    90  H    0.062117
    91  H   -0.060570
    92  N   -0.730802
    93  C    0.267738
    94  H   -0.001450
    95  H   -0.005944
    96  H    0.001925
    97  C    0.098534
    98  H   -0.019343
    99  H   -0.027048
   100  C    0.102825
   101  H   -0.044004
   102  H   -0.052239
   103  C    0.123564
   104  H   -0.046147
   105  H   -0.060294
   106  C    0.064416
   107  H   -0.036875
   108  H   -0.020259
   109  H   -0.020989
   110  C    1.780351
   111  F   -0.545402
   112  F   -0.570675
   113  F   -0.584444
   114  H    0.044010
 Sum of APT charges =  -0.00000
 APT charges with hydrogens summed into heavy atoms:
               1
     1  C    0.267899
     2  C    0.215657
     3  C   -0.235497
     4  C    0.200838
     5  C   -0.149119
     6  C    0.251023
     7  C    0.132852
     8  C   -0.056179
     9  C    0.162771
    10  C   -0.127984
    17  N   -0.171094
    18  N   -0.255083
    19  Ir  -0.711785
    20  O   -0.953863
    21  O   -0.950748
    22  O   -1.074085
    23  B    1.229961
    24  B    1.247213
    25  B    1.602031
    26  O   -1.044591
    27  O   -0.973194
    28  C    0.480693
    29  C    0.489968
    30  C    0.535168
    31  C    0.544203
    32  C    0.469664
    33  C    0.474388
    34  O   -0.949049
    35  C   -0.033169
    39  C   -0.018660
    43  C   -0.024433
    47  C   -0.044272
    51  C   -0.034156
    55  C   -0.047817
    59  C   -0.047162
    63  C   -0.014023
    67  C   -0.028313
    71  C   -0.040642
    75  C   -0.088065
    79  C   -0.024234
    84  C    0.915254
    85  O   -0.729135
    86  C   -0.059683
    89  C   -0.006983
    92  N   -0.730802
    93  C    0.262269
    97  C    0.052143
   100  C    0.006583
   103  C    0.017124
   106  C   -0.013708
   110  C    1.780351
   111  F   -0.545402
   112  F   -0.570675
   113  F   -0.584444
 Electronic spatial extent (au):  <R**2>=          33354.6719
 Charge=              0.0000 electrons
 Dipole moment (field-independent basis, Debye):
    X=              5.0416    Y=             -3.4887    Z=             -0.2393  Tot=              6.1356
 Quadrupole moment (field-independent basis, Debye-Ang):
   XX=           -312.2739   YY=           -318.4810   ZZ=           -337.4925
   XY=            -11.1428   XZ=             -2.4746   YZ=             -4.8483
 Traceless Quadrupole moment (field-independent basis, Debye-Ang):
   XX=             10.4753   YY=              4.2681   ZZ=            -14.7434
   XY=            -11.1428   XZ=             -2.4746   YZ=             -4.8483
 Octapole moment (field-independent basis, Debye-Ang**2):
  XXX=            -27.9357  YYY=             12.5128  ZZZ=             21.6920  XYY=             -3.9523
  XXY=            -31.1086  XXZ=            -16.1428  XZZ=             39.0939  YZZ=            -41.0428
  YYZ=            -20.5263  XYZ=            -25.3773
 Hexadecapole moment (field-independent basis, Debye-Ang**3):
 XXXX=         -21684.6716 YYYY=         -12240.0553 ZZZZ=          -9194.5551 XXXY=           -113.6197
 XXXZ=           -152.2582 YYYX=            -41.8300 YYYZ=             20.9553 ZZZX=             20.5235
 ZZZY=            -89.1518 XXYY=          -5564.1660 XXZZ=          -5224.8996 YYZZ=          -3568.4366
 XXYZ=            -69.5167 YYXZ=             -8.4702 ZZXY=            -91.9338
 N-N= 9.298750005443D+03 E-N=-2.467616886041D+04  KE= 2.527322682866D+03
  Exact polarizability:     566.251     -44.159     476.767      -7.754     -13.976     473.741
 Approx polarizability:     750.214     -79.505     672.478     -21.171     -37.719     765.422
   1 Symmetry operations used in ECPInt.
 ECPInt:  NShTT=   57970 NPrTT=  353525 LenC2=   42622 LenP2D=  130807.
 LDataN:  DoStor=T MaxTD1= 8 Len=  415
 Calling FoFJK, ICntrl=    100127 FMM=F ISym2X=0 I1Cent= 0 IOpClX= 0 NMat=1 NMatS=1 NMatT=0.
 Defaulting to unpruned grid for atomic number  77.
 Defaulting to unpruned grid for atomic number  77.
 Defaulting to unpruned grid for atomic number  77.
 Defaulting to unpruned grid for atomic number  77.
 Defaulting to unpruned grid for atomic number  77.
 Defaulting to unpruned grid for atomic number  77.
 Defaulting to unpruned grid for atomic number  77.
 Defaulting to unpruned grid for atomic number  77.
 Defaulting to unpruned grid for atomic number  77.
 Defaulting to unpruned grid for atomic number  77.
 Defaulting to unpruned grid for atomic number  77.
 Defaulting to unpruned grid for atomic number  77.
 Defaulting to unpruned grid for atomic number  77.
 Defaulting to unpruned grid for atomic number  77.
 Defaulting to unpruned grid for atomic number  77.
 Defaulting to unpruned grid for atomic number  77.
 Full mass-weighted force constant matrix:
 Low frequencies ---  -65.4922   -6.3210   -4.5830   -0.0006   -0.0004    0.0006
 Low frequencies ---    6.6487   14.1786   18.1783
 ******    1 imaginary frequencies (negative Signs) ****** 
 Diagonal vibrational polarizability:
      101.2849307     112.0058523      78.2847389
 Harmonic frequencies (cm**-1), IR intensities (KM/Mole), Raman scattering
 activities (A**4/AMU), depolarization ratios for plane and unpolarized
 incident light, reduced masses (AMU), force constants (mDyne/A),
 and normal coordinates:
                      1                      2                      3
                      A                      A                      A
 Frequencies --    -65.4672                14.0479                18.1574
 Red. masses --      6.2790                 4.4345                 5.0672
 Frc consts  --      0.0159                 0.0005                 0.0010
 IR Inten    --      2.3418                 0.1949                 0.0224
  Atom AN      X      Y      Z        X      Y      Z        X      Y      Z
     1   6    -0.03   0.00  -0.00     0.02  -0.01  -0.04     0.01  -0.02  -0.03
     2   6    -0.02   0.04   0.00     0.03  -0.00  -0.01     0.01  -0.04  -0.01
     3   6    -0.02   0.01  -0.00     0.05  -0.01  -0.01     0.00  -0.08  -0.02
     4   6    -0.03  -0.01  -0.01     0.05  -0.01  -0.03     0.00  -0.09  -0.03
     5   6    -0.04  -0.02  -0.01     0.03  -0.02  -0.04     0.00  -0.06  -0.04
     6   6    -0.04  -0.00  -0.00     0.00  -0.01  -0.05     0.01   0.00  -0.03
     7   6    -0.05  -0.02  -0.01    -0.03   0.00  -0.05    -0.01   0.02  -0.03
     8   6    -0.02   0.03   0.01    -0.02   0.01  -0.07    -0.00   0.04  -0.04
     9   6    -0.00   0.05   0.01    -0.01   0.01  -0.08     0.01   0.03  -0.05
    10   6    -0.01   0.04   0.01     0.01  -0.00  -0.07     0.02   0.02  -0.04
    11   1    -0.00   0.06   0.01     0.03   0.00   0.01     0.01  -0.03   0.00
    12   1    -0.04  -0.03  -0.01     0.06  -0.02  -0.03    -0.00  -0.12  -0.04
    13   1    -0.05  -0.04  -0.01     0.03  -0.02  -0.06     0.00  -0.07  -0.05
    14   1    -0.07  -0.04  -0.02    -0.04   0.00  -0.05    -0.03   0.03  -0.03
    15   1     0.02   0.08   0.02    -0.00   0.01  -0.09     0.02   0.05  -0.06
    16   1     0.01   0.06   0.02     0.02  -0.00  -0.07     0.03   0.01  -0.05
    17   7    -0.02   0.03   0.00     0.01  -0.01  -0.02     0.01  -0.01  -0.01
    18   7    -0.06  -0.04  -0.01    -0.01  -0.01  -0.04    -0.01   0.00  -0.03
    19  77     0.01   0.07  -0.00    -0.01   0.00  -0.01    -0.01   0.01  -0.01
    20   8     0.02  -0.01  -0.02     0.00   0.01   0.03    -0.02   0.02  -0.02
    21   8    -0.02  -0.01   0.02    -0.01  -0.01  -0.03    -0.07  -0.00   0.11
    22   8    -0.09  -0.08  -0.01    -0.02  -0.00  -0.04     0.01   0.03  -0.01
    23   5    -0.01  -0.00   0.02    -0.02  -0.00  -0.01    -0.02  -0.01   0.04
    24   5     0.02  -0.04  -0.03    -0.01  -0.01   0.01    -0.01   0.03  -0.01
    25   5    -0.20  -0.22  -0.08    -0.02  -0.03  -0.03     0.01   0.02  -0.01
    26   8    -0.14  -0.16  -0.04    -0.00  -0.03  -0.03     0.02   0.02  -0.01
    27   8     0.03  -0.04  -0.04    -0.02  -0.02   0.02    -0.00   0.04  -0.01
    28   6     0.02  -0.02  -0.02    -0.02  -0.00   0.05    -0.01   0.04  -0.02
    29   6     0.02  -0.01  -0.02     0.00   0.02   0.05    -0.02   0.02  -0.02
    30   6    -0.01  -0.02   0.03     0.00   0.00  -0.05     0.02   0.03  -0.01
    31   6    -0.06  -0.03   0.01     0.00  -0.02  -0.05     0.02   0.03  -0.01
    32   6    -0.01  -0.00   0.01    -0.02  -0.00  -0.03    -0.06  -0.01   0.13
    33   6     0.01   0.00   0.01    -0.05   0.00  -0.02     0.01  -0.05   0.09
    34   8     0.01   0.00   0.01    -0.05  -0.00   0.00     0.01  -0.03   0.03
    35   6     0.01  -0.01  -0.02     0.02   0.04   0.04    -0.02   0.01  -0.01
    36   1     0.01  -0.01  -0.02     0.03   0.05   0.03    -0.02  -0.00  -0.01
    37   1     0.02  -0.01  -0.02     0.03   0.03   0.02    -0.01   0.01   0.00
    38   1     0.01  -0.01  -0.03     0.02   0.05   0.05    -0.02   0.01  -0.01
    39   6     0.02  -0.01  -0.01    -0.00   0.03   0.08    -0.02   0.01  -0.05
    40   1     0.02  -0.00  -0.01     0.01   0.05   0.07    -0.03  -0.00  -0.04
    41   1     0.02  -0.01  -0.01    -0.00   0.05   0.09    -0.02   0.01  -0.06
    42   1     0.02  -0.01  -0.01    -0.02   0.02   0.08    -0.02   0.02  -0.05
    43   6     0.03  -0.01  -0.02    -0.02   0.00   0.05    -0.00   0.06  -0.01
    44   1     0.06   0.01  -0.05    -0.00   0.01   0.04    -0.00   0.05  -0.00
    45   1     0.01  -0.04  -0.02    -0.03  -0.01   0.05    -0.00   0.07  -0.01
    46   1     0.02   0.02   0.01    -0.02   0.02   0.07    -0.01   0.06  -0.03
    47   6    -0.00  -0.03  -0.01    -0.04  -0.01   0.07    -0.02   0.05  -0.04
    48   1    -0.01  -0.02   0.00    -0.04  -0.01   0.09    -0.02   0.06  -0.05
    49   1    -0.01  -0.04  -0.01    -0.05  -0.03   0.06    -0.02   0.07  -0.04
    50   1    -0.01  -0.04  -0.01    -0.04  -0.02   0.07    -0.02   0.05  -0.05
    51   6     0.00   0.00   0.02    -0.02   0.00  -0.06    -0.07  -0.03   0.21
    52   1     0.01   0.01   0.01    -0.03   0.00  -0.06    -0.05  -0.05   0.23
    53   1     0.00   0.01   0.03    -0.03   0.01  -0.08    -0.04  -0.05   0.23
    54   1    -0.01   0.00   0.02     0.01  -0.00  -0.07    -0.11  -0.01   0.23
    55   6    -0.01  -0.02  -0.00     0.00  -0.01  -0.01    -0.10   0.03   0.11
    56   1    -0.02  -0.02   0.00     0.03  -0.02  -0.02    -0.14   0.06   0.13
    57   1    -0.01  -0.02  -0.01     0.01  -0.01   0.01    -0.10   0.03   0.05
    58   1    -0.00  -0.01  -0.01    -0.00  -0.01  -0.01    -0.09   0.02   0.13
    59   6     0.02  -0.00   0.02    -0.07   0.01  -0.04     0.05  -0.11   0.13
    60   1     0.02   0.00   0.02    -0.09   0.01  -0.03     0.09  -0.13   0.09
    61   1     0.01  -0.00   0.03    -0.07   0.01  -0.06     0.04  -0.10   0.14
    62   1     0.02  -0.00   0.02    -0.08   0.01  -0.06     0.05  -0.13   0.18
    63   6     0.01   0.00  -0.00    -0.06   0.00   0.00     0.02  -0.06   0.08
    64   1     0.02   0.01  -0.00    -0.08   0.00   0.01     0.06  -0.08   0.05
    65   1     0.01   0.01  -0.01    -0.06   0.00  -0.01     0.01  -0.07   0.13
    66   1     0.01   0.00  -0.01    -0.05  -0.00   0.02    -0.01  -0.02   0.05
    67   6    -0.16   0.07   0.03    -0.00  -0.03  -0.03     0.02   0.03  -0.01
    68   1    -0.12   0.14   0.08    -0.00  -0.02  -0.04     0.03   0.04  -0.02
    69   1    -0.21   0.05   0.01    -0.00  -0.05  -0.03     0.02   0.03  -0.01
    70   1    -0.22   0.07   0.01    -0.01  -0.02  -0.02     0.01   0.03  -0.01
    71   6     0.04  -0.05   0.03     0.01  -0.03  -0.06     0.03   0.02  -0.01
    72   1     0.09   0.02   0.05     0.02  -0.02  -0.07     0.04   0.03  -0.02
    73   1     0.09  -0.12   0.02     0.02  -0.03  -0.07     0.04   0.02  -0.01
    74   1     0.01  -0.06   0.02     0.01  -0.05  -0.06     0.04   0.02  -0.01
    75   6     0.08  -0.07   0.03     0.02   0.00  -0.06     0.03   0.03  -0.01
    76   1     0.11  -0.08   0.03     0.02   0.01  -0.06     0.02   0.03  -0.01
    77   1     0.08  -0.13   0.00     0.02  -0.01  -0.06     0.03   0.02  -0.01
    78   1     0.13  -0.04   0.06     0.03   0.00  -0.07     0.04   0.03  -0.02
    79   6    -0.01   0.08   0.07     0.00   0.02  -0.05     0.02   0.04  -0.02
    80   1     0.03   0.09   0.08     0.00   0.04  -0.05     0.02   0.04  -0.02
    81   1     0.03   0.12   0.09     0.01   0.02  -0.06     0.03   0.04  -0.02
    82   1    -0.09   0.11   0.09    -0.01   0.02  -0.03     0.02   0.04  -0.01
    83   1     0.10   0.02  -0.01    -0.02  -0.01  -0.01    -0.02  -0.00  -0.01
    84   6     0.07  -0.05   0.01    -0.01  -0.02   0.03     0.01   0.01  -0.03
    85   8     0.09  -0.06   0.01    -0.02  -0.03   0.02     0.01  -0.01  -0.03
    86   6     0.06  -0.01   0.00     0.01  -0.01   0.06     0.01   0.02  -0.03
    87   1     0.07   0.00   0.00     0.04  -0.01   0.06     0.02   0.02  -0.03
    88   1     0.04   0.00   0.01     0.00  -0.01   0.06    -0.00   0.03  -0.03
    89   6     0.06  -0.17  -0.00    -0.00  -0.03  -0.01     0.01   0.00  -0.01
    90   1     0.05   0.06   0.09    -0.02   0.00   0.00     0.02  -0.01  -0.02
    91   1    -0.09  -0.19  -0.26    -0.02  -0.02  -0.05     0.02   0.01   0.00
    92   7     0.06  -0.07   0.03     0.01  -0.03   0.01     0.01   0.00  -0.02
    93   6     0.02  -0.11   0.01     0.02  -0.03   0.01    -0.01   0.03  -0.01
    94   1    -0.06  -0.17  -0.02     0.04  -0.01   0.01     0.06   0.08   0.03
    95   1    -0.01  -0.02   0.01     0.02  -0.06   0.00     0.01  -0.05  -0.05
    96   1     0.09  -0.16   0.03    -0.00  -0.02   0.01    -0.09   0.07  -0.01
    97   6     0.08   0.00  -0.01    -0.00   0.00   0.09     0.02   0.04  -0.02
    98   1     0.08   0.00  -0.01    -0.07  -0.02   0.11    -0.00   0.03  -0.02
    99   1     0.08   0.00  -0.00     0.01  -0.01   0.04     0.04   0.03  -0.04
   100   6     0.07   0.00  -0.01     0.04   0.06   0.15     0.03   0.08  -0.01
   101   1     0.07   0.01  -0.01     0.10   0.11   0.12     0.05   0.10  -0.02
   102   1     0.07   0.00  -0.01     0.03   0.07   0.23     0.02   0.09   0.02
   103   6     0.07  -0.00  -0.02     0.00   0.03   0.17     0.03   0.08  -0.01
   104   1     0.07  -0.01  -0.01    -0.07  -0.03   0.21     0.01   0.05   0.00
   105   1     0.06  -0.00  -0.02     0.01   0.02   0.08     0.05   0.06  -0.05
   106   6     0.07  -0.01  -0.02     0.05   0.10   0.26     0.05   0.13   0.01
   107   1     0.06  -0.01  -0.02     0.03   0.08   0.27     0.05   0.12   0.00
   108   1     0.06  -0.00  -0.02     0.13   0.16   0.22     0.07   0.16  -0.01
   109   1     0.07  -0.01  -0.01     0.05   0.12   0.35     0.03   0.14   0.05
   110   6    -0.02   0.01   0.00     0.07   0.00   0.01     0.00  -0.10  -0.01
   111   9    -0.02   0.01   0.01     0.09   0.01   0.03     0.02  -0.10   0.04
   112   9    -0.02   0.01   0.00     0.05   0.03   0.02    -0.01  -0.08  -0.05
   113   9    -0.02   0.00   0.00     0.08  -0.02  -0.00    -0.01  -0.16  -0.03
   114   1    -0.01   0.04   0.01    -0.03   0.01  -0.08    -0.01   0.05  -0.05
[...]
 871,-0.00043878,0.00057118,-0.00036584,-0.00008676,-0.00062533,-0.0000
 3240,-0.00053209,-0.00022144,-0.00027401,0.00049258,-0.00017776,0.0001
 0087,0.00067979,0.00044717,0.00030288,-0.00017098,0.00077736,0.0003165
 9,-0.00084693,0.00017926,-0.00026042,0.00052568,-0.00033970,-0.0004541
 6,0.00005219,-0.00034928,0.00018204,0.00003841,0.00010516,0.00030467,0
 .00016186,0.00008588,0.00016190,-0.00035880,0.00012186,0.00025327,-0.0
 0014258,0.00007063,0.00009774,0.00032553,0.00012634,-0.00008348,0.0002
 2127,0.00008621,-0.00008722,-0.00045072,-0.00032607,0.00007787,-0.0000
 8153,0.00043923,0.00007508,0.00000268,-0.00028055,0.00000797,-0.000044
 76,-0.00000107,-0.00012907,-0.00000746,-0.00013587,-0.00000412,-0.0000
 6411,0.00016626,0.00011752,0.00013373,-0.00001481,-0.00007941,0.000003
 10,-0.00006210,0.00000402,-0.00003515,-0.00005893,0.00000303,0.0000051
 2,-0.00006206,0.00001795,-0.00002263,0.00002469,-0.00000916,0.00000818
 ,-0.00005006,-0.00001738,-0.00001073,0.00002201,-0.00000910,0.00001487
 ,-0.00006697,-0.00002884,-0.00002410,0.00001332,0.00000758,-0.00000526
 ,-0.00003967,0.00000091,0.00002281,0.00001715,0.00001607,-0.00001815,-
 0.00003197,-0.00001069,-0.00003894,-0.00002615,-0.00000542,0.00001155,
 0.00002331,0.00001018,0.00002500,0.00001758,-0.00004692,-0.00001851,-0
 .00001054,0.00000688,0.00005078,0.00000091,0.00003440,0.00000988,0.000
 02670,-0.00001433,-0.00005078,-0.00003311,0.00003927,-0.00000640,0.000
 00424,-0.00001165,0.00001357,0.00000208,-0.00002335,0.00000005,0.00000
 780,0.00001563,-0.00003598,-0.00001676,-0.00000715,-0.00001348,-0.0000
 1127,-0.00001129,0.00001363,-0.00000735,0.00001220,-0.00003284,-0.0000
 0915,-0.00000394,0.00001778,0.00000736,-0.00002450,0.00001067,-0.00000
 494,-0.00003932,0.00001955,-0.00000547,0.00001842,-0.00000687,-0.00000
 681,0.00002708,-0.00002616,0.00002717,-0.00001846,0.00001611,-0.000019
 31,-0.00002582,0.00002480,-0.00000369,0.00001177,-0.00000445,0.0000109
 9,0.00001410,-0.00000483,-0.00001731,-0.00000798,0.00007457,0.00000872
 ,0.00000764,-0.00004858,-0.00000432,-0.00000065,-0.00002811,-0.0000006
 7,-0.00002577,0.00004961,-0.00002183,-0.00003211,0.00003011,0.00000711
 ,0.00001500,-0.00004378,0.00000072,-0.00001416,0.00004232,-0.00003328,
 0.00001839,-0.00001016,0.00002582,-0.00000804,0.00016529,-0.00040250,-
 0.00028513,-0.00008626,0.00002212,0.00026835,0.00028359,0.00000027,0.0
 0003785,-0.00002806,-0.00006570,0.00001291,-0.00002422,0.00002787,0.00
 001896,0.00003008,-0.00000419,-0.00015762,0.00000242,0.00015452,-0.000
 06638,-0.00010720,-0.00003958,0.00005422,0.00005901,0.00001227,0.00019
 982,0.00013943,-0.00005344,0.00002044,-0.00010108,0.00007369,-0.000029
 29,0.00001112,0.00000740,0.00004449,0.00001145,-0.00001858,-0.00001820
 ,-0.00000290,0.00001745,-0.00003499,-0.00005943,-0.00004528,0.00001018
 ,0.00002348,0.00002148,-0.00002077,0.00001660,-0.00002054,-0.00001657,
 -0.00001415,0.00001156,-0.00000791,-0.00000825,0.00003064,0.00002384,0
 .00002560,-0.00000595,-0.00001953,-0.00002226,-0.00004255,0.00000926,0
 .00001533,0.00002178,-0.00000223,0.00002073,-0.00001167,0.00000054,-0.
 00000513,0.00001563,0.00002761,-0.00001742,0.00000344,-0.00000729,0.00
 000262,0.00000572,0.00000400,0.00001571,-0.00000902,-0.03382668,0.0446
 5292,-0.29028195,-0.01736238,0.03688069,-0.00997899,-0.04224740,-0.013
 22094,-0.03041536,0.09676331,-0.07904513,0.38383702,-0.00037470,-0.000
 70302,-0.00013716,0.00004291,-0.00000829,-0.00007249,0.00003087,-0.000
 03153,0.00005711,-0.00005480,0.00001220,0.00004198,0.00003472,0.000016
 09,-0.00004737,-0.00061335,0.00072522,-0.00156865,-0.00823186,-0.00238
 005,0.02223248,-0.14091231,0.02119861,0.13542224,0.00829597,-0.0009181
 4,-0.00840607,0.00242473,0.00385730,-0.00085700,-0.00000114,-0.0000022
 5,-0.00000094,-0.00000437,-0.00000768,0.00000132,0.00001669,0.00003184
 ,0.00001051,-0.00031783,-0.00154955,-0.00077469,-0.00074552,-0.0020128
 8,-0.00029075,0.00038268,0.00007807,-0.00046175,-0.00014323,0.00007958
 ,0.00002811,-0.00250575,0.00627965,0.00122716,0.00069071,-0.00029144,0
 .00015606,-0.00010567,-0.00006728,0.00002498,-0.00002708,-0.00019967,-
 0.00009458,-0.00009585,0.00013692,-0.00000170,0.00011432,0.00028059,0.
 00022487,0.00007202,0.00021593,0.00000019,-0.00005623,-0.00030674,0.00
 007800,-0.00001784,0.00008715,-0.00007846,-0.00017173,-0.00006963,-0.0
 0002395,0.00003575,0.00004223,-0.00000866,0.00003803,-0.00000707,-0.00
 000039,0.00003574,-0.00003465,0.00004178,0.00003701,-0.00001731,0.0000
 1446,0.00001211,0.00013078,0.00009670,-0.00009674,0.00014186,0.0001668
 6,0.00002415,-0.00020288,-0.00019960,-0.00000687,0.00000027,-0.0000023
 9,0.00000138,-0.00000004,-0.00000111,0.00000484,-0.00000269,-0.0000018
 1,-0.00000450,0.00000093,0.00000160,-0.00000845,0.00000672,0.00000358,
 0.00000084,-0.00000075,0.00000024,-0.00000379,-0.00000413,0.00000139,0
 .00000008,-0.00000381,-0.00000124,-0.00000684,-0.00001195,0.00000108,0
 .00000356,-0.00000219,-0.00000073,-0.00000053,0.00000262,-0.00000284,-
 0.00000659,0.00000091,0.00000040,-0.00001402,-0.00000594,0.00000053,-0
 .00000197,-0.00000737,-0.00000269,-0.00000287,0.00000399,-0.00000371,0
 .00000119,0.00000065,0.00000837,-0.00005722,-0.00004625,0.00001935,0.0
 0000973,-0.00000924,-0.00000345,-0.00000079,-0.00001846,0.00002976,0.0
 0001953,0.00001721,-0.00002276,-0.00000338,-0.00003542,-0.00002675,0.0
 0000071,0.00000883,-0.00000935,0.00001522,0.00000196,-0.00000163,-0.00
 000803,-0.00000996,0.00000484,-0.00003074,-0.00009981,-0.00015217,0.00
 000925,0.00001245,0.00000283,-0.00004776,0.00006531,0.00011402,0.00000
 154,-0.00001642,-0.00001277,0.00004580,-0.00001313,-0.00005751,-0.0000
 1420,-0.00000096,-0.00000042,-0.00000711,-0.00001116,-0.00000170,0.000
 02716,0.00001855,-0.00000054,-0.00000676,0.00000074,0.00000333,-0.0000
 0388,0.00000087,-0.00000274,0.00000210,0.00000233,-0.00000527,0.000003
 94,-0.00000221,0.00000635,-0.00000573,0.00000131,0.00000053,-0.0000005
 4,0.00000351,-0.00000141,-0.00000043,-0.00000070,0.00000176,0.00000097
 ,0.00000076,-0.00000495,-0.00000854,0.00001546,-0.00001080,0.00000086,
 -0.00000210,-0.00000134,-0.00000066,-0.00000319,0.00000153,-0.00000076
 ,0.00000867,0.00000187,-0.00000049,0.00000493,-0.00000286,0.00000041,-
 0.00000088,0.00000045,-0.00000432,0.00000316,-0.00000054,0.00000078,-0
 .00000215,0.00000078,0.00001163,0.00001987,-0.00003302,-0.00001482,-0.
 00002759,0.00005325,0.00001800,0.00006306,-0.00002339,0.00000462,0.000
 00685,0.00003393,0.00000497,0.00004090,0.00003310,0.00000399,0.0000022
 2,-0.00000382,0.00001484,-0.00005420,-0.00003752,0.00000355,-0.0000166
 4,-0.00001019,0.00000385,0.00000753,-0.00000258,0.00004483,0.00003042,
 -0.00000991,0.00002966,-0.00000169,0.00007651,-0.00000763,-0.00000691,
 -0.00001748,0.00000910,0.00001100,0.00000311,-0.00003570,-0.00001176,-
 0.00002103,0.00003476,0.00000394,0.00002720,-0.00001521,0.00000809,-0.
 00000354,0.00001595,0.00005564,0.00003719,-0.00003284,-0.00004668,-0.0
 0017344,-0.00001260,-0.00004437,0.00011098,0.00000383,0.00002554,0.000
 03897,-0.00001308,-0.00001997,0.00002299,0.00000749,0.00001535,0.00001
 314,0.00000727,0.00002053,-0.00002508,-0.00000792,-0.00000398,-0.00003
 561,0.00000167,-0.00000137,0.00000730,-0.00001504,-0.00000338,0.000025
 71,0.00000605,0.00001455,0.00000896,0.00003624,0.00002334,-0.00001603,
 -0.00001039,0.00000312,0.00000790,-0.00000654,-0.00000550,-0.00000020,
 -0.00000587,-0.00000455,0.00001352,0.14221079,-0.00056556,-0.00085696,
 -0.00051084,-0.00001216,0.00000034,-0.00003614,-0.00000640,-0.00002476
 ,0.00003102,-0.00006468,0.00002077,-0.00004639,0.00014061,-0.00000940,
 0.00000823,0.00047912,-0.00104883,0.00087566,0.00681864,0.00192849,-0.
 01654752,0.02135089,-0.04507649,-0.01076125,-0.01008597,0.00453249,0.0
 1243106,0.00391254,0.00313331,0.00412614,0.00000478,0.00000276,0.00001
 108,-0.00000022,-0.00000992,-0.00000505,-0.00001036,0.00006326,-0.0000
 2982,-0.00169243,-0.00170626,-0.00045504,-0.00185050,-0.00192751,-0.00
 147315,-0.00040558,0.00025713,0.00069911,-0.00006600,0.00007890,0.0000
 4354,0.00684846,0.00307078,0.00161460,-0.00034370,0.00006017,-0.000254
 72,0.00002593,0.00000972,-0.00003865,0.00000533,-0.00001639,-0.0000218
 7,0.00000906,-0.00007080,-0.00001060,-0.00002192,0.00001487,-0.0000042
 6,-0.00002144,-0.00006273,0.00014299,0.00008176,0.00016120,0.00002173,
 -0.00002040,-0.00005533,0.00002542,0.00008657,0.00001918,-0.00000862,-
 0.00000921,-0.00000613,0.00001311,-0.00000880,0.00000644,0.00000851,-0
 .00000230,0.00001432,-0.00001214,-0.00000379,0.00000855,-0.00000200,-0
 .00000570,0.00008562,0.00002215,-0.00003835,0.00004418,0.00004996,0.00
 002159,-0.00007433,-0.00004548,0.00000189,-0.00000139,0.00000137,-0.00
 000036,0.00000109,-0.00000329,-0.00000066,0.00000089,0.00000172,0.0000
 0151,-0.00000095,-0.00000147,0.00000067,0.00000128,0.00000198,-0.00000
 016,0.00000085,-0.00000217,0.00000173,0.00000006,-0.00000053,-0.000001
 12,-0.00000266,-0.00000024,0.00000225,0.00000294,-0.00000369,0.0000010
 4,-0.00000253,-0.00000136,-0.00000046,0.00000083,0.00000094,0.00000322
 ,-0.00000089,0.00000052,0.00000129,0.00000122,-0.00000604,0.00000230,0
 .00000213,0.00000046,-0.00000199,0.00000073,-0.00000092,-0.00000045,-0
 .00000173,0.00000398,-0.00002819,-0.00005170,0.00003137,-0.00000134,-0
 .00000290,-0.00000408,-0.00001758,-0.00000190,0.00001755,0.00001506,0.
 00001616,-0.00001271,0.00001522,-0.00002284,-0.00000057,-0.00000229,0.
 00000538,-0.00000338,0.00001224,-0.00000007,-0.00000434,-0.00000424,-0
 .00000156,-0.00000006,0.00000496,-0.00003321,-0.00004544,0.00002916,0.
 00000911,0.00001237,-0.00003326,0.00006347,0.00001333,-0.00001995,-0.0
 0002870,-0.00001446,0.00001413,-0.00000270,-0.00001905,-0.00000282,-0.
 00000115,0.00000273,-0.00000379,-0.00000563,-0.00000147,0.00001014,0.0
 0000582,-0.00000127,0.00000094,-0.00000104,-0.00000215,0.00000017,-0.0
 0000117,0.00000015,0.00000021,0.00000113,0.00000083,-0.00000407,0.0000
 0453,-0.00000216,0.00000229,0.00000016,0.00000031,-0.00000130,-0.00000
 120,0.00000110,-0.00000145,-0.00000314,-0.00000338,0.00000156,0.000000
 29,0.00000306,0.00000457,-0.00000378,0.00000075,0.00000028,0.00000057,
 -0.00000008,-0.00000306,0.00000003,0.00000042,-0.00000011,-0.00000339,
 -0.00000088,0.00000008,-0.00000256,0.00000241,-0.00000007,0.00000085,0
 .00000007,0.00000153,-0.00000147,0.00000033,-0.00000210,0.00000028,-0.
 00000139,-0.00003680,0.00000542,-0.00000071,0.00032864,0.00005467,0.00
 004708,-0.00013667,-0.00006334,0.00002517,-0.00006701,-0.00003922,-0.0
 0014206,0.00006061,0.00001701,0.00008417,-0.00001122,0.00001409,0.0000
 3125,0.00003492,-0.00000111,-0.00002923,0.00000132,-0.00000448,0.00001
 543,-0.00001935,-0.00000734,-0.00000493,-0.00018721,-0.00013523,-0.000
 02057,0.00002246,0.00004076,-0.00005848,-0.00000477,0.00000329,0.00000
 922,-0.00001641,-0.00002772,0.00000025,0.00001869,0.00001207,-0.000009
 49,0.00002923,-0.00000078,0.00005498,-0.00000593,0.00001330,0.00003163
 ,0.00004083,0.00003660,-0.00001067,-0.00001549,-0.00005925,-0.00020042
 ,-0.00009196,-0.00005805,0.00008265,0.00000813,0.00002657,0.00005072,-
 0.00004084,0.00007105,0.00001737,0.00002730,-0.00001319,0.00003093,-0.
 00001936,-0.00001736,-0.00001175,-0.00000586,-0.00001929,-0.00000043,0
 .00002377,-0.00000371,0.00001560,-0.00001674,0.00001780,-0.00000002,-0
 .00000125,0.00000173,-0.00000396,0.00005818,0.00003532,-0.00001227,-0.
 00002098,0.00000793,0.00000839,-0.00001734,-0.00000826,-0.00000328,-0.
 00000774,-0.00000464,0.00000120,-0.02447855,0.03759920,-0.00021832,-0.
 00037746,-0.00003805,0.00001562,0.00000075,-0.00002636,0.00004904,-0.0
 0002775,0.00000411,-0.00004369,0.00000173,0.00004311,0.00002354,0.0000
 0494,-0.00010611,-0.00091817,0.00047642,-0.00003719,-0.00274241,0.0007
 3660,0.00361187,0.13581623,-0.01081901,-0.24917723,0.01573922,-0.00411
 631,-0.01531427,-0.00122765,0.00445831,-0.00184103,0.00000060,0.000003
 38,-0.00000420,-0.00000111,-0.00000363,-0.00000409,0.00003111,0.000021
 87,0.00006167,-0.00023282,-0.00094714,-0.00008984,-0.00077958,-0.00119
 386,0.00061721,0.00083983,-0.00021638,-0.00069399,0.00000917,0.0000026
 7,-0.00003598,0.00031107,0.00188972,0.00235594,-0.00002178,0.00003874,
 -0.00000257,0.00005248,0.00002130,-0.00000895,0.00001518,0.00006335,0.
 00004377,0.00003809,-0.00006064,-0.00000386,-0.00001723,-0.00009125,-0
 .00006635,-0.00009514,-0.00006609,0.00002331,-0.00001382,0.00016436,-0
 .00000832,0.00001275,-0.00005626,0.00003118,0.00007503,0.00001654,0.00
 001192,-0.00001882,-0.00001494,0.00000373,-0.00002716,0.00000234,0.000
 00375,-0.00001401,0.00002340,-0.00001287,-0.00002118,0.00001436,-0.000
 00507,0.00000241,-0.00005185,-0.00001497,0.00001348,-0.00001263,-0.000
 00555,0.00000764,0.00004467,0.00003593,0.00000331,-0.00000008,-0.00000
 266,-0.00000213,-0.00000020,0.00000187,-0.00000170,0.00000167,0.000000
 31,0.00000412,-0.00000045,0.00000015,0.00000299,-0.00000076,-0.0000025
 5,-0.00000205,-0.00000008,0.00000029,0.00000334,0.00000088,0.00000013,
 -0.00000091,0.00000010,0.00000029,0.00000251,0.00000276,0.00000070,-0.
 00000089,-0.00000018,-0.00000061,-0.00000016,-0.00000083,0.00000180,0.
 00000290,0.00000022,-0.00000075,0.00000356,0.00000196,-0.00000030,0.00
 000244,0.00000283,-0.00000011,-0.00000081,-0.00000070,0.00000091,-0.00
 000048,-0.00000163,-0.00000059,-0.00002552,0.00000938,0.00000279,0.000
 00686,0.00000395,0.00000424,0.00005379,0.00003276,-0.00001840,-0.00000
 513,-0.00001072,0.00000205,-0.00000557,0.00001079,-0.00000205,-0.00000
 042,-0.00000418,0.00000135,-0.00000459,-0.00000140,0.00000143,0.000003
 30,0.00000384,0.00000179,0.00001210,0.00000245,-0.00001294,-0.00001178
 ,-0.00000131,-0.00000344,0.00006754,0.00000730,0.00000241,0.00000054,0
 .00000492,0.00000634,-0.00000119,-0.00000027,0.00000269,0.00000064,-0.
 00000066,0.00000060,0.00000009,0.00000341,0.00000094,-0.00000087,-0.00
 000114,-0.00000050,0.00000220,-0.00000167,0.00000050,0.00000299,-0.000
 00161,0.00000051,-0.00000112,0.00000075,0.00000005,-0.00000290,0.00000
 192,-0.00000241,0.00000310,-0.00000090,0.00000186,0.00000123,-0.000002
 37,0.00000051,-0.00000102,-0.00000065,-0.00000191,-0.00000053,0.000000
 71,0.00000158,0.00000376,-0.00000694,0.00000131,-0.00000033,0.00000142
 ,0.00000009,-0.00000056,0.00000217,0.00000021,0.00000118,-0.00000435,0
 .00000014,0.00000090,-0.00000265,0.00000022,-0.00000002,0.00000126,-0.
 00000072,0.00000189,-0.00000216,0.00000120,-0.00000155,0.00000072,-0.0
 0000074,-0.00000895,-0.00000431,0.00000573,0.00023787,0.00005745,-0.00
 002013,-0.00011214,-0.00005820,0.00004089,-0.00003792,-0.00004387,-0.0
 0002701,0.00006208,-0.00006010,0.00000719,-0.00000704,0.00001116,0.000
 02087,0.00001872,-0.00000290,-0.00001450,0.00000310,0.00000289,0.00000
 544,-0.00001793,-0.00000899,-0.00000366,-0.00012057,-0.00006029,-0.000
 01568,0.00001797,0.00002708,-0.00000983,-0.00000334,-0.00000135,-0.000
 00109,-0.00000909,-0.00001272,0.00000627,-0.00000049,-0.00000097,-0.00
 001016,0.00004242,-0.00000128,-0.00003011,-0.00001712,0.00001704,0.000
 03124,0.00003547,-0.00001020,-0.00007997,0.00003601,-0.00000355,-0.000
 03791,-0.00005169,-0.00009128,0.00001106,-0.00000317,0.00004265,0.0000
 4310,-0.00006589,-0.00002597,0.00000350,0.00002996,0.00003025,0.000032
 87,-0.00001202,0.00001948,-0.00007740,-0.00001498,-0.00000472,-0.00003
 152,0.00001019,-0.00000386,0.00001033,-0.00002773,-0.00000387,0.000033
 57,0.00000921,0.00002003,0.00000827,-0.00005650,0.00002623,0.00006866,
 0.00001875,-0.00001963,-0.00001430,0.00003133,0.00000449,-0.00001458,0
 .00000947,-0.00000145,-0.00002653,-0.14677062,0.01018028,0.26074416\\-
 0.00000450,0.00000225,0.00000219,0.00001215,-0.00000455,-0.00000240,0.
 00000131,-0.00000236,-0.00000166,0.00000074,0.00000151,-0.00001042,-0.
 00000176,-0.00000073,0.00000495,0.00000640,-0.00000312,-0.00000381,0.0
 0000362,-0.00000617,0.00000551,-0.00000040,0.00000077,0.00000180,-0.00
 000235,0.00000149,-0.00000462,-0.00000155,0.00000311,-0.00000554,-0.00
 000378,0.00000142,-0.00000142,0.00000251,-0.00000202,0.00000394,0.0000
 0283,-0.00000129,-0.00000083,-0.00000238,0.00000319,-0.00000456,-0.000
 00034,0.00000003,-0.00000074,0.00000092,-0.00000198,0.00000123,-0.0000
 0613,-0.00000060,0.00000389,-0.00000139,0.00000157,-0.00000125,-0.0000
 0002,-0.00000107,0.00000125,-0.00000262,-0.00000108,0.00000229,-0.0000
 0017,0.00000045,0.,0.00000096,0.00000005,0.00000096,0.00000115,-0.0000
 0100,0.00000295,-0.00000074,0.00000028,0.00000051,-0.00000240,0.000002
 44,-0.00000251,0.00000146,-0.00000287,0.00000295,-0.00000617,-0.000003
 69,0.00000370,0.00000570,0.00000288,-0.00000589,0.00000479,0.00000372,
 -0.00000156,-0.00000528,-0.00000146,-0.00000060,0.00000055,0.00000118,
 0.00000139,0.00000420,0.00000347,0.00000105,-0.00000440,-0.00000444,-0
 .00000476,0.00000047,-0.00000023,-0.00000305,0.00000189,-0.00000173,0.
 00000344,-0.00000060,-0.00000005,-0.00000187,-0.00000056,-0.00000061,0
 .00000083,0.00000077,0.00000013,0.00000111,-0.00000200,-0.00000238,0.0
 0000447,0.00000094,0.00000064,0.00000004,0.00000083,-0.00000005,0.0000
 0037,0.00000031,-0.00000070,-0.00000051,-0.00000326,-0.00000337,0.0000
 0273,0.00000017,0.00000084,0.00000082,-0.00000027,0.00000041,0.0000013
 3,0.00000234,0.00000185,0.00000043,-0.00000341,0.00000111,0.00000514,0
 .00000097,0.00000112,-0.00000091,-0.00000060,0.00000107,-0.00000130,-0
 .00000054,0.00000022,0.00000166,-0.00000322,-0.00000384,-0.00000319,0.
 00000037,0.00000241,-0.00000066,-0.00000048,0.00000060,-0.00000148,0.0
 0000018,0.00000043,0.00000019,-0.00000092,-0.00000176,0.00000312,-0.00
 000055,0.00000020,-0.00000330,0.00000036,-0.00000061,-0.00000072,-0.00
 000041,0.00000120,-0.00000034,-0.00000379,0.00000548,-0.00000156,0.000
 00070,-0.00000087,0.00000173,0.00000083,0.00000081,-0.00000120,-0.0000
 0030,-0.00000075,-0.00000123,-0.00000046,0.00000679,-0.00000110,-0.000
 00032,0.00000021,0.00000113,0.00000095,-0.00000325,-0.00000075,-0.0000
 0157,-0.00000001,0.00000052,-0.00000359,-0.00000086,0.00000521,-0.0000
 0044,0.00000097,0.00000121,0.00000045,0.00000007,-0.00000052,0.0000011
 3,0.00000265,-0.00000091,-0.00000070,-0.00000162,0.00000052,-0.0000022
 8,0.00000230,0.00000145,0.00000177,0.00000088,0.00000206,-0.00000016,0
 .00000047,0.00000076,0.00000610,0.00000204,0.00000461,0.00000051,-0.00
 000036,-0.00000068,-0.00000316,-0.00000018,0.00000145,-0.00000067,-0.0
 0000023,0.00000110,0.00000511,-0.00000198,-0.00000259,-0.00000083,-0.0
 0000047,0.00000569,-0.00000105,0.00000216,0.00000050,0.,-0.00000007,0.
 00000252,0.00000004,0.00000106,-0.00000092,0.00000546,0.00000026,-0.00
 000267,-0.00000091,-0.00000205,0.00000243,0.00000041,0.00000527,0.0000
 0048,0.00000006,-0.00000024,-0.00000047,-0.00000159,-0.00000393,-0.000
 00042,0.00000270,0.00000118,0.00000526,-0.00000044,0.00000099,-0.00000
 308,0.00000062,-0.00000176,0.00000009,-0.00000594,-0.00000051,0.000000
 23,-0.00000285,-0.00000255,-0.00000053,-0.00000123,0.00000003,-0.00000
 101,0.00000403,0.00000168,-0.00000136,0.00000058,0.00000349,0.00000158
 ,0.00000058,0.00000269,-0.00000517,0.00000079,-0.00000037,-0.00000105,
 -0.00000097,-0.00000343,0.00000087,0.00000363,0.00000133,0.00000454,-0
 .00000093,-0.00000029,-0.00000396,-0.00000133,-0.00000324,-0.00000079,
 0.00000611,0.00000767,-0.00000303,-0.00000027,-0.00000178,-0.00000454,
 -0.00000154,-0.00000493,-0.00000073,-0.00000658,0.00000287,0.00000188,
 0.00000219,-0.00000123,-0.00000070,-0.00000057,-0.00000157,-0.00000527
 ,0.00000026,-0.00000087,-0.00000102,-0.00000172,0.00000186,-0.00000008
 ,0.00000116,-0.00000074,0.00000070,0.00000274,-0.00000022,0.00000087,0
 .00000186,-0.00000269,0.00000248,-0.00000027,-0.00000041,-0.00000088\\
 \@
 The archive entry for this job was punched.


 A MATHEMATICIAN IS A MACHINE FOR TURNING COFFEE INTO THEOREMS.
     -- QUOTED BY PAUL ERDOS
 Job cpu time:       1 days 20 hours 20 minutes 57.4 seconds.
 Elapsed time:       0 days  2 hours 50 minutes 16.7 seconds.
 File lengths (MBytes):  RWF=  10098 Int=      0 D2E=      0 Chk=     55 Scr=      1
 Normal termination of Gaussian 16 at Sat Dec  7 21:39:23 2024.
