/mnt/lustre/scratch/nvme/SLURM/9698472/usccqdma.YACdoeskrn
OMP_STACKSIZE=0m
GAUSS_PDEF=16
GAUSS_MDEF=65536MB
GAUSS_RDEF=SCF=Direct
 Entering Gaussian System, Link 0=g16.exe
 Initial command:
 /opt/cesga/2020/software/Core/g16/c1/l1.exe "/mnt/lustre/scratch/nvme/SLURM/9698472/usccqdma.YACdoeskrn/Gau-3523383.inp" -scrdir="/mnt/lustre/scratch/nvme/SLURM/9698472/usccqdma.YACdoeskrn/"
 Default is to use a total of  16 processors:
                               16 via shared-memory
                                1 via Linda
 Entering Link 1 = /opt/cesga/2020/software/Core/g16/c1/l1.exe PID=   3523409.
  
 Copyright (c) 1988-2019, Gaussian, Inc.  All Rights Reserved.
  
 This is part of the Gaussian(R) 16 program.  It is based on
 the Gaussian(R) 09 system (copyright 2009, Gaussian, Inc.),
 the Gaussian(R) 03 system (copyright 2003, Gaussian, Inc.),
 the Gaussian(R) 98 system (copyright 1998, Gaussian, Inc.),
 the Gaussian(R) 94 system (copyright 1995, Gaussian, Inc.),
 the Gaussian 92(TM) system (copyright 1992, Gaussian, Inc.),
 the Gaussian 90(TM) system (copyright 1990, Gaussian, Inc.),
 the Gaussian 88(TM) system (copyright 1988, Gaussian, Inc.),
 the Gaussian 86(TM) system (copyright 1986, Carnegie Mellon
 University), and the Gaussian 82(TM) system (copyright 1983,
 Carnegie Mellon University). Gaussian is a federally registered
 trademark of Gaussian, Inc.
  
 This software contains proprietary and confidential information,
 including trade secrets, belonging to Gaussian, Inc.
  
 This software is provided under written license and may be
 used, copied, transmitted, or stored only in accord with that
 written license.
  
 The following legend is applicable only to US Government
 contracts under FAR:
  
                    RESTRICTED RIGHTS LEGEND
  
 Use, reproduction and disclosure by the US Government is
 subject to restrictions as set forth in subparagraphs (a)
 and (c) of the Commercial Computer Software - Restricted
 Rights clause in FAR 52.227-19.
  
 Gaussian, Inc.
 340 Quinnipiac St., Bldg. 40, Wallingford CT 06492
  
  
 ---------------------------------------------------------------
 Warning -- This program may not be used in any manner that
 competes with the business of Gaussian, Inc. or will provide
 assistance to any competitor of Gaussian, Inc.  The licensee
 of this program is prohibited from giving any competitor of
 Gaussian, Inc. access to this program.  By using this program,
 the user acknowledges that Gaussian, Inc. is engaged in the
 business of creating and licensing software in the field of
 computational chemistry and represents and warrants to the
 licensee that it is not a competitor of Gaussian, Inc. and that
 it will not use this program in any manner prohibited above.
 ---------------------------------------------------------------
  

 Cite this work as:
 Gaussian 16, Revision C.01,
 M. J. Frisch, G. W. Trucks, H. B. Schlegel, G. E. Scuseria, 
 M. A. Robb, J. R. Cheeseman, G. Scalmani, V. Barone, 
 G. A. Petersson, H. Nakatsuji, X. Li, M. Caricato, A. V. Marenich, 
 J. Bloino, B. G. Janesko, R. Gomperts, B. Mennucci, H. P. Hratchian, 
 J. V. Ortiz, A. F. Izmaylov, J. L. Sonnenberg, D. Williams-Young, 
 F. Ding, F. Lipparini, F. Egidi, J. Goings, B. Peng, A. Petrone, 
 T. Henderson, D. Ranasinghe, V. G. Zakrzewski, J. Gao, N. Rega, 
 G. Zheng, W. Liang, M. Hada, M. Ehara, K. Toyota, R. Fukuda, 
 J. Hasegawa, M. Ishida, T. Nakajima, Y. Honda, O. Kitao, H. Nakai, 
 T. Vreven, K. Throssell, J. A. Montgomery, Jr., J. E. Peralta, 
 F. Ogliaro, M. J. Bearpark, J. J. Heyd, E. N. Brothers, K. N. Kudin, 
 V. N. Staroverov, T. A. Keith, R. Kobayashi, J. Normand, 
 K. Raghavachari, A. P. Rendell, J. C. Burant, S. S. Iyengar, 
 J. Tomasi, M. Cossi, J. M. Millam, M. Klene, C. Adamo, R. Cammi, 
 J. W. Ochterski, R. L. Martin, K. Morokuma, O. Farkas, 
 J. B. Foresman, and D. J. Fox, Gaussian, Inc., Wallingford CT, 2019.
 
 ******************************************
 Gaussian 16:  ES64L-G16RevC.01  3-Jul-2019
                10-Dec-2024 
 ******************************************
 Default route: SCF=Direct
 ----------------------------------------------------
 # m06/genecp scf=tight int=ultrafine 5d freq=noraman
 ----------------------------------------------------
 1/10=4,30=1,38=1/1,3;
 2/12=2,17=6,18=5,40=1/2;
 3/5=7,8=1,11=2,16=1,17=8,25=1,30=1,71=2,74=-54,75=-5,140=1/1,2,3;
 4//1;
 5/5=2,32=2,38=5,98=1/2;
 8/6=4,10=90,11=11/1;
 11/6=1,8=1,9=11,15=111,16=1/1,2,10;
 10/6=1/2;
 6/7=2,8=2,9=2,10=2,28=1/1;
 7/8=1,10=1,25=1/1,2,3,16;
 1/10=4,30=1/3;
 99//99;
 ------
 OPT-TS
 ------
 Symbolic Z-matrix:
 Charge =  0 Multiplicity = 1
 C                     0.33458   2.13063   2.00958 
 C                    -0.152     2.91733  -0.11212 
 C                    -0.36206   4.20322   0.36179 
 C                    -0.21407   4.45004   1.72318 
 C                     0.14122   3.4036    2.55523 
 C                     0.65825   0.95024   2.83863 
 C                     0.81827  -1.36681   2.93179 
 C                     1.13305  -1.33621   4.28433 
 C                     1.22514  -0.10565   4.92064 
 C                     0.98244   1.0493    4.19134 
 H                    -0.27688   2.65983  -1.16502 
 H                    -0.37865   5.4495    2.12228 
 H                     0.24392   3.57495   3.62325 
 H                     0.71613  -2.29881   2.37432 
 H                     1.48249  -0.04154   5.97588 
 H                     1.05778   2.0205    4.67308 
 N                     0.18602   1.90978   0.69381 
 N                     0.59749  -0.25097   2.22768 
 Ir                    0.10613  -0.30009   0.02602 
 O                    -0.44826  -2.84542  -1.57533 
 O                    -2.37526  -0.65988  -1.83851 
 O                    -2.5206   -1.47333   1.26742 
 B                    -1.20203   0.01075  -1.52766 
 B                    -0.1489   -2.27055  -0.34894 
 B                    -1.8556   -0.34969   0.8134 
 O                    -2.566     0.80236   1.14223 
 O                    -0.00424  -3.2651    0.62009 
 C                    -0.13809  -4.54517  -0.02225 
 C                    -0.90978  -4.17675  -1.32168 
 C                    -3.83191  -1.0726    1.69935 
 C                    -3.60898   0.42345   2.05692 
 C                    -2.83321  -0.17214  -3.10855 
 C                    -2.26057   1.27011  -3.11742 
 O                    -1.02829   1.09202  -2.39511 
 C                    -0.60118  -5.04835  -2.52171 
 H                    -0.877    -6.09525  -2.32867 
 H                    -1.18223  -4.69881  -3.38537 
 H                     0.45943  -5.00824  -2.79325 
 C                    -2.41757  -4.09061  -1.11028 
 H                    -2.8673   -3.60845  -1.98894 
 H                    -2.87256  -5.08256  -0.9818 
 H                    -2.65193  -3.46323  -0.23994 
 C                     1.26549  -5.0677   -0.29378 
 H                     1.82584  -5.09035   0.65042 
 H                     1.25102  -6.08536  -0.70696 
 H                     1.80321  -4.41373  -0.99307 
 C                    -0.87474  -5.48332   0.91252 
 H                    -1.10256  -6.4364    0.4135 
 H                    -0.25146  -5.70331   1.78942 
 H                    -1.81064  -5.03605   1.2663 
 C                    -2.21615  -1.06812  -4.17526 
 H                    -2.49458  -2.10893  -3.96332 
 H                    -2.56871  -0.81022  -5.18316 
 H                    -1.12025  -1.01342  -4.153 
 C                    -4.34385  -0.26622  -3.16446 
 H                    -4.72372   0.12118  -4.12075 
 H                    -4.6485   -1.31814  -3.07681 
 H                    -4.82265   0.29093  -2.35088 
 C                    -1.95036   1.8366   -4.48644 
 H                    -2.86316   1.91037  -5.09494 
 H                    -1.53064   2.84604  -4.38135 
 H                    -1.2195    1.22098  -5.02193 
 C                    -3.10975   2.25201  -2.31811 
 H                    -2.56077   3.19751  -2.2119 
 H                    -4.0611    2.4747   -2.81978 
 H                    -3.31748   1.86687  -1.30857 
 C                    -4.80776   1.32399   1.84191 
 H                    -4.55034   2.35623   2.11262 
 H                    -5.13041   1.32232   0.79451 
 H                    -5.654     1.00888   2.46938 
 C                    -3.05232   0.62245   3.46216 
 H                    -2.7147    1.66304   3.56309 
 H                    -3.80643   0.42882   4.23689 
 H                    -2.18916  -0.0348    3.64354 
 C                    -4.25319  -1.95847   2.85373 
 H                    -5.22367  -1.64062   3.26163 
 H                    -4.35642  -2.99273   2.49925 
 H                    -3.51279  -1.95494   3.66137 
 C                    -4.77655  -1.2629    0.52126 
 H                    -4.73679  -2.31025   0.19472 
 H                    -5.81515  -1.02376   0.78731 
 H                    -4.46458  -0.64404  -0.32841 
 H                     2.41831   1.7743   -0.97966 
 C                     2.96893   0.87639  -0.6938 
 C                     4.35765   0.92251  -0.65053 
 C                     2.26441  -0.29529  -0.38437 
 C                     5.093    -0.21053  -0.29299 
 H                     4.87513   1.85669  -0.8733 
 C                     3.01789  -1.43187  -0.05192 
 C                     4.40336  -1.38218   0.02513 
 H                     4.977    -2.25409   0.33747 
 H                     1.30635  -2.26619   4.81944 
 H                     0.99597  -0.3968   -1.36258 
 H                     2.50572  -2.36612   0.18568 
 C                     6.57564  -0.20502  -0.11702 
 O                     7.08867  -0.77948   0.83454 
 N                     7.33355   0.50083  -1.02747 
 C                     8.7543    0.6145   -0.78059 
 H                     9.1005    1.61345  -1.08008 
 H                     8.94707   0.45614   0.28232 
 H                     9.32329  -0.13446  -1.35458 
 C                     6.93421   0.80453  -2.38453 
 H                     5.91659   0.45927  -2.57975 
 H                     6.98409   1.88592  -2.58494 
 H                     7.60961   0.29936  -3.0931 
 C                    -0.81006   5.2982   -0.55371 
 F                    -0.62787   4.98489  -1.83889 
 F                    -0.14845   6.43542  -0.30902 
 F                    -2.11169   5.55996  -0.38414 
 

 GradGradGradGradGradGradGradGradGradGradGradGradGradGradGradGradGradGrad
 Berny optimization.
 Initialization pass.
 Trust Radius=3.00D-01 FncErr=1.00D-07 GrdErr=1.00D-07 EigMax=2.50D+02 EigMin=1.00D-04
 Number of steps in this run=      2 maximum allowed number of steps=      2.
 GradGradGradGradGradGradGradGradGradGradGradGradGradGradGradGradGradGrad

 Stoichiometry    C38H54B3F3IrN3O7
 Framework group  C1[X(C38H54B3F3IrN3O7)]
 Deg. of freedom   321
 Full point group                 C1      NOp   1
 Largest Abelian subgroup         C1      NOp   1
 Largest concise Abelian subgroup C1      NOp   1
                         Standard orientation:                         
 ---------------------------------------------------------------------
 Center     Atomic      Atomic             Coordinates (Angstroms)
 Number     Number       Type             X           Y           Z
 ---------------------------------------------------------------------
      1          6           0        0.334582    2.130629    2.009581
      2          6           0       -0.151998    2.917330   -0.112119
      3          6           0       -0.362058    4.203220    0.361791
      4          6           0       -0.214068    4.450040    1.723181
      5          6           0        0.141222    3.403600    2.555231
      6          6           0        0.658251    0.950239    2.838631
      7          6           0        0.818270   -1.366811    2.931791
      8          6           0        1.133050   -1.336211    4.284331
      9          6           0        1.225141   -0.105651    4.920641
     10          6           0        0.982441    1.049299    4.191341
     11          1           0       -0.276878    2.659830   -1.165019
     12          1           0       -0.378647    5.449500    2.122281
     13          1           0        0.243922    3.574949    3.623251
     14          1           0        0.716130   -2.298811    2.374321
     15          1           0        1.482491   -0.041541    5.975881
     16          1           0        1.057781    2.020499    4.673081
     17          7           0        0.186021    1.909779    0.693811
     18          7           0        0.597491   -0.250971    2.227681
     19         77           0        0.106131   -0.300090    0.026021
     20          8           0       -0.448260   -2.845420   -1.575329
     21          8           0       -2.375260   -0.659880   -1.838509
     22          8           0       -2.520600   -1.473329    1.267421
     23          5           0       -1.202029    0.010750   -1.527659
     24          5           0       -0.148900   -2.270550   -0.348939
     25          5           0       -1.855599   -0.349690    0.813401
     26          8           0       -2.565999    0.802361    1.142231
     27          8           0       -0.004241   -3.265100    0.620091
     28          6           0       -0.138091   -4.545170   -0.022249
     29          6           0       -0.909781   -4.176750   -1.321679
     30          6           0       -3.831910   -1.072599    1.699351
     31          6           0       -3.608979    0.423451    2.056921
     32          6           0       -2.833209   -0.172139   -3.108549
     33          6           0       -2.260569    1.270110   -3.117419
     34          8           0       -1.028289    1.092020   -2.395109
     35          6           0       -0.601181   -5.048350   -2.521709
     36          1           0       -0.877002   -6.095250   -2.328669
     37          1           0       -1.182231   -4.698810   -3.385369
     38          1           0        0.459429   -5.008241   -2.793249
     39          6           0       -2.417571   -4.090610   -1.110279
     40          1           0       -2.867301   -3.608449   -1.988939
     41          1           0       -2.872561   -5.082559   -0.981799
     42          1           0       -2.651931   -3.463229   -0.239939
     43          6           0        1.265489   -5.067701   -0.293779
     44          1           0        1.825839   -5.090351    0.650421
     45          1           0        1.251018   -6.085361   -0.706959
     46          1           0        1.803209   -4.413731   -0.993069
     47          6           0       -0.874741   -5.483320    0.912521
     48          1           0       -1.102562   -6.436400    0.413501
     49          1           0       -0.251461   -5.703310    1.789421
     50          1           0       -1.810641   -5.036050    1.266301
     51          6           0       -2.216150   -1.068120   -4.175259
     52          1           0       -2.494580   -2.108929   -3.963319
     53          1           0       -2.568710   -0.810219   -5.183159
     54          1           0       -1.120250   -1.013420   -4.152999
     55          6           0       -4.343849   -0.266219   -3.164459
     56          1           0       -4.723719    0.121181   -4.120749
     57          1           0       -4.648500   -1.318139   -3.076809
     58          1           0       -4.822649    0.290931   -2.350879
     59          6           0       -1.950359    1.836600   -4.486439
     60          1           0       -2.863159    1.910371   -5.094939
     61          1           0       -1.530638    2.846040   -4.381349
     62          1           0       -1.219499    1.220980   -5.021929
     63          6           0       -3.109748    2.252011   -2.318109
     64          1           0       -2.560768    3.197511   -2.211899
     65          1           0       -4.061098    2.474701   -2.819779
     66          1           0       -3.317479    1.866871   -1.308569
     67          6           0       -4.807759    1.323991    1.841911
     68          1           0       -4.550338    2.356231    2.112621
     69          1           0       -5.130409    1.322322    0.794511
     70          1           0       -5.653999    1.008882    2.469381
     71          6           0       -3.052319    0.622451    3.462161
     72          1           0       -2.714699    1.663041    3.563091
     73          1           0       -3.806429    0.428821    4.236891
     74          1           0       -2.189159   -0.034800    3.643541
     75          6           0       -4.253190   -1.958469    2.853731
     76          1           0       -5.223670   -1.640618    3.261631
     77          1           0       -4.356420   -2.992729    2.499251
     78          1           0       -3.512790   -1.954939    3.661371
     79          6           0       -4.776550   -1.262899    0.521261
     80          1           0       -4.736790   -2.310249    0.194721
     81          1           0       -5.815150   -1.023758    0.787311
     82          1           0       -4.464580   -0.644039   -0.328409
     83          1           0        2.418311    1.774299   -0.979659
     84          6           0        2.968931    0.876388   -0.693799
     85          6           0        4.357651    0.922508   -0.650529
     86          6           0        2.264411   -0.295291   -0.384369
     87          6           0        5.093001   -0.210532   -0.292989
     88          1           0        4.875131    1.856688   -0.873299
     89          6           0        3.017890   -1.431872   -0.051919
     90          6           0        4.403360   -1.382182    0.025131
     91          1           0        4.977000   -2.254092    0.337471
     92          1           0        1.306350   -2.266191    4.819441
     93          1           0        0.995971   -0.396801   -1.362579
     94          1           0        2.505720   -2.366121    0.185681
     95          6           0        6.575641   -0.205023   -0.117019
     96          8           0        7.088670   -0.779483    0.834541
     97          7           0        7.333551    0.500827   -1.027469
     98          6           0        8.754301    0.614496   -0.780589
     99          1           0        9.100501    1.613446   -1.080079
    100          1           0        8.947071    0.456136    0.282321
    101          1           0        9.323291   -0.134464   -1.354579
    102          6           0        6.934211    0.804527   -2.384529
    103          1           0        5.916591    0.459267   -2.579749
    104          1           0        6.984091    1.885917   -2.584939
    105          1           0        7.609611    0.299357   -3.093099
    106          6           0       -0.810057    5.298200   -0.553709
    107          9           0       -0.627867    4.984890   -1.838889
    108          9           0       -0.148447    6.435420   -0.309019
    109          9           0       -2.111687    5.559960   -0.384139
 ---------------------------------------------------------------------
 Rotational constants (GHZ):           0.0539652           0.0443751           0.0363305
 General basis read from cards:  (5D, 7F)
 ======================================================================================================
                                       Pseudopotential Parameters
 ======================================================================================================
  Center     Atomic      Valence      Angular      Power
  Number     Number     Electrons     Momentum     of R      Exponent        Coefficient   SO-Coeffient
 ======================================================================================================
    1          6
                                   No pseudopotential on this center.
    2          6
                                   No pseudopotential on this center.
    3          6
                                   No pseudopotential on this center.
    4          6
                                   No pseudopotential on this center.
    5          6
                                   No pseudopotential on this center.
    6          6
                                   No pseudopotential on this center.
    7          6
                                   No pseudopotential on this center.
    8          6
                                   No pseudopotential on this center.
    9          6
                                   No pseudopotential on this center.
   10          6
                                   No pseudopotential on this center.
   11          1
                                   No pseudopotential on this center.
   12          1
                                   No pseudopotential on this center.
   13          1
                                   No pseudopotential on this center.
   14          1
                                   No pseudopotential on this center.
   15          1
                                   No pseudopotential on this center.
   16          1
                                   No pseudopotential on this center.
   17          7
                                   No pseudopotential on this center.
   18          7
                                   No pseudopotential on this center.
   19         77           17
                                      G and up 
                                                     1      823.5880147       -0.15780140    0.00000000
                                                     2      364.6613336    -1517.52704460    0.00000000
                                                     2       55.7082801     -316.53065290    0.00000000
                                                     2       12.0464544      -91.88809410    0.00000000
                                                     2        3.5120610       -9.22417730    0.00000000
                                      S - G
                                                     0      188.0490770        3.15780140    0.00000000
                                                     1      340.4194712       26.83225770    0.00000000
                                                     2      128.2373673      800.42500070    0.00000000
                                                     2       33.8644961      369.40506830    0.00000000
                                                     2        4.7560005      242.41718990    0.00000000
                                                     2        3.9649974     -118.21732820    0.00000000
                                      P - G
                                                     0      289.7291139        2.15780140    0.00000000
                                                     1       87.4633789       61.96786100    0.00000000
                                                     2       30.4363766      269.05819860    0.00000000
                                                     2        4.0553412      231.16547930    0.00000000
                                                     2        3.5525341     -133.69526670    0.00000000
                                      D - G
                                                     0      136.4017106        3.15780140    0.00000000
                                                     1       95.0776925       45.93498030    0.00000000
                                                     2       49.2258410      359.03446680    0.00000000
                                                     2       15.0874145      176.47401190    0.00000000
                                                     2        4.0405764       54.51552860    0.00000000
                                      F - G
                                                     0      127.3507908        3.95461970    0.00000000
                                                     1       66.2364374       52.97736550    0.00000000
                                                     2       34.4299229      274.86433830    0.00000000
                                                     2       10.1995721      137.20473380    0.00000000
                                                     2        2.5409702       14.86333050    0.00000000
   20          8
                                   No pseudopotential on this center.
   21          8
                                   No pseudopotential on this center.
   22          8
                                   No pseudopotential on this center.
   23          5
                                   No pseudopotential on this center.
   24          5
                                   No pseudopotential on this center.
   25          5
                                   No pseudopotential on this center.
   26          8
                                   No pseudopotential on this center.
   27          8
                                   No pseudopotential on this center.
   28          6
                                   No pseudopotential on this center.
   29          6
                                   No pseudopotential on this center.
   30          6
                                   No pseudopotential on this center.
   31          6
                                   No pseudopotential on this center.
   32          6
                                   No pseudopotential on this center.
   33          6
                                   No pseudopotential on this center.
   34          8
                                   No pseudopotential on this center.
   35          6
                                   No pseudopotential on this center.
   36          1
                                   No pseudopotential on this center.
   37          1
                                   No pseudopotential on this center.
   38          1
                                   No pseudopotential on this center.
   39          6
                                   No pseudopotential on this center.
   40          1
                                   No pseudopotential on this center.
   41          1
                                   No pseudopotential on this center.
   42          1
                                   No pseudopotential on this center.
   43          6
                                   No pseudopotential on this center.
   44          1
                                   No pseudopotential on this center.
   45          1
                                   No pseudopotential on this center.
   46          1
                                   No pseudopotential on this center.
   47          6
                                   No pseudopotential on this center.
   48          1
                                   No pseudopotential on this center.
   49          1
                                   No pseudopotential on this center.
   50          1
                                   No pseudopotential on this center.
   51          6
                                   No pseudopotential on this center.
   52          1
                                   No pseudopotential on this center.
   53          1
                                   No pseudopotential on this center.
   54          1
                                   No pseudopotential on this center.
   55          6
                                   No pseudopotential on this center.
   56          1
                                   No pseudopotential on this center.
   57          1
                                   No pseudopotential on this center.
   58          1
                                   No pseudopotential on this center.
   59          6
                                   No pseudopotential on this center.
   60          1
                                   No pseudopotential on this center.
   61          1
                                   No pseudopotential on this center.
   62          1
                                   No pseudopotential on this center.
   63          6
                                   No pseudopotential on this center.
   64          1
                                   No pseudopotential on this center.
   65          1
                                   No pseudopotential on this center.
   66          1
                                   No pseudopotential on this center.
   67          6
                                   No pseudopotential on this center.
   68          1
                                   No pseudopotential on this center.
   69          1
                                   No pseudopotential on this center.
   70          1
                                   No pseudopotential on this center.
   71          6
                                   No pseudopotential on this center.
   72          1
                                   No pseudopotential on this center.
   73          1
                                   No pseudopotential on this center.
   74          1
                                   No pseudopotential on this center.
   75          6
                                   No pseudopotential on this center.
   76          1
                                   No pseudopotential on this center.
   77          1
                                   No pseudopotential on this center.
   78          1
                                   No pseudopotential on this center.
   79          6
                                   No pseudopotential on this center.
   80          1
                                   No pseudopotential on this center.
   81          1
                                   No pseudopotential on this center.
   82          1
                                   No pseudopotential on this center.
   83          1
                                   No pseudopotential on this center.
   84          6
                                   No pseudopotential on this center.
   85          6
                                   No pseudopotential on this center.
   86          6
                                   No pseudopotential on this center.
   87          6
                                   No pseudopotential on this center.
   88          1
                                   No pseudopotential on this center.
   89          6
                                   No pseudopotential on this center.
   90          6
                                   No pseudopotential on this center.
   91          1
                                   No pseudopotential on this center.
   92          1
                                   No pseudopotential on this center.
   93          1
                                   No pseudopotential on this center.
   94          1
                                   No pseudopotential on this center.
   95          6
                                   No pseudopotential on this center.
   96          8
                                   No pseudopotential on this center.
   97          7
                                   No pseudopotential on this center.
   98          6
                                   No pseudopotential on this center.
   99          1
                                   No pseudopotential on this center.
  100          1
                                   No pseudopotential on this center.
  101          1
                                   No pseudopotential on this center.
  102          6
                                   No pseudopotential on this center.
  103          1
                                   No pseudopotential on this center.
  104          1
                                   No pseudopotential on this center.
  105          1
                                   No pseudopotential on this center.
  106          6
                                   No pseudopotential on this center.
  107          9
                                   No pseudopotential on this center.
  108          9
                                   No pseudopotential on this center.
  109          9
                                   No pseudopotential on this center.
 ======================================================================================================
 There are   942 symmetry adapted cartesian basis functions of A   symmetry.
 There are   886 symmetry adapted basis functions of A   symmetry.
   886 basis functions,  1771 primitive gaussians,   942 cartesian basis functions
   209 alpha electrons      209 beta electrons
       nuclear repulsion energy      9176.1608869866 Hartrees.
 NAtoms=  109 NActive=  109 NUniq=  109 SFac= 1.00D+00 NAtFMM=   60 NAOKFM=T Big=T
 Integral buffers will be    131072 words long.
 Raffenetti 2 integral format.
 Two-electron integral symmetry is turned on.
 One-electron integrals computed using PRISM.
   1 Symmetry operations used in ECPInt.
 ECPInt:  NShTT=   55278 NPrTT=  342696 LenC2=   39999 LenP2D=  123365.
 LDataN:  DoStor=T MaxTD1= 6 Len=  172
 NBasis=   886 RedAO= T EigKep=  4.60D-04  NBF=   886
 NBsUse=   886 1.00D-06 EigRej= -1.00D+00 NBFU=   886
 Defaulting to unpruned grid for atomic number  77.
 ExpMin= 2.90D-02 ExpMax= 7.00D+03 ExpMxC= 1.05D+03 IAcc=3 IRadAn=         5 AccDes= 0.00D+00
 Harris functional with IExCor= 1009 and IRadAn=       5 diagonalized for initial guess.
 HarFok:  IExCor= 1009 AccDes= 0.00D+00 IRadAn=         5 IDoV= 1 UseB2=F ITyADJ=14
 ICtDFT=  3500011 ScaDFX=  1.000000  1.000000  1.000000  1.000000
 Defaulting to unpruned grid for atomic number  77.
 FoFCou: FMM=F IPFlag=           0 FMFlag=      100000 FMFlg1=        2001
         NFxFlg=           0 DoJE=T BraDBF=F KetDBF=T FulRan=T
         wScrn=  0.000000 ICntrl=       500 IOpCl=  0 I1Cent=   200000004 NGrid=           0
         NMat0=    1 NMatS0=      1 NMatT0=    0 NMatD0=    1 NMtDS0=    0 NMtDT0=    0
 Petite list used in FoFCou.
 Requested convergence on RMS density matrix=1.00D-08 within 128 cycles.
 Requested convergence on MAX density matrix=1.00D-06.
 Requested convergence on             energy=1.00D-06.
 No special actions if energy rises.
 Defaulting to unpruned grid for atomic number  77.
 Defaulting to unpruned grid for atomic number  77.
 Defaulting to unpruned grid for atomic number  77.
 Defaulting to unpruned grid for atomic number  77.
 Defaulting to unpruned grid for atomic number  77.
 Defaulting to unpruned grid for atomic number  77.
 Defaulting to unpruned grid for atomic number  77.
 Defaulting to unpruned grid for atomic number  77.
 Defaulting to unpruned grid for atomic number  77.
 Defaulting to unpruned grid for atomic number  77.
 Defaulting to unpruned grid for atomic number  77.
 Defaulting to unpruned grid for atomic number  77.
 Defaulting to unpruned grid for atomic number  77.
 Defaulting to unpruned grid for atomic number  77.
 Defaulting to unpruned grid for atomic number  77.
 Defaulting to unpruned grid for atomic number  77.
 SCF Done:  E(RM06) =  -2648.90284640     A.U. after   15 cycles
            NFock= 15  Conv=0.66D-08     -V/T= 2.0341
 DoSCS=F DFT=T ScalE2(SS,OS)=  1.000000  1.000000
 Range of M.O.s used for correlation:     1   886
 NBasis=   886 NAE=   209 NBE=   209 NFC=     0 NFV=     0
 NROrb=    886 NOA=   209 NOB=   209 NVA=   677 NVB=   677

 **** Warning!!: The largest alpha MO coefficient is  0.13127287D+02

   1 Symmetry operations used in ECPInt.
 ECPInt:  NShTT=   55278 NPrTT=  342696 LenC2=   39999 LenP2D=  123365.
 LDataN:  DoStor=T MaxTD1= 7 Len=  274
 Number of processors reduced to   7 by ecpmxn.
 Symmetrizing basis deriv contribution to polar:
 IMax=3 JMax=2 DiffMx= 0.00D+00
 G2DrvN: will do   110 centers at a time, making    1 passes.
 Calling FoFCou, ICntrl=  3107 FMM=T I1Cent=   0 AccDes= 0.00D+00.
 Defaulting to unpruned grid for atomic number  77.
 Defaulting to unpruned grid for atomic number  77.
 Defaulting to unpruned grid for atomic number  77.
 Defaulting to unpruned grid for atomic number  77.
 Defaulting to unpruned grid for atomic number  77.
 Defaulting to unpruned grid for atomic number  77.
 Defaulting to unpruned grid for atomic number  77.
 Defaulting to unpruned grid for atomic number  77.
 Defaulting to unpruned grid for atomic number  77.
 Defaulting to unpruned grid for atomic number  77.
 Defaulting to unpruned grid for atomic number  77.
 Defaulting to unpruned grid for atomic number  77.
 Defaulting to unpruned grid for atomic number  77.
 Defaulting to unpruned grid for atomic number  77.
 Defaulting to unpruned grid for atomic number  77.
 Defaulting to unpruned grid for atomic number  77.
 End of G2Drv F.D. properties file   721 does not exist.
 End of G2Drv F.D. properties file   722 does not exist.
 End of G2Drv F.D. properties file   788 does not exist.
          IDoAtm=11111111111111111111111111111111111111111111111111
          IDoAtm=11111111111111111111111111111111111111111111111111
          IDoAtm=111111111
          Differentiating once with respect to electric field.
                with respect to dipole field.
          Differentiating once with respect to nuclear coordinates.
 Defaulting to unpruned grid for atomic number  77.
 CalDSu exits because no D1Ps are significant.
 Defaulting to unpruned grid for atomic number  77.
 Defaulting to unpruned grid for atomic number  77.
 Defaulting to unpruned grid for atomic number  77.
 Defaulting to unpruned grid for atomic number  77.
 Defaulting to unpruned grid for atomic number  77.
 Defaulting to unpruned grid for atomic number  77.
 Defaulting to unpruned grid for atomic number  77.
 Defaulting to unpruned grid for atomic number  77.
 Defaulting to unpruned grid for atomic number  77.
 Defaulting to unpruned grid for atomic number  77.
 Defaulting to unpruned grid for atomic number  77.
 Defaulting to unpruned grid for atomic number  77.
 Defaulting to unpruned grid for atomic number  77.
 Defaulting to unpruned grid for atomic number  77.
 Defaulting to unpruned grid for atomic number  77.
 Defaulting to unpruned grid for atomic number  77.
          There are   330 degrees of freedom in the 1st order CPHF.  IDoFFX=6 NUNeed=     3.
    327 vectors produced by pass  0 Test12= 1.41D-13 1.00D-09 XBig12= 5.18D+02 9.31D+00.
 AX will form    72 AO Fock derivatives at one time.
    327 vectors produced by pass  1 Test12= 1.41D-13 1.00D-09 XBig12= 9.21D+01 1.47D+00.
    327 vectors produced by pass  2 Test12= 1.41D-13 1.00D-09 XBig12= 1.01D+00 8.48D-02.
    327 vectors produced by pass  3 Test12= 1.41D-13 1.00D-09 XBig12= 7.13D-03 6.64D-03.
    327 vectors produced by pass  4 Test12= 1.41D-13 1.00D-09 XBig12= 2.65D-05 4.60D-04.
    303 vectors produced by pass  5 Test12= 1.41D-13 1.00D-09 XBig12= 5.65D-08 1.71D-05.
     94 vectors produced by pass  6 Test12= 1.41D-13 1.00D-09 XBig12= 8.37D-11 5.32D-07.
      3 vectors produced by pass  7 Test12= 1.41D-13 1.00D-09 XBig12= 1.07D-13 2.37D-08.
      1 vectors produced by pass  8 Test12= 1.41D-13 1.00D-09 XBig12= 1.44D-16 1.17D-09.
 InvSVY:  IOpt=1 It=  1 EMax= 1.42D-14
 Solved reduced A of dimension  2036 with   330 vectors.
 Isotropic polarizability for W=    0.000000      526.36 Bohr**3.
 End of Minotr F.D. properties file   721 does not exist.
 End of Minotr F.D. properties file   722 does not exist.
 End of Minotr F.D. properties file   788 does not exist.
 Hyperfine terms turned off by default for NAtoms > 100.

 **********************************************************************

            Population analysis using the SCF Density.

 **********************************************************************

 Orbital symmetries:
       Occupied  (A) (A) (A) (A) (A) (A) (A) (A) (A) (A) (A) (A)
                 (A) (A) (A) (A) (A) (A) (A) (A) (A) (A) (A) (A)
                 (A) (A) (A) (A) (A) (A) (A) (A) (A) (A) (A) (A)
                 (A) (A) (A) (A) (A) (A) (A) (A) (A) (A) (A) (A)
                 (A) (A) (A) (A) (A) (A) (A) (A) (A) (A) (A) (A)
                 (A) (A) (A) (A) (A) (A) (A) (A) (A) (A) (A) (A)
                 (A) (A) (A) (A) (A) (A) (A) (A) (A) (A) (A) (A)
                 (A) (A) (A) (A) (A) (A) (A) (A) (A) (A) (A) (A)
                 (A) (A) (A) (A) (A) (A) (A) (A) (A) (A) (A) (A)
                 (A) (A) (A) (A) (A) (A) (A) (A) (A) (A) (A) (A)
                 (A) (A) (A) (A) (A) (A) (A) (A) (A) (A) (A) (A)
                 (A) (A) (A) (A) (A) (A) (A) (A) (A) (A) (A) (A)
                 (A) (A) (A) (A) (A) (A) (A) (A) (A) (A) (A) (A)
                 (A) (A) (A) (A) (A) (A) (A) (A) (A) (A) (A) (A)
                 (A) (A) (A) (A) (A) (A) (A) (A) (A) (A) (A) (A)
                 (A) (A) (A) (A) (A) (A) (A) (A) (A) (A) (A) (A)
                 (A) (A) (A) (A) (A) (A) (A) (A) (A) (A) (A) (A)
                 (A) (A) (A) (A) (A)
       Virtual   (A) (A) (A) (A) (A) (A) (A) (A) (A) (A) (A) (A)
                 (A) (A) (A) (A) (A) (A) (A) (A) (A) (A) (A) (A)
                 (A) (A) (A) (A) (A) (A) (A) (A) (A) (A) (A) (A)
                 (A) (A) (A) (A) (A) (A) (A) (A) (A) (A) (A) (A)
                 (A) (A) (A) (A) (A) (A) (A) (A) (A) (A) (A) (A)
                 (A) (A) (A) (A) (A) (A) (A) (A) (A) (A) (A) (A)
                 (A) (A) (A) (A) (A) (A) (A) (A) (A) (A) (A) (A)
                 (A) (A) (A) (A) (A) (A) (A) (A) (A) (A) (A) (A)
                 (A) (A) (A) (A) (A) (A) (A) (A) (A) (A) (A) (A)
                 (A) (A) (A) (A) (A) (A) (A) (A) (A) (A) (A) (A)
                 (A) (A) (A) (A) (A) (A) (A) (A) (A) (A) (A) (A)
                 (A) (A) (A) (A) (A) (A) (A) (A) (A) (A) (A) (A)
                 (A) (A) (A) (A) (A) (A) (A) (A) (A) (A) (A) (A)
                 (A) (A) (A) (A) (A) (A) (A) (A) (A) (A) (A) (A)
                 (A) (A) (A) (A) (A) (A) (A) (A) (A) (A) (A) (A)
                 (A) (A) (A) (A) (A) (A) (A) (A) (A) (A) (A) (A)
                 (A) (A) (A) (A) (A) (A) (A) (A) (A) (A) (A) (A)
                 (A) (A) (A) (A) (A) (A) (A) (A) (A) (A) (A) (A)
                 (A) (A) (A) (A) (A) (A) (A) (A) (A) (A) (A) (A)
                 (A) (A) (A) (A) (A) (A) (A) (A) (A) (A) (A) (A)
                 (A) (A) (A) (A) (A) (A) (A) (A) (A) (A) (A) (A)
                 (A) (A) (A) (A) (A) (A) (A) (A) (A) (A) (A) (A)
                 (A) (A) (A) (A) (A) (A) (A) (A) (A) (A) (A) (A)
                 (A) (A) (A) (A) (A) (A) (A) (A) (A) (A) (A) (A)
                 (A) (A) (A) (A) (A) (A) (A) (A) (A) (A) (A) (A)
                 (A) (A) (A) (A) (A) (A) (A) (A) (A) (A) (A) (A)
                 (A) (A) (A) (A) (A) (A) (A) (A) (A) (A) (A) (A)
                 (A) (A) (A) (A) (A) (A) (A) (A) (A) (A) (A) (A)
                 (A) (A) (A) (A) (A) (A) (A) (A) (A) (A) (A) (A)
                 (A) (A) (A) (A) (A) (A) (A) (A) (A) (A) (A) (A)
                 (A) (A) (A) (A) (A) (A) (A) (A) (A) (A) (A) (A)
                 (A) (A) (A) (A) (A) (A) (A) (A) (A) (A) (A) (A)
                 (A) (A) (A) (A) (A) (A) (A) (A) (A) (A) (A) (A)
                 (A) (A) (A) (A) (A) (A) (A) (A) (A) (A) (A) (A)
                 (A) (A) (A) (A) (A) (A) (A) (A) (A) (A) (A) (A)
                 (A) (A) (A) (A) (A) (A) (A) (A) (A) (A) (A) (A)
                 (A) (A) (A) (A) (A) (A) (A) (A) (A) (A) (A) (A)
                 (A) (A) (A) (A) (A) (A) (A) (A) (A) (A) (A) (A)
                 (A) (A) (A) (A) (A) (A) (A) (A) (A) (A) (A) (A)
                 (A) (A) (A) (A) (A) (A) (A) (A) (A) (A) (A) (A)
                 (A) (A) (A) (A) (A) (A) (A) (A) (A) (A) (A) (A)
                 (A) (A) (A) (A) (A) (A) (A) (A) (A) (A) (A) (A)
                 (A) (A) (A) (A) (A) (A) (A) (A) (A) (A) (A) (A)
                 (A) (A) (A) (A) (A) (A) (A) (A) (A) (A) (A) (A)
                 (A) (A) (A) (A) (A) (A) (A) (A) (A) (A) (A) (A)
                 (A) (A) (A) (A) (A) (A) (A) (A) (A) (A) (A) (A)
                 (A) (A) (A) (A) (A) (A) (A) (A) (A) (A) (A) (A)
                 (A) (A) (A) (A) (A) (A) (A) (A) (A) (A) (A) (A)
                 (A) (A) (A) (A) (A) (A) (A) (A) (A) (A) (A) (A)
                 (A) (A) (A) (A) (A) (A) (A) (A) (A) (A) (A) (A)
                 (A) (A) (A) (A) (A) (A) (A) (A) (A) (A) (A) (A)
                 (A) (A) (A) (A) (A) (A) (A) (A) (A) (A) (A) (A)
                 (A) (A) (A) (A) (A) (A) (A) (A) (A) (A) (A) (A)
                 (A) (A) (A) (A) (A) (A) (A) (A) (A) (A) (A) (A)
                 (A) (A) (A) (A) (A) (A) (A) (A) (A) (A) (A) (A)
                 (A) (A) (A) (A) (A) (A) (A) (A) (A) (A) (A) (A)
                 (A) (A) (A) (A) (A)
 The electronic state is 1-A.
 Alpha  occ. eigenvalues --  -24.83469 -24.83130 -24.82755 -19.21071 -19.20803
 Alpha  occ. eigenvalues --  -19.20713 -19.20388 -19.20172 -19.19299 -19.17458
 Alpha  occ. eigenvalues --  -14.45761 -14.45089 -14.41599 -10.51631 -10.33322
 Alpha  occ. eigenvalues --  -10.33159 -10.32788 -10.31152 -10.30509 -10.30298
 Alpha  occ. eigenvalues --  -10.30021 -10.29687 -10.29620 -10.29550 -10.29479
 Alpha  occ. eigenvalues --  -10.29418 -10.29322 -10.29058 -10.28951 -10.28686
 Alpha  occ. eigenvalues --  -10.28234 -10.27014 -10.25924 -10.24623 -10.23967
 Alpha  occ. eigenvalues --  -10.23912 -10.23572 -10.23448 -10.23347 -10.23230
 Alpha  occ. eigenvalues --  -10.23210 -10.23016 -10.22887 -10.22885 -10.22547
 Alpha  occ. eigenvalues --  -10.22531 -10.22302 -10.22260 -10.22232 -10.22100
 Alpha  occ. eigenvalues --  -10.21217  -6.80964  -6.80296  -6.79139  -3.63609
 Alpha  occ. eigenvalues --   -2.06119  -2.05942  -2.04546  -1.35998  -1.27504
 Alpha  occ. eigenvalues --   -1.26981  -1.06820  -1.06573  -1.05737  -1.03483
 Alpha  occ. eigenvalues --   -1.00805  -0.99799  -0.99599  -0.98772  -0.98318
 Alpha  occ. eigenvalues --   -0.93381  -0.86561  -0.84824  -0.84553  -0.83838
 Alpha  occ. eigenvalues --   -0.80983  -0.80537  -0.79956  -0.79515  -0.75429
 Alpha  occ. eigenvalues --   -0.75292  -0.75039  -0.74375  -0.74113  -0.73735
 Alpha  occ. eigenvalues --   -0.71671  -0.71003  -0.70412  -0.69968  -0.69116
 Alpha  occ. eigenvalues --   -0.69044  -0.68692  -0.68190  -0.67751  -0.67146
 Alpha  occ. eigenvalues --   -0.65814  -0.64793  -0.62361  -0.61998  -0.61898
 Alpha  occ. eigenvalues --   -0.61669  -0.61061  -0.60722  -0.60458  -0.59424
 Alpha  occ. eigenvalues --   -0.57607  -0.55156  -0.55011  -0.54439  -0.54317
 Alpha  occ. eigenvalues --   -0.54171  -0.54118  -0.53428  -0.52917  -0.52755
 Alpha  occ. eigenvalues --   -0.51768  -0.50814  -0.49583  -0.49463  -0.49070
 Alpha  occ. eigenvalues --   -0.48464  -0.47925  -0.47712  -0.47342  -0.47244
 Alpha  occ. eigenvalues --   -0.46800  -0.46773  -0.46656  -0.46588  -0.46414
 Alpha  occ. eigenvalues --   -0.45899  -0.45798  -0.45580  -0.45286  -0.45012
 Alpha  occ. eigenvalues --   -0.44961  -0.44651  -0.44341  -0.44166  -0.44025
 Alpha  occ. eigenvalues --   -0.43987  -0.43781  -0.43275  -0.43145  -0.43041
 Alpha  occ. eigenvalues --   -0.42737  -0.41585  -0.40916  -0.40609  -0.40468
 Alpha  occ. eigenvalues --   -0.40333  -0.40243  -0.40160  -0.40117  -0.40077
 Alpha  occ. eigenvalues --   -0.39997  -0.39751  -0.39679  -0.39583  -0.39506
 Alpha  occ. eigenvalues --   -0.39429  -0.38987  -0.38706  -0.38553  -0.38319
 Alpha  occ. eigenvalues --   -0.38046  -0.37760  -0.37504  -0.37148  -0.37144
 Alpha  occ. eigenvalues --   -0.36986  -0.36699  -0.36569  -0.36457  -0.36069
 Alpha  occ. eigenvalues --   -0.36006  -0.35603  -0.35469  -0.35258  -0.35183
 Alpha  occ. eigenvalues --   -0.34483  -0.34378  -0.34130  -0.33721  -0.33056
 Alpha  occ. eigenvalues --   -0.32779  -0.32701  -0.32423  -0.32180  -0.32048
 Alpha  occ. eigenvalues --   -0.31631  -0.31307  -0.30797  -0.30340  -0.29969
 Alpha  occ. eigenvalues --   -0.29744  -0.27945  -0.27679  -0.26936  -0.26451
 Alpha  occ. eigenvalues --   -0.26075  -0.25489  -0.25238  -0.24373  -0.23749
 Alpha  occ. eigenvalues --   -0.23281  -0.22690  -0.22377  -0.21141
 Alpha virt. eigenvalues --   -0.08107  -0.04665  -0.03745  -0.00907   0.00233
 Alpha virt. eigenvalues --    0.02157   0.03110   0.04704   0.05670   0.05990
 Alpha virt. eigenvalues --    0.06884   0.07091   0.07765   0.07859   0.08860
 Alpha virt. eigenvalues --    0.09367   0.09807   0.10125   0.10516   0.10736
 Alpha virt. eigenvalues --    0.11106   0.11356   0.11684   0.12271   0.12587
 Alpha virt. eigenvalues --    0.12716   0.12992   0.13561   0.13642   0.14245
 Alpha virt. eigenvalues --    0.14524   0.14734   0.14919   0.15107   0.15179
 Alpha virt. eigenvalues --    0.15447   0.15509   0.15673   0.15715   0.15935
 Alpha virt. eigenvalues --    0.15990   0.16336   0.16547   0.16760   0.16869
 Alpha virt. eigenvalues --    0.16929   0.17181   0.17472   0.17606   0.17899
 Alpha virt. eigenvalues --    0.18028   0.18181   0.18519   0.18646   0.18922
 Alpha virt. eigenvalues --    0.19093   0.19301   0.19397   0.19641   0.19807
 Alpha virt. eigenvalues --    0.19872   0.19971   0.20276   0.20342   0.20577
 Alpha virt. eigenvalues --    0.20809   0.21023   0.21320   0.21479   0.21700
 Alpha virt. eigenvalues --    0.21926   0.22140   0.22458   0.22533   0.23073
 Alpha virt. eigenvalues --    0.23090   0.23281   0.23723   0.23810   0.24006
 Alpha virt. eigenvalues --    0.24177   0.24292   0.24425   0.24864   0.25091
 Alpha virt. eigenvalues --    0.25267   0.25737   0.25931   0.26572   0.26765
 Alpha virt. eigenvalues --    0.26815   0.27117   0.27394   0.27749   0.28298
 Alpha virt. eigenvalues --    0.28646   0.28857   0.29324   0.30126   0.30329
 Alpha virt. eigenvalues --    0.30772   0.31111   0.31714   0.32583   0.32776
 Alpha virt. eigenvalues --    0.33099   0.33496   0.33829   0.33957   0.34422
 Alpha virt. eigenvalues --    0.34877   0.35600   0.35863   0.36186   0.36742
 Alpha virt. eigenvalues --    0.36981   0.38132   0.38543   0.40186   0.40444
 Alpha virt. eigenvalues --    0.41157   0.41917   0.42845   0.44006   0.44957
 Alpha virt. eigenvalues --    0.46175   0.46809   0.47436   0.48305   0.48638
 Alpha virt. eigenvalues --    0.48756   0.49423   0.49508   0.49887   0.50241
 Alpha virt. eigenvalues --    0.50624   0.51094   0.51492   0.51715   0.51996
 Alpha virt. eigenvalues --    0.52333   0.52410   0.52848   0.53281   0.53389
 Alpha virt. eigenvalues --    0.54092   0.54581   0.55322   0.55422   0.55725
 Alpha virt. eigenvalues --    0.56001   0.56390   0.56448   0.56568   0.56971
 Alpha virt. eigenvalues --    0.57134   0.57440   0.57567   0.57796   0.57995
 Alpha virt. eigenvalues --    0.58267   0.58335   0.58510   0.58761   0.58996
 Alpha virt. eigenvalues --    0.59063   0.59239   0.59567   0.59796   0.60004
 Alpha virt. eigenvalues --    0.60160   0.60642   0.60847   0.60953   0.61400
 Alpha virt. eigenvalues --    0.61721   0.62046   0.62486   0.63214   0.63441
 Alpha virt. eigenvalues --    0.63899   0.64106   0.64215   0.64673   0.64952
 Alpha virt. eigenvalues --    0.65351   0.65776   0.66103   0.66474   0.67268
 Alpha virt. eigenvalues --    0.67532   0.67727   0.68001   0.68481   0.69150
 Alpha virt. eigenvalues --    0.69232   0.69721   0.70033   0.70134   0.70660
 Alpha virt. eigenvalues --    0.71010   0.71213   0.71579   0.71781   0.71889
 Alpha virt. eigenvalues --    0.72226   0.72592   0.72886   0.73158   0.73212
 Alpha virt. eigenvalues --    0.73870   0.74296   0.74423   0.74682   0.75093
 Alpha virt. eigenvalues --    0.75374   0.76024   0.76229   0.76518   0.76738
 Alpha virt. eigenvalues --    0.76840   0.77258   0.77590   0.78184   0.78298
 Alpha virt. eigenvalues --    0.78738   0.79201   0.79321   0.79536   0.80101
 Alpha virt. eigenvalues --    0.80604   0.81039   0.81331   0.81877   0.82422
 Alpha virt. eigenvalues --    0.82473   0.82904   0.83326   0.83462   0.83527
 Alpha virt. eigenvalues --    0.83643   0.83955   0.84231   0.84481   0.84923
 Alpha virt. eigenvalues --    0.85080   0.85405   0.85716   0.85900   0.86064
 Alpha virt. eigenvalues --    0.86349   0.86473   0.86774   0.87123   0.87437
 Alpha virt. eigenvalues --    0.87635   0.87848   0.88176   0.88586   0.88815
 Alpha virt. eigenvalues --    0.89067   0.89309   0.89549   0.89696   0.89968
 Alpha virt. eigenvalues --    0.90068   0.90186   0.90372   0.90985   0.91287
 Alpha virt. eigenvalues --    0.91533   0.91723   0.91892   0.91987   0.92092
 Alpha virt. eigenvalues --    0.92486   0.93117   0.93442   0.93748   0.93916
 Alpha virt. eigenvalues --    0.94419   0.94678   0.94814   0.95106   0.95604
 Alpha virt. eigenvalues --    0.95773   0.96117   0.96288   0.96626   0.96942
 Alpha virt. eigenvalues --    0.97405   0.97540   0.98174   0.98630   0.99189
 Alpha virt. eigenvalues --    0.99720   0.99903   1.00231   1.00976   1.01067
 Alpha virt. eigenvalues --    1.01673   1.01747   1.02125   1.02858   1.03595
 Alpha virt. eigenvalues --    1.03608   1.04013   1.04331   1.04627   1.04852
 Alpha virt. eigenvalues --    1.05197   1.05403   1.06435   1.07378   1.07385
 Alpha virt. eigenvalues --    1.07823   1.08414   1.08785   1.09142   1.09779
 Alpha virt. eigenvalues --    1.10749   1.11809   1.12385   1.12682   1.13602
 Alpha virt. eigenvalues --    1.14162   1.15136   1.15268   1.15467   1.15840
 Alpha virt. eigenvalues --    1.16506   1.16896   1.17344   1.18086   1.18194
 Alpha virt. eigenvalues --    1.18735   1.18840   1.18989   1.19783   1.20295
 Alpha virt. eigenvalues --    1.20610   1.21259   1.21643   1.22310   1.22828
 Alpha virt. eigenvalues --    1.23100   1.23857   1.24044   1.24700   1.25037
 Alpha virt. eigenvalues --    1.25377   1.26619   1.27347   1.28610   1.28826
 Alpha virt. eigenvalues --    1.29653   1.30095   1.31443   1.32047   1.32230
 Alpha virt. eigenvalues --    1.33004   1.33395   1.33687   1.34181   1.34459
 Alpha virt. eigenvalues --    1.35040   1.35431   1.36397   1.36520   1.37666
 Alpha virt. eigenvalues --    1.38292   1.38622   1.38810   1.39126   1.39696
 Alpha virt. eigenvalues --    1.40058   1.40112   1.41434   1.41542   1.42258
 Alpha virt. eigenvalues --    1.42580   1.42995   1.43552   1.43888   1.44241
 Alpha virt. eigenvalues --    1.44848   1.45294   1.45612   1.45918   1.46460
 Alpha virt. eigenvalues --    1.47036   1.47205   1.47691   1.47970   1.48975
 Alpha virt. eigenvalues --    1.49405   1.49600   1.50203   1.50899   1.51262
 Alpha virt. eigenvalues --    1.52042   1.52497   1.53052   1.53708   1.53946
 Alpha virt. eigenvalues --    1.54239   1.55450   1.56291   1.56834   1.57693
 Alpha virt. eigenvalues --    1.58627   1.58940   1.59888   1.60929   1.61762
 Alpha virt. eigenvalues --    1.62662   1.63652   1.64527   1.64911   1.65177
 Alpha virt. eigenvalues --    1.65765   1.65913   1.66725   1.67204   1.67773
 Alpha virt. eigenvalues --    1.68480   1.69379   1.70183   1.70582   1.71050
 Alpha virt. eigenvalues --    1.71509   1.72107   1.72186   1.73079   1.75123
 Alpha virt. eigenvalues --    1.75448   1.76172   1.76910   1.77165   1.77640
 Alpha virt. eigenvalues --    1.78153   1.78405   1.78813   1.79668   1.80430
 Alpha virt. eigenvalues --    1.80689   1.80800   1.81285   1.81620   1.81861
 Alpha virt. eigenvalues --    1.82145   1.82453   1.83618   1.83703   1.84027
 Alpha virt. eigenvalues --    1.84395   1.85366   1.85699   1.85983   1.86422
 Alpha virt. eigenvalues --    1.87054   1.87449   1.87581   1.87867   1.88135
 Alpha virt. eigenvalues --    1.88226   1.89342   1.89834   1.90244   1.90744
 Alpha virt. eigenvalues --    1.91088   1.91631   1.91705   1.91869   1.92207
 Alpha virt. eigenvalues --    1.92266   1.92697   1.92938   1.93238   1.93527
 Alpha virt. eigenvalues --    1.93667   1.93856   1.94285   1.94920   1.96061
 Alpha virt. eigenvalues --    1.96173   1.96379   1.96880   1.97584   1.97871
 Alpha virt. eigenvalues --    1.98049   1.98774   1.99662   2.00455   2.00813
 Alpha virt. eigenvalues --    2.01156   2.01412   2.01923   2.02320   2.02688
 Alpha virt. eigenvalues --    2.02702   2.03249   2.03508   2.04184   2.04429
 Alpha virt. eigenvalues --    2.04948   2.05218   2.05484   2.06234   2.06293
 Alpha virt. eigenvalues --    2.06678   2.07214   2.07556   2.07764   2.08140
 Alpha virt. eigenvalues --    2.08557   2.09184   2.09428   2.09482   2.10123
 Alpha virt. eigenvalues --    2.10542   2.10795   2.11169   2.11443   2.11557
 Alpha virt. eigenvalues --    2.11953   2.12575   2.12909   2.13598   2.13726
 Alpha virt. eigenvalues --    2.14396   2.14793   2.14842   2.15181   2.15325
 Alpha virt. eigenvalues --    2.15530   2.16108   2.16594   2.16751   2.17239
 Alpha virt. eigenvalues --    2.17655   2.17802   2.18263   2.18707   2.18811
 Alpha virt. eigenvalues --    2.19422   2.19740   2.20307   2.20789   2.20962
 Alpha virt. eigenvalues --    2.21219   2.21642   2.21896   2.22402   2.22803
 Alpha virt. eigenvalues --    2.23175   2.23734   2.23965   2.24389   2.24842
 Alpha virt. eigenvalues --    2.25284   2.25432   2.26318   2.26586   2.27180
 Alpha virt. eigenvalues --    2.27849   2.28161   2.28706   2.29186   2.29766
 Alpha virt. eigenvalues --    2.29998   2.31132   2.31529   2.31916   2.32319
 Alpha virt. eigenvalues --    2.32769   2.33195   2.33383   2.33862   2.34706
 Alpha virt. eigenvalues --    2.35095   2.35680   2.36643   2.37022   2.37976
 Alpha virt. eigenvalues --    2.38175   2.38746   2.39562   2.40597   2.40890
 Alpha virt. eigenvalues --    2.41160   2.43344   2.43860   2.45086   2.45957
 Alpha virt. eigenvalues --    2.47527   2.47923   2.48384   2.49233   2.49413
 Alpha virt. eigenvalues --    2.49705   2.50596   2.50879   2.51695   2.52689
 Alpha virt. eigenvalues --    2.53599   2.56985   2.57618   2.58031   2.58523
 Alpha virt. eigenvalues --    2.59601   2.59786   2.60112   2.60521   2.61141
 Alpha virt. eigenvalues --    2.62510   2.63791   2.64610   2.64939   2.65016
 Alpha virt. eigenvalues --    2.65303   2.65815   2.67232   2.67673   2.68404
 Alpha virt. eigenvalues --    2.69560   2.71693   2.72433   2.76691   2.77695
 Alpha virt. eigenvalues --    2.77858   2.78006   2.78755   2.78948   2.79674
 Alpha virt. eigenvalues --    2.79748   2.80084   2.80279   2.80630   2.80952
 Alpha virt. eigenvalues --    2.81509   2.81682   2.82022   2.82814   2.83630
 Alpha virt. eigenvalues --    2.85203   2.85919   2.87980   2.88591   2.89609
 Alpha virt. eigenvalues --    2.91008   2.91420   2.93136   2.94563   2.94709
 Alpha virt. eigenvalues --    2.96009   2.96294   2.97348   2.98266   3.03056
 Alpha virt. eigenvalues --    3.03463   3.04946   3.05842   3.06773   3.08381
 Alpha virt. eigenvalues --    3.11247   3.11566   3.12317   3.13010   3.13834
 Alpha virt. eigenvalues --    3.15156   3.20442   3.25336   3.31108   3.39311
 Alpha virt. eigenvalues --    3.44613  14.67020
          Condensed to atoms (all electrons):
 Mulliken charges:
               1
     1  C    0.312671
     2  C    0.032056
     3  C   -0.070624
     4  C   -0.156224
     5  C   -0.192770
     6  C    0.302167
     7  C    0.054291
     8  C   -0.172132
     9  C   -0.136444
    10  C   -0.183145
    11  H    0.234008
    12  H    0.200315
    13  H    0.177306
    14  H    0.241259
    15  H    0.186843
    16  H    0.173856
    17  N   -0.464356
    18  N   -0.498206
    19  Ir  -0.234849
    20  O   -0.505661
    21  O   -0.523413
    22  O   -0.499594
    23  B    0.503144
    24  B    0.516300
    25  B    0.521237
    26  O   -0.524915
    27  O   -0.544326
    28  C    0.303040
    29  C    0.286887
    30  C    0.288002
    31  C    0.296837
    32  C    0.291871
    33  C    0.299695
    34  O   -0.526069
    35  C   -0.511896
    36  H    0.147153
    37  H    0.166701
    38  H    0.171446
    39  C   -0.496985
    40  H    0.155248
    41  H    0.138663
    42  H    0.185354
    43  C   -0.511270
    44  H    0.161965
    45  H    0.153402
    46  H    0.177231
    47  C   -0.508138
    48  H    0.149637
    49  H    0.160186
    50  H    0.175025
    51  C   -0.502022
    52  H    0.165724
    53  H    0.146454
    54  H    0.187642
    55  C   -0.506796
    56  H    0.154029
    57  H    0.167188
    58  H    0.161615
    59  C   -0.512346
    60  H    0.151813
    61  H    0.168090
    62  H    0.176865
    63  C   -0.516106
    64  H    0.152650
    65  H    0.153253
    66  H    0.181608
    67  C   -0.508394
    68  H    0.167882
    69  H    0.169699
    70  H    0.152237
    71  C   -0.499256
    72  H    0.155767
    73  H    0.155543
    74  H    0.158163
    75  C   -0.509267
    76  H    0.149721
    77  H    0.168889
    78  H    0.167790
    79  C   -0.495684
    80  H    0.165872
    81  H    0.145568
    82  H    0.173416
    83  H    0.143099
    84  C   -0.166179
    85  C   -0.162849
    86  C   -0.122528
    87  C    0.022268
    88  H    0.146794
    89  C   -0.177494
    90  C   -0.158590
    91  H    0.167567
    92  H    0.189008
    93  H    0.261798
    94  H    0.139385
    95  C    0.505259
    96  O   -0.510040
    97  N   -0.401650
    98  C   -0.366910
    99  H    0.162381
   100  H    0.213326
   101  H    0.166693
   102  C   -0.374615
   103  H    0.198389
   104  H    0.168572
   105  H    0.169675
   106  C    0.973026
   107  F   -0.311625
   108  F   -0.316514
   109  F   -0.308633
 Sum of Mulliken charges =  -0.00000
 Mulliken charges with hydrogens summed into heavy atoms:
               1
     1  C    0.312671
     2  C    0.266064
     3  C   -0.070624
     4  C    0.044092
     5  C   -0.015464
     6  C    0.302167
     7  C    0.295550
     8  C    0.016876
     9  C    0.050398
    10  C   -0.009289
    17  N   -0.464356
    18  N   -0.498206
    19  Ir  -0.234849
    20  O   -0.505661
    21  O   -0.523413
    22  O   -0.499594
    23  B    0.503144
    24  B    0.516300
    25  B    0.521237
    26  O   -0.524915
    27  O   -0.544326
    28  C    0.303040
    29  C    0.286887
    30  C    0.288002
    31  C    0.296837
    32  C    0.291871
    33  C    0.299695
    34  O   -0.526069
    35  C   -0.026596
    39  C   -0.017721
    43  C   -0.018672
    47  C   -0.023289
    51  C   -0.002202
    55  C   -0.023965
    59  C   -0.015579
    63  C   -0.028595
    67  C   -0.018576
    71  C   -0.029783
    75  C   -0.022867
    79  C   -0.010829
    84  C   -0.023080
    85  C   -0.016055
    86  C    0.139271
    87  C    0.022268
    89  C   -0.038108
    90  C    0.008977
    95  C    0.505259
    96  O   -0.510040
    97  N   -0.401650
    98  C    0.175489
   102  C    0.162021
   106  C    0.973026
   107  F   -0.311625
   108  F   -0.316514
   109  F   -0.308633
 APT charges:
               1
     1  C    0.265780
     2  C    0.074200
     3  C   -0.225188
     4  C    0.125591
     5  C   -0.199073
     6  C    0.152721
     7  C    0.032470
     8  C   -0.056414
     9  C    0.111636
    10  C   -0.165426
    11  H    0.155351
    12  H    0.058264
    13  H    0.043902
    14  H    0.149519
    15  H    0.033607
    16  H    0.041578
    17  N   -0.252407
    18  N   -0.128619
    19  Ir  -1.161572
    20  O   -0.954495
    21  O   -1.002868
    22  O   -0.948078
    23  B    1.352942
    24  B    1.280070
    25  B    1.235375
    26  O   -0.934253
    27  O   -1.026591
    28  C    0.522969
    29  C    0.478829
    30  C    0.469205
    31  C    0.446240
    32  C    0.492867
    33  C    0.492514
    34  O   -0.992216
    35  C    0.000972
    36  H   -0.019861
    37  H   -0.003411
    38  H   -0.001512
    39  C   -0.029299
    40  H    0.001282
    41  H   -0.033702
    42  H    0.031220
    43  C   -0.036516
    44  H    0.001027
    45  H   -0.026196
    46  H    0.009348
    47  C   -0.015419
    48  H   -0.018893
    49  H   -0.005126
    50  H    0.004494
    51  C   -0.025848
    52  H   -0.008322
    53  H   -0.027475
    54  H    0.015498
    55  C   -0.012380
    56  H   -0.016524
    57  H    0.001647
    58  H   -0.001380
    59  C   -0.006504
    60  H   -0.015797
    61  H   -0.001445
    62  H    0.005076
    63  C   -0.031208
    64  H   -0.002589
    65  H   -0.018699
    66  H    0.013790
    67  C    0.000151
    68  H   -0.002320
    69  H   -0.001056
    70  H   -0.016744
    71  C   -0.028368
    72  H   -0.010261
    73  H   -0.018094
    74  H   -0.002107
    75  C   -0.004799
    76  H   -0.016667
    77  H    0.004651
    78  H   -0.000646
    79  C   -0.025901
    80  H    0.002416
    81  H   -0.029814
    82  H    0.024860
    83  H    0.022861
    84  C   -0.198636
    85  C    0.041929
    86  C    0.314371
    87  C   -0.302698
    88  H    0.001314
    89  C   -0.174246
    90  C    0.047559
    91  H    0.031810
    92  H    0.042465
    93  H    0.333205
    94  H    0.038470
    95  C    1.380834
    96  O   -0.884267
    97  N   -0.874147
    98  C    0.349050
    99  H   -0.045660
   100  H    0.065384
   101  H   -0.070401
   102  C    0.292536
   103  H    0.037327
   104  H   -0.039038
   105  H   -0.060319
   106  C    1.809254
   107  F   -0.533301
   108  F   -0.610651
   109  F   -0.584982
 Sum of APT charges =  -0.00000
 APT charges with hydrogens summed into heavy atoms:
               1
     1  C    0.265780
     2  C    0.229552
     3  C   -0.225188
     4  C    0.183854
     5  C   -0.155171
     6  C    0.152721
     7  C    0.181989
     8  C   -0.013949
     9  C    0.145243
    10  C   -0.123849
    17  N   -0.252407
    18  N   -0.128619
    19  Ir  -1.161572
    20  O   -0.954495
    21  O   -1.002868
    22  O   -0.948078
    23  B    1.352942
    24  B    1.280070
    25  B    1.235375
    26  O   -0.934253
    27  O   -1.026591
    28  C    0.522969
    29  C    0.478829
    30  C    0.469205
    31  C    0.446240
    32  C    0.492867
    33  C    0.492514
    34  O   -0.992216
    35  C   -0.023813
    39  C   -0.030498
    43  C   -0.052337
    47  C   -0.034944
    51  C   -0.046147
    55  C   -0.028638
    59  C   -0.018669
    63  C   -0.038706
    67  C   -0.019968
    71  C   -0.058830
    75  C   -0.017460
    79  C   -0.028439
    84  C   -0.175775
    85  C    0.043243
    86  C    0.647576
    87  C   -0.302698
    89  C   -0.135776
    90  C    0.079369
    95  C    1.380834
    96  O   -0.884267
    97  N   -0.874147
    98  C    0.298373
   102  C    0.230506
   106  C    1.809254
   107  F   -0.533301
   108  F   -0.610651
   109  F   -0.584982
 Electronic spatial extent (au):  <R**2>=          34589.3149
 Charge=             -0.0000 electrons
 Dipole moment (field-independent basis, Debye):
    X=             -2.8352    Y=              2.5341    Z=              3.9224  Tot=              5.4631
 Quadrupole moment (field-independent basis, Debye-Ang):
   XX=           -345.4863   YY=           -326.6242   ZZ=           -302.5584
   XY=             12.3691   XZ=            -11.6916   YZ=              8.6005
 Traceless Quadrupole moment (field-independent basis, Debye-Ang):
   XX=            -20.5966   YY=             -1.7346   ZZ=             22.3312
   XY=             12.3691   XZ=            -11.6916   YZ=              8.6005
 Octapole moment (field-independent basis, Debye-Ang**2):
  XXX=           -117.8930  YYY=            -15.6217  ZZZ=            105.5200  XYY=             17.3390
  XXY=             97.9929  XXZ=           -152.4007  XZZ=              5.0693  YZZ=             48.8641
  YYZ=             49.4086  XYZ=             -1.7473
 Hexadecapole moment (field-independent basis, Debye-Ang**3):
 XXXX=         -21062.3785 YYYY=         -14173.4860 ZZZZ=          -8685.3103 XXXY=            585.1481
 XXXZ=          -1119.4501 YYYX=            -16.3943 YYYZ=            181.1599 ZZZX=            269.0332
 ZZZY=            -86.1808 XXYY=          -5970.9286 XXZZ=          -4943.1664 YYZZ=          -3807.9692
 XXYZ=            -49.5707 YYXZ=             16.5904 ZZXY=            -48.1974
 N-N= 9.176160886987D+03 E-N=-2.451167690315D+04  KE= 2.561564301198D+03
  Exact polarizability:     552.380      -5.373     534.349      11.248     -13.790     492.348
 Approx polarizability:     702.305     -20.377     813.587      33.277     -45.247     740.932
   1 Symmetry operations used in ECPInt.
 ECPInt:  NShTT=   55278 NPrTT=  342696 LenC2=   39999 LenP2D=  123365.
 LDataN:  DoStor=T MaxTD1= 8 Len=  415
 Calling FoFJK, ICntrl=    100127 FMM=F ISym2X=0 I1Cent= 0 IOpClX= 0 NMat=1 NMatS=1 NMatT=0.
 Defaulting to unpruned grid for atomic number  77.
 Defaulting to unpruned grid for atomic number  77.
 Defaulting to unpruned grid for atomic number  77.
 Defaulting to unpruned grid for atomic number  77.
 Defaulting to unpruned grid for atomic number  77.
 Defaulting to unpruned grid for atomic number  77.
 Defaulting to unpruned grid for atomic number  77.
 Defaulting to unpruned grid for atomic number  77.
 Defaulting to unpruned grid for atomic number  77.
 Defaulting to unpruned grid for atomic number  77.
 Defaulting to unpruned grid for atomic number  77.
 Defaulting to unpruned grid for atomic number  77.
 Defaulting to unpruned grid for atomic number  77.
 Defaulting to unpruned grid for atomic number  77.
 Defaulting to unpruned grid for atomic number  77.
 Defaulting to unpruned grid for atomic number  77.
 Full mass-weighted force constant matrix:
 Low frequencies --- -731.2389   -6.2073   -3.7115   -0.0005   -0.0003    0.0005
 Low frequencies ---    4.9114   14.4799   17.7686
 ******    1 imaginary frequencies (negative Signs) ****** 
 Diagonal vibrational polarizability:
      239.2192327     178.3107858      85.4247283
 Harmonic frequencies (cm**-1), IR intensities (KM/Mole), Raman scattering
 activities (A**4/AMU), depolarization ratios for plane and unpolarized
 incident light, reduced masses (AMU), force constants (mDyne/A),
 and normal coordinates:
                      1                      2                      3
                      A                      A                      A
 Frequencies --   -731.2388                14.1786                17.7269
 Red. masses --      1.1442                 5.0308                 7.4281
 Frc consts  --      0.3605                 0.0006                 0.0014
 IR Inten    --    787.8101                 0.7329                 0.1227
  Atom AN      X      Y      Z        X      Y      Z        X      Y      Z
     1   6     0.00  -0.00   0.00     0.04   0.00  -0.04     0.04  -0.03  -0.01
     2   6    -0.00  -0.00  -0.00    -0.01  -0.00  -0.03     0.03  -0.03  -0.01
     3   6    -0.00   0.00  -0.00    -0.00  -0.00  -0.03     0.12  -0.01  -0.02
     4   6    -0.00  -0.00  -0.00     0.03   0.00  -0.04     0.17  -0.00  -0.03
     5   6    -0.00  -0.00  -0.00     0.04   0.00  -0.04     0.13  -0.01  -0.02
     6   6     0.00  -0.00   0.00     0.06   0.00  -0.05     0.00  -0.04   0.00
     7   6     0.00   0.00   0.00     0.05   0.00  -0.04    -0.06  -0.04   0.01
     8   6    -0.00  -0.00   0.01     0.09   0.01  -0.05    -0.07  -0.05   0.01
     9   6     0.00   0.00   0.00     0.11   0.01  -0.06    -0.05  -0.05   0.01
    10   6    -0.00   0.00   0.00     0.09   0.01  -0.06    -0.01  -0.04   0.01
    11   1    -0.01  -0.00   0.00    -0.03  -0.00  -0.03    -0.01  -0.05   0.00
    12   1    -0.00  -0.00  -0.00     0.03   0.00  -0.03     0.24   0.02  -0.04
    13   1    -0.00  -0.00   0.00     0.06   0.00  -0.04     0.17   0.00  -0.03
    14   1     0.01   0.00   0.00     0.03   0.00  -0.04    -0.07  -0.04   0.01
    15   1     0.00   0.00   0.00     0.14   0.01  -0.07    -0.06  -0.05   0.01
    16   1    -0.00   0.00   0.01     0.11   0.01  -0.06     0.00  -0.04   0.01
    17   7    -0.00  -0.00   0.00     0.01   0.00  -0.04    -0.00  -0.04   0.00
    18   7     0.02   0.00   0.01     0.03   0.00  -0.04    -0.02  -0.04   0.00
    19  77    -0.01   0.00   0.00     0.00  -0.00  -0.03    -0.02  -0.03   0.00
    20   8    -0.00  -0.00  -0.00    -0.04   0.00  -0.02    -0.04  -0.02  -0.01
    21   8     0.00   0.00  -0.00    -0.04  -0.00   0.01    -0.03  -0.00   0.01
    22   8     0.00   0.00  -0.00     0.02   0.00   0.02    -0.02  -0.02   0.02
    23   5     0.03  -0.01  -0.01    -0.03  -0.00  -0.01    -0.01  -0.02   0.00
    24   5    -0.01   0.01  -0.00    -0.01  -0.00  -0.03    -0.02  -0.03  -0.01
    25   5     0.02  -0.00   0.00     0.01   0.00  -0.00    -0.01  -0.03   0.01
    26   8     0.00  -0.00  -0.00     0.02   0.00   0.01    -0.01  -0.02  -0.00
    27   8     0.00  -0.00  -0.00     0.01  -0.00  -0.04    -0.01  -0.04  -0.01
    28   6    -0.00   0.00   0.00    -0.01  -0.00  -0.03    -0.02  -0.03  -0.02
    29   6     0.00  -0.00  -0.00    -0.04   0.00  -0.01    -0.04  -0.02  -0.01
    30   6     0.00  -0.00  -0.00     0.03   0.00   0.04    -0.02  -0.01   0.02
    31   6     0.00   0.00  -0.00     0.04   0.01   0.03    -0.01  -0.01   0.00
    32   6     0.00   0.00   0.00    -0.06  -0.01   0.02    -0.03   0.01   0.01
    33   6     0.00  -0.00  -0.00    -0.06  -0.01   0.01     0.00  -0.00   0.01
    34   8     0.00   0.00  -0.01    -0.05  -0.01  -0.02     0.00  -0.03  -0.00
    35   6    -0.00  -0.00  -0.00    -0.07   0.00  -0.02    -0.07  -0.02  -0.02
    36   1    -0.00  -0.00  -0.00    -0.07   0.00  -0.01    -0.07  -0.02  -0.02
    37   1     0.00   0.00   0.00    -0.09   0.00  -0.01    -0.08  -0.01  -0.00
    38   1    -0.00  -0.00  -0.00    -0.08  -0.00  -0.05    -0.07  -0.02  -0.03
    39   6     0.00  -0.00  -0.00    -0.03   0.01   0.03    -0.04  -0.01   0.02
    40   1     0.00   0.00   0.00    -0.05   0.01   0.04    -0.05  -0.00   0.03
    41   1    -0.00  -0.00  -0.00    -0.03   0.01   0.03    -0.05  -0.01   0.02
    42   1     0.00   0.00  -0.00    -0.01   0.01   0.03    -0.02  -0.01   0.03
    43   6    -0.00  -0.00   0.00    -0.02  -0.01  -0.07    -0.03  -0.04  -0.05
    44   1    -0.00  -0.00   0.00     0.01  -0.01  -0.08    -0.02  -0.05  -0.06
    45   1     0.00  -0.00   0.00    -0.03  -0.01  -0.07    -0.04  -0.03  -0.06
    46   1    -0.00  -0.00  -0.00    -0.03  -0.01  -0.08    -0.04  -0.03  -0.05
    47   6     0.00  -0.00   0.00     0.01   0.00  -0.01    -0.01  -0.04  -0.02
    48   1    -0.00  -0.00   0.00    -0.01   0.00  -0.01    -0.03  -0.03  -0.02
    49   1    -0.00  -0.00   0.00     0.03  -0.00  -0.03    -0.00  -0.05  -0.03
    50   1     0.00   0.00  -0.00     0.02   0.01   0.01    -0.01  -0.03   0.00
    51   6    -0.00   0.00  -0.00    -0.09  -0.01   0.01    -0.06  -0.01   0.01
    52   1    -0.00   0.00   0.00    -0.09  -0.01   0.02    -0.08  -0.00   0.01
    53   1    -0.00  -0.00  -0.00    -0.11  -0.01   0.02    -0.07  -0.00   0.01
    54   1    -0.00   0.00   0.00    -0.09  -0.01  -0.01    -0.06  -0.03  -0.00
    55   6     0.00   0.00   0.00    -0.07  -0.00   0.06    -0.03   0.04   0.03
    56   1    -0.00  -0.00  -0.00    -0.09  -0.01   0.06    -0.03   0.05   0.04
    57   1     0.00   0.00   0.00    -0.07  -0.00   0.07    -0.05   0.05   0.03
    58   1    -0.00   0.00  -0.00    -0.05  -0.00   0.07    -0.01   0.05   0.04
    59   6    -0.00   0.00  -0.00    -0.09  -0.01  -0.00     0.00  -0.01   0.00
    60   1    -0.00   0.00  -0.00    -0.10  -0.01   0.02    -0.00   0.01   0.01
    61   1    -0.00   0.00  -0.00    -0.09  -0.01  -0.01     0.02  -0.02  -0.00
    62   1    -0.00  -0.00  -0.00    -0.10  -0.01  -0.01    -0.02  -0.03  -0.00
    63   6     0.00  -0.00  -0.00    -0.04  -0.00   0.02     0.03   0.02   0.02
    64   1     0.00   0.00   0.00    -0.04  -0.00   0.01     0.06   0.00   0.02
    65   1    -0.00   0.00   0.00    -0.06  -0.01   0.04     0.03   0.04   0.02
    66   1     0.00  -0.00  -0.00    -0.02  -0.00   0.03     0.03   0.02   0.02
    67   6     0.00  -0.00  -0.00     0.04   0.01   0.05     0.00  -0.00   0.00
    68   1     0.00  -0.00  -0.00     0.04   0.01   0.05     0.01  -0.00  -0.01
    69   1     0.00   0.00  -0.00     0.01   0.00   0.06    -0.00  -0.01   0.00
    70   1     0.00  -0.00   0.00     0.05   0.01   0.07    -0.00   0.01   0.00
    71   6     0.00  -0.00  -0.00     0.06   0.01   0.02     0.00  -0.00   0.00
    72   1     0.00   0.00  -0.00     0.06   0.01   0.02     0.02  -0.00  -0.01
    73   1    -0.00  -0.00  -0.00     0.08   0.01   0.04     0.00   0.02   0.01
    74   1     0.00   0.00   0.00     0.07   0.01   0.01    -0.01  -0.01   0.01
    75   6     0.00   0.00  -0.00     0.06   0.01   0.05    -0.02   0.00   0.03
    76   1     0.00   0.00  -0.00     0.06   0.01   0.07    -0.02   0.01   0.03
    77   1     0.00   0.00  -0.00     0.05   0.01   0.05    -0.03  -0.00   0.04
    78   1     0.00   0.00  -0.00     0.07   0.01   0.04    -0.02   0.00   0.03
    79   6     0.00   0.00  -0.00     0.01   0.00   0.06    -0.02  -0.01   0.02
    80   1     0.00  -0.00  -0.00     0.00   0.00   0.06    -0.03  -0.02   0.03
    81   1     0.00   0.00   0.00     0.01   0.00   0.08    -0.02  -0.00   0.02
    82   1     0.00  -0.00  -0.00    -0.01   0.00   0.05    -0.01  -0.02   0.02
    83   1     0.00  -0.01  -0.05     0.02   0.01   0.03    -0.08  -0.02  -0.11
    84   6     0.01   0.01  -0.01     0.01  -0.00   0.02    -0.05   0.02  -0.06
    85   6     0.00   0.01   0.01     0.01  -0.00   0.06    -0.06   0.06  -0.05
    86   6     0.01  -0.01  -0.08    -0.00  -0.01  -0.03    -0.02   0.01  -0.00
    87   6    -0.00   0.00   0.00    -0.00  -0.01   0.05    -0.02   0.11   0.01
    88   1     0.01   0.00   0.01     0.01   0.00   0.10    -0.09   0.07  -0.10
    89   6    -0.00  -0.01  -0.01    -0.01  -0.02  -0.05     0.01   0.05   0.06
    90   6    -0.01   0.00   0.01    -0.01  -0.02  -0.01     0.01   0.10   0.07
    91   1    -0.01   0.00   0.02    -0.02  -0.03  -0.02     0.04   0.13   0.11
    92   1    -0.00   0.00   0.01     0.10   0.01  -0.05    -0.10  -0.05   0.02
    93   1     0.91  -0.06   0.39    -0.00   0.01  -0.04    -0.02  -0.04  -0.00
    94   1    -0.01  -0.01  -0.05    -0.02  -0.02  -0.08     0.04   0.05   0.10
    95   6     0.00  -0.00  -0.00    -0.01  -0.02   0.11    -0.03   0.17   0.03
    96   8    -0.00  -0.00   0.00    -0.05  -0.05   0.11    -0.01   0.25   0.07
    97   7    -0.00  -0.00   0.00     0.03   0.02   0.17    -0.04   0.15   0.00
    98   6     0.00   0.00   0.00     0.01   0.02   0.24    -0.05   0.22   0.01
    99   1    -0.00  -0.00  -0.00     0.02   0.04   0.31    -0.08   0.22  -0.05
   100   1     0.00   0.00   0.00    -0.03  -0.04   0.24    -0.06   0.30   0.03
   101   1    -0.00  -0.00   0.00     0.05   0.06   0.22    -0.01   0.21   0.07
   102   6    -0.00   0.00  -0.00     0.08   0.09   0.17    -0.04   0.05  -0.02
   103   1    -0.00  -0.00  -0.00     0.10   0.08   0.11    -0.02   0.01  -0.01
   104   1     0.00  -0.00   0.00     0.08   0.10   0.22    -0.07   0.04  -0.09
   105   1    -0.00  -0.00   0.00     0.12   0.13   0.17    -0.01   0.03   0.02
   106   6    -0.00  -0.00   0.00    -0.02  -0.00  -0.03     0.15  -0.01  -0.03
   107   9     0.00   0.00   0.00    -0.04  -0.00  -0.03     0.15  -0.02  -0.03
   108   9     0.00   0.00  -0.00    -0.02  -0.00  -0.04     0.19  -0.03  -0.04
   109   9     0.00   0.00  -0.00    -0.02  -0.01  -0.00     0.16   0.03  -0.04
                      4                      5                      6
                      A                      A                      A
 Frequencies --     22.0588                25.2712                29.3705
 Red. masses --      4.8090                 4.6369                 3.7705
 Frc consts  --      0.0014                 0.0017                 0.0019
 IR Inten    --      0.1620                 2.7306                 0.0606
  Atom AN      X      Y      Z        X      Y      Z        X      Y      Z
     1   6    -0.03   0.03  -0.00    -0.04   0.00   0.01     0.03  -0.01   0.01
     2   6     0.01   0.01  -0.02     0.01  -0.00  -0.01    -0.00  -0.01   0.02
     3   6     0.02   0.02  -0.03     0.02   0.00  -0.02     0.01  -0.01   0.02
     4   6     0.00   0.03  -0.03    -0.01   0.01  -0.02     0.04  -0.01   0.02
     5   6    -0.02   0.03  -0.02    -0.04   0.01  -0.01     0.05  -0.01   0.01
     6   6    -0.05   0.03   0.01    -0.05   0.01   0.02     0.01  -0.02   0.01
     7   6    -0.04   0.03   0.01    -0.01   0.01   0.01    -0.03  -0.02   0.00
     8   6    -0.08   0.03   0.02    -0.04   0.01   0.02    -0.05  -0.03   0.01
     9   6    -0.10   0.03   0.02    -0.09   0.01   0.03    -0.04  -0.03   0.02
    10   6    -0.09   0.03   0.02    -0.09   0.01   0.03    -0.01  -0.03   0.01
    11   1     0.01   0.01  -0.02     0.03  -0.01  -0.01    -0.02  -0.01   0.02
[...]
 99,0.00053061,-0.00025990,-0.00342106,0.00486165,0.01811430,0.01027543
 ,0.00067877,0.00009990,-0.00190286,0.00042095,0.00017129,0.00122011,0.
 00011146,-0.00015473,0.00027189,-0.00001390,0.00002168,-0.00009888,0.0
 0000566,0.00009313,0.00004263,0.00001465,-0.00004712,0.00006909,-0.000
 04205,0.00010128,-0.00010434,-0.00015087,0.00050090,-0.00014136,-0.000
 32168,0.00124724,0.00087216,0.00003242,-0.00010682,0.00001093,-0.00001
 284,-0.00001452,-0.00003587,-0.00000318,0.00000244,-0.00001440,0.00002
 027,-0.00000512,0.00004998,-0.00103728,0.00158488,-0.00003040,-0.00001
 138,0.00016529,-0.00001676,0.00024024,-0.00010098,0.00014953,0.0000770
 3,0.00016332,0.00014607,0.00019434,-0.00019389,0.00035248,0.00012907,0
 .00005373,0.00000194,-0.00039278,0.00033853,-0.00075467,-0.00013908,-0
 .00020733,-0.00017534,-0.00022805,-0.00014825,-0.00006874,0.00016869,0
 .00004675,0.00006799,0.00004287,0.00018742,0.00007989,0.00000006,-0.00
 007736,-0.00005037,-0.00003367,-0.00003861,-0.00000046,-0.00006532,-0.
 00000778,-0.00002154,-0.00007348,0.00000047,-0.00000813,0.00004319,0.0
 0015973,-0.00016615,-0.00032014,0.00019321,-0.00013272,0.00032440,-0.0
 0040708,0.00064234,0.00000284,0.00000721,-0.00000841,-0.00000021,0.000
 00443,0.00000499,0.00000763,0.00000162,0.00001285,-0.00000221,0.000000
 01,-0.00000352,-0.00000276,0.00001425,-0.00001412,0.00000686,0.0000026
 5,0.00001341,0.00000903,0.00000158,0.00000081,-0.00000664,-0.00000371,
 -0.00000362,0.00000117,0.00001256,0.00000621,0.00000444,-0.00000620,0.
 00000415,-0.00000259,0.00001139,0.00000322,-0.00000020,-0.00000490,-0.
 00000486,0.00000023,0.00001214,0.00000700,0.00000295,0.00001156,0.0000
 0123,0.00000356,-0.00000635,0.00000156,-0.00000351,-0.00000311,-0.0000
 0415,-0.00001703,-0.00005136,0.00003638,-0.00000925,-0.00003925,-0.000
 00809,0.00001431,0.00001220,0.00002856,-0.00000190,0.00001960,-0.00001
 652,0.00000626,-0.00003169,0.00002623,0.00001938,0.00000857,0.00002183
 ,-0.00000686,-0.00003131,-0.00001171,0.00001530,0.00002211,-0.00002020
 ,0.00010886,0.00019419,0.00001177,-0.00002576,-0.00004184,0.00001758,-
 0.00003413,-0.00008276,0.00008664,-0.00000438,-0.00004151,-0.00001783,
 0.00015791,0.00025240,0.00003068,0.00013237,0.00004802,-0.00008648,-0.
 00000678,-0.00005261,-0.00000526,-0.00007201,-0.00008847,-0.00000178,-
 0.00000839,-0.00001454,-0.00002109,-0.00000906,0.00000629,-0.00001227,
 0.00001912,0.00001278,0.00002462,0.00000830,-0.00000417,0.00000520,0.0
 0000358,-0.00003463,-0.00000194,-0.00000978,0.00003249,0.00000945,0.00
 001299,0.00001001,-0.00000084,0.00000228,-0.00001704,0.00000989,0.0000
 0978,0.00000570,0.00000470,0.00000370,-0.00000193,-0.00000514,-0.00000
 031,0.00000850,0.00000076,0.00000263,-0.00000779,0.00001377,0.00001538
 ,0.00002632,-0.00001111,0.00000063,0.00000519,0.00000549,0.00000818,-0
 .00000224,0.00000299,-0.00000313,-0.00000717,-0.00000431,0.00003170,-0
 .00000768,-0.00007349,-0.00008807,0.00006642,0.00003583,0.00003096,-0.
 00000729,0.00003889,0.00003761,-0.00009043,-0.00007865,-0.00004521,0.0
 0000168,-0.00000333,-0.00001789,-0.00000908,-0.00001360,-0.00003743,-0
 .00002071,0.00002103,0.00000658,0.00000734,0.00000459,-0.00000355,-0.0
 0000016,-0.00000484,-0.00000093,0.00000991,-0.00000059,0.00002034,0.00
 001127,-0.00003703,0.00000656,-0.00001016,-0.00000951,0.00011972,0.000
 04831,-0.00008693,-0.00003998,-0.00001209,0.00004738,-0.00005052,-0.00
 004189,0.00006420,0.00001588,-0.00000279,0.00000954,-0.00000575,-0.000
 00510,-0.00000196,0.00000551,0.00000073,-0.00000079,-0.00000646,0.0000
 0400,0.00000261,-0.00001549,0.00002446,-0.00004146,0.00000522,0.000005
 20,-0.00001535,-0.00000494,-0.00001408,0.00000236,-0.00000891,0.000000
 55,0.00000987,-0.01167176,-0.01727851,-0.08272164,-0.02203694,-0.05815
 497,-0.02991981,0.03079668,0.05426646,0.09142383,-0.00032741,-0.000377
 67,0.00065452,-0.00220555,-0.00165524,-0.00317496,-0.03167732,0.018638
 82,-0.00159490,0.00044695,0.00119163,0.00270649,0.00102734,0.00144545,
 -0.00067729,-0.00023519,-0.00027446,0.00027976,-0.00015298,0.00009022,
 -0.00041754,0.00003095,0.00030692,0.00018011,0.00007871,-0.00017432,0.
 00017071,-0.00007895,0.00041592,-0.00022179,-0.00079704,-0.00057065,-0
 .00021161,-0.00108902,-0.00066620,-0.00012089,-0.00008152,0.00013742,-
 0.00023239,-0.00004402,-0.00003753,-0.00006624,-0.00002533,0.00001403,
 -0.00004709,-0.00000677,-0.00003000,0.00009144,0.00125143,0.00250790,-
 0.00146062,0.00002620,0.00001407,-0.00020677,0.00071077,-0.00018261,0.
 00007408,0.00021931,0.00045252,0.00027440,0.00078765,-0.00007025,0.000
 48033,0.00069759,-0.00011862,-0.00023994,-0.00112602,0.00001278,-0.000
 79484,-0.00036761,-0.00058457,-0.00030100,-0.00139495,0.00008506,0.000
 32860,0.00112797,-0.00049963,-0.00021099,0.00015080,0.00050236,0.00012
 094,-0.00002630,-0.00020170,-0.00010526,-0.00013218,-0.00015524,0.0000
 1676,-0.00023857,0.00018500,0.00005615,-0.00051004,0.00010566,0.000090
 63,0.00003861,0.00018648,-0.00043568,-0.00151339,0.00035753,-0.0000662
 5,0.00120314,-0.00008234,0.00079589,0.00002054,0.00002021,-0.00000944,
 0.00000011,0.00002092,0.00000643,0.00000677,-0.00000321,0.00002497,0.0
 0000592,-0.00000839,-0.00001131,0.00002289,0.00003179,-0.00000827,0.00
 000402,-0.00000185,0.00002731,0.00002297,0.00001709,-0.00000320,-0.000
 02731,0.00000168,-0.00000850,0.00000336,0.00002902,0.00002195,0.000007
 99,-0.00001960,0.00001197,-0.00000204,0.00003044,0.00001010,0.00000553
 ,-0.00000964,-0.00002562,-0.00000573,0.00003200,0.00001168,0.00000860,
 0.00002873,0.00000375,0.00000398,-0.00001313,0.00000020,0.00000251,-0.
 00000832,-0.00001043,-0.00001731,-0.00011645,0.00009496,0.00000156,-0.
 00004837,-0.00004189,0.00000104,0.00000633,0.00003203,0.00003518,-0.00
 000366,-0.00003219,-0.00000318,0.00002362,0.00008898,0.00002262,0.0000
 1133,0.00004572,0.00002036,-0.00004621,-0.00003008,0.00005514,0.000030
 33,-0.00008127,0.00014987,-0.00029497,-0.00001228,0.00006829,0.0000674
 1,0.00008861,-0.00014954,0.00006222,-0.00001720,0.00005085,-0.00003630
 ,-0.00011686,0.00100517,0.00004945,-0.00044751,-0.00123100,-0.00060335
 ,0.00015363,0.00014593,0.00006917,0.00009179,0.00000684,0.00029981,-0.
 00003009,0.00006195,0.00014938,0.00007265,-0.00004523,-0.00008175,-0.0
 0023659,0.00008230,0.00012261,0.00009938,0.00002355,-0.00010656,0.0000
 2975,0.00010959,-0.00000867,-0.00002213,-0.00010309,0.00004759,-0.0000
 1708,0.00003249,0.00002827,-0.00002978,0.00003273,-0.00010518,0.000057
 13,0.00002227,-0.00001835,-0.00001826,0.00004008,0.00001116,-0.0000281
 6,-0.00001381,-0.00001316,-0.00000028,0.00000077,0.00000115,0.00003305
 ,0.00004055,-0.00001375,-0.00001521,-0.00000536,-0.00003666,0.00000757
 ,0.00007424,0.00001979,-0.00000996,-0.00004268,0.00002875,0.00002969,-
 0.00000769,0.00003324,-0.00009489,0.00009055,-0.00015999,0.00010973,0.
 00001895,0.00003848,0.00003425,-0.00002563,-0.00008063,-0.00007161,-0.
 00007887,0.00002156,-0.00000460,0.00004087,-0.00001158,-0.00001339,-0.
 00000677,0.00000855,0.00002816,-0.00000811,0.00002705,-0.00000303,-0.0
 0000481,0.00001255,-0.00000877,0.00000231,0.00002558,-0.00000502,-0.00
 007651,-0.00003190,-0.00006703,-0.00000166,0.00000471,-0.00002075,0.00
 031300,0.00002274,-0.00005163,-0.00016871,0.00004247,-0.00002281,-0.00
 014692,-0.00002142,0.00005885,0.00008839,-0.00001430,0.00001299,-0.000
 00905,-0.00001035,0.00000238,0.00001249,0.00000405,-0.00000785,-0.0000
 2306,0.00001511,0.00001638,-0.00000362,-0.00001470,-0.00003138,0.00000
 773,-0.00001870,-0.00002828,0.00001716,0.00000431,-0.00000270,-0.00002
 768,0.00001741,0.00001465,-0.28113150,0.05696304,0.00961725,-0.0283821
 5,0.01644042,0.04194455,-0.06832293,-0.03131749,-0.00234360,0.41151462
 ,0.00012875,0.00018600,-0.00004225,0.00069739,0.00158746,0.00112556,0.
 03465443,-0.00502900,0.00436969,0.00067966,-0.00168707,-0.00256632,-0.
 00111772,-0.00141047,0.00053613,0.00021718,0.00027967,-0.00030893,0.00
 014059,-0.00008228,0.00039383,-0.00002086,-0.00028726,-0.00017624,-0.0
 0006738,0.00018521,-0.00016958,0.00009767,-0.00040347,0.00019355,0.000
 58905,0.00034608,0.00004430,0.00089578,0.00023389,0.00056511,-0.000010
 62,-0.00014471,0.00017969,0.00002140,0.00002941,0.00005727,0.00001499,
 -0.00001407,0.00004517,-0.00001546,0.00002503,-0.00005430,-0.00159809,
 -0.00079934,0.00122786,-0.00004815,0.00004031,0.00018968,-0.00011763,0
 .00003334,-0.00008044,-0.00011095,-0.00035325,-0.00019450,-0.00038957,
 -0.00005362,-0.00029347,-0.00037188,-0.00012970,0.00012881,0.00045466,
 0.00021696,0.00035389,0.00015580,0.00048899,0.00023206,0.00054148,0.00
 032237,-0.00009079,-0.00048470,-0.00009110,0.00013823,-0.00006754,-0.0
 0041868,-0.00009240,0.00000172,0.00018447,0.00008328,0.00006942,0.0001
 3459,-0.00000825,0.00015891,-0.00003540,-0.00002158,0.00030481,0.00002
 452,-0.00015312,0.00006480,-0.00003977,0.00017724,0.00036209,-0.000053
 73,0.00022056,-0.00043059,-0.00013569,-0.00045150,-0.00001277,-0.00001
 202,-0.00000195,-0.00000136,-0.00001958,-0.00000164,-0.00000513,0.0000
 0708,-0.00001207,0.00000442,0.00000481,0.00000488,-0.00001111,-0.00001
 689,0.00000620,0.00000050,0.00001038,-0.00000725,-0.00001426,-0.000021
 55,0.00000352,0.00001509,0.00000955,-0.00000082,0.00000298,-0.00002516
 ,-0.00000974,-0.00000379,0.00001548,-0.00000171,0.00000259,-0.00002672
 ,-0.00001091,-0.00000542,0.00001000,0.00001193,0.00000195,-0.00002370,
 -0.00000532,-0.00000757,-0.00002382,-0.00000692,-0.00000025,0.00001099
 ,0.00000548,0.00000524,0.00000980,0.00000295,-0.00000902,0.00000350,-0
 .00002111,0.00000403,-0.00000200,0.00000733,-0.00000852,0.00000124,-0.
 00003294,-0.00001057,0.00000659,0.00002149,-0.00000672,-0.00002341,-0.
 00001738,-0.00001162,0.00000482,-0.00002752,-0.00000958,-0.00000386,0.
 00000997,0.00000529,-0.00000169,0.00001868,-0.00002971,0.00002562,-0.0
 0001906,-0.00003567,-0.00001886,-0.00003903,0.00003838,-0.00000753,0.0
 0004492,0.00000130,0.00000089,0.00000589,-0.00013640,-0.00009616,-0.00
 005749,-0.00006831,-0.00226623,-0.00165477,-0.00008507,-0.00004146,-0.
 00008905,0.00009171,0.00006949,0.00002683,-0.00004863,-0.00002422,-0.0
 0001020,0.00004175,0.00000912,0.00002948,-0.00000153,-0.00001748,-0.00
 002994,-0.00002878,0.00000151,0.00001270,-0.00002717,0.00002234,0.0000
 2571,0.00004075,-0.00004698,-0.00002363,-0.00003847,-0.00002781,0.0000
 2504,-0.00000192,0.00005128,-0.00002286,-0.00000587,-0.00000982,0.0000
 0379,-0.00002332,0.00000332,0.00001327,0.00000412,-0.00001187,-0.00000
 238,0.00000485,0.00000607,-0.00001574,-0.00001563,-0.00000070,-0.00000
 285,0.00000348,-0.00000279,-0.00000624,-0.00003734,-0.00000085,0.00000
 648,0.00002271,-0.00000238,0.00000034,-0.00004737,-0.00002565,0.000078
 66,0.00007558,0.00004965,-0.00006158,-0.00006690,-0.00003308,-0.000043
 24,-0.00009386,0.00008814,0.00013962,0.00014994,-0.00000549,0.00000257
 ,0.00001720,0.00002203,0.00000367,0.00008568,0.00002108,-0.00002704,-0
 .00001742,-0.00003061,-0.00000379,0.00000812,-0.00000782,0.00000676,-0
 .00001344,-0.00002156,0.00000482,-0.00009597,0.00002547,0.00000675,-0.
 00000517,0.00001060,0.00002046,-0.00038077,-0.00008898,0.00012283,0.00
 017256,0.00000037,-0.00001831,0.00016499,0.00009377,-0.00009773,-0.000
 08013,-0.00000301,-0.00002156,0.00001767,0.00001661,-0.00000699,-0.000
 01180,-0.00001050,0.00000788,0.00002270,-0.00000764,-0.00000890,0.0000
 1447,-0.00003958,0.00005439,-0.00000730,0.00000631,0.00002923,-0.00000
 324,0.00001823,-0.00000632,0.00002091,-0.00000567,-0.00001863,0.060751
 70,-0.09330195,-0.00099620,0.01752852,0.00563223,-0.01548562,-0.050584
 12,0.00512006,-0.00078139,-0.06261161,0.09181901,0.00000565,0.00068528
 ,0.00095562,-0.00173217,-0.00200728,-0.00237071,-0.01909764,0.01105166
 ,0.00970096,0.00082914,-0.00027407,0.00046420,0.00037572,-0.00041403,0
 .00095396,-0.00005811,-0.00026265,0.00029525,-0.00007739,0.00003301,-0
 .00017851,0.00000514,0.00014618,0.00007933,0.00003659,-0.00008370,0.00
 008994,-0.00005278,0.00018339,-0.00012216,-0.00022629,0.00039581,-0.00
 022365,0.00040583,-0.00014372,0.00032043,-0.00000203,-0.00007232,-0.00
 000588,-0.00001355,-0.00001968,-0.00004378,-0.00000337,0.00000579,-0.0
 0002119,0.00000998,-0.00000826,0.00003882,0.00070343,0.00165833,-0.001
 18574,0.00005219,0.00010883,-0.00004672,0.00018740,-0.00015436,0.00015
 537,0.00007834,0.00017635,0.00015732,0.00021111,-0.00019263,0.00038371
 ,0.00011031,0.00010490,0.00001947,-0.00040171,0.00032765,-0.00077639,-
 0.00012599,-0.00022164,-0.00018907,-0.00015445,-0.00024610,-0.00013375
 ,0.00012961,0.00015335,0.00011291,0.00004046,0.00020232,0.00009399,0.0
 0000148,-0.00009169,-0.00005475,-0.00003186,-0.00004416,-0.00000138,-0
 .00007366,-0.00003414,-0.00003012,-0.00005630,-0.00002415,0.00000545,0
 .00004689,0.00016781,-0.00019150,-0.00036432,0.00020746,-0.00014570,0.
 00035795,-0.00039874,0.00067872,0.00000196,0.00000699,-0.00000767,0.00
 000010,0.00000541,0.00000469,0.00000834,0.00000110,0.00001343,-0.00000
 357,0.00000004,-0.00000319,-0.00000411,0.00001400,-0.00001649,0.000007
 10,0.00000174,0.00001314,0.00000937,0.00000325,0.00000084,-0.00000615,
 -0.00000599,-0.00000309,-0.00000009,0.00001382,0.00000579,0.00000481,-
 0.00000753,0.00000373,-0.00000256,0.00001329,0.00000424,-0.00000039,-0
 .00000590,-0.00000444,0.00000107,0.00001283,0.00000612,0.00000320,0.00
 001311,0.00000271,0.00000371,-0.00000774,0.00000111,-0.00000521,-0.000
 00390,-0.00000402,-0.00001972,-0.00005412,0.00004012,-0.00000888,-0.00
 004063,-0.00000949,0.00001556,0.00001258,0.00003207,-0.00000235,0.0000
 1972,-0.00001792,0.00000821,-0.00003405,0.00002386,0.00002022,0.000008
 42,0.00002620,-0.00000628,-0.00003207,-0.00001240,0.00001384,0.0000255
 5,-0.00002151,0.00010125,0.00016913,0.00001147,-0.00001937,-0.00003254
 ,0.00002350,-0.00005122,-0.00007246,0.00008358,-0.00000316,-0.00004294
 ,-0.00001654,0.00021754,0.00012327,-0.00000693,-0.00020874,-0.00142162
 ,-0.00140767,0.00002616,-0.00000663,-0.00000101,-0.00006118,-0.0000972
 8,0.00000427,-0.00001551,-0.00005386,-0.00004803,-0.00001800,0.0000165
 5,0.00002005,0.00001461,0.00000787,0.00002361,0.00001362,0.00001476,0.
 00000278,-0.00001300,-0.00004678,-0.00000527,0.00000246,0.00003836,0.0
 0002304,0.00001841,0.00001307,-0.00000033,-0.00000251,-0.00001133,0.00
 000849,0.00000917,0.00001186,0.00000777,0.00000271,-0.00000499,-0.0000
 0407,0.00000090,0.00001448,0.00000138,0.00000215,-0.00001077,0.0000148
 7,0.00001596,0.00003493,-0.00001121,0.00000064,0.00001180,0.00000736,0
 .00000534,-0.00000552,0.00000332,-0.00000205,-0.00001091,-0.00000908,0
 .00004394,-0.00000331,-0.00007987,-0.00009782,0.00004677,0.00003987,0.
 00003786,0.00000560,0.00003791,0.00004878,-0.00006830,-0.00010606,-0.0
 0006729,-0.00000113,-0.00000275,-0.00002337,-0.00001227,-0.00000994,-0
 .00005789,-0.00002273,0.00002256,0.00001194,0.00001265,0.00000503,-0.0
 0000433,0.00000040,-0.00000495,0.00000943,0.00001109,-0.00000252,0.000
 04618,0.00000313,-0.00002928,0.00000506,-0.00001257,-0.00001267,0.0001
 6247,0.00006276,-0.00010065,-0.00005858,-0.00001630,0.00004839,-0.0000
 6780,-0.00005738,0.00007297,0.00002352,-0.00000016,0.00001230,-0.00000
 840,-0.00000731,0.00000002,0.00000623,0.00000309,-0.00000176,-0.000008
 68,0.00000354,0.00000246,-0.00001698,0.00003171,-0.00004517,0.00000548
 ,0.00000483,-0.00001782,-0.00000514,-0.00001681,0.00000411,-0.00001004
 ,0.,0.00001145,0.00878746,-0.00038731,-0.07843150,0.05933177,-0.021557
 71,-0.02628992,-0.00470742,-0.00092057,0.01350275,-0.04457634,0.013385
 15,0.08378737\\0.00000027,-0.00000106,-0.00000339,0.00000047,-0.000005
 68,-0.00000718,0.00000032,0.00000825,0.00000820,0.00000187,-0.00000699
 ,-0.00000252,0.00000009,0.00000091,-0.00000064,0.00000242,-0.00000308,
 0.00000448,0.00000248,-0.00000854,0.00000161,-0.00000247,-0.00000551,-
 0.00000635,0.00000256,0.00000197,0.00000367,-0.00000122,-0.00000063,-0
 .00000438,0.00000070,0.00000106,0.00000387,0.00000073,0.00000192,0.000
 00211,0.00000119,-0.00000122,0.00000071,0.00000032,0.00000171,0.000001
 74,0.00000089,-0.00000175,0.00000080,0.00000124,-0.00000190,0.00000112
 ,0.00000142,-0.00000053,0.00000713,-0.00000134,0.00000477,-0.00000270,
 -0.00000070,0.00000225,-0.00000204,-0.00000364,-0.00000351,0.00000006,
 -0.00000426,0.00000020,-0.00000280,-0.00000355,-0.00000334,0.00000009,
 0.00000380,-0.00000068,0.00000429,-0.00000136,0.00000031,-0.00000400,0
 .00000312,0.00000446,-0.00000186,0.00000274,0.00000175,-0.00000152,0.,
 -0.00000118,0.00000106,-0.00000263,-0.00000424,0.00000033,0.00000433,0
 .00000789,-0.00000018,-0.00000227,-0.00000211,0.00000483,-0.00000158,-
 0.00000154,0.00000268,-0.00000124,-0.00000183,-0.00000079,-0.00000378,
 -0.00000035,0.00000374,0.00000248,0.00000313,-0.00000152,-0.00000284,-
 0.00000586,0.00000270,-0.00000065,0.00000403,-0.00000260,-0.00000159,0
 .00000212,-0.00000362,-0.00000066,0.00000162,-0.00000194,-0.00000100,0
 .00000203,-0.00000666,0.00000024,-0.00000094,0.00000218,-0.00000202,0.
 00000011,-0.00000088,-0.00000054,0.00000124,0.00000149,0.00000016,0.00
 000260,0.00000103,-0.00000192,-0.00000119,-0.00000356,-0.00000083,-0.0
 0000157,-0.00000234,-0.00000018,-0.00000006,-0.00000214,-0.00000402,0.
 00000007,-0.00000473,-0.00000021,0.00000188,-0.00000071,0.00000095,-0.
 00000089,0.00000008,0.00000075,-0.00000043,-0.00000165,0.00000113,0.00
 000510,0.00000030,-0.00000107,-0.00000069,0.00000125,-0.00000114,0.000
 00245,-0.00000028,-0.00000074,0.00000059,-0.00000005,0.00000181,0.0000
 0182,0.00000680,-0.00000196,0.00000310,-0.00000214,-0.00000018,0.00000
 314,0.00000029,-0.00000013,-0.00000016,-0.00000126,0.00000252,0.000005
 36,0.00000165,0.,0.00000245,0.00000141,-0.00000197,-0.00000144,-0.0000
 0010,0.00000030,0.00000094,-0.00000006,-0.00000413,-0.00000120,0.00000
 070,0.00000115,0.00000282,0.00000126,0.00000269,0.00000175,0.00000264,
 0.00000095,0.00000125,-0.00000080,0.00000357,0.00000176,-0.00000185,-0
 .00000020,-0.00000191,0.00000119,0.00000071,0.00000079,0.00000348,-0.0
 0000063,-0.00000005,0.00000176,-0.00000454,0.00000068,0.00000017,0.000
 00155,-0.00000009,0.00000159,0.00000317,0.00000013,-0.00000123,0.00000
 273,-0.00000228,0.00000118,0.00000018,-0.00000136,0.00000106,0.0000007
 8,-0.00000005,0.00000015,0.00000059,0.00000168,-0.00000003,-0.00000120
 ,-0.00000056,-0.00000169,0.00000604,-0.00000168,-0.00000499,-0.0000008
 7,0.00000294,0.00000077,-0.00000247,0.00000161,0.00000145,-0.00000155,
 -0.00000044,0.00000258,-0.00000171,0.00000165,-0.00000037,0.00000519,-
 0.00000589,0.00000189,-0.00000171,-0.00000088,0.00000036,-0.00000015,0
 .00000152,-0.00000148,-0.00000399,-0.00000156,-0.00000097,0.00000109,0
 .00000041,-0.00000042,-0.00000611,0.00000099,-0.00000059,0.00000697,-0
 .00000015,-0.00000095,-0.00000087,-0.00000145,-0.00000096,0.00000056,-
 0.00000134,-0.00000072,-0.00000065,-0.00000016,0.00000107,0.00000019,-
 0.00000125,-0.00000110,-0.00000021,0.00000367,-0.00000604,0.00000240,-
 0.00000396,0.00000231,0.00000372,-0.00000248,0.00000040,-0.00000371,-0
 .00000370,0.00000286,0.00000018,-0.00000079,-0.00000019,-0.00000014,-0
 .00000079,-0.00000530,-0.00000109,-0.00000078,-0.00000082,0.00000459,-
 0.00000544,-0.00000252,-0.00000073,-0.00000055,-0.00000059,-0.00000008
 ,0.00000245,-0.00000077,-0.00000361,0.00000164,0.00000221,0.00000096,0
 .00000259,0.00000627,0.00000152,-0.00000060,-0.00000159,0.00000196,-0.
 00000137,0.00000145,-0.00000067,0.00000015,0.00000205\\\@
 The archive entry for this job was punched.


 IF YOU BELIEVE CERTAIN WORDS, YOU BELIEVE THEIR HIDDEN ARGUMENTS.
 WHEN YOU BELIEVE SOMETHING IS RIGHT OR WRONG, TRUE OR FALSE, 
 YOU BELIEVE THE ASSUMPTIONS IN THE WORDS WHICH EXPRESS THE ARGUMENTS.
 SUCH ASSUMPTIONS ARE OFTEN FULL OF HOLES, BUT REMAIN MOST PRECIOUS 
 TO THE CONVINCED.

                 -- THE OPEN-ENDED PROOF FROM THE PANOPLIA PROPHETICA
                    CHILDREN OF DUNE BY FRANK HERBERT
 Job cpu time:       1 days 22 hours 33 minutes  4.5 seconds.
 Elapsed time:       0 days  2 hours 58 minutes  0.4 seconds.
 File lengths (MBytes):  RWF=   9709 Int=      0 D2E=      0 Chk=     55 Scr=      1
 Normal termination of Gaussian 16 at Tue Dec 10 03:51:26 2024.
