/mnt/lustre/scratch/nvme/SLURM/9663515/usccqdma.0zHwioqdya
OMP_STACKSIZE=0m
GAUSS_PDEF=16
GAUSS_MDEF=65536MB
GAUSS_RDEF=SCF=Direct
 Entering Gaussian System, Link 0=g16.exe
 Initial command:
 /opt/cesga/2020/software/Core/g16/c1/l1.exe "/mnt/lustre/scratch/nvme/SLURM/9663515/usccqdma.0zHwioqdya/Gau-1292202.inp" -scrdir="/mnt/lustre/scratch/nvme/SLURM/9663515/usccqdma.0zHwioqdya/"
 Default is to use a total of  16 processors:
                               16 via shared-memory
                                1 via Linda
 Entering Link 1 = /opt/cesga/2020/software/Core/g16/c1/l1.exe PID=   1292230.
  
 Copyright (c) 1988-2019, Gaussian, Inc.  All Rights Reserved.
  
 This is part of the Gaussian(R) 16 program.  It is based on
 the Gaussian(R) 09 system (copyright 2009, Gaussian, Inc.),
 the Gaussian(R) 03 system (copyright 2003, Gaussian, Inc.),
 the Gaussian(R) 98 system (copyright 1998, Gaussian, Inc.),
 the Gaussian(R) 94 system (copyright 1995, Gaussian, Inc.),
 the Gaussian 92(TM) system (copyright 1992, Gaussian, Inc.),
 the Gaussian 90(TM) system (copyright 1990, Gaussian, Inc.),
 the Gaussian 88(TM) system (copyright 1988, Gaussian, Inc.),
 the Gaussian 86(TM) system (copyright 1986, Carnegie Mellon
 University), and the Gaussian 82(TM) system (copyright 1983,
 Carnegie Mellon University). Gaussian is a federally registered
 trademark of Gaussian, Inc.
  
 This software contains proprietary and confidential information,
 including trade secrets, belonging to Gaussian, Inc.
  
 This software is provided under written license and may be
 used, copied, transmitted, or stored only in accord with that
 written license.
  
 The following legend is applicable only to US Government
 contracts under FAR:
  
                    RESTRICTED RIGHTS LEGEND
  
 Use, reproduction and disclosure by the US Government is
 subject to restrictions as set forth in subparagraphs (a)
 and (c) of the Commercial Computer Software - Restricted
 Rights clause in FAR 52.227-19.
  
 Gaussian, Inc.
 340 Quinnipiac St., Bldg. 40, Wallingford CT 06492
  
  
 ---------------------------------------------------------------
 Warning -- This program may not be used in any manner that
 competes with the business of Gaussian, Inc. or will provide
 assistance to any competitor of Gaussian, Inc.  The licensee
 of this program is prohibited from giving any competitor of
 Gaussian, Inc. access to this program.  By using this program,
 the user acknowledges that Gaussian, Inc. is engaged in the
 business of creating and licensing software in the field of
 computational chemistry and represents and warrants to the
 licensee that it is not a competitor of Gaussian, Inc. and that
 it will not use this program in any manner prohibited above.
 ---------------------------------------------------------------
  

 Cite this work as:
 Gaussian 16, Revision C.01,
 M. J. Frisch, G. W. Trucks, H. B. Schlegel, G. E. Scuseria, 
 M. A. Robb, J. R. Cheeseman, G. Scalmani, V. Barone, 
 G. A. Petersson, H. Nakatsuji, X. Li, M. Caricato, A. V. Marenich, 
 J. Bloino, B. G. Janesko, R. Gomperts, B. Mennucci, H. P. Hratchian, 
 J. V. Ortiz, A. F. Izmaylov, J. L. Sonnenberg, D. Williams-Young, 
 F. Ding, F. Lipparini, F. Egidi, J. Goings, B. Peng, A. Petrone, 
 T. Henderson, D. Ranasinghe, V. G. Zakrzewski, J. Gao, N. Rega, 
 G. Zheng, W. Liang, M. Hada, M. Ehara, K. Toyota, R. Fukuda, 
 J. Hasegawa, M. Ishida, T. Nakajima, Y. Honda, O. Kitao, H. Nakai, 
 T. Vreven, K. Throssell, J. A. Montgomery, Jr., J. E. Peralta, 
 F. Ogliaro, M. J. Bearpark, J. J. Heyd, E. N. Brothers, K. N. Kudin, 
 V. N. Staroverov, T. A. Keith, R. Kobayashi, J. Normand, 
 K. Raghavachari, A. P. Rendell, J. C. Burant, S. S. Iyengar, 
 J. Tomasi, M. Cossi, J. M. Millam, M. Klene, C. Adamo, R. Cammi, 
 J. W. Ochterski, R. L. Martin, K. Morokuma, O. Farkas, 
 J. B. Foresman, and D. J. Fox, Gaussian, Inc., Wallingford CT, 2019.
 
 ******************************************
 Gaussian 16:  ES64L-G16RevC.01  3-Jul-2019
                 7-Dec-2024 
 ******************************************
 Default route: SCF=Direct
 ----------------------------------------------------
 # m06/genecp scf=tight int=ultrafine 5d freq=noraman
 ----------------------------------------------------
 1/10=4,30=1,38=1/1,3;
 2/12=2,17=6,18=5,40=1/2;
 3/5=7,8=1,11=2,16=1,17=8,25=1,30=1,71=2,74=-54,75=-5,140=1/1,2,3;
 4//1;
 5/5=2,32=2,38=5,98=1/2;
 8/6=4,10=90,11=11/1;
 11/6=1,8=1,9=11,15=111,16=1/1,2,10;
 10/6=1/2;
 6/7=2,8=2,9=2,10=2,28=1/1;
 7/8=1,10=1,25=1/1,2,3,16;
 1/10=4,30=1/3;
 99//99;
 ------
 OPT-TS
 ------
 Symbolic Z-matrix:
 Charge =  0 Multiplicity = 1
 C                     1.0171    1.99992   0.01735 
 C                    -1.31172   1.71037   0.01497 
 C                    -1.50156   3.07254   0.02453 
 C                    -0.40994   3.94499   0.03283 
 C                     0.84903   3.38503   0.02964 
 C                     2.32743   1.36176   0.00733 
 C                     3.43433  -0.67046  -0.02988 
 C                     4.6768   -0.05094  -0.01685 
 C                     4.72994   1.33878   0.01007 
 C                     3.54165   2.0508    0.02141 
 H                    -2.14838   1.01635   0.01471 
 H                    -0.55644   5.02253   0.04004 
 H                     1.72654   4.02615   0.03424 
 H                     3.35174  -1.75782  -0.0533 
 H                     5.6878    1.85253   0.01942 
 H                     3.56643   3.137     0.04169 
 N                    -0.06885   1.14783   0.01036 
 N                     2.28905   0.00951  -0.01859 
 Ir                    0.18877  -0.76294  -0.02127 
 O                    -2.94104  -0.77519   0.17122 
 B                    -1.72367  -1.43508  -0.0086 
 O                    -1.95495  -2.80205  -0.18025 
 C                    -4.00099  -1.69251  -0.14008 
 C                    -3.33021  -3.06759   0.13859 
 C                    -3.38525  -3.46846   1.60703 
 H                    -2.71796  -4.32525   1.76304 
 H                    -3.0416   -2.65101   2.25398 
 H                    -4.39844  -3.76011   1.91535 
 C                    -3.83104  -4.20657  -0.72638 
 H                    -3.30343  -5.13187  -0.46198 
 H                    -4.90672  -4.37316  -0.56946 
 H                    -3.65754  -4.01296  -1.79042 
 C                    -4.35637  -1.48775  -1.60706 
 H                    -3.50586  -1.72812  -2.25795 
 H                    -5.21651  -2.09945  -1.91062 
 H                    -4.61425  -0.4323   -1.76246 
 C                    -5.19972  -1.37332   0.73014 
 H                    -6.00357  -2.10712   0.57388 
 H                    -4.93728  -1.36135   1.79343 
 H                    -5.59108  -0.38133   0.4692 
 C                    -2.8853    3.64702   0.03009 
 F                    -3.08272   4.38902   1.12676 
 F                    -3.06224   4.45791  -1.02101 
 F                    -3.83137   2.712    -0.00905 
 C                     5.90734  -0.90338  -0.00594 
 F                     6.00431  -1.59171   1.13633 
 F                     7.0171   -0.17332  -0.13748 
 F                     5.88231  -1.79792  -0.99878 
 

 GradGradGradGradGradGradGradGradGradGradGradGradGradGradGradGradGradGrad
 Berny optimization.
 Initialization pass.
 Trust Radius=3.00D-01 FncErr=1.00D-07 GrdErr=1.00D-07 EigMax=2.50D+02 EigMin=1.00D-04
 Number of steps in this run=      2 maximum allowed number of steps=      2.
 GradGradGradGradGradGradGradGradGradGradGradGradGradGradGradGradGradGrad

                          Input orientation:                          
 ---------------------------------------------------------------------
 Center     Atomic      Atomic             Coordinates (Angstroms)
 Number     Number       Type             X           Y           Z
 ---------------------------------------------------------------------
      1          6           0        1.017100    1.999920    0.017350
      2          6           0       -1.311720    1.710370    0.014970
      3          6           0       -1.501560    3.072540    0.024530
      4          6           0       -0.409940    3.944990    0.032830
      5          6           0        0.849030    3.385030    0.029640
      6          6           0        2.327430    1.361760    0.007330
      7          6           0        3.434330   -0.670460   -0.029880
      8          6           0        4.676800   -0.050940   -0.016850
      9          6           0        4.729940    1.338780    0.010070
     10          6           0        3.541650    2.050800    0.021410
     11          1           0       -2.148380    1.016350    0.014710
     12          1           0       -0.556440    5.022530    0.040040
     13          1           0        1.726540    4.026150    0.034240
     14          1           0        3.351740   -1.757820   -0.053300
     15          1           0        5.687800    1.852530    0.019420
     16          1           0        3.566430    3.137000    0.041690
     17          7           0       -0.068850    1.147830    0.010360
     18          7           0        2.289050    0.009510   -0.018590
     19         77           0        0.188770   -0.762940   -0.021270
     20          8           0       -2.941040   -0.775190    0.171220
     21          5           0       -1.723670   -1.435080   -0.008600
     22          8           0       -1.954950   -2.802050   -0.180250
     23          6           0       -4.000990   -1.692510   -0.140080
     24          6           0       -3.330210   -3.067590    0.138590
     25          6           0       -3.385250   -3.468460    1.607030
     26          1           0       -2.717960   -4.325250    1.763040
     27          1           0       -3.041600   -2.651010    2.253980
     28          1           0       -4.398440   -3.760110    1.915350
     29          6           0       -3.831040   -4.206570   -0.726380
     30          1           0       -3.303430   -5.131870   -0.461980
     31          1           0       -4.906720   -4.373160   -0.569460
     32          1           0       -3.657540   -4.012960   -1.790420
     33          6           0       -4.356370   -1.487750   -1.607060
     34          1           0       -3.505860   -1.728120   -2.257950
     35          1           0       -5.216510   -2.099450   -1.910620
     36          1           0       -4.614250   -0.432300   -1.762460
     37          6           0       -5.199720   -1.373320    0.730140
     38          1           0       -6.003570   -2.107120    0.573880
     39          1           0       -4.937280   -1.361350    1.793430
     40          1           0       -5.591080   -0.381330    0.469200
     41          6           0       -2.885300    3.647020    0.030090
     42          9           0       -3.082720    4.389020    1.126760
     43          9           0       -3.062240    4.457910   -1.021010
     44          9           0       -3.831370    2.712000   -0.009050
     45          6           0        5.907340   -0.903380   -0.005940
     46          9           0        6.004310   -1.591710    1.136330
     47          9           0        7.017100   -0.173320   -0.137480
     48          9           0        5.882310   -1.797920   -0.998780
 ---------------------------------------------------------------------
                    Distance matrix (angstroms):
                    1          2          3          4          5
     1  C    0.000000
     2  C    2.346753   0.000000
     3  C    2.737556   1.375368   0.000000
     4  C    2.412463   2.409783   1.397452   0.000000
     5  C    1.395324   2.733778   2.371276   1.377886   0.000000
     6  C    1.457502   3.655817   4.193832   3.763897   2.505950
     7  C    3.602244   5.309930   6.194838   6.007056   4.809815
     8  C    4.195307   6.242243   6.923148   6.468759   5.143916
     9  C    3.771252   6.053078   6.468209   5.762917   4.387366
    10  C    2.525066   4.865299   5.145671   4.382140   3.005069
    11  H    3.314767   1.087044   2.155549   3.405794   3.820384
    12  H    3.407743   3.397275   2.167015   1.087477   2.157976
    13  H    2.146904   3.820240   3.366021   2.138021   1.086775
    14  H    4.424494   5.812131   6.847843   6.832254   5.720082
    15  H    4.673025   7.000965   7.292143   6.446782   5.075663
    16  H    2.791528   5.082552   5.068429   4.057640   2.728723
    17  N    1.380360   1.364257   2.399451   2.817969   2.418251
    18  N    2.362389   3.982411   4.873678   4.772336   3.670166
    19  Ir   2.884617   2.893103   4.191685   4.746155   4.200499
    20  O    4.836505   2.976089   4.110796   5.357772   5.629574
    21  B    4.394510   3.172399   4.513210   5.538299   5.463855
    22  O    5.650756   4.562213   5.895617   6.924955   6.796052
    23  C    6.232179   4.340024   5.383303   6.686325   7.023739
    24  C    6.677834   5.188303   6.407665   7.597068   7.688577
    25  C    7.197982   5.801247   6.988367   8.141856   8.208996
    26  H    7.550224   6.439097   7.696060   8.758850   8.670439
    27  H    6.565570   5.198777   6.332550   7.440857   7.517877
    28  H    8.130709   6.562426   7.658474   8.878096   9.063381
    29  C    7.910633   6.473542   7.679569   8.872894   8.950252
    30  H    8.352195   7.142173   8.414022   9.539733   9.488003
    31  H    8.720788   7.090481   8.208921   9.474988   9.678693
    32  H    7.827836   6.443509   7.625392   8.786360   8.851669
    33  C    6.608837   4.704131   5.622123   6.912179   7.315665
    34  H    6.287483   4.669436   5.680957   6.856863   7.095241
    35  H    7.705829   5.785327   6.655459   7.963377   8.404457
    36  H    6.387137   4.319375   5.016580   6.329294   6.901526
    37  C    7.108844   5.013697   5.825800   7.191151   7.727870
    38  H    8.152749   6.074460   6.884676   8.258902   8.798752
    39  H    7.064505   5.073763   5.881544   7.194009   7.688983
    40  H    7.038648   4.784815   5.371324   6.763998   7.473533
    41  C    4.235779   2.495395   1.498264   2.493231   3.743509
    42  F    4.873101   3.398188   2.334116   2.921917   4.203609
    43  F    4.874518   3.418560   2.334122   2.899717   4.189626
    44  F    4.900553   2.711545   2.357781   3.637059   4.728701
    45  C    5.687191   7.677692   8.408369   7.963430   6.631608
    46  F    6.246934   8.104658   8.906706   8.544903   7.250491
    47  F    6.383333   8.540537   9.117534   8.494140   7.122842
    48  F    6.255108   8.067828   8.904498   8.581238   7.297570
                    6          7          8          9         10
     6  C    0.000000
     7  C    2.314418   0.000000
     8  C    2.741504   1.388419   0.000000
     9  C    2.402621   2.391076   1.390996   0.000000
    10  C    1.396175   2.723858   2.389004   1.385328   0.000000
    11  H    4.489124   5.832149   6.908197   6.885875   5.783301
    12  H    4.660366   6.952789   7.289042   6.443347   5.062200
    13  H    2.731440   4.997880   5.032823   4.030255   2.682685
    14  H    3.284002   1.090743   2.161146   3.390042   3.814084
    15  H    3.396040   3.383199   2.155605   1.086979   2.155290
    16  H    2.165128   3.810423   3.376286   2.142044   1.086672
    17  N    2.405812   3.947159   4.894791   4.802588   3.721718
    18  N    1.353043   1.331973   2.388516   2.779519   2.395302
    19  Ir   3.014803   3.246889   4.544159   5.004042   4.377300
    20  O    5.687723   6.379401   7.654502   7.958566   7.073467
    21  B    4.922802   5.214409   6.548429   7.024509   6.314733
    22  O    5.975891   5.797467   7.181602   7.865777   7.335082
    23  C    7.028456   7.506045   8.832552   9.243398   8.421987
    24  C    7.186464   7.178692   8.557835   9.186873   8.569370
    25  C    7.650149   7.550824   8.905789   9.566407   8.997687
    26  H    7.802600   7.377176   8.724690   9.519735   9.103296
    27  H    7.069388   7.146766   8.455219   9.019445   8.392292
    28  H    8.666684   8.641883   9.992563  10.628080  10.019916
    29  C    8.334949   8.110166   9.495053  10.226614   9.698991
    30  H    8.607791   8.092484   9.470906  10.326044   9.933757
    31  H    9.249590   9.141895  10.527622  11.217278  10.629739
    32  H    8.242535   8.035324   9.397041  10.111019   9.585419
    33  C    7.443060   7.990649   9.283930   9.652223   8.806360
    34  H    6.978977   7.365404   8.648201   9.076243   8.315234
    35  H    8.518776   8.967510  10.279122  10.697773   9.882443
    36  H    7.384966   8.236394   9.461300   9.674320   8.710148
    37  C    8.041213   8.695888   9.992614  10.318534   9.414799
    38  H    9.042105   9.565693  10.892527  11.287176  10.426157
    39  H    7.961249   8.595676   9.870401  10.194421   9.309945
    40  H    8.121237   9.043821  10.284686  10.473444   9.461635
    41  C    5.691703   7.653885   8.417985   7.957402   6.622211
    42  F    6.299774   8.331152   9.012837   8.461006   7.111354
    43  F    6.300172   8.335943   9.012813   8.456368   7.105785
    44  F    6.305096   8.014479   8.945549   8.670763   7.402671
    45  C    4.236365   2.484070   1.496998   2.532550   3.784761
    46  F    4.849440   2.968761   2.337965   3.388252   4.536036
    47  F    4.936643   3.618697   2.346600   2.745782   4.129250
    48  F    4.861379   2.864008   2.338671   3.490648   4.618671
                   11         12         13         14         15
    11  H    0.000000
    12  H    4.310962   0.000000
    13  H    4.906555   2.490944   0.000000
    14  H    6.160517   7.826604   6.008598   0.000000
    15  H    7.880669   7.002846   4.518454   4.300825   0.000000
    16  H    6.095649   4.533573   2.043487   4.900447   2.480034
    17  N    2.083687   3.905371   3.392451   4.488573   5.799630
    18  N    4.550343   5.764601   4.056181   2.062515   3.866480
    19  Ir   2.937590   5.833589   5.030229   3.315900   6.089472
    20  O    1.965304   6.270334   6.697606   6.372994   9.021354
    21  B    2.488058   6.562432   6.459939   5.085857   8.107962
    22  O    3.828264   7.951629   7.760392   5.409944   8.950788
    23  C    3.285429   7.549115   8.095558   7.353532  10.318207
    24  C    4.253309   8.552985   8.712219   6.811811  10.273572
    25  C    4.917200   9.085953   9.207239   7.146329  10.637372
    26  H    5.649227   9.747917   9.617079   6.836084  10.576482
    27  H    4.388815   8.364255   8.499816   6.855372  10.073607
    28  H    5.611575   9.767933  10.083640   8.243181  11.697372
    29  C    5.537098   9.822764   9.962074   7.618513  11.308281
    30  H    6.273913  10.531373  10.460218   7.472785  11.395429
    31  H    6.082476  10.371857  10.719748   8.678052  12.302433
    32  H    5.552478   9.726638   9.846065   7.565266  11.181005
    33  C    3.711587   7.715967   8.372500   7.867787  10.709260
    34  H    3.813116   7.716937   8.108253   7.203335  10.125752
    35  H    4.777921   8.731777   9.461046   8.773896  11.757856
    36  H    3.367111   7.033491   7.956854   8.254407  10.701765
    37  C    3.941198   7.933674   8.809746   8.595876  11.377580
    38  H    4.993118   8.988221   9.882450   9.382814  12.356148
    39  H    4.073729   7.938517   8.747937   8.501497  11.241373
    40  H    3.743295   7.398208   8.553516   9.063209  11.506762
    41  C    2.731980   2.704758   4.627399   8.253479   8.758901
    42  F    3.672131   2.822124   4.945125   8.976551   9.196848
    43  F    3.708395   2.779147   4.922640   8.983925   9.188781
    44  F    2.389194   4.008257   5.711325   8.460397   9.557934
    45  C    8.281329   8.769206   6.463820   2.695070   2.764757
    46  F    8.632865   9.380483   7.146626   2.911862   3.634619
    47  F    9.243619   9.186233   6.756853   3.994069   2.428111
    48  F    8.569671   9.436906   7.228924   2.701726   3.794779
                   16         17         18         19         20
    16  H    0.000000
    17  N    4.144037   0.000000
    18  N    3.378835   2.618454   0.000000
    19  Ir   5.159659   1.928318   2.237825   0.000000
    20  O    7.594022   3.460254   5.292034   3.135748   0.000000
    21  B    6.992253   3.067607   4.264840   2.027156   1.396345
    22  O    8.112164   4.381239   5.093382   2.962901   2.281242
    23  C    8.979034   4.853029   6.517379   4.293286   1.435924
    24  C    9.277390   5.331292   6.408536   4.209535   2.325428
    25  C    9.716391   5.904066   6.851029   4.769153   3.084246
    26  H    9.906653   6.328055   6.858170   4.931825   3.896996
    27  H    9.058772   5.319987   6.376423   4.379139   2.804764
    28  H   10.701396   6.816319   7.916608   5.811714   3.751766
    29  C   10.451819   6.585321   7.465373   5.339910   3.656796
    30  H   10.762103   7.079565   7.609613   5.610458   4.417344
    31  H   11.338883   7.363593   8.443362   6.268829   4.166280
    32  H   10.327841   6.538750   7.394699   5.337286   3.852864
    33  C    9.320807   5.286318   6.994757   4.868098   2.381844
    34  H    8.886789   5.022883   6.450975   4.425449   2.669825
    35  H   10.410185   6.382272   8.022526   5.879877   3.356410
    36  H    9.105953   5.128388   7.133851   5.119577   2.579985
    37  C    9.882426   5.761953   7.652091   5.474761   2.402454
    38  H   10.925608   6.792139   8.578968   6.364440   3.363817
    39  H    9.778386   5.759942   7.575125   5.470614   2.638204
    40  H    9.819440   5.748381   7.904881   5.813162   2.695669
    41  C    6.471868   3.765466   6.325168   5.375899   4.424813
    42  F    6.852454   4.564545   7.024802   6.209937   5.253779
    43  F    6.842032   4.580473   7.030605   6.231037   5.368560
    44  F    7.410172   4.074747   6.690522   5.313839   3.603565
    45  C    4.669775   6.318431   3.731695   5.720315   8.851082
    46  F    5.431592   6.756934   4.207244   5.987270   9.034236
    47  F    4.785127   7.209576   4.733077   6.854724   9.981087
    48  F    5.549713   6.716555   4.139939   5.868825   8.959151
                   21         22         23         24         25
    21  B    0.000000
    22  O    1.396983   0.000000
    23  C    2.295592   2.327869   0.000000
    24  C    2.295152   1.436492   1.555136   0.000000
    25  C    3.083138   2.384162   2.566228   1.523168   0.000000
    26  H    3.532761   2.584318   3.492757   2.143688   1.097135
    27  H    2.886987   2.670037   2.751486   2.175249   1.097663
    28  H    4.032585   3.358580   2.942402   2.185767   1.098488
    29  C    3.554908   2.406377   2.587108   1.515348   2.487637
    30  H    4.045671   2.706627   3.524118   2.150036   2.656018
    31  H    4.367915   3.366425   2.861922   2.165925   2.805434
    32  H    3.682418   2.637757   2.868112   2.173005   3.451563
    33  C    3.080415   3.087068   1.523237   2.568305   3.898289
    34  H    2.884727   2.806329   2.175269   2.751079   4.240448
    35  H    4.032245   3.758404   2.185841   2.948675   4.195422
    36  H    3.526620   3.897561   2.143906   3.493924   4.699167
    37  C    3.554219   3.660411   1.515295   2.591438   2.907034
    38  H    4.371323   4.176477   2.166095   2.873819   3.126699
    39  H    3.685110   3.855557   2.173653   2.869220   2.623634
    40  H    4.036774   4.416233   2.149140   3.526589   3.961151
    41  C    5.213312   6.519225   5.457500   6.730208   7.305255
    42  F    6.087380   7.395379   6.279579   7.525873   7.877955
    43  F    6.127322   7.391887   6.283706   7.619031   8.356930
    44  F    4.651954   5.827093   4.409722   5.803156   6.403813
    45  C    7.649511   8.090175   9.940610   9.488784   9.774126
    46  F    7.813903   8.157703  10.086893   9.502998   9.586844
    47  F    8.832310   9.349317  11.122331  10.748016  11.050346
    48  F    7.678740   7.943608   9.921093   9.368895   9.770804
                   26         27         28         29         30
    26  H    0.000000
    27  H    1.774498   0.000000
    28  H    1.779493   1.784878   0.000000
    29  C    2.729514   3.453336   2.738614   0.000000
    30  H    2.438058   3.687772   2.955075   1.097479   0.000000
    31  H    3.198988   3.796879   2.609303   1.099756   1.777001
    32  H    3.688823   4.311782   3.787558   1.095339   1.772599
    33  C    4.700358   4.241394   4.191988   2.905779   3.962260
    34  H    4.851209   4.628690   4.726745   2.931580   3.853829
    35  H    4.969177   4.730576   4.250303   2.786020   3.867041
    36  H    5.583917   4.850535   4.964593   3.991490   5.049302
    37  C    3.992481   2.934631   2.782721   3.467282   4.375359
    38  H    4.138772   3.448452   2.666151   3.289111   4.184839
    39  H    3.702838   2.338575   2.461557   3.958344   4.687554
    40  H    5.048103   3.851848   3.863922   4.377170   5.354257
    41  C    8.160160   6.680965   7.791622   7.946417   8.802606
    42  F    8.745079   7.129820   8.292244   8.824867   9.655058
    43  F    9.220269   7.827051   8.828561   8.703509   9.609088
    44  F    7.341858   5.874259   6.775920   6.955658   7.874653
    45  C    9.446390   9.393880  10.865605  10.308547  10.145264
    46  F    9.162041   9.176042  10.654860  10.346076  10.085700
    47  F   10.752762  10.631814  12.140582  11.588617  11.454513
    48  F    9.379749   9.536476  10.864445  10.011242   9.786787
                   31         32         33         34         35
    31  H    0.000000
    32  H    1.783518   0.000000
    33  C    3.115299   2.626532   0.000000
    34  H    3.436516   2.337110   1.097635   0.000000
    35  H    2.657901   2.471104   1.098256   1.784614   0.000000
    36  H    4.127852   3.706373   1.097555   1.775722   1.778780
    37  C    3.282354   3.962227   2.487335   3.453075   2.738825
    38  H    2.765003   3.837447   2.802389   3.794925   2.606197
    39  H    3.828209   4.638184   3.452067   4.312443   3.787182
    40  H    4.181133   4.693953   2.656978   3.687727   2.959017
    41  C    8.292701   7.911125   5.586606   5.874721   6.497908
    42  F    9.109332   8.912554   6.605481   7.003907   7.475224
    43  F    9.032929   8.526548   6.113027   6.324064   6.959257
    44  F    7.188180   6.959065   4.524065   4.987802   5.355804
    45  C   11.371052  10.214734  10.404269   9.713912  11.348940
    46  F   11.388449  10.381698  10.718241  10.098667  11.638235
    47  F   12.649219  11.463986  11.543102  10.846496  12.510604
    48  F   11.100421   9.825570  10.261422   9.472493  11.140295
                   36         37         38         39         40
    36  H    0.000000
    37  C    2.727884   0.000000
    38  H    3.192760   1.099570   0.000000
    39  H    3.689422   1.095264   1.783381   0.000000
    40  H    2.436617   1.097860   1.777486   1.772422   0.000000
    41  C    4.779472   5.572291   6.567301   5.692430   4.872542
    42  F    5.825659   6.151712   7.144010   6.078700   5.429594
    43  F    5.183882   6.452797   7.368495   6.730575   5.659859
    44  F    3.684287   4.371341   5.318099   4.589570   3.590821
    45  C   10.677600  11.141339  11.985615  11.002420  11.520068
    46  F   11.068018  11.213517  12.032090  10.963724  11.677463
    47  F   11.747167  12.306236  13.182696  12.167458  12.624481
    48  F   10.612535  11.224119  11.993457  11.182601  11.653342
                   41         42         43         44         45
    41  C    0.000000
    42  F    1.338740   0.000000
    43  F    1.339277   2.148972   0.000000
    44  F    1.330730   2.159384   2.159589   0.000000
    45  C    9.900402  10.493507  10.498912  10.388140   0.000000
    46  F   10.377535  10.878572  11.111001  10.796963   1.337154
    47  F   10.615112  11.154354  11.127534  11.226347   1.334862
    48  F   10.371930  11.098104  10.915167  10.755209   1.336622
                   46         47         48
    46  F    0.000000
    47  F    2.158742   0.000000
    48  F    2.148511   2.160766   0.000000
 Stoichiometry    C18H18BF6IrN2O2
 Framework group  C1[X(C18H18BF6IrN2O2)]
 Deg. of freedom   138
 Full point group                 C1      NOp   1
 Largest Abelian subgroup         C1      NOp   1
 Largest concise Abelian subgroup C1      NOp   1
                         Standard orientation:                         
 ---------------------------------------------------------------------
 Center     Atomic      Atomic             Coordinates (Angstroms)
 Number     Number       Type             X           Y           Z
 ---------------------------------------------------------------------
      1          6           0        1.017102    1.999921    0.017351
      2          6           0       -1.311718    1.710372    0.014971
      3          6           0       -1.501557    3.072542    0.024531
      4          6           0       -0.409937    3.944992    0.032831
      5          6           0        0.849033    3.385031    0.029641
      6          6           0        2.327432    1.361761    0.007331
      7          6           0        3.434331   -0.670460   -0.029879
      8          6           0        4.676802   -0.050940   -0.016849
      9          6           0        4.729942    1.338780    0.010071
     10          6           0        3.541652    2.050800    0.021411
     11          1           0       -2.148378    1.016352    0.014711
     12          1           0       -0.556436    5.022532    0.040041
     13          1           0        1.726543    4.026151    0.034241
     14          1           0        3.351741   -1.757820   -0.053299
     15          1           0        5.687802    1.852529    0.019421
     16          1           0        3.566433    3.137000    0.041691
     17          7           0       -0.068848    1.147831    0.010361
     18          7           0        2.289052    0.009511   -0.018589
     19         77           0        0.188771   -0.762939   -0.021269
     20          8           0       -2.941039   -0.775187    0.171221
     21          5           0       -1.723669   -1.435078   -0.008599
     22          8           0       -1.954949   -2.802048   -0.180249
     23          6           0       -4.000989   -1.692507   -0.140079
     24          6           0       -3.330209   -3.067587    0.138591
     25          6           0       -3.385250   -3.468457    1.607031
     26          1           0       -2.717960   -4.325248    1.763041
     27          1           0       -3.041599   -2.651007    2.253981
     28          1           0       -4.398440   -3.760107    1.915351
     29          6           0       -3.831040   -4.206567   -0.726379
     30          1           0       -3.303430   -5.131867   -0.461979
     31          1           0       -4.906720   -4.373157   -0.569459
     32          1           0       -3.657540   -4.012957   -1.790419
     33          6           0       -4.356369   -1.487747   -1.607059
     34          1           0       -3.505859   -1.728117   -2.257949
     35          1           0       -5.216509   -2.099447   -1.910619
     36          1           0       -4.614248   -0.432297   -1.762459
     37          6           0       -5.199719   -1.373317    0.730141
     38          1           0       -6.003569   -2.107116    0.573881
     39          1           0       -4.937279   -1.361347    1.793431
     40          1           0       -5.591078   -0.381326    0.469201
     41          6           0       -2.885297    3.647023    0.030091
     42          9           0       -3.082717    4.389023    1.126761
     43          9           0       -3.062237    4.457913   -1.021009
     44          9           0       -3.831367    2.712003   -0.009049
     45          6           0        5.907341   -0.903381   -0.005939
     46          9           0        6.004311   -1.591711    1.136331
     47          9           0        7.017102   -0.173321   -0.137479
     48          9           0        5.882311   -1.797921   -0.998779
 ---------------------------------------------------------------------
 Rotational constants (GHZ):           0.1693979           0.0789269           0.0561820
 General basis read from cards:  (5D, 7F)
 ======================================================================================================
                                       Pseudopotential Parameters
 ======================================================================================================
  Center     Atomic      Valence      Angular      Power
  Number     Number     Electrons     Momentum     of R      Exponent        Coefficient   SO-Coeffient
 ======================================================================================================
    1          6
                                   No pseudopotential on this center.
    2          6
                                   No pseudopotential on this center.
    3          6
                                   No pseudopotential on this center.
    4          6
                                   No pseudopotential on this center.
    5          6
                                   No pseudopotential on this center.
    6          6
                                   No pseudopotential on this center.
    7          6
                                   No pseudopotential on this center.
    8          6
                                   No pseudopotential on this center.
    9          6
                                   No pseudopotential on this center.
   10          6
                                   No pseudopotential on this center.
   11          1
                                   No pseudopotential on this center.
   12          1
                                   No pseudopotential on this center.
   13          1
                                   No pseudopotential on this center.
   14          1
                                   No pseudopotential on this center.
   15          1
                                   No pseudopotential on this center.
   16          1
                                   No pseudopotential on this center.
   17          7
                                   No pseudopotential on this center.
   18          7
                                   No pseudopotential on this center.
   19         77           17
                                      G and up 
                                                     1      823.5880147       -0.15780140    0.00000000
                                                     2      364.6613336    -1517.52704460    0.00000000
                                                     2       55.7082801     -316.53065290    0.00000000
                                                     2       12.0464544      -91.88809410    0.00000000
                                                     2        3.5120610       -9.22417730    0.00000000
                                      S - G
                                                     0      188.0490770        3.15780140    0.00000000
                                                     1      340.4194712       26.83225770    0.00000000
                                                     2      128.2373673      800.42500070    0.00000000
                                                     2       33.8644961      369.40506830    0.00000000
                                                     2        4.7560005      242.41718990    0.00000000
                                                     2        3.9649974     -118.21732820    0.00000000
                                      P - G
                                                     0      289.7291139        2.15780140    0.00000000
                                                     1       87.4633789       61.96786100    0.00000000
                                                     2       30.4363766      269.05819860    0.00000000
                                                     2        4.0553412      231.16547930    0.00000000
                                                     2        3.5525341     -133.69526670    0.00000000
                                      D - G
                                                     0      136.4017106        3.15780140    0.00000000
                                                     1       95.0776925       45.93498030    0.00000000
                                                     2       49.2258410      359.03446680    0.00000000
                                                     2       15.0874145      176.47401190    0.00000000
                                                     2        4.0405764       54.51552860    0.00000000
                                      F - G
                                                     0      127.3507908        3.95461970    0.00000000
                                                     1       66.2364374       52.97736550    0.00000000
                                                     2       34.4299229      274.86433830    0.00000000
                                                     2       10.1995721      137.20473380    0.00000000
                                                     2        2.5409702       14.86333050    0.00000000
   20          8
                                   No pseudopotential on this center.
   21          5
                                   No pseudopotential on this center.
   22          8
                                   No pseudopotential on this center.
   23          6
                                   No pseudopotential on this center.
   24          6
                                   No pseudopotential on this center.
   25          6
                                   No pseudopotential on this center.
   26          1
                                   No pseudopotential on this center.
   27          1
                                   No pseudopotential on this center.
   28          1
                                   No pseudopotential on this center.
   29          6
                                   No pseudopotential on this center.
   30          1
                                   No pseudopotential on this center.
   31          1
                                   No pseudopotential on this center.
   32          1
                                   No pseudopotential on this center.
   33          6
                                   No pseudopotential on this center.
   34          1
                                   No pseudopotential on this center.
   35          1
                                   No pseudopotential on this center.
   36          1
                                   No pseudopotential on this center.
   37          6
                                   No pseudopotential on this center.
   38          1
                                   No pseudopotential on this center.
   39          1
                                   No pseudopotential on this center.
   40          1
                                   No pseudopotential on this center.
   41          6
                                   No pseudopotential on this center.
   42          9
                                   No pseudopotential on this center.
   43          9
                                   No pseudopotential on this center.
   44          9
                                   No pseudopotential on this center.
   45          6
                                   No pseudopotential on this center.
   46          9
                                   No pseudopotential on this center.
   47          9
                                   No pseudopotential on this center.
   48          9
                                   No pseudopotential on this center.
 ======================================================================================================
 There are   495 symmetry adapted cartesian basis functions of A   symmetry.
 There are   464 symmetry adapted basis functions of A   symmetry.
   464 basis functions,   927 primitive gaussians,   495 cartesian basis functions
   116 alpha electrons      116 beta electrons
       nuclear repulsion energy      3224.4980479160 Hartrees.
 NAtoms=   48 NActive=   48 NUniq=   48 SFac= 1.00D+00 NAtFMM=   60 NAOKFM=F Big=F
 Integral buffers will be    131072 words long.
 Raffenetti 2 integral format.
 Two-electron integral symmetry is turned on.
 One-electron integrals computed using PRISM.
   1 Symmetry operations used in ECPInt.
 ECPInt:  NShTT=   12880 NPrTT=   83615 LenC2=    9588 LenP2D=   34031.
 LDataN:  DoStor=T MaxTD1= 6 Len=  172
 NBasis=   464 RedAO= T EigKep=  4.55D-04  NBF=   464
 NBsUse=   464 1.00D-06 EigRej= -1.00D+00 NBFU=   464
 Defaulting to unpruned grid for atomic number  77.
 ExpMin= 2.90D-02 ExpMax= 7.00D+03 ExpMxC= 1.05D+03 IAcc=3 IRadAn=         5 AccDes= 0.00D+00
 Harris functional with IExCor= 1009 and IRadAn=       5 diagonalized for initial guess.
 HarFok:  IExCor= 1009 AccDes= 0.00D+00 IRadAn=         5 IDoV= 1 UseB2=F ITyADJ=14
 ICtDFT=  3500011 ScaDFX=  1.000000  1.000000  1.000000  1.000000
 Defaulting to unpruned grid for atomic number  77.
 FoFCou: FMM=F IPFlag=           0 FMFlag=      100000 FMFlg1=           0
         NFxFlg=           0 DoJE=T BraDBF=F KetDBF=T FulRan=T
         wScrn=  0.000000 ICntrl=       500 IOpCl=  0 I1Cent=   200000004 NGrid=           0
         NMat0=    1 NMatS0=      1 NMatT0=    0 NMatD0=    1 NMtDS0=    0 NMtDT0=    0
 Petite list used in FoFCou.
 Requested convergence on RMS density matrix=1.00D-08 within 128 cycles.
 Requested convergence on MAX density matrix=1.00D-06.
 Requested convergence on             energy=1.00D-06.
 No special actions if energy rises.
 Defaulting to unpruned grid for atomic number  77.
 Defaulting to unpruned grid for atomic number  77.
 Defaulting to unpruned grid for atomic number  77.
 Defaulting to unpruned grid for atomic number  77.
 Defaulting to unpruned grid for atomic number  77.
 Defaulting to unpruned grid for atomic number  77.
 Defaulting to unpruned grid for atomic number  77.
 Defaulting to unpruned grid for atomic number  77.
 Defaulting to unpruned grid for atomic number  77.
 Defaulting to unpruned grid for atomic number  77.
 Defaulting to unpruned grid for atomic number  77.
 Defaulting to unpruned grid for atomic number  77.
 Defaulting to unpruned grid for atomic number  77.
 Defaulting to unpruned grid for atomic number  77.
 Defaulting to unpruned grid for atomic number  77.
 Defaulting to unpruned grid for atomic number  77.
 SCF Done:  E(RM06) =  -1684.52423772     A.U. after   20 cycles
            NFock= 20  Conv=0.65D-08     -V/T= 2.0502
 DoSCS=F DFT=T ScalE2(SS,OS)=  1.000000  1.000000
 Range of M.O.s used for correlation:     1   464
 NBasis=   464 NAE=   116 NBE=   116 NFC=     0 NFV=     0
 NROrb=    464 NOA=   116 NOB=   116 NVA=   348 NVB=   348

 **** Warning!!: The smallest alpha delta epsilon is  0.83187591D-01

   1 Symmetry operations used in ECPInt.
 ECPInt:  NShTT=   12880 NPrTT=   83615 LenC2=    9588 LenP2D=   34031.
 LDataN:  DoStor=T MaxTD1= 7 Len=  274
 Symmetrizing basis deriv contribution to polar:
 IMax=3 JMax=2 DiffMx= 0.00D+00
 G2DrvN: will do    49 centers at a time, making    1 passes.
 Calling FoFCou, ICntrl=  3107 FMM=F I1Cent=   0 AccDes= 0.00D+00.
 Defaulting to unpruned grid for atomic number  77.
 Defaulting to unpruned grid for atomic number  77.
 Defaulting to unpruned grid for atomic number  77.
 Defaulting to unpruned grid for atomic number  77.
 Defaulting to unpruned grid for atomic number  77.
 Defaulting to unpruned grid for atomic number  77.
 Defaulting to unpruned grid for atomic number  77.
 Defaulting to unpruned grid for atomic number  77.
 Defaulting to unpruned grid for atomic number  77.
 Defaulting to unpruned grid for atomic number  77.
 Defaulting to unpruned grid for atomic number  77.
 Defaulting to unpruned grid for atomic number  77.
 Defaulting to unpruned grid for atomic number  77.
 Defaulting to unpruned grid for atomic number  77.
 Defaulting to unpruned grid for atomic number  77.
 Defaulting to unpruned grid for atomic number  77.
 End of G2Drv F.D. properties file   721 does not exist.
 End of G2Drv F.D. properties file   722 does not exist.
 End of G2Drv F.D. properties file   788 does not exist.
          IDoAtm=111111111111111111111111111111111111111111111111
          Differentiating once with respect to electric field.
                with respect to dipole field.
          Differentiating once with respect to nuclear coordinates.
 Defaulting to unpruned grid for atomic number  77.
 CalDSu exits because no D1Ps are significant.
 Defaulting to unpruned grid for atomic number  77.
 Defaulting to unpruned grid for atomic number  77.
 Defaulting to unpruned grid for atomic number  77.
 Defaulting to unpruned grid for atomic number  77.
 Defaulting to unpruned grid for atomic number  77.
 Defaulting to unpruned grid for atomic number  77.
 Defaulting to unpruned grid for atomic number  77.
 Defaulting to unpruned grid for atomic number  77.
 Defaulting to unpruned grid for atomic number  77.
 Defaulting to unpruned grid for atomic number  77.
 Defaulting to unpruned grid for atomic number  77.
 Defaulting to unpruned grid for atomic number  77.
 Defaulting to unpruned grid for atomic number  77.
 Defaulting to unpruned grid for atomic number  77.
 Defaulting to unpruned grid for atomic number  77.
 Defaulting to unpruned grid for atomic number  77.
          There are   147 degrees of freedom in the 1st order CPHF.  IDoFFX=6 NUNeed=     3.
    144 vectors produced by pass  0 Test12= 4.04D-14 1.00D-09 XBig12= 6.49D+02 1.40D+01.
 AX will form   144 AO Fock derivatives at one time.
    144 vectors produced by pass  1 Test12= 4.04D-14 1.00D-09 XBig12= 4.09D+02 4.38D+00.
    144 vectors produced by pass  2 Test12= 4.04D-14 1.00D-09 XBig12= 1.51D+01 5.40D-01.
    144 vectors produced by pass  3 Test12= 4.04D-14 1.00D-09 XBig12= 2.19D-01 6.57D-02.
    144 vectors produced by pass  4 Test12= 4.04D-14 1.00D-09 XBig12= 1.13D-03 4.64D-03.
    141 vectors produced by pass  5 Test12= 4.04D-14 1.00D-09 XBig12= 2.71D-06 2.10D-04.
     79 vectors produced by pass  6 Test12= 4.04D-14 1.00D-09 XBig12= 4.37D-09 4.83D-06.
      4 vectors produced by pass  7 Test12= 4.04D-14 1.00D-09 XBig12= 5.85D-12 1.67D-07.
      3 vectors produced by pass  8 Test12= 4.04D-14 1.00D-09 XBig12= 8.74D-15 6.80D-09.
 InvSVY:  IOpt=1 It=  1 EMax= 1.42D-14
 Solved reduced A of dimension   947 with   147 vectors.
 Isotropic polarizability for W=    0.000000      296.66 Bohr**3.
 End of Minotr F.D. properties file   721 does not exist.
 End of Minotr F.D. properties file   722 does not exist.
 End of Minotr F.D. properties file   788 does not exist.

 **********************************************************************

            Population analysis using the SCF Density.

 **********************************************************************

 Orbital symmetries:
       Occupied  (A) (A) (A) (A) (A) (A) (A) (A) (A) (A) (A) (A)
                 (A) (A) (A) (A) (A) (A) (A) (A) (A) (A) (A) (A)
                 (A) (A) (A) (A) (A) (A) (A) (A) (A) (A) (A) (A)
                 (A) (A) (A) (A) (A) (A) (A) (A) (A) (A) (A) (A)
                 (A) (A) (A) (A) (A) (A) (A) (A) (A) (A) (A) (A)
                 (A) (A) (A) (A) (A) (A) (A) (A) (A) (A) (A) (A)
                 (A) (A) (A) (A) (A) (A) (A) (A) (A) (A) (A) (A)
                 (A) (A) (A) (A) (A) (A) (A) (A) (A) (A) (A) (A)
                 (A) (A) (A) (A) (A) (A) (A) (A) (A) (A) (A) (A)
                 (A) (A) (A) (A) (A) (A) (A) (A)
       Virtual   (A) (A) (A) (A) (A) (A) (A) (A) (A) (A) (A) (A)
                 (A) (A) (A) (A) (A) (A) (A) (A) (A) (A) (A) (A)
                 (A) (A) (A) (A) (A) (A) (A) (A) (A) (A) (A) (A)
                 (A) (A) (A) (A) (A) (A) (A) (A) (A) (A) (A) (A)
                 (A) (A) (A) (A) (A) (A) (A) (A) (A) (A) (A) (A)
                 (A) (A) (A) (A) (A) (A) (A) (A) (A) (A) (A) (A)
                 (A) (A) (A) (A) (A) (A) (A) (A) (A) (A) (A) (A)
                 (A) (A) (A) (A) (A) (A) (A) (A) (A) (A) (A) (A)
                 (A) (A) (A) (A) (A) (A) (A) (A) (A) (A) (A) (A)
                 (A) (A) (A) (A) (A) (A) (A) (A) (A) (A) (A) (A)
                 (A) (A) (A) (A) (A) (A) (A) (A) (A) (A) (A) (A)
                 (A) (A) (A) (A) (A) (A) (A) (A) (A) (A) (A) (A)
                 (A) (A) (A) (A) (A) (A) (A) (A) (A) (A) (A) (A)
                 (A) (A) (A) (A) (A) (A) (A) (A) (A) (A) (A) (A)
                 (A) (A) (A) (A) (A) (A) (A) (A) (A) (A) (A) (A)
                 (A) (A) (A) (A) (A) (A) (A) (A) (A) (A) (A) (A)
                 (A) (A) (A) (A) (A) (A) (A) (A) (A) (A) (A) (A)
                 (A) (A) (A) (A) (A) (A) (A) (A) (A) (A) (A) (A)
                 (A) (A) (A) (A) (A) (A) (A) (A) (A) (A) (A) (A)
                 (A) (A) (A) (A) (A) (A) (A) (A) (A) (A) (A) (A)
                 (A) (A) (A) (A) (A) (A) (A) (A) (A) (A) (A) (A)
                 (A) (A) (A) (A) (A) (A) (A) (A) (A) (A) (A) (A)
                 (A) (A) (A) (A) (A) (A) (A) (A) (A) (A) (A) (A)
                 (A) (A) (A) (A) (A) (A) (A) (A) (A) (A) (A) (A)
                 (A) (A) (A) (A) (A) (A) (A) (A) (A) (A) (A) (A)
                 (A) (A) (A) (A) (A) (A) (A) (A) (A) (A) (A) (A)
                 (A) (A) (A) (A) (A) (A) (A) (A) (A) (A) (A) (A)
                 (A) (A) (A) (A) (A) (A) (A) (A) (A) (A) (A) (A)
                 (A) (A) (A) (A) (A) (A) (A) (A) (A) (A) (A) (A)
 The electronic state is 1-A.
 Alpha  occ. eigenvalues --  -24.84112 -24.83509 -24.83348 -24.83069 -24.82558
 Alpha  occ. eigenvalues --  -24.82522 -19.20429 -19.20084 -14.49684 -14.46255
 Alpha  occ. eigenvalues --  -10.52273 -10.51298 -10.33704 -10.32874 -10.32829
 Alpha  occ. eigenvalues --  -10.30821 -10.30786 -10.30481 -10.30044 -10.29645
 Alpha  occ. eigenvalues --  -10.29586 -10.29423 -10.29285 -10.29251 -10.22777
 Alpha  occ. eigenvalues --  -10.22687 -10.22419 -10.22309  -6.77912  -3.60821
 Alpha  occ. eigenvalues --   -2.05344  -2.02533  -2.00355  -1.36616  -1.35668
 Alpha  occ. eigenvalues --   -1.28143  -1.27545  -1.27175  -1.26615  -1.06058
 Alpha  occ. eigenvalues --   -1.01909  -0.99323  -0.99138  -0.87474  -0.86477
 Alpha  occ. eigenvalues --   -0.85108  -0.81127  -0.80406  -0.76299  -0.74876
 Alpha  occ. eigenvalues --   -0.72914  -0.70378  -0.70262  -0.69366  -0.67651
 Alpha  occ. eigenvalues --   -0.67145  -0.65876  -0.62664  -0.62549  -0.61865
 Alpha  occ. eigenvalues --   -0.61648  -0.61540  -0.61489  -0.60813  -0.57538
 Alpha  occ. eigenvalues --   -0.55248  -0.54557  -0.53248  -0.52212  -0.50596
 Alpha  occ. eigenvalues --   -0.50114  -0.49963  -0.49197  -0.49024  -0.48719
 Alpha  occ. eigenvalues --   -0.48115  -0.48007  -0.47985  -0.46754  -0.46563
 Alpha  occ. eigenvalues --   -0.46283  -0.46218  -0.45445  -0.45311  -0.44615
 Alpha  occ. eigenvalues --   -0.44365  -0.44016  -0.43824  -0.43755  -0.43410
 Alpha  occ. eigenvalues --   -0.42895  -0.40888  -0.40112  -0.39953  -0.39933
 Alpha  occ. eigenvalues --   -0.39580  -0.39210  -0.38569  -0.37350  -0.36848
 Alpha  occ. eigenvalues --   -0.36607  -0.36011  -0.35156  -0.34875  -0.34371
 Alpha  occ. eigenvalues --   -0.33662  -0.32279  -0.31792  -0.30267  -0.28534
 Alpha  occ. eigenvalues --   -0.26585  -0.24797  -0.21855  -0.20029  -0.18870
 Alpha  occ. eigenvalues --   -0.17787
 Alpha virt. eigenvalues --   -0.09469  -0.05560  -0.05448  -0.04459  -0.00716
 Alpha virt. eigenvalues --    0.00131   0.01743   0.03025   0.07026   0.07418
 Alpha virt. eigenvalues --    0.09176   0.09599   0.10045   0.11619   0.12356
 Alpha virt. eigenvalues --    0.13388   0.13744   0.14039   0.14721   0.15051
 Alpha virt. eigenvalues --    0.15328   0.15442   0.16647   0.16959   0.17007
 Alpha virt. eigenvalues --    0.17516   0.18136   0.18932   0.19348   0.19977
 Alpha virt. eigenvalues --    0.20388   0.20501   0.21005   0.21112   0.21555
 Alpha virt. eigenvalues --    0.22066   0.22330   0.22706   0.23014   0.23091
 Alpha virt. eigenvalues --    0.23847   0.24367   0.24983   0.25612   0.25859
 Alpha virt. eigenvalues --    0.26655   0.26953   0.28215   0.28705   0.31153
 Alpha virt. eigenvalues --    0.31533   0.32635   0.34783   0.35295   0.35839
 Alpha virt. eigenvalues --    0.36356   0.37843   0.38399   0.38816   0.42614
 Alpha virt. eigenvalues --    0.43490   0.44072   0.44855   0.46123   0.47644
 Alpha virt. eigenvalues --    0.47897   0.48548   0.48965   0.50282   0.50599
 Alpha virt. eigenvalues --    0.50900   0.51108   0.51279   0.52087   0.52737
 Alpha virt. eigenvalues --    0.52947   0.53398   0.55324   0.55769   0.56599
 Alpha virt. eigenvalues --    0.57162   0.57346   0.57578   0.57942   0.58481
 Alpha virt. eigenvalues --    0.58636   0.59312   0.59719   0.59835   0.60897
 Alpha virt. eigenvalues --    0.61053   0.61997   0.63274   0.63448   0.64011
 Alpha virt. eigenvalues --    0.65513   0.66125   0.66592   0.67066   0.69771
 Alpha virt. eigenvalues --    0.70427   0.71101   0.71629   0.72167   0.72476
 Alpha virt. eigenvalues --    0.72951   0.73584   0.74558   0.75098   0.75302
 Alpha virt. eigenvalues --    0.76838   0.77209   0.78760   0.79072   0.80440
 Alpha virt. eigenvalues --    0.81488   0.82385   0.83166   0.83312   0.84591
 Alpha virt. eigenvalues --    0.84817   0.84910   0.86280   0.87142   0.87568
 Alpha virt. eigenvalues --    0.88617   0.88794   0.89652   0.90465   0.90966
 Alpha virt. eigenvalues --    0.91150   0.91682   0.92255   0.93020   0.94386
 Alpha virt. eigenvalues --    0.94698   0.95030   0.95466   0.95818   0.97097
 Alpha virt. eigenvalues --    0.97613   0.98323   0.99582   1.00019   1.00721
 Alpha virt. eigenvalues --    1.02513   1.05594   1.06798   1.07784   1.08557
 Alpha virt. eigenvalues --    1.09401   1.09996   1.10371   1.11760   1.12873
 Alpha virt. eigenvalues --    1.14177   1.16290   1.16484   1.17115   1.17270
 Alpha virt. eigenvalues --    1.17866   1.18178   1.18929   1.19527   1.20045
 Alpha virt. eigenvalues --    1.21472   1.22169   1.22314   1.23957   1.25522
 Alpha virt. eigenvalues --    1.26087   1.27338   1.28208   1.30662   1.32187
 Alpha virt. eigenvalues --    1.32929   1.33420   1.33543   1.33793   1.34467
 Alpha virt. eigenvalues --    1.35273   1.35588   1.36975   1.37300   1.37935
 Alpha virt. eigenvalues --    1.38192   1.38396   1.39072   1.40659   1.41046
 Alpha virt. eigenvalues --    1.41167   1.41705   1.43405   1.44028   1.44718
 Alpha virt. eigenvalues --    1.45099   1.46755   1.47861   1.48964   1.49382
 Alpha virt. eigenvalues --    1.50536   1.52425   1.52914   1.54404   1.55503
 Alpha virt. eigenvalues --    1.57894   1.62467   1.63193   1.64615   1.65012
 Alpha virt. eigenvalues --    1.65486   1.66450   1.68021   1.69218   1.70133
 Alpha virt. eigenvalues --    1.70636   1.70962   1.71291   1.71803   1.73628
 Alpha virt. eigenvalues --    1.74642   1.76089   1.76488   1.76555   1.77436
 Alpha virt. eigenvalues --    1.78098   1.79822   1.80824   1.81612   1.82221
 Alpha virt. eigenvalues --    1.82899   1.84181   1.84910   1.85001   1.85812
 Alpha virt. eigenvalues --    1.86951   1.87780   1.88280   1.89122   1.89941
 Alpha virt. eigenvalues --    1.91070   1.92140   1.92625   1.93293   1.94060
 Alpha virt. eigenvalues --    1.96219   1.96253   1.97934   1.98640   2.00273
 Alpha virt. eigenvalues --    2.01929   2.02078   2.02169   2.02540   2.02840
 Alpha virt. eigenvalues --    2.03137   2.04154   2.05187   2.05482   2.06200
 Alpha virt. eigenvalues --    2.06686   2.06706   2.07079   2.08870   2.09155
 Alpha virt. eigenvalues --    2.09758   2.09866   2.10456   2.10548   2.10843
 Alpha virt. eigenvalues --    2.11181   2.12985   2.13396   2.14020   2.15559
 Alpha virt. eigenvalues --    2.16547   2.17081   2.17632   2.18487   2.19910
 Alpha virt. eigenvalues --    2.20383   2.20974   2.22219   2.23157   2.23672
 Alpha virt. eigenvalues --    2.25320   2.25484   2.26010   2.27860   2.29090
 Alpha virt. eigenvalues --    2.29821   2.30832   2.31549   2.32663   2.33168
 Alpha virt. eigenvalues --    2.38217   2.39667   2.42220   2.43131   2.43888
 Alpha virt. eigenvalues --    2.44519   2.47061   2.47858   2.48284   2.48358
 Alpha virt. eigenvalues --    2.48894   2.51026   2.58266   2.58762   2.59672
 Alpha virt. eigenvalues --    2.59809   2.60990   2.62045   2.63729   2.64182
 Alpha virt. eigenvalues --    2.66128   2.68979   2.73265   2.75826   2.76289
 Alpha virt. eigenvalues --    2.76668   2.77511   2.77899   2.78828   2.79235
 Alpha virt. eigenvalues --    2.80146   2.82708   2.85579   2.85974   2.87862
 Alpha virt. eigenvalues --    2.90327   2.90947   2.92418   2.94421   3.01032
 Alpha virt. eigenvalues --    3.01852   3.04438   3.05288   3.05569   3.07971
 Alpha virt. eigenvalues --    3.08801   3.11174   3.13413   3.14495   3.25500
 Alpha virt. eigenvalues --    3.29103   3.42950   7.50625
          Condensed to atoms (all electrons):
               1          2          3          4          5          6
     1  C    4.822395  -0.045571  -0.022375  -0.011940   0.529674   0.348970
     2  C   -0.045571   5.039371   0.471192  -0.047105  -0.042010   0.004989
     3  C   -0.022375   0.471192   5.108574   0.430884  -0.013801   0.000634
     4  C   -0.011940  -0.047105   0.430884   5.018994   0.480314   0.007146
     5  C    0.529674  -0.042010  -0.013801   0.480314   5.027012  -0.063568
     6  C    0.348970   0.004989   0.000634   0.007146  -0.063568   4.682291
     7  C    0.006287   0.000004  -0.000000   0.000003  -0.000156  -0.060721
     8  C    0.001125  -0.000001   0.000000   0.000000  -0.000035  -0.021757
     9  C    0.006135   0.000003   0.000000  -0.000012   0.000645  -0.007186
    10  C   -0.078753  -0.000069  -0.000057   0.000697  -0.014805   0.528718
    11  H    0.002731   0.322200  -0.046462   0.004527   0.000327  -0.000252
    12  H    0.002472   0.004313  -0.041083   0.358603  -0.028464  -0.000142
    13  H   -0.033416   0.000530   0.003250  -0.031979   0.353868  -0.011986
    14  H   -0.000191  -0.000000  -0.000000  -0.000000   0.000002   0.003989
    15  H   -0.000161  -0.000000  -0.000000   0.000000   0.000007   0.002055
    16  H   -0.009216  -0.000005  -0.000001   0.000313   0.003136  -0.031218
    17  N    0.261079   0.360709  -0.014952  -0.032716  -0.072285   0.015684
    18  N   -0.032716   0.000646  -0.000079  -0.000148   0.006989   0.335252
    19  Ir  -0.063477  -0.043694   0.007654  -0.002057   0.007716  -0.042091
    20  O   -0.000032  -0.025812   0.000352  -0.000002  -0.000001   0.000002
    21  B    0.001939   0.002157   0.001171  -0.000043   0.000076  -0.000239
    22  O    0.000001  -0.000186  -0.000002  -0.000000  -0.000000   0.000000
    23  C    0.000001   0.000895  -0.000018  -0.000000   0.000000  -0.000000
    24  C    0.000000  -0.000109  -0.000000  -0.000000   0.000000  -0.000000
    25  C   -0.000000   0.000002  -0.000000  -0.000000  -0.000000   0.000000
    26  H   -0.000000  -0.000000   0.000000   0.000000  -0.000000   0.000000
    27  H    0.000000   0.000006  -0.000000  -0.000000   0.000000   0.000000
    28  H   -0.000000  -0.000000   0.000000   0.000000   0.000000  -0.000000
    29  C    0.000000   0.000001  -0.000000  -0.000000   0.000000   0.000000
    30  H   -0.000000  -0.000000   0.000000   0.000000  -0.000000   0.000000
    31  H   -0.000000   0.000000   0.000000   0.000000   0.000000  -0.000000
    32  H   -0.000000   0.000000  -0.000000  -0.000000   0.000000   0.000000
    33  C   -0.000000   0.000051  -0.000000  -0.000000  -0.000000   0.000000
    34  H   -0.000000   0.000030  -0.000000  -0.000000   0.000000   0.000000
    35  H    0.000000  -0.000001   0.000000   0.000000   0.000000  -0.000000
    36  H   -0.000000  -0.000152  -0.000002  -0.000000   0.000000  -0.000000
    37  C   -0.000000  -0.000000  -0.000000  -0.000000  -0.000000   0.000000
    38  H    0.000000  -0.000000  -0.000000   0.000000   0.000000  -0.000000
    39  H    0.000000   0.000007  -0.000001  -0.000000  -0.000000   0.000000
    40  H   -0.000000  -0.000057   0.000001  -0.000000   0.000000  -0.000000
    41  C    0.000018  -0.024712   0.321960  -0.020461   0.005241  -0.000004
    42  F   -0.000008   0.000791  -0.049618   0.003315   0.000287  -0.000000
    43  F   -0.000009   0.001028  -0.049183   0.003605   0.000332  -0.000000
    44  F    0.000009  -0.002617  -0.036503   0.003572  -0.000061   0.000000
    45  C    0.000000   0.000000   0.000000   0.000000  -0.000000   0.000057
    46  F   -0.000000   0.000000  -0.000000   0.000000  -0.000000   0.000001
    47  F   -0.000000   0.000000  -0.000000   0.000000   0.000000  -0.000017
    48  F    0.000000   0.000000  -0.000000   0.000000  -0.000000   0.000007
               7          8          9         10         11         12
     1  C    0.006287   0.001125   0.006135  -0.078753   0.002731   0.002472
     2  C    0.000004  -0.000001   0.000003  -0.000069   0.322200   0.004313
     3  C   -0.000000   0.000000   0.000000  -0.000057  -0.046462  -0.041083
     4  C    0.000003   0.000000  -0.000012   0.000697   0.004527   0.358603
     5  C   -0.000156  -0.000035   0.000645  -0.014805   0.000327  -0.028464
     6  C   -0.060721  -0.021757  -0.007186   0.528718  -0.000252  -0.000142
     7  C    4.880196   0.458160  -0.043265  -0.041712   0.000001  -0.000000
     8  C    0.458160   5.093347   0.496726  -0.020353  -0.000000  -0.000000
     9  C   -0.043265   0.496726   4.992999   0.452110   0.000000   0.000000
    10  C   -0.041712  -0.020353   0.452110   5.087614   0.000002   0.000006
    11  H    0.000001  -0.000000   0.000000   0.000002   0.452351  -0.000103
    12  H   -0.000000  -0.000000   0.000000   0.000006  -0.000103   0.508472
    13  H    0.000001  -0.000009   0.000365   0.003696   0.000017  -0.004128
    14  H    0.366763  -0.051494   0.002861   0.000786   0.000000   0.000000
    15  H    0.004726  -0.039203   0.360523  -0.031030   0.000000   0.000000
    16  H    0.000347   0.003416  -0.034702   0.352946  -0.000000   0.000001
    17  N   -0.000757   0.000037  -0.000197   0.008513  -0.033555   0.000023
    18  N    0.445861  -0.016617  -0.039777  -0.071956   0.000076   0.000001
    19  Ir  -0.028064   0.003751  -0.001244   0.005597  -0.013498   0.000218
    20  O    0.000000  -0.000000   0.000000   0.000000   0.050249   0.000000
    21  B   -0.000023   0.000001  -0.000001  -0.000010  -0.013581   0.000000
    22  O   -0.000000   0.000000   0.000000   0.000000   0.000199   0.000000
    23  C   -0.000000   0.000000  -0.000000  -0.000000  -0.002717  -0.000000
    24  C   -0.000000  -0.000000  -0.000000  -0.000000   0.000479   0.000000
    25  C    0.000000   0.000000   0.000000   0.000000  -0.000024  -0.000000
    26  H   -0.000000   0.000000   0.000000   0.000000   0.000001   0.000000
    27  H   -0.000000   0.000000  -0.000000   0.000000  -0.000041  -0.000000
    28  H   -0.000000  -0.000000  -0.000000  -0.000000   0.000000   0.000000
    29  C    0.000000   0.000000  -0.000000  -0.000000  -0.000007  -0.000000
    30  H   -0.000000   0.000000   0.000000  -0.000000   0.000000   0.000000
    31  H   -0.000000  -0.000000  -0.000000   0.000000  -0.000000  -0.000000
    32  H   -0.000000   0.000000   0.000000   0.000000  -0.000001  -0.000000
    33  C    0.000000  -0.000000   0.000000   0.000000  -0.000404  -0.000000
    34  H   -0.000000  -0.000000  -0.000000   0.000000  -0.000156  -0.000000
    35  H   -0.000000   0.000000  -0.000000  -0.000000   0.000009   0.000000
    36  H    0.000000  -0.000000   0.000000   0.000000   0.000611   0.000000
    37  C    0.000000  -0.000000  -0.000000   0.000000  -0.000133   0.000000
    38  H   -0.000000   0.000000  -0.000000  -0.000000  -0.000000  -0.000000
    39  H   -0.000000  -0.000000   0.000000   0.000000  -0.000049  -0.000000
    40  H    0.000000  -0.000000   0.000000   0.000000   0.000280   0.000000
    41  C    0.000000  -0.000000   0.000000  -0.000000  -0.006412  -0.002054
    42  F    0.000000  -0.000000   0.000000   0.000000   0.000142   0.001577
    43  F    0.000000  -0.000000   0.000000   0.000000   0.000139   0.001928
    44  F    0.000000  -0.000000  -0.000000   0.000000   0.010960   0.000076
    45  C   -0.016395   0.307659  -0.034876   0.006204  -0.000000  -0.000000
    46  F    0.002556  -0.051482   0.000849  -0.000039   0.000000   0.000000
    47  F    0.003160  -0.041634   0.002789   0.000726   0.000000   0.000000
    48  F    0.004215  -0.048603   0.002106  -0.000053   0.000000   0.000000
              13         14         15         16         17         18
     1  C   -0.033416  -0.000191  -0.000161  -0.009216   0.261079  -0.032716
     2  C    0.000530  -0.000000  -0.000000  -0.000005   0.360709   0.000646
     3  C    0.003250  -0.000000  -0.000000  -0.000001  -0.014952  -0.000079
     4  C   -0.031979  -0.000000   0.000000   0.000313  -0.032716  -0.000148
     5  C    0.353868   0.000002   0.000007   0.003136  -0.072285   0.006989
     6  C   -0.011986   0.003989   0.002055  -0.031218   0.015684   0.335252
     7  C    0.000001   0.366763   0.004726   0.000347  -0.000757   0.445861
     8  C   -0.000009  -0.051494  -0.039203   0.003416   0.000037  -0.016617
     9  C    0.000365   0.002861   0.360523  -0.034702  -0.000197  -0.039777
    10  C    0.003696   0.000786  -0.031030   0.352946   0.008513  -0.071956
    11  H    0.000017   0.000000   0.000000  -0.000000  -0.033555   0.000076
    12  H   -0.004128   0.000000   0.000000   0.000001   0.000023   0.000001
    13  H    0.536655   0.000000   0.000002   0.004296   0.003617   0.000047
    14  H    0.000000   0.504546  -0.000146   0.000025  -0.000018  -0.036443
    15  H    0.000002  -0.000146   0.503305  -0.004298   0.000001  -0.000063
    16  H    0.004296   0.000025  -0.004298   0.529852   0.000019   0.003825
    17  N    0.003617  -0.000018   0.000001   0.000019   7.089637  -0.034509
    18  N    0.000047  -0.036443  -0.000063   0.003825  -0.034509   6.884641
    19  Ir  -0.000450  -0.002733   0.000171  -0.000310   0.121257   0.092196
    20  O   -0.000000  -0.000000   0.000000  -0.000000  -0.000310   0.000002
    21  B   -0.000000   0.000106  -0.000000   0.000000  -0.012824  -0.006947
    22  O    0.000000  -0.000001   0.000000  -0.000000   0.000045   0.000008
    23  C    0.000000   0.000000  -0.000000   0.000000  -0.000004  -0.000000
    24  C   -0.000000   0.000000  -0.000000   0.000000   0.000010  -0.000000
    25  C    0.000000  -0.000000   0.000000  -0.000000   0.000000   0.000000
    26  H    0.000000  -0.000000   0.000000  -0.000000  -0.000000   0.000000
    27  H    0.000000   0.000000  -0.000000   0.000000   0.000000  -0.000000
    28  H   -0.000000   0.000000  -0.000000   0.000000   0.000000  -0.000000
    29  C    0.000000  -0.000000  -0.000000   0.000000  -0.000000  -0.000000
    30  H    0.000000  -0.000000   0.000000  -0.000000  -0.000000   0.000000
    31  H   -0.000000   0.000000  -0.000000   0.000000   0.000000  -0.000000
    32  H    0.000000  -0.000000   0.000000  -0.000000   0.000000   0.000000
    33  C    0.000000   0.000000   0.000000  -0.000000  -0.000003   0.000000
    34  H   -0.000000   0.000000  -0.000000   0.000000  -0.000000  -0.000000
    35  H   -0.000000  -0.000000  -0.000000   0.000000  -0.000000  -0.000000
    36  H    0.000000   0.000000   0.000000  -0.000000   0.000001   0.000000
    37  C   -0.000000  -0.000000  -0.000000   0.000000  -0.000001  -0.000000
    38  H    0.000000   0.000000  -0.000000   0.000000   0.000000  -0.000000
    39  H   -0.000000   0.000000   0.000000  -0.000000   0.000000   0.000000
    40  H    0.000000  -0.000000   0.000000  -0.000000   0.000000   0.000000
    41  C   -0.000118   0.000000  -0.000000   0.000000   0.003513   0.000000
    42  F    0.000000   0.000000   0.000000   0.000000  -0.000014  -0.000000
    43  F    0.000000   0.000000   0.000000   0.000000  -0.000014  -0.000000
    44  F    0.000000   0.000000  -0.000000   0.000000   0.000220   0.000000
    45  C   -0.000000   0.000197  -0.006066  -0.000074   0.000000   0.003803
    46  F    0.000000   0.000579   0.000174   0.000000   0.000000   0.000060
    47  F    0.000000   0.000041   0.007164   0.000000   0.000000  -0.000014
    48  F    0.000000   0.002317   0.000146   0.000000   0.000000   0.000128
              19         20         21         22         23         24
     1  C   -0.063477  -0.000032   0.001939   0.000001   0.000001   0.000000
     2  C   -0.043694  -0.025812   0.002157  -0.000186   0.000895  -0.000109
     3  C    0.007654   0.000352   0.001171  -0.000002  -0.000018  -0.000000
     4  C   -0.002057  -0.000002  -0.000043  -0.000000  -0.000000  -0.000000
     5  C    0.007716  -0.000001   0.000076  -0.000000   0.000000   0.000000
     6  C   -0.042091   0.000002  -0.000239   0.000000  -0.000000  -0.000000
     7  C   -0.028064   0.000000  -0.000023  -0.000000  -0.000000  -0.000000
     8  C    0.003751  -0.000000   0.000001   0.000000   0.000000  -0.000000
     9  C   -0.001244   0.000000  -0.000001   0.000000  -0.000000  -0.000000
    10  C    0.005597   0.000000  -0.000010   0.000000  -0.000000  -0.000000
    11  H   -0.013498   0.050249  -0.013581   0.000199  -0.002717   0.000479
    12  H    0.000218   0.000000   0.000000   0.000000  -0.000000   0.000000
    13  H   -0.000450  -0.000000  -0.000000   0.000000   0.000000  -0.000000
    14  H   -0.002733  -0.000000   0.000106  -0.000001   0.000000   0.000000
    15  H    0.000171   0.000000  -0.000000   0.000000  -0.000000  -0.000000
    16  H   -0.000310  -0.000000   0.000000  -0.000000   0.000000   0.000000
    17  N    0.121257  -0.000310  -0.012824   0.000045  -0.000004   0.000010
    18  N    0.092196   0.000002  -0.006947   0.000008  -0.000000  -0.000000
    19  Ir  16.469571  -0.016768   0.270984  -0.006921   0.007638   0.001885
    20  O   -0.016768   8.177531   0.333891  -0.045935   0.223575  -0.056295
    21  B    0.270984   0.333891   3.799202   0.343679  -0.047924  -0.048625
    22  O   -0.006921  -0.045935   0.343679   8.160807  -0.058663   0.234633
    23  C    0.007638   0.223575  -0.047924  -0.058663   4.733385   0.374481
    24  C    0.001885  -0.056295  -0.048625   0.234633   0.374481   4.736407
    25  C    0.001836  -0.003046   0.003975  -0.059743  -0.051162   0.353973
    26  H    0.001868  -0.000051  -0.000861  -0.000372   0.004922  -0.022890
    27  H    0.001163   0.003260   0.005160  -0.002401  -0.005566  -0.027194
    28  H   -0.000557   0.000128  -0.000214   0.003740  -0.004837  -0.021775
    29  C   -0.001927   0.003408   0.000999  -0.049296  -0.051957   0.363839
    30  H    0.000898  -0.000073  -0.000294  -0.001154   0.004710  -0.023306
    31  H   -0.000012   0.000038   0.000016   0.003211  -0.001788  -0.028354
    32  H    0.000193   0.000001   0.000674  -0.000750  -0.009156  -0.020703
    33  C    0.002100  -0.059828   0.004307  -0.002976   0.359035  -0.054612
    34  H    0.001213  -0.002926   0.005649   0.003967  -0.027647  -0.005390
    35  H   -0.000559   0.003815  -0.000262   0.000102  -0.022136  -0.004276
    36  H    0.000925  -0.000103  -0.001066  -0.000071  -0.023247   0.005135
    37  C   -0.001906  -0.048401   0.001844   0.003596   0.365190  -0.050331
    38  H   -0.000023   0.003242  -0.000039   0.000042  -0.028907  -0.001617
    39  H    0.000236  -0.000799   0.000766   0.000017  -0.020756  -0.009236
    40  H    0.000440  -0.001039  -0.000418  -0.000078  -0.023074   0.004879
    41  C   -0.000288  -0.000020  -0.000001   0.000000   0.000005   0.000000
    42  F    0.000412  -0.000000  -0.000000  -0.000000   0.000000   0.000000
    43  F    0.000383  -0.000000  -0.000000  -0.000000   0.000000   0.000000
    44  F    0.000998  -0.000109  -0.000063  -0.000000   0.000018   0.000000
    45  C   -0.000414  -0.000000   0.000000  -0.000000   0.000000   0.000000
    46  F    0.000980  -0.000000  -0.000000   0.000000  -0.000000  -0.000000
    47  F    0.000128   0.000000  -0.000000   0.000000   0.000000  -0.000000
    48  F    0.000880  -0.000000  -0.000000  -0.000000  -0.000000  -0.000000
              25         26         27         28         29         30
     1  C   -0.000000  -0.000000   0.000000  -0.000000   0.000000  -0.000000
     2  C    0.000002  -0.000000   0.000006  -0.000000   0.000001  -0.000000
     3  C   -0.000000   0.000000  -0.000000   0.000000  -0.000000   0.000000
     4  C   -0.000000   0.000000  -0.000000   0.000000  -0.000000   0.000000
     5  C   -0.000000  -0.000000   0.000000   0.000000   0.000000  -0.000000
     6  C    0.000000   0.000000   0.000000  -0.000000   0.000000   0.000000
     7  C    0.000000  -0.000000  -0.000000  -0.000000   0.000000  -0.000000
     8  C    0.000000   0.000000   0.000000  -0.000000   0.000000   0.000000
     9  C    0.000000   0.000000  -0.000000  -0.000000  -0.000000   0.000000
    10  C    0.000000   0.000000   0.000000  -0.000000  -0.000000  -0.000000
    11  H   -0.000024   0.000001  -0.000041   0.000000  -0.000007   0.000000
    12  H   -0.000000   0.000000  -0.000000   0.000000  -0.000000   0.000000
    13  H    0.000000   0.000000   0.000000  -0.000000   0.000000   0.000000
    14  H   -0.000000  -0.000000   0.000000   0.000000  -0.000000  -0.000000
    15  H    0.000000   0.000000  -0.000000  -0.000000  -0.000000   0.000000
    16  H   -0.000000  -0.000000   0.000000   0.000000   0.000000  -0.000000
    17  N    0.000000  -0.000000   0.000000   0.000000  -0.000000  -0.000000
    18  N    0.000000   0.000000  -0.000000  -0.000000  -0.000000   0.000000
    19  Ir   0.001836   0.001868   0.001163  -0.000557  -0.001927   0.000898
    20  O   -0.003046  -0.000051   0.003260   0.000128   0.003408  -0.000073
    21  B    0.003975  -0.000861   0.005160  -0.000214   0.000999  -0.000294
    22  O   -0.059743  -0.000372  -0.002401   0.003740  -0.049296  -0.001154
    23  C   -0.051162   0.004922  -0.005566  -0.004837  -0.051957   0.004710
    24  C    0.353973  -0.022890  -0.027194  -0.021775   0.363839  -0.023306
    25  C    5.261901   0.367403   0.370414   0.349358  -0.080175  -0.007309
    26  H    0.367403   0.536831  -0.028068  -0.027997  -0.006987   0.004041
    27  H    0.370414  -0.028068   0.526878  -0.027226   0.005779  -0.000014
    28  H    0.349358  -0.027997  -0.027226   0.578637  -0.000754   0.000139
    29  C   -0.080175  -0.006987   0.005779  -0.000754   5.241756   0.370233
    30  H   -0.007309   0.004041  -0.000014   0.000139   0.370233   0.539622
    31  H   -0.000644   0.000106  -0.000051   0.000907   0.356642  -0.029518
    32  H    0.005803  -0.000079  -0.000171  -0.000031   0.366126  -0.028390
    33  C    0.006554  -0.000142   0.000143  -0.000156  -0.010100   0.000160
    34  H    0.000164  -0.000006   0.000006  -0.000008  -0.002199  -0.000105
    35  H   -0.000155   0.000000  -0.000008  -0.000012   0.001025   0.000095
    36  H   -0.000147   0.000002  -0.000006   0.000000   0.000391  -0.000004
    37  C   -0.010357   0.000398  -0.002127   0.001129   0.002174  -0.000165
    38  H   -0.001126  -0.000042   0.000231   0.000767   0.000543  -0.000032
    39  H    0.004648   0.000024   0.001951  -0.000972   0.000174  -0.000005
    40  H    0.000148  -0.000004  -0.000107   0.000096  -0.000171   0.000003
    41  C    0.000000  -0.000000   0.000000  -0.000000   0.000000  -0.000000
    42  F   -0.000000   0.000000  -0.000000   0.000000  -0.000000  -0.000000
    43  F   -0.000000  -0.000000  -0.000000  -0.000000   0.000000  -0.000000
    44  F   -0.000000  -0.000000  -0.000000  -0.000000  -0.000000  -0.000000
    45  C   -0.000000  -0.000000   0.000000   0.000000  -0.000000  -0.000000
    46  F   -0.000000   0.000000   0.000000   0.000000   0.000000   0.000000
    47  F    0.000000   0.000000   0.000000   0.000000   0.000000   0.000000
    48  F    0.000000   0.000000   0.000000   0.000000   0.000000   0.000000
              31         32         33         34         35         36
     1  C   -0.000000  -0.000000  -0.000000  -0.000000   0.000000  -0.000000
     2  C    0.000000   0.000000   0.000051   0.000030  -0.000001  -0.000152
     3  C    0.000000  -0.000000  -0.000000  -0.000000   0.000000  -0.000002
     4  C    0.000000  -0.000000  -0.000000  -0.000000   0.000000  -0.000000
     5  C    0.000000   0.000000  -0.000000   0.000000   0.000000   0.000000
     6  C   -0.000000   0.000000   0.000000   0.000000  -0.000000  -0.000000
     7  C   -0.000000  -0.000000   0.000000  -0.000000  -0.000000   0.000000
     8  C   -0.000000   0.000000  -0.000000  -0.000000   0.000000  -0.000000
     9  C   -0.000000   0.000000   0.000000  -0.000000  -0.000000   0.000000
    10  C    0.000000   0.000000   0.000000   0.000000  -0.000000   0.000000
    11  H   -0.000000  -0.000001  -0.000404  -0.000156   0.000009   0.000611
    12  H   -0.000000  -0.000000  -0.000000  -0.000000   0.000000   0.000000
    13  H   -0.000000   0.000000   0.000000  -0.000000  -0.000000   0.000000
    14  H    0.000000  -0.000000   0.000000   0.000000  -0.000000   0.000000
    15  H   -0.000000   0.000000   0.000000  -0.000000  -0.000000   0.000000
    16  H    0.000000  -0.000000  -0.000000   0.000000   0.000000  -0.000000
    17  N    0.000000   0.000000  -0.000003  -0.000000  -0.000000   0.000001
    18  N   -0.000000   0.000000   0.000000  -0.000000  -0.000000   0.000000
    19  Ir  -0.000012   0.000193   0.002100   0.001213  -0.000559   0.000925
    20  O    0.000038   0.000001  -0.059828  -0.002926   0.003815  -0.000103
    21  B    0.000016   0.000674   0.004307   0.005649  -0.000262  -0.001066
    22  O    0.003211  -0.000750  -0.002976   0.003967   0.000102  -0.000071
    23  C   -0.001788  -0.009156   0.359035  -0.027647  -0.022136  -0.023247
    24  C   -0.028354  -0.020703  -0.054612  -0.005390  -0.004276   0.005135
    25  C   -0.000644   0.005803   0.006554   0.000164  -0.000155  -0.000147
    26  H    0.000106  -0.000079  -0.000142  -0.000006   0.000000   0.000002
    27  H   -0.000051  -0.000171   0.000143   0.000006  -0.000008  -0.000006
    28  H    0.000907  -0.000031  -0.000156  -0.000008  -0.000012   0.000000
    29  C    0.356642   0.366126  -0.010100  -0.002199   0.001025   0.000391
    30  H   -0.029518  -0.028390   0.000160  -0.000105   0.000095  -0.000004
    31  H    0.574939  -0.026547  -0.001140   0.000239   0.000792  -0.000046
    32  H   -0.026547   0.534769   0.004601   0.001944  -0.000957   0.000026
    33  C   -0.001140   0.004601   5.260094   0.370391   0.350427   0.365986
    34  H    0.000239   0.001944   0.370391   0.525701  -0.027118  -0.028300
    35  H    0.000792  -0.000957   0.350427  -0.027118   0.575499  -0.027744
    36  H   -0.000046   0.000026   0.365986  -0.028300  -0.027744   0.542173
    37  C    0.000520   0.000172  -0.079512   0.005759  -0.000874  -0.007138
    38  H    0.001498  -0.000038  -0.000758  -0.000041   0.000921   0.000105
    39  H   -0.000039  -0.000006   0.005804  -0.000170  -0.000032  -0.000081
    40  H   -0.000035  -0.000005  -0.007674  -0.000029   0.000161   0.004341
    41  C   -0.000000   0.000000   0.000000  -0.000000  -0.000000   0.000016
    42  F    0.000000  -0.000000  -0.000000  -0.000000   0.000000   0.000000
    43  F    0.000000   0.000000  -0.000000  -0.000000  -0.000000  -0.000000
    44  F    0.000000  -0.000000  -0.000037  -0.000000   0.000000   0.000165
    45  C    0.000000  -0.000000  -0.000000   0.000000   0.000000  -0.000000
    46  F    0.000000   0.000000   0.000000   0.000000   0.000000   0.000000
    47  F    0.000000   0.000000   0.000000   0.000000   0.000000   0.000000
    48  F    0.000000   0.000000   0.000000   0.000000   0.000000   0.000000
              37         38         39         40         41         42
     1  C   -0.000000   0.000000   0.000000  -0.000000   0.000018  -0.000008
     2  C   -0.000000  -0.000000   0.000007  -0.000057  -0.024712   0.000791
     3  C   -0.000000  -0.000000  -0.000001   0.000001   0.321960  -0.049618
     4  C   -0.000000   0.000000  -0.000000  -0.000000  -0.020461   0.003315
     5  C   -0.000000   0.000000  -0.000000   0.000000   0.005241   0.000287
     6  C    0.000000  -0.000000   0.000000  -0.000000  -0.000004  -0.000000
     7  C    0.000000  -0.000000  -0.000000   0.000000   0.000000   0.000000
[...]
 0755,0.02176765,-0.00026623,0.05728374,-0.13593830,0.00057246,0.026045
 64,-0.01445911,0.00061818,-0.00263067,-0.00543555,-0.00016862,0.000185
 12,0.00013328,-0.00000948,-0.00004466,0.00006261,-0.00000061,0.0000966
 7,-0.00011109,-0.00000780,-0.00369989,-0.00204313,0.00018034,0.0002142
 9,-0.00124109,-0.00000050,0.00075603,0.00005450,-0.00004717,0.00008503
 ,0.00251453,0.00004341,-0.01201304,0.00366413,-0.00009769,0.00036814,-
 0.00019536,0.00009596,-0.00185202,-0.00065531,0.00001646,0.00289540,0.
 00121573,-0.00002894,-0.00176494,-0.00179676,-0.00004293,0.00062649,0.
 00047189,0.00023356,0.00074759,0.00024648,-0.00027260,-0.00017496,0.00
 001530,0.00004916,0.00004304,-0.00004222,-0.00001204,0.00002175,0.0000
 1500,-0.00007727,-0.00007795,-0.00004348,0.00007641,-0.00012582,0.0000
 0003,0.00007346,0.00003198,-0.00007283,0.00001934,-0.00007070,-0.00006
 199,-0.00003277,0.00000572,0.00004385,-0.00000870,-0.00010166,-0.00008
 644,-0.00004160,0.00003628,0.00003764,0.00005895,-0.00009881,-0.000045
 00,-0.00005548,0.00004515,0.00000135,0.00002060,-0.00007629,-0.0000442
 1,-0.00006170,-0.00009245,-0.00004256,0.00000982,0.00002829,0.00002203
 ,0.00000117,0.00002220,0.00002366,0.00001820,0.00181354,-0.00076887,-0
 .00001324,-0.00051376,0.00041127,0.00027590,-0.00050193,0.00042399,-0.
 00025098,-0.00055040,-0.00003355,-0.00000514,-0.01760076,0.59976023,0.
 00009261,-0.00006340,-0.00120222,-0.00000214,0.00000342,0.00003148,-0.
 00000826,-0.00002594,0.00001770,0.00004737,-0.00000884,-0.00008311,-0.
 00002163,0.00005439,-0.00002871,-0.00015721,-0.00002580,-0.00011492,0.
 00034422,0.00076329,-0.00200949,-0.00062962,-0.00029637,-0.06758770,0.
 00066285,-0.00073606,0.00131662,0.00030156,-0.00033342,0.00704505,-0.0
 0000525,-0.00000215,-0.00000128,0.00000146,-0.00000166,0.00002818,-0.0
 0000431,0.00000520,0.00015977,-0.00033831,-0.00010956,-0.00082167,-0.0
 0005445,0.00029357,-0.00286079,0.00004824,-0.00005229,0.00035887,0.000
 02107,0.00001423,-0.00032497,0.00015310,-0.00048493,0.00729933,-0.0000
 6511,-0.00001304,-0.00004479,0.00004540,-0.00000042,-0.00005371,-0.000
 08416,-0.00003758,0.00015995,0.00008725,0.00004208,-0.00013092,0.00000
 770,-0.00001242,0.00004588,-0.00005839,-0.00002100,0.00007057,0.000014
 24,0.00000799,-0.00002158,-0.00000013,0.00002702,0.00001800,0.00000771
 ,-0.00003236,-0.00000013,0.00000177,0.00000412,-0.00001006,0.00000441,
 -0.00000013,-0.00000148,-0.00000588,0.00000098,0.00001680,0.00000826,-
 0.00000324,-0.00000246,-0.00001254,0.00000666,-0.00002672,-0.00001468,
 0.00002025,-0.00000593,0.00001358,-0.00000799,-0.00000218,-0.00000223,
 -0.00000067,0.00000017,-0.00000528,0.00000558,0.00000073,0.00000026,-0
 .00000024,0.00000081,0.00000191,-0.00000166,0.00000185,0.00000213,-0.0
 0000152,-0.00001875,-0.00000035,0.00000277,0.00000238,-0.00003745,0.00
 001826,0.00026123,0.00001807,-0.00004354,-0.00009933,0.00000520,0.0000
 2695,-0.00008222,0.00001038,-0.00000285,-0.00004195,-0.00098726,0.0011
 3122,0.55194944,-0.00068184,0.00037945,-0.00010711,0.00019531,-0.00008
 338,-0.00000760,-0.00015155,0.00030673,-0.00000524,-0.00038622,-0.0000
 8634,-0.00002676,0.00004694,-0.00041833,0.00000622,0.00122446,0.000129
 07,-0.00005859,0.00014181,0.00021977,0.00004132,0.00006570,0.02552937,
 -0.02517893,-0.00301884,-0.00294724,-0.00175448,-0.00175655,0.00102349
 ,0.00133759,0.00007058,0.00004776,-0.00000298,-0.00001933,0.00002537,-
 0.00000055,0.00003649,-0.00005070,0.00002921,0.00001058,0.00010860,-0.
 00003322,0.00003745,0.00045874,-0.00046811,-0.00030055,0.00020505,0.00
 018073,-0.00007492,0.00064969,0.00001495,0.00078670,0.00054919,0.00038
 219,0.00004533,-0.00004635,-0.00003705,-0.00067523,-0.00018962,0.00000
 651,0.00110911,0.00039779,0.00003808,-0.00062352,-0.00053663,-0.000012
 02,0.00023366,0.00016234,0.00008007,0.00030553,0.00009439,-0.00010028,
 -0.00005438,-0.00000225,0.00001933,0.00001787,-0.00000242,-0.00000695,
 0.00001289,0.00000322,-0.00002629,-0.00003586,-0.00001495,0.00002494,-
 0.00004051,-0.00000706,0.00002227,0.00001533,-0.00001514,0.00000149,-0
 .00003230,-0.00001865,-0.00000750,0.00000831,0.00001177,-0.00000057,-0
 .00003365,-0.00002828,-0.00001762,0.00001184,0.00001116,0.00002448,-0.
 00003481,-0.00001922,-0.00001962,0.00001516,0.00000679,0.00000747,-0.0
 0002758,-0.00000843,-0.00002116,-0.00003144,-0.00001783,0.00000321,0.0
 0001250,0.00000461,0.00000086,0.00000546,0.00001387,0.00000456,0.00072
 856,-0.00037556,-0.00000557,-0.00020893,0.00018693,0.00012590,-0.00020
 122,0.00018799,-0.00010882,-0.00020833,0.00000772,-0.00000111,-0.08692
 971,0.02276520,-0.03129028,0.07743409,0.00114227,-0.00047296,0.0002926
 8,-0.00036144,0.00027252,0.00002129,0.00009430,-0.00052203,0.00001425,
 0.00063604,0.00018069,0.00000757,-0.00020535,0.00062093,0.00000009,-0.
 00111173,0.00143151,0.00021532,-0.00222502,-0.00309150,0.00069425,0.01
 318083,-0.01626756,0.03050054,0.00159218,0.00209745,0.00058924,0.00135
 120,-0.00003569,-0.00161994,-0.00007941,-0.00006120,0.00000098,0.00002
 039,-0.00002789,0.00000065,-0.00003905,0.00005930,-0.00001209,0.000894
 83,0.00045531,0.00103147,-0.00027655,0.00031047,0.00088205,0.00021572,
 -0.00019846,-0.00007584,0.00001077,-0.00119740,-0.00011520,0.00178830,
 -0.00152211,-0.00178956,-0.00023338,0.00023075,0.00014807,0.00072187,0
 .00025167,-0.00001020,-0.00116042,-0.00047853,-0.00009906,0.00068068,0
 .00066876,0.00000588,-0.00024677,-0.00018595,-0.00007965,-0.00031246,-
 0.00010595,0.00012964,0.00006519,-0.00000480,-0.00002431,-0.00001756,0
 .00001845,0.00000877,-0.00000880,-0.00001089,0.00002994,0.00003283,0.0
 0001732,-0.00002980,0.00004957,0.00000145,-0.00002765,-0.00001472,0.00
 002598,-0.00000309,0.00003075,0.00002268,0.00001112,-0.00000625,-0.000
 01498,-0.00000232,0.00003673,0.00003628,0.00001614,-0.00001136,-0.0000
 1548,-0.00002401,0.00003803,0.00001847,0.00002141,-0.00001890,-0.00000
 088,-0.00000832,0.00002964,0.00001413,0.00002329,0.00003569,0.00001740
 ,-0.00000296,-0.00001130,-0.00000863,-0.00000373,-0.00000874,-0.000009
 86,-0.00000657,-0.00079023,0.00034517,0.00003392,0.00022882,-0.0001920
 0,-0.00013821,0.00021542,-0.00018127,0.00009561,0.00023514,0.00001195,
 -0.00000274,0.02242280,-0.14534718,0.10424768,-0.01043360,0.17030677,-
 0.00064209,0.00028252,-0.00010794,0.00017666,-0.00014222,-0.00002655,-
 0.00005871,0.00028111,-0.00002065,-0.00035915,-0.00008849,0.00000524,0
 .00011129,-0.00033284,0.00001506,0.00086629,-0.00079521,-0.00032927,0.
 00191158,0.00121396,0.00028497,-0.00642643,0.01884580,-0.01075188,-0.0
 0298248,-0.00083064,-0.00101287,-0.00069162,0.00081460,0.00069271,0.00
 004875,0.00003504,-0.00000063,-0.00001146,0.00001740,-0.00000748,0.000
 02798,-0.00005587,-0.00001536,-0.00035105,-0.00039150,-0.00090111,0.00
 021817,-0.00030335,-0.00051737,-0.00026683,0.00020204,0.00009916,-0.00
 001356,0.00057191,0.00017877,-0.00122519,0.00084235,0.00075935,0.00003
 799,-0.00005832,-0.00015358,-0.00047230,-0.00014818,0.00002402,0.00077
 078,0.00029909,0.00007592,-0.00045542,-0.00042479,0.00003019,0.0001512
 4,0.00011899,0.00003346,0.00021364,0.00007122,-0.00011046,-0.00004307,
 -0.00000084,0.00002197,0.00001049,-0.00001925,-0.00001160,0.00000287,0
 .00001726,-0.00001872,-0.00002139,-0.00001197,0.00002132,-0.00003351,-
 0.00000151,0.00001908,0.00001103,-0.00001530,-0.00000398,-0.00002231,-
 0.00001334,-0.00000627,0.00000800,0.00000692,0.00001011,-0.00001963,-0
 .00002946,-0.00000782,0.00000185,0.00001044,0.00001624,-0.00002258,-0.
 00001109,-0.00001385,0.00001207,-0.00000070,0.00000499,-0.00001873,-0.
 00000832,-0.00001552,-0.00002253,-0.00001016,0.00000150,0.00000628,0.0
 0000513,0.00000832,0.00000477,0.00000568,0.00000309,0.00047601,-0.0002
 1651,-0.00009596,-0.00014226,0.00013001,0.00011659,-0.00012629,0.00009
 650,-0.00003039,-0.00014302,-0.00000333,0.00001375,-0.03038488,0.10045
 221,-0.22594904,0.02225117,-0.15413189,0.34139234,-0.00029410,0.000500
 88,0.00006652,0.00010138,0.00006638,0.00000218,-0.00025676,0.00018679,
 -0.00000444,-0.00026815,0.00003972,-0.00000051,-0.00013565,-0.00038216
 ,-0.00000323,0.00095697,-0.00151497,-0.00000092,-0.00299639,0.00891442
 ,0.00072293,-0.04701127,-0.02598926,0.00519391,-0.00110355,-0.00427332
 ,-0.00013644,-0.00084970,0.00045611,-0.00021863,0.00008906,0.00004121,
 -0.00000334,-0.00003134,0.00003444,0.00000048,0.00005427,-0.00004019,0
 .00000041,0.00043756,-0.00002330,0.00002603,-0.00136410,0.00248087,0.0
 0027644,-0.00015339,0.00021907,0.00002208,-0.00009975,0.00024399,-0.00
 000212,-0.00396103,-0.00032925,-0.00046973,0.00052252,0.00064415,0.000
 04716,-0.00104591,-0.00025020,0.00000948,0.00150240,0.00042530,-0.0000
 4124,-0.00100448,-0.00076673,0.00001341,0.00034093,0.00022558,0.000130
 54,0.00044570,0.00012271,-0.00015118,-0.00007681,-0.00000902,0.0000263
 7,0.00002586,0.00000470,-0.00000940,0.00002129,0.00000190,-0.00003680,
 -0.00005581,-0.00002266,0.00003627,-0.00006218,-0.00001445,0.00003376,
 0.00002353,-0.00001550,-0.00000041,-0.00005205,-0.00002800,-0.00001005
 ,0.00001517,0.00001484,-0.00000180,-0.00004896,-0.00003979,-0.00002734
 ,0.00001751,0.00001269,0.00003794,-0.00005078,-0.00002911,-0.00002947,
 0.00001927,0.00001605,0.00001040,-0.00004236,-0.00001311,-0.00003295,-
 0.00004647,-0.00002675,0.00000619,0.00001942,0.00000360,0.00000037,0.0
 0000483,0.00002483,0.00000518,0.00096158,-0.00057224,-0.00000075,-0.00
 027470,0.00026126,0.00017201,-0.00027034,0.00027424,-0.00016635,-0.000
 26558,0.00003821,-0.00000246,-0.26312055,-0.08473055,0.01923561,-0.001
 21536,-0.02469085,0.02488663,0.32804727,0.00007167,0.00021321,0.000007
 06,-0.00003184,0.00012157,0.00000080,-0.00001520,-0.00006089,0.0000001
 3,0.00006733,0.00004327,0.00000076,-0.00006997,-0.00001400,-0.00000137
 ,0.00034052,0.00042432,0.00003561,0.00007428,-0.00155756,-0.00011290,0
 .00621208,0.00865908,-0.00011280,0.00125990,-0.00454035,-0.00047744,0.
 00019567,0.00173150,-0.00005485,-0.00000989,-0.00001449,0.00000112,-0.
 00000444,-0.00000128,0.00000062,-0.00000813,0.00004177,0.00000123,0.00
 059195,0.00039165,-0.00002544,0.00241292,0.00148977,0.00007936,-0.0001
 6116,0.00004444,0.00000637,0.00002502,-0.00011054,-0.00000450,0.000816
 75,-0.00006210,0.00007832,0.00043782,0.00007634,-0.00000867,0.00012512
 ,0.00006716,-0.00000348,-0.00028984,-0.00017734,-0.00000659,0.00011084
 ,0.00019336,0.00001746,-0.00004432,-0.00004385,-0.00001202,-0.00004412
 ,-0.00001944,0.00001491,0.00001879,-0.00000566,-0.00000325,-0.00000217
 ,0.00001097,0.00000040,0.00000139,-0.00000331,0.00000663,0.00000146,0.
 00000326,-0.00000750,0.00000994,-0.00000407,-0.00000679,-0.00000052,0.
 00001164,-0.00000421,0.00000112,0.00000573,0.00000436,0.00000289,-0.00
 000546,0.00000121,0.00000945,0.00000959,0.00000102,-0.00000297,-0.0000
 0449,-0.00000238,0.00000751,0.00000152,0.00000469,-0.00000416,0.000004
 17,-0.00000157,0.00000458,0.00000636,0.00000440,0.00000743,0.00000164,
 -0.00000051,-0.00000076,-0.00000373,-0.00000037,-0.00000318,0.00000173
 ,-0.00000243,-0.00007155,-0.00000921,0.00000505,0.00001798,-0.00000229
 ,-0.00000513,0.00001718,0.,0.00000014,0.00003572,0.00001569,-0.0000000
 6,-0.09110281,-0.12772208,0.00998447,-0.03629625,-0.02899067,0.0344369
 4,0.16136696,0.19105593,-0.00002188,-0.00001006,0.00006989,0.00000924,
 -0.00001467,0.00000002,0.00001488,0.00001040,-0.00000400,-0.00001081,-
 0.00000821,0.00000578,0.00001782,-0.00000500,0.00000957,-0.00008572,-0
 .00006380,-0.00003538,0.00038809,-0.00063252,0.00163006,0.00218903,0.0
 0147805,0.00915039,-0.00006133,0.00046219,-0.00026469,0.00011719,-0.00
 007367,0.00000869,-0.00000248,-0.00000003,-0.00000039,0.00000110,-0.00
 000113,-0.00000493,-0.00000187,0.00000148,-0.00001488,0.00004035,0.000
 00335,-0.00020193,0.00007641,-0.00012440,-0.00027394,0.00001391,-0.000
 01220,-0.00001042,0.00000403,0.00003412,0.00003144,0.00010354,0.000294
 24,-0.00070128,-0.00000701,-0.00007046,-0.00005389,0.00004169,0.000008
 07,0.00000415,-0.00005895,-0.00000592,0.00002143,0.00003742,0.00002625
 ,0.00001252,-0.00001662,-0.00000728,-0.00001473,-0.00001350,-0.0000014
 3,-0.00000640,0.00000228,-0.00000030,0.00000220,-0.00000110,-0.0000045
 9,-0.00000206,-0.00000208,0.00000473,0.00000143,0.00000240,0.00000046,
 -0.00000055,0.00000186,0.00000092,-0.00000122,-0.00000028,0.00000005,-
 0.00000216,0.00000141,0.00000162,0.00000062,0.00000077,-0.00000143,0.0
 0000400,0.00000373,-0.00000162,0.00000238,-0.00000303,0.00000088,-0.00
 000161,0.00000254,0.00000148,0.00000112,0.00000015,-0.00000204,-0.0000
 0065,0.00000200,0.00000071,0.00000153,0.00000181,0.00000149,-0.0000006
 3,-0.00000120,0.00000023,0.00000285,0.00000001,-0.00000181,-0.00000057
 ,-0.00003189,0.00002442,-0.00004046,0.00000729,-0.00000348,0.00000936,
 0.00001060,-0.00001737,0.00002171,0.00000844,-0.00000274,0.00000657,0.
 01921092,0.00912470,-0.07764126,0.03850472,0.03941097,-0.01746166,-0.0
 2976447,-0.01962310,0.08394912,-0.00040478,0.00028492,0.00002900,0.000
 11902,-0.00003437,0.00000033,-0.00014563,0.00020442,-0.00000207,-0.000
 26179,-0.00004834,0.00003014,-0.00000878,-0.00027760,-0.00001257,0.000
 96010,0.00029487,0.00005350,-0.00119092,-0.00035723,0.00057936,0.00420
 266,0.02693128,0.01957278,-0.00377545,-0.00220085,0.00150080,-0.001231
 40,0.00138270,-0.00106360,0.00006137,0.00003981,-0.00000244,-0.0000160
 7,0.00002165,0.00000059,0.00003132,-0.00005269,-0.00003076,-0.00085540
 ,0.00105678,0.00031106,0.00004238,0.00045783,0.00031778,-0.00033578,0.
 00022095,-0.00015026,-0.00009038,0.00038643,0.00002181,0.00107789,0.00
 063398,0.00006048,-0.00004146,0.00002551,0.00004085,-0.00060764,-0.000
 16419,0.00001025,0.00101100,0.00036662,-0.00003580,-0.00056302,-0.0004
 8054,-0.00000060,0.00020874,0.00014519,0.00007442,0.00027641,0.0000833
 1,-0.00008085,-0.00005099,-0.00000286,0.00001656,0.00001576,-0.0000013
 5,-0.00000603,0.00001162,0.00000239,-0.00002326,-0.00003202,-0.0000134
 1,0.00002316,-0.00003494,-0.00000691,0.00001939,0.00001368,-0.00001296
 ,0.00000138,-0.00002896,-0.00001636,-0.00000638,0.00000785,0.00001055,
 -0.00000098,-0.00002919,-0.00002455,-0.00001591,0.00001115,0.00000929,
 0.00002208,-0.00003114,-0.00001724,-0.00001733,0.00001313,0.00000679,0
 .00000672,-0.00002483,-0.00000796,-0.00001916,-0.00002814,-0.00001599,
 0.00000304,0.00001104,0.00000380,0.00000032,0.00000466,0.00001278,0.00
 000406,0.00062560,-0.00033183,-0.00000912,-0.00017675,0.00015792,0.000
 10500,-0.00017426,0.00016627,-0.00009925,-0.00018035,0.00000957,-0.000
 00085,-0.08424986,0.01437364,0.01264854,0.01417095,-0.00348613,-0.0072
 4906,-0.00744901,-0.04608100,-0.03073139,0.07914261,0.00120746,-0.0004
 2130,-0.00024847,-0.00038201,0.00031741,-0.00001697,0.00009343,-0.0005
 5654,-0.00001305,0.00067266,0.00021040,-0.00001589,-0.00023599,0.00061
 993,0.00001974,-0.00139134,0.00126408,-0.00018811,-0.00254530,-0.00330
 969,-0.00010682,0.00867232,-0.02676706,-0.03017967,0.00363362,0.001946
 76,-0.00116710,0.00136909,-0.00066644,0.00159282,-0.00008284,-0.000065
 33,0.00000666,0.00001920,-0.00002853,-0.00000130,-0.00003934,0.0000791
 6,0.00002291,0.00119601,0.00082287,-0.00105035,-0.00035348,0.00060313,
 -0.00076943,0.00036654,-0.00027241,0.00013765,0.00001159,-0.00126465,0
 .00007599,0.00139146,-0.00112773,0.00146661,-0.00004974,0.00027360,-0.
 00018283,0.00075597,0.00027410,-0.00000059,-0.00125743,-0.00054438,0.0
 0009534,0.00070435,0.00072801,0.00003790,-0.00026923,-0.00019662,-0.00
 010837,-0.00031828,-0.00010515,0.00008232,0.00007433,-0.00000616,-0.00
 001615,-0.00001892,0.00001041,0.00000167,-0.00001161,0.00000079,0.0000
 3260,0.00003356,0.00001735,-0.00003093,0.00004728,0.00000117,-0.000028
 11,-0.00001271,0.00002965,-0.00001140,0.00002828,0.00002521,0.00001317
 ,-0.00000061,-0.00001973,0.00000899,0.00004368,0.00003042,0.00001936,-
 0.00001847,-0.00001497,-0.00002489,0.00004230,0.00002002,0.00002245,-0
 .00001886,-0.00000194,-0.00000887,0.00003202,0.00001705,0.00002513,0.0
 0003819,0.00001894,-0.00000421,-0.00001271,-0.00000875,0.00000333,-0.0
 0000970,-0.00001100,-0.00000799,-0.00082363,0.00035053,-0.00002641,0.0
 0022903,-0.00017898,-0.00010648,0.00023198,-0.00020361,0.00013111,0.00
 024952,0.00001706,0.00000801,0.01511056,-0.18775017,-0.11434107,-0.001
 88784,0.02152844,-0.00071208,-0.03285949,-0.04127289,-0.03020152,0.006
 34511,0.23558755,0.00041089,-0.00012022,-0.00005094,-0.00014000,0.0001
 3563,-0.00001942,0.00004288,-0.00021227,-0.00001554,0.00025821,0.00008
 466,0.00000574,-0.00008536,0.00019878,0.00002107,-0.00052627,0.0008060
 2,-0.00021670,-0.00213842,-0.00103971,0.00028193,0.00200426,-0.0185859
 2,-0.00512535,0.00353775,0.00013150,-0.00067024,-0.00004658,-0.0008556
 1,0.00024963,-0.00003553,-0.00002778,0.00000314,0.00000674,-0.00001233
 ,-0.00000624,-0.00001849,0.00005501,-0.00001528,0.00088072,0.00029851,
 -0.00094028,-0.00014636,0.00032802,-0.00020933,0.00027165,-0.00018361,
 0.00006830,0.00001438,-0.00045399,0.00014056,0.00101117,-0.00066410,0.
 00044022,0.00006271,0.00007361,-0.00014193,0.00035072,0.00012701,0.000
 01343,-0.00057737,-0.00025443,0.00005460,0.00031599,0.00033730,0.00004
 926,-0.00012848,-0.00008926,-0.00006542,-0.00013307,-0.00004163,0.0000
 1437,0.00003283,-0.00000346,-0.00000106,-0.00000834,-0.00000209,-0.000
 00388,-0.00000633,0.00000886,0.00001544,0.00001483,0.00000703,-0.00001
 245,0.00002050,0.00000127,-0.00001375,-0.00000412,0.00001350,-0.000009
 80,0.00001089,0.00001265,0.00000703,0.00000349,-0.00001105,0.00001175,
 0.00002547,0.00000880,0.00001050,-0.00001222,-0.00000389,-0.00001141,0
 .00002037,0.00000940,0.00001080,-0.00000646,-0.00000239,-0.00000443,0.
 00001540,0.00000885,0.00001264,0.00001755,0.00000905,-0.00000285,-0.00
 000638,-0.00000333,0.00000681,-0.00000406,-0.00000592,-0.00000436,-0.0
 0034716,0.00014784,-0.00007740,0.00009247,-0.00006262,-0.00001838,0.00
 010072,-0.00009625,0.00008121,0.00010914,0.00000793,0.00001400,0.01429
 212,-0.11140325,-0.18961746,-0.00380887,-0.02022568,-0.08625818,-0.019
 84825,-0.02421571,0.00179283,0.00410428,0.17576529,0.28020681\\0.00000
 472,0.00001369,0.00000548,-0.00000728,-0.00000079,0.00000072,-0.000001
 79,0.00001278,0.00000042,-0.00000352,0.00000485,0.00000576,0.00000057,
 -0.00001307,-0.00000158,-0.00000975,-0.00000145,0.00000363,-0.00000644
 ,0.00001429,-0.00000153,0.00000421,0.00000235,0.00000185,-0.00000222,0
 .00000554,0.00000145,-0.00000284,0.00000155,0.00000159,-0.00000254,-0.
 00000318,0.00000128,-0.00000483,-0.00000133,0.00000231,0.00000108,0.00
 000347,0.00000201,0.00000009,0.00000115,-0.00000112,-0.00000269,0.0000
 0324,0.00000154,-0.00000363,0.00000586,0.00000126,0.00000851,-0.000006
 97,0.00000074,0.00000136,0.00001336,-0.00003924,0.00000716,-0.00003238
 ,0.00007490,-0.00000728,0.00001605,0.00000537,0.00001100,-0.00001362,-
 0.00004847,0.00000268,0.00001419,0.00000639,-0.00000625,-0.00001328,-0
 .00000877,0.00000088,0.00000197,0.00000281,0.00001083,-0.00000639,-0.0
 0000908,0.00000093,-0.00000048,-0.00000150,0.00000257,-0.00000292,0.00
 000023,-0.00000113,-0.00000493,-0.00000081,0.00000117,0.00000136,-0.00
 000165,0.00000336,-0.00000228,-0.00000260,0.00000292,-0.00000360,-0.00
 000245,0.00000308,-0.00000087,-0.00000434,0.00000113,0.00000199,0.0000
 0225,0.00000209,-0.00000162,-0.00000050,0.00000142,-0.00000101,-0.0000
 0063,0.00000091,-0.00001040,0.00000023,-0.00000286,0.00000290,0.000000
 55,0.00000069,-0.00000321,-0.00000262,-0.00000090,-0.00000292,-0.00000
 132,0.00000064,-0.00001306,0.00000086,-0.00000563,-0.00001710,-0.00000
 241,-0.00000515,-0.00000261,0.00000025,-0.00000273,0.00000050,0.000002
 31,0.00000478,0.00001721,0.00000521,0.00000601,0.00000754,0.00000106,-
 0.00000055,0.00000619,0.00000437,-0.00000495,0.00000384,0.00000012,0.0
 0000018,0.00000359,-0.00000631\\\@
 The archive entry for this job was punched.


 PATIENCE IS THE ABILITY TO IDLE YOUR MOTOR WHEN
 YOU FEEL LIKE STRIPPING YOUR GEARS.
 Job cpu time:       0 days  4 hours 11 minutes 36.4 seconds.
 Elapsed time:       0 days  0 hours 16 minutes  4.3 seconds.
 File lengths (MBytes):  RWF=   1319 Int=      0 D2E=      0 Chk=     16 Scr=      1
 Normal termination of Gaussian 16 at Sat Dec  7 19:03:40 2024.
