/mnt/lustre/scratch/nvme/SLURM/9698480/usccqdma.M7bXEhzvOw
OMP_STACKSIZE=0m
GAUSS_PDEF=16
GAUSS_MDEF=65536MB
GAUSS_RDEF=SCF=Direct
 Entering Gaussian System, Link 0=g16.exe
 Initial command:
 /opt/cesga/2020/software/Core/g16/c1/l1.exe "/mnt/lustre/scratch/nvme/SLURM/9698480/usccqdma.M7bXEhzvOw/Gau-253028.inp" -scrdir="/mnt/lustre/scratch/nvme/SLURM/9698480/usccqdma.M7bXEhzvOw/"
 Default is to use a total of  16 processors:
                               16 via shared-memory
                                1 via Linda
 Entering Link 1 = /opt/cesga/2020/software/Core/g16/c1/l1.exe PID=    253054.
  
 Copyright (c) 1988-2019, Gaussian, Inc.  All Rights Reserved.
  
 This is part of the Gaussian(R) 16 program.  It is based on
 the Gaussian(R) 09 system (copyright 2009, Gaussian, Inc.),
 the Gaussian(R) 03 system (copyright 2003, Gaussian, Inc.),
 the Gaussian(R) 98 system (copyright 1998, Gaussian, Inc.),
 the Gaussian(R) 94 system (copyright 1995, Gaussian, Inc.),
 the Gaussian 92(TM) system (copyright 1992, Gaussian, Inc.),
 the Gaussian 90(TM) system (copyright 1990, Gaussian, Inc.),
 the Gaussian 88(TM) system (copyright 1988, Gaussian, Inc.),
 the Gaussian 86(TM) system (copyright 1986, Carnegie Mellon
 University), and the Gaussian 82(TM) system (copyright 1983,
 Carnegie Mellon University). Gaussian is a federally registered
 trademark of Gaussian, Inc.
  
 This software contains proprietary and confidential information,
 including trade secrets, belonging to Gaussian, Inc.
  
 This software is provided under written license and may be
 used, copied, transmitted, or stored only in accord with that
 written license.
  
 The following legend is applicable only to US Government
 contracts under FAR:
  
                    RESTRICTED RIGHTS LEGEND
  
 Use, reproduction and disclosure by the US Government is
 subject to restrictions as set forth in subparagraphs (a)
 and (c) of the Commercial Computer Software - Restricted
 Rights clause in FAR 52.227-19.
  
 Gaussian, Inc.
 340 Quinnipiac St., Bldg. 40, Wallingford CT 06492
  
  
 ---------------------------------------------------------------
 Warning -- This program may not be used in any manner that
 competes with the business of Gaussian, Inc. or will provide
 assistance to any competitor of Gaussian, Inc.  The licensee
 of this program is prohibited from giving any competitor of
 Gaussian, Inc. access to this program.  By using this program,
 the user acknowledges that Gaussian, Inc. is engaged in the
 business of creating and licensing software in the field of
 computational chemistry and represents and warrants to the
 licensee that it is not a competitor of Gaussian, Inc. and that
 it will not use this program in any manner prohibited above.
 ---------------------------------------------------------------
  

 Cite this work as:
 Gaussian 16, Revision C.01,
 M. J. Frisch, G. W. Trucks, H. B. Schlegel, G. E. Scuseria, 
 M. A. Robb, J. R. Cheeseman, G. Scalmani, V. Barone, 
 G. A. Petersson, H. Nakatsuji, X. Li, M. Caricato, A. V. Marenich, 
 J. Bloino, B. G. Janesko, R. Gomperts, B. Mennucci, H. P. Hratchian, 
 J. V. Ortiz, A. F. Izmaylov, J. L. Sonnenberg, D. Williams-Young, 
 F. Ding, F. Lipparini, F. Egidi, J. Goings, B. Peng, A. Petrone, 
 T. Henderson, D. Ranasinghe, V. G. Zakrzewski, J. Gao, N. Rega, 
 G. Zheng, W. Liang, M. Hada, M. Ehara, K. Toyota, R. Fukuda, 
 J. Hasegawa, M. Ishida, T. Nakajima, Y. Honda, O. Kitao, H. Nakai, 
 T. Vreven, K. Throssell, J. A. Montgomery, Jr., J. E. Peralta, 
 F. Ogliaro, M. J. Bearpark, J. J. Heyd, E. N. Brothers, K. N. Kudin, 
 V. N. Staroverov, T. A. Keith, R. Kobayashi, J. Normand, 
 K. Raghavachari, A. P. Rendell, J. C. Burant, S. S. Iyengar, 
 J. Tomasi, M. Cossi, J. M. Millam, M. Klene, C. Adamo, R. Cammi, 
 J. W. Ochterski, R. L. Martin, K. Morokuma, O. Farkas, 
 J. B. Foresman, and D. J. Fox, Gaussian, Inc., Wallingford CT, 2019.
 
 ******************************************
 Gaussian 16:  ES64L-G16RevC.01  3-Jul-2019
                10-Dec-2024 
 ******************************************
 Default route: SCF=Direct
 ----------------------------------------------------
 # m06/genecp scf=tight int=ultrafine 5d freq=noraman
 ----------------------------------------------------
 1/10=4,30=1,38=1/1,3;
 2/12=2,17=6,18=5,40=1/2;
 3/5=7,8=1,11=2,16=1,17=8,25=1,30=1,71=2,74=-54,75=-5,140=1/1,2,3;
 4//1;
 5/5=2,32=2,38=5,98=1/2;
 8/6=4,10=90,11=11/1;
 11/6=1,8=1,9=11,15=111,16=1/1,2,10;
 10/6=1/2;
 6/7=2,8=2,9=2,10=2,28=1/1;
 7/8=1,10=1,25=1/1,2,3,16;
 1/10=4,30=1/3;
 99//99;
 ------
 OPT-TS
 ------
 Symbolic Z-matrix:
 Charge =  0 Multiplicity = 1
 C                     1.66203   2.50411   0.5373 
 C                     2.2614    1.0826    2.27947 
 C                     3.48537   1.71046   2.45098 
 C                     3.82327   2.72462   1.5727 
 C                     2.91972   3.13297   0.59201 
 C                     0.55587   2.84722  -0.39446 
 C                    -1.22975   2.02779  -1.63177 
 C                    -1.51094   3.2878   -2.14582 
 C                    -0.75266   4.36625  -1.71371 
 C                     0.29627   4.14406  -0.83206 
 H                     1.96233   0.21597   2.87123 
 H                     4.80145   3.19504   1.62598 
 H                    -1.7983    1.13936  -1.91037 
 H                    -0.96831   5.37508  -2.05948 
 N                     1.39052   1.46542   1.34598 
 N                    -0.23935   1.82054  -0.75882 
 Ir                   -0.14784  -0.07496   0.47176 
 O                    -1.65414  -2.6455   -0.21785 
 O                     1.12391  -2.9288    0.55992 
 O                     1.30704  -1.08147  -2.12629 
 B                     0.75708  -1.76646   1.2205 
 B                    -1.30491  -1.35202  -0.57314 
 B                     1.43497  -0.62605  -0.82788 
 O                     2.77608  -0.41611  -0.51424 
 O                    -1.92794  -1.00167  -1.7733 
 C                    -2.7794   -2.09102  -2.17206 
 C                    -2.15734  -3.28629  -1.39589 
 C                     2.61672  -1.41308  -2.62119 
 C                     3.54183  -0.53851  -1.72408 
 C                     1.52376  -3.88916   1.54742 
 C                     2.02051  -2.97473   2.69982 
 O                     1.16453  -1.82768   2.5548 
 C                    -3.13672  -4.37107  -0.99795 
 H                    -3.60377  -4.82191  -1.88565 
 H                    -2.60664  -5.16485  -0.45572 
 H                    -3.92558  -3.98712  -0.34188 
 C                    -0.95659  -3.89493  -2.11217 
 H                    -0.4319   -4.559    -1.41143 
 H                    -1.25416  -4.47856  -2.99433 
 H                    -0.24557  -3.11293  -2.41261 
 C                    -4.19535  -1.76304  -1.71678 
 H                    -4.48823  -0.78865  -2.13365 
 H                    -4.92011  -2.51108  -2.06556 
 H                    -4.26264  -1.69709  -0.62267 
 C                    -2.7336   -2.21676  -3.68143 
 H                    -3.28078  -3.10944  -4.01751 
 H                    -3.2044   -1.33911  -4.1441 
 H                    -1.70165  -2.27644  -4.04443 
 C                     0.28222  -4.69317   1.91169 
 H                    -0.11482  -5.15652   0.99921 
 H                     0.50488  -5.48913   2.63506 
 H                    -0.50508  -4.04539   2.31805 
 C                     2.577    -4.80489   0.95779 
 H                     2.93166  -5.52608   1.7082 
 H                     2.14513  -5.37005   0.12059 
 H                     3.44121  -4.24747   0.57693 
 C                     1.8483   -3.54887   4.09049 
 H                     2.4211   -4.48097   4.20107 
 H                     2.21761  -2.83504   4.83818 
 H                     0.79594  -3.75498   4.31333 
 C                     3.45137  -2.49033   2.49956 
 H                     3.67     -1.71413   3.24638 
 H                     4.18284  -3.29874   2.633 
 H                     3.58167  -2.04685   1.50145 
 C                     4.88561  -1.15396  -1.39011 
 H                     5.44312  -0.47871  -0.72716 
 H                     4.77298  -2.11502  -0.87451 
 H                     5.48532  -1.31218  -2.29806 
 C                     3.73737   0.87277  -2.26135 
 H                     4.24162   1.47802  -1.49531 
 H                     4.35492   0.89022  -3.16929 
 H                     2.77211   1.34833  -2.48415 
 C                     2.67278  -1.09328  -4.10146 
 H                     3.67959  -1.27551  -4.50478 
 H                     1.96924  -1.74041  -4.64115 
 H                     2.39478  -0.05357  -4.30581 
 C                     2.8148   -2.90702  -2.40605 
 H                     2.03411  -3.45241  -2.95201 
 H                     3.791    -3.24787  -2.77684 
 H                     2.71407  -3.16364  -1.34422 
 H                    -2.32612   3.41276  -2.85526 
 C                    -1.59645   1.54617   2.78355 
 C                    -2.62388   2.28149   3.37121 
 C                    -1.80888   0.78897   1.62322 
 C                    -3.89785   2.2696    2.81837 
 C                    -3.10014   0.79356   1.08295 
 C                    -4.13547   1.53886   1.65396 
 H                    -4.72459   2.80308   3.28429 
 H                    -1.0271   -0.63019   1.74604 
 H                    -2.4315    2.85386   4.27852 
 C                    -5.53698   1.47246   1.1383 
 O                    -6.47979   1.35259   1.90768 
 C                    -4.8022    2.1026   -1.16896 
 H                    -5.2892    2.95641  -1.66865 
 H                    -3.90592   2.46754  -0.66007 
 H                    -4.49056   1.3873   -1.9489 
 C                    -7.04859   1.26672  -0.74576 
 H                    -7.55296   2.21391  -0.99628 
 H                    -6.98923   0.65519  -1.65743 
 H                    -7.63972   0.7484    0.01199 
 N                    -5.7172    1.49628  -0.23024 
 H                    -3.31121   0.19526   0.19423 
 H                     4.1733    1.3791    3.22441 
 H                    -0.60862   1.54586   3.24805 
 C                     3.4002    4.18598  -0.37218 
 F                     2.9881    5.41736  -0.02103 
 F                     4.73572   4.2303   -0.40475 
 F                     2.98954   3.96933  -1.62313 
 H                     0.89758   4.97396  -0.47741 
 

 GradGradGradGradGradGradGradGradGradGradGradGradGradGradGradGradGradGrad
 Berny optimization.
 Initialization pass.
 Trust Radius=3.00D-01 FncErr=1.00D-07 GrdErr=1.00D-07 EigMax=2.50D+02 EigMin=1.00D-04
 Number of steps in this run=      2 maximum allowed number of steps=      2.
 GradGradGradGradGradGradGradGradGradGradGradGradGradGradGradGradGradGrad

 Stoichiometry    C38H54B3F3IrN3O7
 Framework group  C1[X(C38H54B3F3IrN3O7)]
 Deg. of freedom   321
 Full point group                 C1      NOp   1
 Largest Abelian subgroup         C1      NOp   1
 Largest concise Abelian subgroup C1      NOp   1
                         Standard orientation:                         
 ---------------------------------------------------------------------
 Center     Atomic      Atomic             Coordinates (Angstroms)
 Number     Number       Type             X           Y           Z
 ---------------------------------------------------------------------
      1          6           0        1.662028    2.504111    0.537301
      2          6           0        2.261399    1.082601    2.279471
      3          6           0        3.485369    1.710462    2.450981
      4          6           0        3.823268    2.724622    1.572701
      5          6           0        2.919718    3.132971    0.592011
      6          6           0        0.555868    2.847220   -0.394459
      7          6           0       -1.229752    2.027789   -1.631769
      8          6           0       -1.510942    3.287799   -2.145819
      9          6           0       -0.752663    4.366249   -1.713709
     10          6           0        0.296267    4.144060   -0.832059
     11          1           0        1.962330    0.215971    2.871231
     12          1           0        4.801448    3.195043    1.625981
     13          1           0       -1.798301    1.139358   -1.910369
     14          1           0       -0.968314    5.375079   -2.059479
     15          7           0        1.390519    1.465420    1.345981
     16          7           0       -0.239351    1.820539   -0.758819
     17         77           0       -0.147840   -0.074961    0.471761
     18          8           0       -1.654139   -2.645501   -0.217849
     19          8           0        1.123912   -2.928800    0.559921
     20          8           0        1.307040   -1.081470   -2.126289
     21          5           0        0.757081   -1.766460    1.220501
     22          5           0       -1.304909   -1.352021   -0.573139
     23          5           0        1.434970   -0.626050   -0.827879
     24          8           0        2.776080   -0.416109   -0.514239
     25          8           0       -1.927940   -1.001672   -1.773299
     26          6           0       -2.779399   -2.091022   -2.172059
     27          6           0       -2.157338   -3.286292   -1.395889
     28          6           0        2.616721   -1.413079   -2.621189
     29          6           0        3.541830   -0.538508   -1.724079
     30          6           0        1.523762   -3.889159    1.547421
     31          6           0        2.020512   -2.974729    2.699821
     32          8           0        1.164531   -1.827680    2.554801
     33          6           0       -3.136717   -4.371072   -0.997949
     34          1           0       -3.603767   -4.821913   -1.885649
     35          1           0       -2.606637   -5.164852   -0.455719
     36          1           0       -3.925578   -3.987123   -0.341879
     37          6           0       -0.956588   -3.894931   -2.112169
     38          1           0       -0.431897   -4.559001   -1.411429
     39          1           0       -1.254157   -4.478561   -2.994329
     40          1           0       -0.245568   -3.112931   -2.412609
     41          6           0       -4.195349   -1.763043   -1.716779
     42          1           0       -4.488230   -0.788653   -2.133649
     43          1           0       -4.920109   -2.511084   -2.065559
     44          1           0       -4.262639   -1.697093   -0.622669
     45          6           0       -2.733599   -2.216762   -3.681429
     46          1           0       -3.280778   -3.109443   -4.017509
     47          1           0       -3.204399   -1.339112   -4.144099
     48          1           0       -1.701649   -2.276442   -4.044429
     49          6           0        0.282223   -4.693170    1.911691
     50          1           0       -0.114817   -5.156521    0.999211
     51          1           0        0.504883   -5.489130    2.635061
     52          1           0       -0.505078   -4.045391    2.318051
     53          6           0        2.577003   -4.804889    0.957791
     54          1           0        2.931663   -5.526079    1.708201
     55          1           0        2.145133   -5.370049    0.120591
     56          1           0        3.441212   -4.247468    0.576931
     57          6           0        1.848302   -3.548869    4.090491
     58          1           0        2.421103   -4.480969    4.201071
     59          1           0        2.217612   -2.835039    4.838181
     60          1           0        0.795942   -3.754980    4.313331
     61          6           0        3.451371   -2.490328    2.499561
     62          1           0        3.670001   -1.714128    3.246381
     63          1           0        4.182842   -3.298738    2.633001
     64          1           0        3.581671   -2.046848    1.501451
     65          6           0        4.885610   -1.153957   -1.390109
     66          1           0        5.443120   -0.478707   -0.727159
     67          1           0        4.772981   -2.115017   -0.874509
     68          1           0        5.485321   -1.312177   -2.298059
     69          6           0        3.737369    0.872772   -2.261349
     70          1           0        4.241619    1.478022   -1.495309
     71          1           0        4.354919    0.890222   -3.169289
     72          1           0        2.772109    1.348331   -2.484149
     73          6           0        2.672780   -1.093279   -4.101459
     74          1           0        3.679591   -1.275508   -4.504779
     75          1           0        1.969241   -1.740409   -4.641149
     76          1           0        2.394780   -0.053569   -4.305809
     77          6           0        2.814802   -2.907019   -2.406049
     78          1           0        2.034112   -3.452409   -2.952009
     79          1           0        3.791002   -3.247868   -2.776839
     80          1           0        2.714072   -3.163639   -1.344219
     81          1           0       -2.326122    3.412758   -2.855259
     82          6           0       -1.596451    1.546169    2.783551
     83          6           0       -2.623882    2.281488    3.371211
     84          6           0       -1.808881    0.788968    1.623221
     85          6           0       -3.897852    2.269597    2.818371
     86          6           0       -3.100141    0.793558    1.082951
     87          6           0       -4.135471    1.538857    1.653961
     88          1           0       -4.724592    2.803077    3.284291
     89          1           0       -1.027100   -0.630191    1.746041
     90          1           0       -2.431502    2.853858    4.278521
     91          6           0       -5.536981    1.472456    1.138301
     92          8           0       -6.479791    1.352585    1.907681
     93          6           0       -4.802202    2.102597   -1.168959
     94          1           0       -5.289202    2.956406   -1.668649
     95          1           0       -3.905922    2.467537   -0.660069
     96          1           0       -4.490561    1.387297   -1.948899
     97          6           0       -7.048591    1.266715   -0.745759
     98          1           0       -7.552962    2.213905   -0.996279
     99          1           0       -6.989231    0.655185   -1.657429
    100          1           0       -7.639721    0.748395    0.011991
    101          7           0       -5.717201    1.496276   -0.230239
    102          1           0       -3.311210    0.195257    0.194231
    103          1           0        4.173299    1.379102    3.224411
    104          1           0       -0.608621    1.545859    3.248051
    105          6           0        3.400197    4.185982   -0.372179
    106          9           0        2.988096    5.417361   -0.021029
    107          9           0        4.735717    4.230303   -0.404749
    108          9           0        2.989537    3.969331   -1.623129
    109          1           0        0.897577    4.973960   -0.477409
 ---------------------------------------------------------------------
 Rotational constants (GHZ):           0.0591996           0.0494166           0.0385984
 General basis read from cards:  (5D, 7F)
 ======================================================================================================
                                       Pseudopotential Parameters
 ======================================================================================================
  Center     Atomic      Valence      Angular      Power
  Number     Number     Electrons     Momentum     of R      Exponent        Coefficient   SO-Coeffient
 ======================================================================================================
    1          6
                                   No pseudopotential on this center.
    2          6
                                   No pseudopotential on this center.
    3          6
                                   No pseudopotential on this center.
    4          6
                                   No pseudopotential on this center.
    5          6
                                   No pseudopotential on this center.
    6          6
                                   No pseudopotential on this center.
    7          6
                                   No pseudopotential on this center.
    8          6
                                   No pseudopotential on this center.
    9          6
                                   No pseudopotential on this center.
   10          6
                                   No pseudopotential on this center.
   11          1
                                   No pseudopotential on this center.
   12          1
                                   No pseudopotential on this center.
   13          1
                                   No pseudopotential on this center.
   14          1
                                   No pseudopotential on this center.
   15          7
                                   No pseudopotential on this center.
   16          7
                                   No pseudopotential on this center.
   17         77           17
                                      G and up 
                                                     1      823.5880147       -0.15780140    0.00000000
                                                     2      364.6613336    -1517.52704460    0.00000000
                                                     2       55.7082801     -316.53065290    0.00000000
                                                     2       12.0464544      -91.88809410    0.00000000
                                                     2        3.5120610       -9.22417730    0.00000000
                                      S - G
                                                     0      188.0490770        3.15780140    0.00000000
                                                     1      340.4194712       26.83225770    0.00000000
                                                     2      128.2373673      800.42500070    0.00000000
                                                     2       33.8644961      369.40506830    0.00000000
                                                     2        4.7560005      242.41718990    0.00000000
                                                     2        3.9649974     -118.21732820    0.00000000
                                      P - G
                                                     0      289.7291139        2.15780140    0.00000000
                                                     1       87.4633789       61.96786100    0.00000000
                                                     2       30.4363766      269.05819860    0.00000000
                                                     2        4.0553412      231.16547930    0.00000000
                                                     2        3.5525341     -133.69526670    0.00000000
                                      D - G
                                                     0      136.4017106        3.15780140    0.00000000
                                                     1       95.0776925       45.93498030    0.00000000
                                                     2       49.2258410      359.03446680    0.00000000
                                                     2       15.0874145      176.47401190    0.00000000
                                                     2        4.0405764       54.51552860    0.00000000
                                      F - G
                                                     0      127.3507908        3.95461970    0.00000000
                                                     1       66.2364374       52.97736550    0.00000000
                                                     2       34.4299229      274.86433830    0.00000000
                                                     2       10.1995721      137.20473380    0.00000000
                                                     2        2.5409702       14.86333050    0.00000000
   18          8
                                   No pseudopotential on this center.
   19          8
                                   No pseudopotential on this center.
   20          8
                                   No pseudopotential on this center.
   21          5
                                   No pseudopotential on this center.
   22          5
                                   No pseudopotential on this center.
   23          5
                                   No pseudopotential on this center.
   24          8
                                   No pseudopotential on this center.
   25          8
                                   No pseudopotential on this center.
   26          6
                                   No pseudopotential on this center.
   27          6
                                   No pseudopotential on this center.
   28          6
                                   No pseudopotential on this center.
   29          6
                                   No pseudopotential on this center.
   30          6
                                   No pseudopotential on this center.
   31          6
                                   No pseudopotential on this center.
   32          8
                                   No pseudopotential on this center.
   33          6
                                   No pseudopotential on this center.
   34          1
                                   No pseudopotential on this center.
   35          1
                                   No pseudopotential on this center.
   36          1
                                   No pseudopotential on this center.
   37          6
                                   No pseudopotential on this center.
   38          1
                                   No pseudopotential on this center.
   39          1
                                   No pseudopotential on this center.
   40          1
                                   No pseudopotential on this center.
   41          6
                                   No pseudopotential on this center.
   42          1
                                   No pseudopotential on this center.
   43          1
                                   No pseudopotential on this center.
   44          1
                                   No pseudopotential on this center.
   45          6
                                   No pseudopotential on this center.
   46          1
                                   No pseudopotential on this center.
   47          1
                                   No pseudopotential on this center.
   48          1
                                   No pseudopotential on this center.
   49          6
                                   No pseudopotential on this center.
   50          1
                                   No pseudopotential on this center.
   51          1
                                   No pseudopotential on this center.
   52          1
                                   No pseudopotential on this center.
   53          6
                                   No pseudopotential on this center.
   54          1
                                   No pseudopotential on this center.
   55          1
                                   No pseudopotential on this center.
   56          1
                                   No pseudopotential on this center.
   57          6
                                   No pseudopotential on this center.
   58          1
                                   No pseudopotential on this center.
   59          1
                                   No pseudopotential on this center.
   60          1
                                   No pseudopotential on this center.
   61          6
                                   No pseudopotential on this center.
   62          1
                                   No pseudopotential on this center.
   63          1
                                   No pseudopotential on this center.
   64          1
                                   No pseudopotential on this center.
   65          6
                                   No pseudopotential on this center.
   66          1
                                   No pseudopotential on this center.
   67          1
                                   No pseudopotential on this center.
   68          1
                                   No pseudopotential on this center.
   69          6
                                   No pseudopotential on this center.
   70          1
                                   No pseudopotential on this center.
   71          1
                                   No pseudopotential on this center.
   72          1
                                   No pseudopotential on this center.
   73          6
                                   No pseudopotential on this center.
   74          1
                                   No pseudopotential on this center.
   75          1
                                   No pseudopotential on this center.
   76          1
                                   No pseudopotential on this center.
   77          6
                                   No pseudopotential on this center.
   78          1
                                   No pseudopotential on this center.
   79          1
                                   No pseudopotential on this center.
   80          1
                                   No pseudopotential on this center.
   81          1
                                   No pseudopotential on this center.
   82          6
                                   No pseudopotential on this center.
   83          6
                                   No pseudopotential on this center.
   84          6
                                   No pseudopotential on this center.
   85          6
                                   No pseudopotential on this center.
   86          6
                                   No pseudopotential on this center.
   87          6
                                   No pseudopotential on this center.
   88          1
                                   No pseudopotential on this center.
   89          1
                                   No pseudopotential on this center.
   90          1
                                   No pseudopotential on this center.
   91          6
                                   No pseudopotential on this center.
   92          8
                                   No pseudopotential on this center.
   93          6
                                   No pseudopotential on this center.
   94          1
                                   No pseudopotential on this center.
   95          1
                                   No pseudopotential on this center.
   96          1
                                   No pseudopotential on this center.
   97          6
                                   No pseudopotential on this center.
   98          1
                                   No pseudopotential on this center.
   99          1
                                   No pseudopotential on this center.
  100          1
                                   No pseudopotential on this center.
  101          7
                                   No pseudopotential on this center.
  102          1
                                   No pseudopotential on this center.
  103          1
                                   No pseudopotential on this center.
  104          1
                                   No pseudopotential on this center.
  105          6
                                   No pseudopotential on this center.
  106          9
                                   No pseudopotential on this center.
  107          9
                                   No pseudopotential on this center.
  108          9
                                   No pseudopotential on this center.
  109          1
                                   No pseudopotential on this center.
 ======================================================================================================
 There are   942 symmetry adapted cartesian basis functions of A   symmetry.
 There are   886 symmetry adapted basis functions of A   symmetry.
   886 basis functions,  1771 primitive gaussians,   942 cartesian basis functions
   209 alpha electrons      209 beta electrons
       nuclear repulsion energy      9383.4550558936 Hartrees.
 NAtoms=  109 NActive=  109 NUniq=  109 SFac= 1.00D+00 NAtFMM=   60 NAOKFM=T Big=T
 Integral buffers will be    131072 words long.
 Raffenetti 2 integral format.
 Two-electron integral symmetry is turned on.
 One-electron integrals computed using PRISM.
   1 Symmetry operations used in ECPInt.
 ECPInt:  NShTT=   55278 NPrTT=  342696 LenC2=   41524 LenP2D=  128267.
 LDataN:  DoStor=T MaxTD1= 6 Len=  172
 NBasis=   886 RedAO= T EigKep=  4.46D-04  NBF=   886
 NBsUse=   886 1.00D-06 EigRej= -1.00D+00 NBFU=   886
 Defaulting to unpruned grid for atomic number  77.
 ExpMin= 2.90D-02 ExpMax= 7.00D+03 ExpMxC= 1.05D+03 IAcc=3 IRadAn=         5 AccDes= 0.00D+00
 Harris functional with IExCor= 1009 and IRadAn=       5 diagonalized for initial guess.
 HarFok:  IExCor= 1009 AccDes= 0.00D+00 IRadAn=         5 IDoV= 1 UseB2=F ITyADJ=14
 ICtDFT=  3500011 ScaDFX=  1.000000  1.000000  1.000000  1.000000
 Defaulting to unpruned grid for atomic number  77.
 FoFCou: FMM=F IPFlag=           0 FMFlag=      100000 FMFlg1=        2001
         NFxFlg=           0 DoJE=T BraDBF=F KetDBF=T FulRan=T
         wScrn=  0.000000 ICntrl=       500 IOpCl=  0 I1Cent=   200000004 NGrid=           0
         NMat0=    1 NMatS0=      1 NMatT0=    0 NMatD0=    1 NMtDS0=    0 NMtDT0=    0
 Petite list used in FoFCou.
 Requested convergence on RMS density matrix=1.00D-08 within 128 cycles.
 Requested convergence on MAX density matrix=1.00D-06.
 Requested convergence on             energy=1.00D-06.
 No special actions if energy rises.
 Defaulting to unpruned grid for atomic number  77.
 Defaulting to unpruned grid for atomic number  77.
 Defaulting to unpruned grid for atomic number  77.
 Defaulting to unpruned grid for atomic number  77.
 Defaulting to unpruned grid for atomic number  77.
 Defaulting to unpruned grid for atomic number  77.
 Defaulting to unpruned grid for atomic number  77.
 Defaulting to unpruned grid for atomic number  77.
 Defaulting to unpruned grid for atomic number  77.
 Defaulting to unpruned grid for atomic number  77.
 Defaulting to unpruned grid for atomic number  77.
 Defaulting to unpruned grid for atomic number  77.
 Defaulting to unpruned grid for atomic number  77.
 Defaulting to unpruned grid for atomic number  77.
 Defaulting to unpruned grid for atomic number  77.
 Defaulting to unpruned grid for atomic number  77.
 SCF Done:  E(RM06) =  -2648.89753786     A.U. after   15 cycles
            NFock= 15  Conv=0.65D-08     -V/T= 2.0341
 DoSCS=F DFT=T ScalE2(SS,OS)=  1.000000  1.000000
 Range of M.O.s used for correlation:     1   886
 NBasis=   886 NAE=   209 NBE=   209 NFC=     0 NFV=     0
 NROrb=    886 NOA=   209 NOB=   209 NVA=   677 NVB=   677

 **** Warning!!: The largest alpha MO coefficient is  0.12209883D+02

   1 Symmetry operations used in ECPInt.
 ECPInt:  NShTT=   55278 NPrTT=  342696 LenC2=   41524 LenP2D=  128267.
 LDataN:  DoStor=T MaxTD1= 7 Len=  274
 Number of processors reduced to   7 by ecpmxn.
 Symmetrizing basis deriv contribution to polar:
 IMax=3 JMax=2 DiffMx= 0.00D+00
 G2DrvN: will do   110 centers at a time, making    1 passes.
 Calling FoFCou, ICntrl=  3107 FMM=T I1Cent=   0 AccDes= 0.00D+00.
 Defaulting to unpruned grid for atomic number  77.
 Defaulting to unpruned grid for atomic number  77.
 Defaulting to unpruned grid for atomic number  77.
 Defaulting to unpruned grid for atomic number  77.
 Defaulting to unpruned grid for atomic number  77.
 Defaulting to unpruned grid for atomic number  77.
 Defaulting to unpruned grid for atomic number  77.
 Defaulting to unpruned grid for atomic number  77.
 Defaulting to unpruned grid for atomic number  77.
 Defaulting to unpruned grid for atomic number  77.
 Defaulting to unpruned grid for atomic number  77.
 Defaulting to unpruned grid for atomic number  77.
 Defaulting to unpruned grid for atomic number  77.
 Defaulting to unpruned grid for atomic number  77.
 Defaulting to unpruned grid for atomic number  77.
 Defaulting to unpruned grid for atomic number  77.
 End of G2Drv F.D. properties file   721 does not exist.
 End of G2Drv F.D. properties file   722 does not exist.
 End of G2Drv F.D. properties file   788 does not exist.
          IDoAtm=11111111111111111111111111111111111111111111111111
          IDoAtm=11111111111111111111111111111111111111111111111111
          IDoAtm=111111111
          Differentiating once with respect to electric field.
                with respect to dipole field.
          Differentiating once with respect to nuclear coordinates.
 Defaulting to unpruned grid for atomic number  77.
 CalDSu exits because no D1Ps are significant.
 Defaulting to unpruned grid for atomic number  77.
 Defaulting to unpruned grid for atomic number  77.
 Defaulting to unpruned grid for atomic number  77.
 Defaulting to unpruned grid for atomic number  77.
 Defaulting to unpruned grid for atomic number  77.
 Defaulting to unpruned grid for atomic number  77.
 Defaulting to unpruned grid for atomic number  77.
 Defaulting to unpruned grid for atomic number  77.
 Defaulting to unpruned grid for atomic number  77.
 Defaulting to unpruned grid for atomic number  77.
 Defaulting to unpruned grid for atomic number  77.
 Defaulting to unpruned grid for atomic number  77.
 Defaulting to unpruned grid for atomic number  77.
 Defaulting to unpruned grid for atomic number  77.
 Defaulting to unpruned grid for atomic number  77.
 Defaulting to unpruned grid for atomic number  77.
          There are   330 degrees of freedom in the 1st order CPHF.  IDoFFX=6 NUNeed=     3.
    327 vectors produced by pass  0 Test12= 1.41D-13 1.00D-09 XBig12= 5.08D+02 8.13D+00.
 AX will form    72 AO Fock derivatives at one time.
    327 vectors produced by pass  1 Test12= 1.41D-13 1.00D-09 XBig12= 7.63D+01 1.21D+00.
    327 vectors produced by pass  2 Test12= 1.41D-13 1.00D-09 XBig12= 8.83D-01 8.05D-02.
    327 vectors produced by pass  3 Test12= 1.41D-13 1.00D-09 XBig12= 5.77D-03 4.34D-03.
    327 vectors produced by pass  4 Test12= 1.41D-13 1.00D-09 XBig12= 1.84D-05 2.95D-04.
    302 vectors produced by pass  5 Test12= 1.41D-13 1.00D-09 XBig12= 3.71D-08 1.47D-05.
     94 vectors produced by pass  6 Test12= 1.41D-13 1.00D-09 XBig12= 5.85D-11 4.68D-07.
      3 vectors produced by pass  7 Test12= 1.41D-13 1.00D-09 XBig12= 8.39D-14 1.78D-08.
 InvSVY:  IOpt=1 It=  1 EMax= 2.13D-14
 Solved reduced A of dimension  2034 with   330 vectors.
 Isotropic polarizability for W=    0.000000      513.78 Bohr**3.
 End of Minotr F.D. properties file   721 does not exist.
 End of Minotr F.D. properties file   722 does not exist.
 End of Minotr F.D. properties file   788 does not exist.
 Hyperfine terms turned off by default for NAtoms > 100.

 **********************************************************************

            Population analysis using the SCF Density.

 **********************************************************************

 Orbital symmetries:
       Occupied  (A) (A) (A) (A) (A) (A) (A) (A) (A) (A) (A) (A)
                 (A) (A) (A) (A) (A) (A) (A) (A) (A) (A) (A) (A)
                 (A) (A) (A) (A) (A) (A) (A) (A) (A) (A) (A) (A)
                 (A) (A) (A) (A) (A) (A) (A) (A) (A) (A) (A) (A)
                 (A) (A) (A) (A) (A) (A) (A) (A) (A) (A) (A) (A)
                 (A) (A) (A) (A) (A) (A) (A) (A) (A) (A) (A) (A)
                 (A) (A) (A) (A) (A) (A) (A) (A) (A) (A) (A) (A)
                 (A) (A) (A) (A) (A) (A) (A) (A) (A) (A) (A) (A)
                 (A) (A) (A) (A) (A) (A) (A) (A) (A) (A) (A) (A)
                 (A) (A) (A) (A) (A) (A) (A) (A) (A) (A) (A) (A)
                 (A) (A) (A) (A) (A) (A) (A) (A) (A) (A) (A) (A)
                 (A) (A) (A) (A) (A) (A) (A) (A) (A) (A) (A) (A)
                 (A) (A) (A) (A) (A) (A) (A) (A) (A) (A) (A) (A)
                 (A) (A) (A) (A) (A) (A) (A) (A) (A) (A) (A) (A)
                 (A) (A) (A) (A) (A) (A) (A) (A) (A) (A) (A) (A)
                 (A) (A) (A) (A) (A) (A) (A) (A) (A) (A) (A) (A)
                 (A) (A) (A) (A) (A) (A) (A) (A) (A) (A) (A) (A)
                 (A) (A) (A) (A) (A)
       Virtual   (A) (A) (A) (A) (A) (A) (A) (A) (A) (A) (A) (A)
                 (A) (A) (A) (A) (A) (A) (A) (A) (A) (A) (A) (A)
                 (A) (A) (A) (A) (A) (A) (A) (A) (A) (A) (A) (A)
                 (A) (A) (A) (A) (A) (A) (A) (A) (A) (A) (A) (A)
                 (A) (A) (A) (A) (A) (A) (A) (A) (A) (A) (A) (A)
                 (A) (A) (A) (A) (A) (A) (A) (A) (A) (A) (A) (A)
                 (A) (A) (A) (A) (A) (A) (A) (A) (A) (A) (A) (A)
                 (A) (A) (A) (A) (A) (A) (A) (A) (A) (A) (A) (A)
                 (A) (A) (A) (A) (A) (A) (A) (A) (A) (A) (A) (A)
                 (A) (A) (A) (A) (A) (A) (A) (A) (A) (A) (A) (A)
                 (A) (A) (A) (A) (A) (A) (A) (A) (A) (A) (A) (A)
                 (A) (A) (A) (A) (A) (A) (A) (A) (A) (A) (A) (A)
                 (A) (A) (A) (A) (A) (A) (A) (A) (A) (A) (A) (A)
                 (A) (A) (A) (A) (A) (A) (A) (A) (A) (A) (A) (A)
                 (A) (A) (A) (A) (A) (A) (A) (A) (A) (A) (A) (A)
                 (A) (A) (A) (A) (A) (A) (A) (A) (A) (A) (A) (A)
                 (A) (A) (A) (A) (A) (A) (A) (A) (A) (A) (A) (A)
                 (A) (A) (A) (A) (A) (A) (A) (A) (A) (A) (A) (A)
                 (A) (A) (A) (A) (A) (A) (A) (A) (A) (A) (A) (A)
                 (A) (A) (A) (A) (A) (A) (A) (A) (A) (A) (A) (A)
                 (A) (A) (A) (A) (A) (A) (A) (A) (A) (A) (A) (A)
                 (A) (A) (A) (A) (A) (A) (A) (A) (A) (A) (A) (A)
                 (A) (A) (A) (A) (A) (A) (A) (A) (A) (A) (A) (A)
                 (A) (A) (A) (A) (A) (A) (A) (A) (A) (A) (A) (A)
                 (A) (A) (A) (A) (A) (A) (A) (A) (A) (A) (A) (A)
                 (A) (A) (A) (A) (A) (A) (A) (A) (A) (A) (A) (A)
                 (A) (A) (A) (A) (A) (A) (A) (A) (A) (A) (A) (A)
                 (A) (A) (A) (A) (A) (A) (A) (A) (A) (A) (A) (A)
                 (A) (A) (A) (A) (A) (A) (A) (A) (A) (A) (A) (A)
                 (A) (A) (A) (A) (A) (A) (A) (A) (A) (A) (A) (A)
                 (A) (A) (A) (A) (A) (A) (A) (A) (A) (A) (A) (A)
                 (A) (A) (A) (A) (A) (A) (A) (A) (A) (A) (A) (A)
                 (A) (A) (A) (A) (A) (A) (A) (A) (A) (A) (A) (A)
                 (A) (A) (A) (A) (A) (A) (A) (A) (A) (A) (A) (A)
                 (A) (A) (A) (A) (A) (A) (A) (A) (A) (A) (A) (A)
                 (A) (A) (A) (A) (A) (A) (A) (A) (A) (A) (A) (A)
                 (A) (A) (A) (A) (A) (A) (A) (A) (A) (A) (A) (A)
                 (A) (A) (A) (A) (A) (A) (A) (A) (A) (A) (A) (A)
                 (A) (A) (A) (A) (A) (A) (A) (A) (A) (A) (A) (A)
                 (A) (A) (A) (A) (A) (A) (A) (A) (A) (A) (A) (A)
                 (A) (A) (A) (A) (A) (A) (A) (A) (A) (A) (A) (A)
                 (A) (A) (A) (A) (A) (A) (A) (A) (A) (A) (A) (A)
                 (A) (A) (A) (A) (A) (A) (A) (A) (A) (A) (A) (A)
                 (A) (A) (A) (A) (A) (A) (A) (A) (A) (A) (A) (A)
                 (A) (A) (A) (A) (A) (A) (A) (A) (A) (A) (A) (A)
                 (A) (A) (A) (A) (A) (A) (A) (A) (A) (A) (A) (A)
                 (A) (A) (A) (A) (A) (A) (A) (A) (A) (A) (A) (A)
                 (A) (A) (A) (A) (A) (A) (A) (A) (A) (A) (A) (A)
                 (A) (A) (A) (A) (A) (A) (A) (A) (A) (A) (A) (A)
                 (A) (A) (A) (A) (A) (A) (A) (A) (A) (A) (A) (A)
                 (A) (A) (A) (A) (A) (A) (A) (A) (A) (A) (A) (A)
                 (A) (A) (A) (A) (A) (A) (A) (A) (A) (A) (A) (A)
                 (A) (A) (A) (A) (A) (A) (A) (A) (A) (A) (A) (A)
                 (A) (A) (A) (A) (A) (A) (A) (A) (A) (A) (A) (A)
                 (A) (A) (A) (A) (A) (A) (A) (A) (A) (A) (A) (A)
                 (A) (A) (A) (A) (A) (A) (A) (A) (A) (A) (A) (A)
                 (A) (A) (A) (A) (A)
 The electronic state is 1-A.
 Alpha  occ. eigenvalues --  -24.84380 -24.84303 -24.84166 -19.21061 -19.21047
 Alpha  occ. eigenvalues --  -19.20707 -19.20593 -19.20480 -19.19578 -19.17646
 Alpha  occ. eigenvalues --  -14.45706 -14.45008 -14.41753 -10.52890 -10.33893
 Alpha  occ. eigenvalues --  -10.33415 -10.32808 -10.31148 -10.30788 -10.30561
 Alpha  occ. eigenvalues --  -10.30264 -10.29962 -10.29861 -10.29681 -10.29675
 Alpha  occ. eigenvalues --  -10.29347 -10.29333 -10.28947 -10.28645 -10.28546
 Alpha  occ. eigenvalues --  -10.28325 -10.27432 -10.26058 -10.24280 -10.24024
 Alpha  occ. eigenvalues --  -10.23518 -10.23479 -10.23346 -10.23333 -10.23310
 Alpha  occ. eigenvalues --  -10.23304 -10.23293 -10.23183 -10.23083 -10.23073
 Alpha  occ. eigenvalues --  -10.22759 -10.22675 -10.22426 -10.22254 -10.22180
 Alpha  occ. eigenvalues --  -10.21486  -6.81302  -6.80223  -6.79545  -3.63790
 Alpha  occ. eigenvalues --   -2.06327  -2.06044  -2.04788  -1.37221  -1.28502
 Alpha  occ. eigenvalues --   -1.28266  -1.06908  -1.06618  -1.06028  -1.03641
 Alpha  occ. eigenvalues --   -1.00872  -0.99864  -0.99787  -0.99047  -0.98304
 Alpha  occ. eigenvalues --   -0.93591  -0.86724  -0.84798  -0.84394  -0.83886
 Alpha  occ. eigenvalues --   -0.80983  -0.80834  -0.80216  -0.79388  -0.75504
 Alpha  occ. eigenvalues --   -0.75358  -0.75318  -0.74728  -0.74629  -0.73485
 Alpha  occ. eigenvalues --   -0.71963  -0.70978  -0.70728  -0.70208  -0.69834
 Alpha  occ. eigenvalues --   -0.68872  -0.68676  -0.68145  -0.67942  -0.67390
 Alpha  occ. eigenvalues --   -0.66157  -0.65088  -0.63227  -0.62736  -0.62422
 Alpha  occ. eigenvalues --   -0.61826  -0.61416  -0.61064  -0.60761  -0.59244
 Alpha  occ. eigenvalues --   -0.57038  -0.55314  -0.55169  -0.54573  -0.54396
 Alpha  occ. eigenvalues --   -0.54241  -0.53923  -0.53617  -0.53266  -0.53048
 Alpha  occ. eigenvalues --   -0.51754  -0.51565  -0.50769  -0.50733  -0.49522
 Alpha  occ. eigenvalues --   -0.48220  -0.48180  -0.47761  -0.47561  -0.47394
 Alpha  occ. eigenvalues --   -0.47177  -0.47130  -0.46944  -0.46863  -0.46819
 Alpha  occ. eigenvalues --   -0.46344  -0.46012  -0.45675  -0.45529  -0.45133
 Alpha  occ. eigenvalues --   -0.44873  -0.44777  -0.44556  -0.44500  -0.44149
 Alpha  occ. eigenvalues --   -0.44099  -0.43994  -0.43860  -0.43359  -0.43180
 Alpha  occ. eigenvalues --   -0.43016  -0.41985  -0.41350  -0.40747  -0.40611
 Alpha  occ. eigenvalues --   -0.40493  -0.40435  -0.40307  -0.40176  -0.40143
 Alpha  occ. eigenvalues --   -0.40013  -0.39848  -0.39791  -0.39723  -0.39586
 Alpha  occ. eigenvalues --   -0.39574  -0.39204  -0.38938  -0.38697  -0.38322
 Alpha  occ. eigenvalues --   -0.38018  -0.37979  -0.37441  -0.37310  -0.37054
 Alpha  occ. eigenvalues --   -0.36975  -0.36866  -0.36498  -0.36396  -0.36259
 Alpha  occ. eigenvalues --   -0.36218  -0.35832  -0.35539  -0.35399  -0.35176
 Alpha  occ. eigenvalues --   -0.34581  -0.34400  -0.34026  -0.33692  -0.33503
 Alpha  occ. eigenvalues --   -0.32814  -0.32529  -0.32437  -0.32190  -0.32054
 Alpha  occ. eigenvalues --   -0.31676  -0.31533  -0.30911  -0.30419  -0.30164
 Alpha  occ. eigenvalues --   -0.29950  -0.28184  -0.27997  -0.27056  -0.26593
 Alpha  occ. eigenvalues --   -0.26406  -0.25896  -0.25561  -0.24253  -0.23785
 Alpha  occ. eigenvalues --   -0.23239  -0.22894  -0.22694  -0.21256
 Alpha virt. eigenvalues --   -0.07720  -0.05256  -0.03944  -0.00545  -0.00028
 Alpha virt. eigenvalues --    0.01009   0.03489   0.04757   0.05599   0.06182
 Alpha virt. eigenvalues --    0.06618   0.06960   0.07503   0.08454   0.08974
 Alpha virt. eigenvalues --    0.09237   0.09458   0.09677   0.09998   0.10139
 Alpha virt. eigenvalues --    0.10497   0.11270   0.11638   0.11772   0.12333
 Alpha virt. eigenvalues --    0.12588   0.12896   0.13049   0.13288   0.13611
 Alpha virt. eigenvalues --    0.13993   0.14373   0.14474   0.14897   0.14926
 Alpha virt. eigenvalues --    0.15141   0.15242   0.15358   0.15586   0.15927
 Alpha virt. eigenvalues --    0.15992   0.16120   0.16385   0.16667   0.16784
 Alpha virt. eigenvalues --    0.16808   0.17076   0.17480   0.17615   0.17768
 Alpha virt. eigenvalues --    0.18187   0.18312   0.18449   0.18685   0.18694
 Alpha virt. eigenvalues --    0.19083   0.19123   0.19327   0.19614   0.19751
 Alpha virt. eigenvalues --    0.19814   0.20033   0.20209   0.20377   0.20454
 Alpha virt. eigenvalues --    0.20651   0.20899   0.21186   0.21412   0.21471
 Alpha virt. eigenvalues --    0.21531   0.22168   0.22364   0.22674   0.22861
 Alpha virt. eigenvalues --    0.23243   0.23536   0.23790   0.23892   0.24113
 Alpha virt. eigenvalues --    0.24258   0.24468   0.24734   0.25086   0.25469
 Alpha virt. eigenvalues --    0.25640   0.25988   0.26206   0.26615   0.26770
 Alpha virt. eigenvalues --    0.26865   0.27162   0.27291   0.27487   0.28075
 Alpha virt. eigenvalues --    0.28458   0.29278   0.29655   0.29962   0.30634
 Alpha virt. eigenvalues --    0.30746   0.31030   0.31107   0.31376   0.32391
 Alpha virt. eigenvalues --    0.32754   0.33054   0.33522   0.34099   0.34567
 Alpha virt. eigenvalues --    0.34853   0.35144   0.35634   0.35951   0.36566
 Alpha virt. eigenvalues --    0.37215   0.37718   0.39020   0.39581   0.40447
 Alpha virt. eigenvalues --    0.41304   0.41675   0.43033   0.43270   0.44736
 Alpha virt. eigenvalues --    0.45290   0.47019   0.47669   0.47734   0.48117
 Alpha virt. eigenvalues --    0.48475   0.48829   0.49177   0.49700   0.49984
 Alpha virt. eigenvalues --    0.50246   0.50838   0.51230   0.51518   0.51730
 Alpha virt. eigenvalues --    0.51834   0.52139   0.52445   0.53199   0.53521
 Alpha virt. eigenvalues --    0.54146   0.54476   0.54660   0.55276   0.55851
 Alpha virt. eigenvalues --    0.55935   0.56195   0.56465   0.56758   0.57008
 Alpha virt. eigenvalues --    0.57103   0.57331   0.57399   0.57572   0.57703
 Alpha virt. eigenvalues --    0.58167   0.58508   0.58662   0.58951   0.59058
 Alpha virt. eigenvalues --    0.59175   0.59666   0.60086   0.60148   0.60322
 Alpha virt. eigenvalues --    0.60645   0.61079   0.61249   0.61768   0.61903
 Alpha virt. eigenvalues --    0.62011   0.62240   0.62415   0.62985   0.63354
 Alpha virt. eigenvalues --    0.63869   0.63957   0.64489   0.64726   0.65185
 Alpha virt. eigenvalues --    0.65428   0.65849   0.66030   0.66371   0.66696
 Alpha virt. eigenvalues --    0.67528   0.67748   0.68092   0.68306   0.68378
 Alpha virt. eigenvalues --    0.68725   0.69365   0.69753   0.70171   0.70359
 Alpha virt. eigenvalues --    0.70696   0.71052   0.71577   0.71813   0.72117
 Alpha virt. eigenvalues --    0.72682   0.72816   0.73046   0.73373   0.73629
 Alpha virt. eigenvalues --    0.73905   0.74042   0.74300   0.74848   0.75204
 Alpha virt. eigenvalues --    0.75560   0.75854   0.76308   0.76590   0.76912
 Alpha virt. eigenvalues --    0.77096   0.77662   0.77791   0.78084   0.78678
 Alpha virt. eigenvalues --    0.78914   0.79186   0.79624   0.79790   0.79928
 Alpha virt. eigenvalues --    0.80241   0.81100   0.81203   0.81753   0.82153
 Alpha virt. eigenvalues --    0.82324   0.83019   0.83270   0.83431   0.83553
 Alpha virt. eigenvalues --    0.83746   0.84096   0.84426   0.84581   0.84898
 Alpha virt. eigenvalues --    0.85090   0.85476   0.85608   0.86061   0.86127
 Alpha virt. eigenvalues --    0.86279   0.86562   0.86603   0.86903   0.87548
 Alpha virt. eigenvalues --    0.87864   0.88024   0.88103   0.88396   0.88867
 Alpha virt. eigenvalues --    0.89176   0.89395   0.89564   0.89724   0.89869
 Alpha virt. eigenvalues --    0.90101   0.90526   0.90689   0.90910   0.91130
 Alpha virt. eigenvalues --    0.91372   0.91800   0.91926   0.92012   0.92631
 Alpha virt. eigenvalues --    0.92726   0.93069   0.93530   0.93668   0.94147
 Alpha virt. eigenvalues --    0.94463   0.94861   0.95021   0.95424   0.95867
 Alpha virt. eigenvalues --    0.96298   0.96343   0.96772   0.97038   0.97320
 Alpha virt. eigenvalues --    0.97647   0.97917   0.98466   0.98881   0.99455
 Alpha virt. eigenvalues --    0.99594   0.99759   1.00251   1.00923   1.01360
 Alpha virt. eigenvalues --    1.01461   1.02111   1.02366   1.03214   1.03709
 Alpha virt. eigenvalues --    1.04132   1.04218   1.04484   1.05172   1.05989
 Alpha virt. eigenvalues --    1.06433   1.06745   1.07135   1.07941   1.08474
 Alpha virt. eigenvalues --    1.08796   1.09540   1.09967   1.10512   1.11320
 Alpha virt. eigenvalues --    1.11922   1.12367   1.12592   1.12874   1.13974
 Alpha virt. eigenvalues --    1.14305   1.15091   1.15257   1.15599   1.16046
 Alpha virt. eigenvalues --    1.16502   1.16916   1.17873   1.18283   1.18420
 Alpha virt. eigenvalues --    1.18461   1.18913   1.19309   1.19709   1.20012
 Alpha virt. eigenvalues --    1.20583   1.21037   1.21726   1.22115   1.22287
 Alpha virt. eigenvalues --    1.23801   1.24019   1.24617   1.25038   1.25140
 Alpha virt. eigenvalues --    1.26327   1.27126   1.27507   1.28229   1.28762
 Alpha virt. eigenvalues --    1.29075   1.29940   1.30245   1.30689   1.31991
 Alpha virt. eigenvalues --    1.32664   1.33157   1.33821   1.33899   1.34474
 Alpha virt. eigenvalues --    1.34873   1.35614   1.36647   1.37404   1.38066
 Alpha virt. eigenvalues --    1.38708   1.38899   1.39196   1.39791   1.39840
 Alpha virt. eigenvalues --    1.40631   1.40850   1.41562   1.41948   1.42668
 Alpha virt. eigenvalues --    1.42853   1.43160   1.44245   1.44474   1.44796
 Alpha virt. eigenvalues --    1.45857   1.46302   1.46406   1.46944   1.47124
 Alpha virt. eigenvalues --    1.47406   1.47806   1.48087   1.48702   1.49038
 Alpha virt. eigenvalues --    1.49074   1.49912   1.50533   1.50614   1.51275
 Alpha virt. eigenvalues --    1.51570   1.52264   1.53125   1.53314   1.53865
 Alpha virt. eigenvalues --    1.54876   1.56089   1.56573   1.57197   1.57665
 Alpha virt. eigenvalues --    1.58550   1.59482   1.60343   1.60763   1.62066
 Alpha virt. eigenvalues --    1.62776   1.63270   1.64124   1.64479   1.64970
 Alpha virt. eigenvalues --    1.65680   1.66018   1.66429   1.66800   1.67213
 Alpha virt. eigenvalues --    1.67930   1.69417   1.69897   1.70483   1.71207
 Alpha virt. eigenvalues --    1.71528   1.72084   1.73171   1.73783   1.74803
 Alpha virt. eigenvalues --    1.75311   1.76269   1.76650   1.77230   1.77763
 Alpha virt. eigenvalues --    1.78079   1.78802   1.79124   1.79433   1.80142
 Alpha virt. eigenvalues --    1.80565   1.81051   1.81140   1.81466   1.81612
 Alpha virt. eigenvalues --    1.82107   1.82352   1.82898   1.83698   1.84224
 Alpha virt. eigenvalues --    1.84412   1.85418   1.85690   1.86120   1.86410
 Alpha virt. eigenvalues --    1.86652   1.87376   1.87706   1.88148   1.88765
 Alpha virt. eigenvalues --    1.88992   1.89175   1.90101   1.90208   1.90670
 Alpha virt. eigenvalues --    1.91055   1.91345   1.91491   1.91860   1.92226
 Alpha virt. eigenvalues --    1.92254   1.92630   1.92804   1.93024   1.93445
 Alpha virt. eigenvalues --    1.93771   1.94018   1.94446   1.95062   1.95737
 Alpha virt. eigenvalues --    1.96089   1.96582   1.97136   1.97203   1.97630
 Alpha virt. eigenvalues --    1.98178   1.98322   1.99020   1.99388   1.99759
 Alpha virt. eigenvalues --    2.00679   2.01432   2.01919   2.02077   2.02388
 Alpha virt. eigenvalues --    2.02929   2.03332   2.03886   2.04160   2.04638
 Alpha virt. eigenvalues --    2.05087   2.05544   2.05953   2.06050   2.06393
 Alpha virt. eigenvalues --    2.06770   2.07084   2.07736   2.08144   2.08445
 Alpha virt. eigenvalues --    2.08539   2.08918   2.09479   2.09867   2.10187
 Alpha virt. eigenvalues --    2.10465   2.10744   2.10936   2.11265   2.11926
 Alpha virt. eigenvalues --    2.12118   2.12800   2.13209   2.14007   2.14285
 Alpha virt. eigenvalues --    2.14672   2.15017   2.15185   2.15507   2.15845
 Alpha virt. eigenvalues --    2.16341   2.16614   2.16775   2.17357   2.17874
 Alpha virt. eigenvalues --    2.18085   2.18366   2.18565   2.18882   2.19340
 Alpha virt. eigenvalues --    2.19504   2.19709   2.20153   2.20754   2.21486
 Alpha virt. eigenvalues --    2.21784   2.21956   2.22175   2.22497   2.23092
 Alpha virt. eigenvalues --    2.23323   2.23395   2.24080   2.24627   2.25424
 Alpha virt. eigenvalues --    2.25901   2.26275   2.26909   2.27516   2.27859
 Alpha virt. eigenvalues --    2.28183   2.28696   2.28852   2.29094   2.30052
 Alpha virt. eigenvalues --    2.30842   2.31220   2.31671   2.32107   2.32217
 Alpha virt. eigenvalues --    2.32446   2.32846   2.33689   2.33859   2.34610
 Alpha virt. eigenvalues --    2.35026   2.36318   2.36968   2.37426   2.37830
 Alpha virt. eigenvalues --    2.38629   2.38994   2.39366   2.40090   2.40618
 Alpha virt. eigenvalues --    2.41476   2.42956   2.43906   2.44784   2.45644
 Alpha virt. eigenvalues --    2.47383   2.47649   2.48742   2.49345   2.49596
 Alpha virt. eigenvalues --    2.50538   2.51359   2.52093   2.52240   2.53415
 Alpha virt. eigenvalues --    2.54468   2.55399   2.57107   2.58745   2.59183
 Alpha virt. eigenvalues --    2.59651   2.60634   2.61057   2.61102   2.61443
 Alpha virt. eigenvalues --    2.62661   2.63720   2.64783   2.64855   2.65033
 Alpha virt. eigenvalues --    2.65526   2.65707   2.66978   2.67642   2.69645
 Alpha virt. eigenvalues --    2.70741   2.71276   2.72646   2.74472   2.76333
 Alpha virt. eigenvalues --    2.76888   2.77727   2.77916   2.78050   2.79098
 Alpha virt. eigenvalues --    2.79241   2.79755   2.80376   2.80608   2.80874
 Alpha virt. eigenvalues --    2.81276   2.81594   2.82101   2.83047   2.83986
 Alpha virt. eigenvalues --    2.84226   2.84981   2.85567   2.86500   2.87264
 Alpha virt. eigenvalues --    2.90086   2.91129   2.93200   2.93321   2.94498
 Alpha virt. eigenvalues --    2.95790   2.95882   2.96469   2.98216   3.01666
 Alpha virt. eigenvalues --    3.02712   3.03698   3.05794   3.06747   3.07933
 Alpha virt. eigenvalues --    3.09478   3.11355   3.12537   3.13535   3.15643
 Alpha virt. eigenvalues --    3.18139   3.20770   3.24990   3.32074   3.38993
 Alpha virt. eigenvalues --    3.42963  14.41731
          Condensed to atoms (all electrons):
 Mulliken charges:
               1
     1  C    0.232159
     2  C    0.073588
     3  C   -0.168988
     4  C   -0.155478
     5  C   -0.089932
     6  C    0.293720
     7  C    0.057604
     8  C   -0.171153
     9  C   -0.139424
    10  C   -0.179042
    11  H    0.223681
    12  H    0.200416
    13  H    0.228312
    14  H    0.188037
    15  N   -0.441269
    16  N   -0.478487
    17  Ir  -0.264937
    18  O   -0.505479
    19  O   -0.523024
    20  O   -0.496464
    21  B    0.503959
    22  B    0.521146
    23  B    0.525039
    24  O   -0.528033
    25  O   -0.543046
    26  C    0.298762
    27  C    0.287552
    28  C    0.287189
    29  C    0.294313
    30  C    0.290490
    31  C    0.300037
    32  O   -0.524268
    33  C   -0.514517
    34  H    0.147950
    35  H    0.167520
    36  H    0.175454
    37  C   -0.497518
    38  H    0.155359
    39  H    0.140445
    40  H    0.186031
    41  C   -0.499494
    42  H    0.142985
    43  H    0.156622
    44  H    0.182135
    45  C   -0.508891
    46  H    0.150180
    47  H    0.159014
    48  H    0.179452
    49  C   -0.502124
    50  H    0.164327
    51  H    0.147121
    52  H    0.191071
    53  C   -0.507289
    54  H    0.154624
    55  H    0.168393
    56  H    0.159872
    57  C   -0.513290
    58  H    0.151717
    59  H    0.165359
    60  H    0.181024
    61  C   -0.509109
    62  H    0.146911
    63  H    0.153533
    64  H    0.181484
    65  C   -0.502351
    66  H    0.162933
    67  H    0.165047
    68  H    0.153468
    69  C   -0.494372
    70  H    0.141334
    71  H    0.156684
    72  H    0.166417
    73  C   -0.508795
    74  H    0.148793
    75  H    0.169024
    76  H    0.169979
    77  C   -0.500683
    78  H    0.163874
    79  H    0.145034
    80  H    0.178548
    81  H    0.180711
    82  C   -0.155188
    83  C   -0.149506
    84  C   -0.134762
    85  C   -0.186385
    86  C   -0.182873
    87  C    0.049930
    88  H    0.170293
    89  H    0.270136
    90  H    0.147549
    91  C    0.496299
    92  O   -0.503060
    93  C   -0.358963
    94  H    0.162899
    95  H    0.186523
    96  H    0.157057
    97  C   -0.366795
    98  H    0.164360
    99  H    0.161682
   100  H    0.216123
   101  N   -0.394935
   102  H    0.130288
   103  H    0.187939
   104  H    0.142997
   105  C    0.979132
   106  F   -0.310633
   107  F   -0.314657
   108  F   -0.303549
   109  H    0.189120
 Sum of Mulliken charges =  -0.00000
 Mulliken charges with hydrogens summed into heavy atoms:
               1
     1  C    0.232159
     2  C    0.297270
     3  C    0.018951
     4  C    0.044938
     5  C   -0.089932
     6  C    0.293720
     7  C    0.285916
     8  C    0.009558
     9  C    0.048613
    10  C    0.010079
    15  N   -0.441269
    16  N   -0.478487
    17  Ir  -0.264937
    18  O   -0.505479
    19  O   -0.523024
    20  O   -0.496464
    21  B    0.503959
    22  B    0.521146
    23  B    0.525039
    24  O   -0.528033
    25  O   -0.543046
    26  C    0.298762
    27  C    0.287552
    28  C    0.287189
    29  C    0.294313
    30  C    0.290490
    31  C    0.300037
    32  O   -0.524268
    33  C   -0.023594
    37  C   -0.015682
    41  C   -0.017752
    45  C   -0.020245
    49  C    0.000395
    53  C   -0.024399
    57  C   -0.015189
    61  C   -0.027180
    65  C   -0.020903
    69  C   -0.029937
    73  C   -0.020999
    77  C   -0.013227
    82  C   -0.012190
    83  C   -0.001957
    84  C    0.135374
    85  C   -0.016092
    86  C   -0.052585
    87  C    0.049930
    91  C    0.496299
    92  O   -0.503060
    93  C    0.147516
    97  C    0.175370
   101  N   -0.394935
   105  C    0.979132
   106  F   -0.310633
   107  F   -0.314657
   108  F   -0.303549
 APT charges:
               1
     1  C    0.272915
     2  C    0.141201
     3  C   -0.086025
     4  C    0.077144
     5  C   -0.277190
     6  C    0.154265
     7  C    0.031176
     8  C   -0.074250
     9  C    0.117915
    10  C   -0.148209
    11  H    0.122469
    12  H    0.068048
    13  H    0.138695
    14  H    0.033622
    15  N   -0.316995
    16  N   -0.135152
    17  Ir  -1.033397
    18  O   -0.937547
    19  O   -0.998668
    20  O   -0.919608
    21  B    1.346977
    22  B    1.248853
    23  B    1.201643
    24  O   -0.930535
    25  O   -1.002978
    26  C    0.508018
    27  C    0.468301
    28  C    0.468299
    29  C    0.436232
    30  C    0.497366
    31  C    0.496279
    32  O   -0.995162
    33  C   -0.003116
    34  H   -0.017035
    35  H   -0.004645
    36  H    0.002652
    37  C   -0.029346
    38  H   -0.001590
    39  H   -0.029249
    40  H    0.028833
    41  C   -0.038319
    42  H   -0.006680
    43  H   -0.023247
    44  H    0.015283
    45  C   -0.011293
    46  H   -0.016915
    47  H   -0.006096
    48  H    0.004887
    49  C   -0.029486
    50  H   -0.000740
    51  H   -0.027261
    52  H    0.020053
    53  C   -0.008044
    54  H   -0.017579
    55  H    0.002847
    56  H   -0.002045
    57  C   -0.009533
    58  H   -0.015655
    59  H   -0.003926
    60  H    0.008492
    61  C   -0.037592
    62  H   -0.009238
    63  H   -0.018546
    64  H    0.020581
    65  C    0.002447
    66  H   -0.002365
    67  H   -0.004606
    68  H   -0.016781
    69  C   -0.013261
    70  H   -0.011562
    71  H   -0.018488
    72  H   -0.013178
    73  C   -0.002486
    74  H   -0.017120
    75  H    0.001826
    76  H   -0.001002
    77  C   -0.044226
    78  H    0.004047
    79  H   -0.026168
    80  H    0.031716
    81  H    0.039815
    82  C   -0.121256
    83  C    0.005333
    84  C    0.184805
    85  C   -0.057500
    86  C   -0.117832
    87  C   -0.154273
    88  H    0.038751
    89  H    0.319710
    90  H   -0.015922
    91  C    1.157148
    92  O   -0.842454
    93  C    0.284871
    94  H   -0.059478
    95  H    0.021747
    96  H   -0.029402
    97  C    0.342110
    98  H   -0.063033
    99  H   -0.032106
   100  H    0.059226
   101  N   -0.773289
   102  H    0.052540
   103  H    0.043074
   104  H    0.024694
   105  C    1.649404
   106  F   -0.573733
   107  F   -0.540381
   108  F   -0.501751
   109  H    0.080233
 Sum of APT charges =  -0.00000
 APT charges with hydrogens summed into heavy atoms:
               1
     1  C    0.272915
     2  C    0.263670
     3  C   -0.042951
     4  C    0.145192
     5  C   -0.277190
     6  C    0.154265
     7  C    0.169871
     8  C   -0.034435
     9  C    0.151537
    10  C   -0.067976
    15  N   -0.316995
    16  N   -0.135152
    17  Ir  -1.033397
    18  O   -0.937547
    19  O   -0.998668
    20  O   -0.919608
    21  B    1.346977
    22  B    1.248853
    23  B    1.201643
    24  O   -0.930535
    25  O   -1.002978
    26  C    0.508018
    27  C    0.468301
    28  C    0.468299
    29  C    0.436232
    30  C    0.497366
    31  C    0.496279
    32  O   -0.995162
    33  C   -0.022143
    37  C   -0.031352
    41  C   -0.052963
    45  C   -0.029417
    49  C   -0.037434
    53  C   -0.024821
    57  C   -0.020622
    61  C   -0.044794
    65  C   -0.021305
    69  C   -0.056490
    73  C   -0.018782
    77  C   -0.034630
    82  C   -0.096562
    83  C   -0.010589
    84  C    0.504515
    85  C   -0.018749
    86  C   -0.065292
    87  C   -0.154273
    91  C    1.157148
    92  O   -0.842454
    93  C    0.217738
    97  C    0.306197
   101  N   -0.773289
   105  C    1.649404
   106  F   -0.573733
   107  F   -0.540381
   108  F   -0.501751
 Electronic spatial extent (au):  <R**2>=          31733.9547
 Charge=             -0.0000 electrons
 Dipole moment (field-independent basis, Debye):
    X=              5.9628    Y=              2.5286    Z=             -3.1083  Tot=              7.1841
 Quadrupole moment (field-independent basis, Debye-Ang):
   XX=           -344.5898   YY=           -314.5670   ZZ=           -330.3307
   XY=             -1.4889   XZ=             35.8664   YZ=             -4.7589
 Traceless Quadrupole moment (field-independent basis, Debye-Ang):
   XX=            -14.7606   YY=             15.2621   ZZ=             -0.5016
   XY=             -1.4889   XZ=             35.8664   YZ=             -4.7589
 Octapole moment (field-independent basis, Debye-Ang**2):
  XXX=            267.5527  YYY=             62.8841  ZZZ=             34.9669  XYY=             -9.7923
  XXY=            -12.6302  XXZ=           -115.6420  XZZ=             72.7778  YZZ=             23.2062
  YYZ=             -0.8176  XYZ=             39.6063
 Hexadecapole moment (field-independent basis, Debye-Ang**3):
 XXXX=         -19907.5663 YYYY=         -14002.8507 ZZZZ=          -7858.6546 XXXY=            534.0214
 XXXZ=           1043.2612 YYYX=             54.8671 YYYZ=           -268.5116 ZZZX=             89.4156
 ZZZY=            -30.5335 XXYY=          -5484.5157 XXZZ=          -4496.2483 YYZZ=          -3541.6553
 XXYZ=            -74.6504 YYXZ=            193.0214 ZZXY=             65.1267
 N-N= 9.383455055894D+03 E-N=-2.492540506586D+04  KE= 2.561532206243D+03
  Exact polarizability:     576.365      -9.519     501.601      34.567       0.210     463.369
 Approx polarizability:     803.647       2.837     714.899      70.110      -5.105     729.711
   1 Symmetry operations used in ECPInt.
 ECPInt:  NShTT=   55278 NPrTT=  342696 LenC2=   41524 LenP2D=  128267.
 LDataN:  DoStor=T MaxTD1= 8 Len=  415
 Calling FoFJK, ICntrl=    100127 FMM=F ISym2X=0 I1Cent= 0 IOpClX= 0 NMat=1 NMatS=1 NMatT=0.
 Defaulting to unpruned grid for atomic number  77.
 Defaulting to unpruned grid for atomic number  77.
 Defaulting to unpruned grid for atomic number  77.
 Defaulting to unpruned grid for atomic number  77.
 Defaulting to unpruned grid for atomic number  77.
 Defaulting to unpruned grid for atomic number  77.
 Defaulting to unpruned grid for atomic number  77.
 Defaulting to unpruned grid for atomic number  77.
 Defaulting to unpruned grid for atomic number  77.
 Defaulting to unpruned grid for atomic number  77.
 Defaulting to unpruned grid for atomic number  77.
 Defaulting to unpruned grid for atomic number  77.
 Defaulting to unpruned grid for atomic number  77.
 Defaulting to unpruned grid for atomic number  77.
 Defaulting to unpruned grid for atomic number  77.
 Defaulting to unpruned grid for atomic number  77.
 Full mass-weighted force constant matrix:
 Low frequencies --- -705.5522   -5.4523   -3.9773   -0.0005    0.0002    0.0004
 Low frequencies ---    5.7198   17.8892   28.3208
 ******    1 imaginary frequencies (negative Signs) ****** 
 Diagonal vibrational polarizability:
      124.1522994     127.1795054      73.8157012
 Harmonic frequencies (cm**-1), IR intensities (KM/Mole), Raman scattering
 activities (A**4/AMU), depolarization ratios for plane and unpolarized
 incident light, reduced masses (AMU), force constants (mDyne/A),
 and normal coordinates:
                      1                      2                      3
                      A                      A                      A
 Frequencies --   -705.5522                17.3175                28.2703
 Red. masses --      1.1535                 5.2405                 6.0817
 Frc consts  --      0.3383                 0.0009                 0.0029
 IR Inten    --    659.0841                 0.4264                 0.1568
  Atom AN      X      Y      Z        X      Y      Z        X      Y      Z
     1   6    -0.00  -0.00  -0.00    -0.01  -0.01   0.03    -0.04   0.00  -0.02
     2   6     0.00  -0.00  -0.00    -0.02  -0.02   0.03     0.01  -0.00  -0.04
     3   6     0.00  -0.00  -0.00    -0.03  -0.01   0.04    -0.01   0.03  -0.05
     4   6    -0.00  -0.00   0.00    -0.03  -0.00   0.05    -0.04   0.05  -0.04
     5   6    -0.00  -0.00  -0.00    -0.02  -0.00   0.04    -0.06   0.03  -0.02
     6   6    -0.00   0.00  -0.00    -0.00  -0.02   0.01    -0.06  -0.01  -0.01
     7   6    -0.00   0.01  -0.00     0.02  -0.03  -0.02    -0.02  -0.05  -0.03
     8   6    -0.00   0.00  -0.00     0.03  -0.04  -0.04    -0.05  -0.05  -0.02
     9   6    -0.00   0.00  -0.00     0.02  -0.03  -0.03    -0.09  -0.04  -0.00
    10   6     0.00   0.00  -0.00    -0.00  -0.02   0.00    -0.09  -0.02   0.00
    11   1     0.00  -0.01  -0.01    -0.02  -0.02   0.02     0.04  -0.02  -0.05
    12   1    -0.00   0.00  -0.00    -0.03   0.01   0.06    -0.05   0.07  -0.04
    13   1     0.00   0.00   0.00     0.03  -0.04  -0.02     0.00  -0.06  -0.04
    14   1     0.00   0.00  -0.00     0.02  -0.04  -0.04    -0.12  -0.04   0.01
    15   7    -0.00   0.00   0.00    -0.01  -0.02   0.02    -0.01  -0.01  -0.03
    16   7    -0.01   0.02   0.00     0.01  -0.02   0.01    -0.03  -0.03  -0.02
    17  77     0.01  -0.00  -0.01    -0.01  -0.02   0.02    -0.00  -0.03  -0.01
    18   8    -0.00  -0.00  -0.00     0.02  -0.04   0.04     0.00  -0.03  -0.02
    19   8     0.00   0.00   0.00     0.04   0.00  -0.02    -0.01  -0.03  -0.01
    20   8    -0.00   0.00   0.00    -0.04   0.00  -0.00     0.06   0.03  -0.01
    21   5    -0.04   0.00   0.01     0.02  -0.02  -0.00    -0.00  -0.03  -0.01
    22   5     0.01  -0.00   0.00    -0.01  -0.03   0.04     0.00  -0.03  -0.01
    23   5    -0.01   0.01   0.00    -0.02   0.00  -0.00     0.02  -0.02   0.01
    24   8    -0.00   0.00   0.00    -0.02   0.03  -0.03     0.02  -0.05   0.07
    25   8    -0.00  -0.00   0.00    -0.05  -0.03   0.06     0.00  -0.03  -0.02
    26   6     0.00   0.00  -0.00    -0.04  -0.04   0.07    -0.00  -0.02  -0.01
    27   6    -0.00  -0.00  -0.00     0.00  -0.04   0.04     0.01  -0.03  -0.03
    28   6    -0.00   0.00   0.00    -0.05   0.03  -0.03     0.08   0.02   0.03
    29   6    -0.00   0.00   0.00    -0.04   0.04  -0.05     0.06  -0.03   0.09
    30   6     0.00   0.00  -0.00     0.06  -0.01  -0.04    -0.02  -0.03  -0.01
    31   6    -0.00   0.00   0.00     0.04  -0.02  -0.03    -0.01  -0.03  -0.00
    32   8    -0.00  -0.00   0.01     0.02  -0.03  -0.00    -0.00  -0.03  -0.01
    33   6    -0.00  -0.00  -0.00     0.03  -0.06   0.06     0.02  -0.04  -0.04
    34   1    -0.00  -0.00  -0.00     0.02  -0.06   0.07     0.03  -0.03  -0.05
    35   1    -0.00   0.00   0.00     0.06  -0.06   0.04     0.03  -0.04  -0.05
    36   1    -0.00  -0.00  -0.00     0.05  -0.08   0.09     0.02  -0.06  -0.03
    37   6    -0.00  -0.00  -0.00    -0.01  -0.01   0.00     0.02  -0.00  -0.03
    38   1     0.00   0.00   0.00     0.03  -0.00  -0.02     0.03  -0.00  -0.04
    39   1     0.00  -0.00  -0.00    -0.02  -0.01   0.01     0.03   0.00  -0.04
    40   1    -0.00   0.00   0.00    -0.03   0.01  -0.01     0.01   0.01  -0.03
    41   6    -0.00  -0.00  -0.00    -0.04  -0.07   0.12     0.01  -0.03   0.01
    42   1     0.00  -0.00  -0.00    -0.07  -0.08   0.13    -0.00  -0.03   0.02
    43   1    -0.00   0.00  -0.00    -0.03  -0.09   0.13     0.00  -0.03   0.02
    44   1    -0.00  -0.00  -0.00    -0.01  -0.09   0.12     0.02  -0.03   0.01
    45   6    -0.00  -0.00  -0.00    -0.08  -0.03   0.07    -0.02  -0.02  -0.01
    46   1    -0.00  -0.00  -0.00    -0.08  -0.03   0.08    -0.02  -0.02  -0.01
    47   1     0.00   0.00  -0.00    -0.11  -0.03   0.09    -0.02  -0.02  -0.01
    48   1    -0.00   0.00   0.00    -0.09  -0.01   0.04    -0.02  -0.02  -0.03
    49   6     0.00  -0.00   0.00     0.08  -0.04  -0.05    -0.02  -0.02  -0.01
    50   1     0.00   0.00  -0.00     0.09  -0.04  -0.05    -0.02  -0.02  -0.01
    51   1     0.00  -0.00  -0.00     0.10  -0.04  -0.06    -0.03  -0.02  -0.01
    52   1     0.00   0.00  -0.00     0.06  -0.06  -0.04    -0.02  -0.02  -0.02
    53   6     0.00   0.00   0.00     0.08   0.02  -0.06    -0.02  -0.04  -0.00
    54   1     0.00  -0.00  -0.00     0.10   0.02  -0.07    -0.03  -0.04   0.00
    55   1    -0.00   0.00  -0.00     0.09   0.03  -0.06    -0.02  -0.04  -0.00
    56   1     0.00  -0.00  -0.00     0.07   0.05  -0.05    -0.01  -0.04   0.00
    57   6     0.00  -0.00   0.00     0.06  -0.04  -0.03    -0.03  -0.03  -0.00
    58   1     0.00  -0.00   0.00     0.08  -0.03  -0.05    -0.04  -0.04   0.00
    59   1     0.00  -0.00   0.00     0.05  -0.05  -0.02    -0.03  -0.03  -0.00
    60   1     0.00  -0.00  -0.00     0.07  -0.07  -0.03    -0.03  -0.02  -0.01
    61   6    -0.00   0.00   0.00     0.03   0.02  -0.02    -0.01  -0.05   0.01
    62   1    -0.00   0.00   0.00     0.02   0.01  -0.01    -0.01  -0.05   0.01
    63   1     0.00   0.00  -0.00     0.05   0.03  -0.04    -0.02  -0.06   0.01
    64   1    -0.00  -0.00  -0.00     0.02   0.03  -0.02     0.00  -0.05   0.01
    65   6    -0.00   0.00   0.00    -0.02   0.07  -0.08     0.04  -0.06   0.12
    66   1    -0.00   0.00   0.00    -0.02   0.08  -0.10     0.02  -0.10   0.17
    67   1    -0.00   0.00   0.00     0.01   0.07  -0.08    -0.00  -0.08   0.08
    68   1    -0.00   0.00  -0.00    -0.04   0.08  -0.10     0.07  -0.04   0.14
    69   6    -0.00  -0.00   0.00    -0.08   0.05  -0.06     0.11  -0.01   0.15
    70   1     0.00  -0.00   0.00    -0.08   0.06  -0.07     0.09  -0.05   0.19
    71   1    -0.00  -0.00   0.00    -0.10   0.06  -0.07     0.14   0.01   0.17
    72   1    -0.00   0.00   0.00    -0.09   0.03  -0.05     0.13   0.02   0.13
    73   6    -0.00   0.00   0.00    -0.09   0.03  -0.03     0.14   0.08   0.04
    74   1     0.00  -0.00   0.00    -0.09   0.05  -0.06     0.16   0.08   0.08
    75   1    -0.00  -0.00   0.00    -0.09   0.01  -0.02     0.16   0.11  -0.01
    76   1    -0.00   0.00   0.00    -0.11   0.02  -0.03     0.16   0.09   0.07
    77   6    -0.00   0.00   0.00    -0.01   0.03  -0.03     0.04   0.01  -0.02
    78   1     0.00  -0.00   0.00    -0.02   0.01  -0.02     0.05   0.05  -0.07
    79   1     0.00   0.00   0.00    -0.02   0.05  -0.06     0.05   0.00   0.00
    80   1    -0.00   0.00   0.00     0.02   0.03  -0.03    -0.00  -0.02  -0.03
    81   1     0.00   0.01  -0.01     0.05  -0.05  -0.06    -0.05  -0.07  -0.03
    82   6    -0.00   0.00   0.02    -0.00   0.02  -0.00     0.06  -0.02   0.00
    83   6     0.00   0.01  -0.00     0.00   0.06  -0.04     0.09   0.01   0.02
    84   6    -0.02  -0.06   0.06    -0.00   0.00   0.01     0.02  -0.01   0.00
    85   6     0.00   0.00  -0.00     0.02   0.08  -0.06     0.09   0.06   0.02
    86   6    -0.01  -0.01   0.01     0.01   0.02  -0.01     0.02   0.03   0.01
    87   6     0.00   0.01  -0.01     0.02   0.06  -0.05     0.05   0.07   0.03
    88   1    -0.00  -0.01   0.00     0.02   0.11  -0.09     0.11   0.09   0.03
    89   1    -0.64   0.75   0.09    -0.01  -0.00   0.03     0.01  -0.03  -0.01
    90   1     0.00   0.02  -0.01     0.00   0.07  -0.04     0.12   0.00   0.02
    91   6    -0.00   0.00  -0.00     0.03   0.10  -0.08     0.04   0.12   0.04
    92   8     0.00  -0.00   0.00     0.00   0.18  -0.10     0.05   0.17   0.06
    93   6     0.00  -0.00  -0.00     0.12  -0.04  -0.09     0.04   0.06   0.02
    94   1     0.00  -0.00   0.00     0.15  -0.09  -0.20     0.07   0.06   0.01
    95   1     0.00   0.00  -0.01     0.09  -0.00  -0.08     0.06   0.03   0.00
    96   1     0.00  -0.00   0.00     0.16  -0.12  -0.01     0.00   0.02   0.04
    97   6    -0.00  -0.00  -0.00     0.06   0.09  -0.11     0.01   0.15   0.06
    98   1     0.00   0.00   0.00     0.11   0.11  -0.15     0.05   0.16   0.02
    99   1     0.00   0.00   0.00     0.05   0.06  -0.08    -0.02   0.10   0.09
   100   1    -0.00  -0.00  -0.00     0.02   0.14  -0.10    -0.01   0.21   0.09
   101   7     0.00   0.00   0.00     0.06   0.05  -0.09     0.02   0.12   0.05
   102   1    -0.00  -0.05   0.03     0.01   0.00  -0.00    -0.01   0.04   0.02
   103   1     0.00  -0.00  -0.00    -0.03  -0.01   0.05     0.01   0.04  -0.06
   104   1    -0.01  -0.04   0.03    -0.01   0.01   0.01     0.06  -0.06  -0.00
   105   6    -0.00  -0.00  -0.00    -0.02   0.01   0.06    -0.10   0.05  -0.03
   106   9     0.00   0.00   0.00    -0.03   0.00   0.06    -0.12   0.04  -0.02
   107   9    -0.00   0.00   0.00    -0.02   0.02   0.07    -0.10   0.09  -0.04
   108   9     0.00   0.00  -0.00     0.00   0.02   0.05    -0.10   0.04  -0.02
   109   1     0.00   0.01  -0.00    -0.02  -0.02   0.01    -0.12  -0.00   0.02
                      4                      5                      6
                      A                      A                      A
 Frequencies --     32.5023                36.3200                37.5863
 Red. masses --      4.6699                 4.7882                 4.2279
 Frc consts  --      0.0029                 0.0037                 0.0035
 IR Inten    --      0.1011                 0.2959                 0.0989
  Atom AN      X      Y      Z        X      Y      Z        X      Y      Z
     1   6     0.01  -0.01   0.01    -0.01   0.00   0.02    -0.01  -0.01   0.01
     2   6     0.05  -0.03  -0.02     0.04   0.00  -0.01    -0.02  -0.02   0.00
     3   6     0.06  -0.04  -0.05     0.05  -0.00  -0.05    -0.02  -0.02   0.01
     4   6     0.04  -0.03  -0.04     0.03  -0.01  -0.06    -0.01  -0.02   0.02
     5   6     0.02  -0.01  -0.02    -0.01  -0.00  -0.03    -0.01  -0.01   0.02
     6   6    -0.01   0.01   0.04    -0.03   0.01   0.05    -0.01  -0.01   0.01
     7   6    -0.03   0.03   0.06    -0.04   0.02   0.05    -0.01  -0.00   0.00
     8   6    -0.06   0.05   0.11    -0.05   0.03   0.08    -0.02  -0.00   0.02
     9   6    -0.06   0.04   0.12    -0.06   0.03   0.10    -0.02  -0.00   0.02
    10   6    -0.03   0.02   0.09    -0.05   0.02   0.08    -0.01  -0.01   0.02
    11   1     0.06  -0.03  -0.02     0.06   0.00   0.00    -0.02  -0.02   0.00
    12   1     0.04  -0.03  -0.07     0.03  -0.01  -0.10    -0.01  -0.01   0.03
[...]
 ,-0.00000117,0.00000432,-0.00005679,0.00001066,-0.00003195,0.00001094,
 -0.00000330,-0.00000548,-0.00001059,-0.00031604,0.00006302,0.00002044,
 -0.00000894,-0.00003643,-0.00712732,-0.07855950,-0.01474220,-0.0042319
 6,-0.02596911,-0.06086579,-0.01021507,0.01104598,-0.00844794,0.0188762
 7,0.09132275,-0.00436639,-0.00177454,-0.00088051,0.00044509,-0.0000515
 0,-0.00033018,-0.00148925,0.00137480,-0.00011606,0.00625108,0.00383117
 ,-0.00283678,-0.01504548,-0.00099075,-0.04288099,0.00191924,0.00123873
 ,-0.00190335,0.00041259,-0.00048249,0.00013764,0.00045940,0.00036019,0
 .00042015,-0.00002434,0.00006619,0.00014387,0.00134641,-0.00073434,0.0
 0044818,0.00003750,-0.00041910,-0.00005435,0.00034609,-0.00088359,0.00
 034406,0.00007154,0.00006738,0.00001705,0.00018167,-0.00014273,-0.0000
 3295,0.00024906,0.00182073,-0.00036029,0.00029462,-0.00005835,0.000387
 20,-0.00057540,0.00019827,0.00028979,0.00019330,0.00031256,0.00028322,
 -0.00013731,0.00022552,0.00032353,-0.00059146,-0.00006299,0.00083759,-
 0.00002141,-0.00037895,-0.00068357,-0.00015730,-0.00053712,-0.00059913
 ,0.00100954,-0.00012148,-0.00130748,-0.00103536,-0.00007909,0.00135236
 ,0.00024235,0.00016388,0.00049080,-0.00005374,-0.00008665,-0.00004344,
 -0.00002466,-0.00009236,-0.00017738,0.00048625,-0.00002595,0.00003628,
 0.00115127,0.00094286,-0.00162843,-0.00001761,-0.00003514,-0.00009676,
 0.00009038,-0.00019721,0.00005319,0.00018686,0.00046207,0.00032804,-0.
 00000655,0.00002118,0.00003202,0.00001548,0.00001495,0.00000856,0.0000
 0156,-0.00000500,-0.00000643,-0.00001498,-0.00000430,0.00000285,-0.000
 00298,0.00005022,0.00001783,0.00000219,-0.00000964,-0.00000500,-0.0000
 0051,0.00001765,0.00002219,0.00002023,-0.00000918,-0.00000691,0.000008
 95,0.00003373,0.00001366,0.00000274,-0.00001058,-0.00000812,0.00001377
 ,0.00000677,0.00000271,-0.00001558,-0.00000914,0.00001776,0.00003800,0
 .00001886,-0.00000442,-0.00000276,0.00000017,0.00002271,0.00002223,-0.
 00001315,0.00000643,-0.00002165,0.00002186,0.00000247,0.,0.00001189,0.
 00002812,0.00001576,0.00002048,0.00001457,-0.00000208,-0.00000269,-0.0
 0000398,-0.00002720,-0.00000450,-0.00000131,0.00005177,0.00002146,0.00
 002115,-0.00001391,-0.00001132,0.00001223,0.00001626,0.00003566,0.0000
 1729,-0.00002692,-0.00001240,-0.00003441,-0.00001509,0.00000696,-0.000
 01549,-0.00001101,0.00002194,-0.00000554,0.00001366,-0.00000053,0.0000
 3645,0.00000695,-0.00000493,-0.00000258,-0.00003284,-0.00002674,-0.000
 13408,0.00003052,0.00000237,0.00014712,-0.00000174,0.00006020,0.000002
 43,0.00000695,-0.00004148,-0.00006566,-0.00031980,-0.00045058,0.000203
 07,0.00002857,0.00008057,-0.00006122,0.00015125,-0.00020362,0.00008530
 ,-0.00005226,0.00006934,0.00003870,-0.00131791,-0.00073586,0.00060417,
 -0.00029293,-0.00017327,-0.00082355,0.00002824,0.00011636,0.00011297,0
 .00133125,0.00009134,0.00055910,-0.00009260,0.00016959,-0.00001261,-0.
 00002300,0.00002496,0.00005112,-0.00001942,-0.00010103,-0.00000714,0.0
 0011698,-0.00004058,0.00012139,-0.00019928,-0.00003911,-0.00000890,-0.
 00000034,-0.00007536,-0.00003145,-0.00000809,0.00002643,0.00000527,0.0
 0004925,-0.00003019,0.00001009,0.00003859,0.00001342,0.00000459,-0.000
 16196,0.00001382,-0.00014403,0.00002751,0.00003527,0.00003454,-0.00013
 194,0.00002445,-0.00005752,0.00001741,0.00000168,0.00000107,-0.0000589
 4,0.00003499,0.00005985,0.00010096,-0.00004124,0.00002711,0.00000787,-
 0.00000618,-0.00000048,0.00001972,-0.00005345,0.00000903,-0.00001787,0
 .00000827,0.00002277,-0.00020977,0.00001275,-0.00027408,0.00008732,-0.
 00000966,0.00009311,0.00004821,0.00001411,-0.00006540,0.00001549,-0.00
 002018,0.00001757,0.00001904,0.00001054,-0.00003365,-0.00000337,0.0000
 2264,0.00001988,-0.00005262,-0.00001157,-0.00000383,0.00001555,-0.0000
 0959,0.00000484,0.00000862,0.00001070,0.00001389,-0.00000502,-0.000003
 52,-0.00001009,0.00005272,-0.00000311,0.00018764,0.00000207,0.00002117
 ,0.00000220,0.00014978,0.00062853,-0.00037606,0.00002125,-0.00001806,0
 .00011651,-0.05217545,-0.01331511,-0.29119795,0.00045699,-0.04383623,-
 0.03678894,-0.04317011,-0.00577332,-0.01273799,0.10298624,0.05960910,0
 .38905790,-0.00093104,0.00059628,0.00133508,-0.00026209,-0.00017229,-0
 .00014932,0.00005742,0.00011569,-0.00010892,-0.00005774,-0.00012394,0.
 00013083,-0.00034938,0.00005270,-0.00056719,0.00713129,0.00455327,0.00
 413416,-0.00106295,0.00098381,-0.00042101,0.00027185,0.00085405,-0.005
 96082,-0.00801219,-0.01826070,-0.00606636,-0.13955599,-0.12574989,-0.0
 6348910,0.00002139,0.00001771,0.00000163,-0.00004260,0.00003570,-0.000
 04866,-0.00049643,0.00010314,0.00073059,-0.00071749,0.00040309,0.00247
 508,0.00003307,-0.00059006,0.00063972,0.00393703,0.00237134,-0.0037543
 9,0.00020064,0.00001337,0.00037201,0.00000805,0.00002860,0.00001218,-0
 .00004095,0.00005471,-0.00000710,-0.00008805,0.00001983,0.00005253,0.0
 0008187,-0.00011591,-0.00002361,-0.00002307,-0.00006125,-0.00004284,0.
 00023659,-0.00008914,-0.00004095,-0.00014136,-0.00003590,0.00003083,0.
 00000925,0.00001724,0.00001391,-0.00000888,-0.00001548,-0.00000932,-0.
 00000235,-0.00001076,-0.00001593,0.00005412,-0.00000122,-0.00000220,0.
 00003278,0.00003783,-0.00006852,0.00000675,-0.00001370,0.00001335,0.00
 002313,-0.00001124,-0.00000823,-0.00009391,0.00005487,-0.00006826,-0.0
 0000009,0.00000134,0.00000127,0.00000108,0.00000095,0.00000088,-0.0000
 0029,0.00000064,-0.00000104,-0.00000166,-0.00000087,0.00000053,-0.0000
 0137,0.00000316,0.00000162,-0.00000041,-0.00000012,-0.00000144,0.00000
 024,0.00000160,0.00000192,0.00000167,-0.00000153,-0.00000072,-0.000000
 16,0.00000521,-0.00000114,0.00000076,-0.00000074,-0.00000231,0.0000014
 0,0.00000110,0.00000158,-0.00000103,-0.00000366,0.00000268,0.00000017,
 0.00000288,-0.00000022,0.00000098,0.00000024,0.00000177,0.00000145,-0.
 00000073,0.00000022,-0.00000170,0.00000009,0.00000042,-0.00000130,0.00
 000048,-0.00000512,-0.00000010,-0.00000140,0.00000019,0.00000051,0.000
 00214,-0.00000121,-0.00000081,-0.00000271,0.00000389,0.00000229,0.0000
 0338,-0.00000346,-0.00000182,0.00000215,0.00000031,0.00000011,0.000000
 10,0.00000043,-0.00000275,-0.00000107,0.00000113,-0.00000709,0.0000051
 1,0.00000207,-0.00000055,0.00000277,-0.00000312,0.00000102,-0.00000090
 ,-0.00000270,-0.00000153,-0.00000246,0.00000168,-0.00000184,0.00000801
 ,0.00000250,-0.00000102,-0.00000217,-0.00000782,-0.00000509,-0.0000017
 7,-0.00000071,0.00000384,0.00000271,0.00000369,-0.00000316,-0.00000531
 ,0.00001345,-0.00000626,0.00000111,-0.00000894,0.00000277,-0.00000823,
 0.00000256,-0.00000388,0.00000344,0.00000113,0.00001323,-0.00002959,0.
 00004820,-0.00002800,0.00001800,-0.00003377,-0.00000541,0.00000015,0.0
 0000484,0.00001653,0.00002688,0.00001275,-0.00000884,0.00000081,0.0000
 0021,-0.00000383,0.00000364,0.00000529,-0.00000145,-0.00000541,-0.0000
 0270,0.00000819,-0.00000130,0.00000222,-0.00001792,-0.00000220,-0.0000
 0079,-0.00000058,-0.00000559,-0.00000328,-0.00000321,0.00000533,0.0000
 0240,0.00000555,-0.00000105,-0.00000087,-0.00031299,-0.00089794,-0.000
 23672,0.00001198,0.00003737,0.00003341,0.00003950,0.00001147,-0.000002
 64,0.00004837,-0.00001286,-0.00003047,-0.00002542,-0.00000281,-0.00003
 708,0.00001733,-0.00000575,-0.00003282,-0.00000610,0.00002440,0.000012
 30,-0.00000798,-0.00000654,0.00000441,-0.00003693,0.00001044,-0.000062
 61,-0.00000266,-0.00000671,0.00001784,-0.00005190,-0.00000763,-0.00006
 487,0.00001628,0.00000646,0.00002423,0.00000939,0.00000192,-0.00002021
 ,0.00000030,-0.00000812,-0.00000177,0.00001351,-0.00000502,-0.00002487
 ,0.00000523,0.00001940,0.00000823,-0.00000878,-0.00000796,0.00000214,0
 .00000223,-0.00000066,-0.00000007,0.00000189,0.00000344,0.00000390,-0.
 00000199,-0.00000113,-0.00000264,0.00000666,0.00000386,0.00005121,-0.0
 0000182,-0.00000472,0.00000420,-0.00000192,-0.00001190,0.00003115,0.00
 000741,-0.00001328,-0.00000424,-0.00460813,0.00663923,0.00134199,-0.00
 451644,-0.00494596,-0.00152596,0.00102212,-0.00080182,-0.00027886,-0.0
 0324595,0.00007674,0.00062602,0.15145940,-0.00008721,0.00055781,-0.000
 95996,-0.00019208,0.00003622,-0.00015104,0.00014727,0.00020342,-0.0000
 9629,0.00018363,-0.00004498,0.00030921,0.00008653,0.00015366,0.0000811
 0,-0.01747600,-0.01414857,-0.01105587,0.00136242,-0.00013487,0.0008929
 8,0.00116123,0.00102883,0.00197968,0.00510149,0.00951690,0.00285102,-0
 .12386792,-0.23052863,-0.07044656,-0.00002189,-0.00005615,-0.00003638,
 -0.00000129,-0.00001902,-0.00001477,-0.00004761,0.00000638,-0.00024310
 ,0.00017027,0.00049189,-0.00057464,-0.00010608,-0.00003185,0.00020578,
 0.00056899,-0.00536124,0.00333829,-0.00039685,0.00040903,-0.00073005,-
 0.00000562,-0.00000724,-0.00000910,0.00005498,-0.00007831,0.00002356,0
 .00007185,-0.00001542,-0.00003631,-0.00010664,0.00011034,0.00006446,0.
 00004720,0.00004274,0.00002754,-0.00023147,0.00006874,0.00003859,0.000
 12291,0.00004421,0.00000154,-0.00000170,0.00000638,-0.00000305,0.00000
 624,0.00001228,0.00000466,0.00000207,0.00000629,0.00001178,-0.00004703
 ,-0.00000574,0.00000822,-0.00001575,-0.00002285,0.00003500,-0.00000292
 ,0.00001739,-0.00002020,-0.00003051,0.00001310,0.00001457,0.00015304,-
 0.00008980,0.00011701,0.00000002,-0.00000094,-0.00000151,-0.00000059,-
 0.00000074,-0.00000042,-0.00000012,0.00000026,0.00000027,0.00000070,0.
 00000016,0.,0.00000086,-0.00000143,-0.00000101,-0.00000024,0.00000063,
 0.00000061,-0.00000034,-0.00000079,-0.00000092,-0.00000097,0.00000096,
 0.00000063,-0.00000048,-0.00000373,0.00000057,-0.00000058,0.00000087,-
 0.00000056,-0.00000092,0.00000019,-0.00000043,0.00000091,0.00000075,-0
 .00000087,-0.00000084,-0.00000148,0.00000063,-0.00000005,0.00000054,-0
 .00000110,-0.00000146,0.00000053,-0.00000096,0.00000069,-0.00000061,0.
 00000010,0.00000193,-0.00000163,0.00000818,0.00000093,0.00000103,-0.00
 000020,-0.00000078,-0.00000361,0.00000093,0.00000176,0.00000263,-0.000
 00291,-0.00000160,-0.00000413,0.00000687,0.00000258,-0.00000329,-0.000
 00069,0.00000054,0.00000040,-0.00000029,0.00000249,0.00000056,-0.00000
 205,0.00001044,-0.00000881,-0.00000436,0.00000032,-0.00000260,0.000005
 44,0.00000048,0.00000101,0.00000508,0.00000146,0.00000208,-0.00000251,
 0.00000288,-0.00001475,-0.00000808,0.00000338,0.00000123,0.00001640,0.
 00000812,0.00000618,0.00000080,-0.00000317,-0.00000569,-0.00000673,-0.
 00000010,0.00000350,-0.00000997,0.00000882,0.00000029,0.00000346,-0.00
 000310,0.00000512,-0.00000263,0.00000271,-0.00000067,0.00000234,-0.000
 01605,0.00000959,-0.00003348,0.00003254,-0.00000449,0.00002019,0.00000
 309,0.00000791,0.00000416,-0.00000719,-0.00002523,-0.00001385,0.000008
 07,-0.00000053,0.00000147,0.00000144,-0.00000161,-0.00000417,0.0000015
 2,0.00000391,0.00000259,-0.00000449,0.00000116,-0.00000306,0.00001701,
 0.00000174,0.00000027,0.00000085,0.00000463,0.00000237,0.00000183,-0.0
 0000453,-0.00000186,-0.00000456,0.00000076,0.00000087,0.00035545,0.000
 41825,0.00027897,-0.00003474,-0.00000126,-0.00003938,-0.00001227,0.000
 00156,0.00000329,-0.00002422,0.00007975,-0.00014991,-0.00001917,0.0000
 2224,0.00001177,-0.00001763,0.00004435,0.00003150,0.00000003,-0.000024
 30,0.00001827,0.00000266,0.00000328,-0.00000013,0.00017344,-0.00016490
 ,0.00008917,-0.00000517,0.00000328,0.00000938,0.00000568,0.00000320,0.
 00003417,0.00000070,-0.00000171,-0.00001557,-0.00001169,-0.00000260,0.
 00000098,-0.00000269,0.00000375,0.00000006,-0.00000621,-0.00000376,0.0
 0001305,0.00000046,-0.00000581,-0.00000147,-0.00000130,0.00000306,-0.0
 0000706,-0.00000063,-0.00000035,0.00000068,-0.00000079,-0.00000121,0.0
 0000020,0.00000197,0.00000062,0.00000050,0.00000752,0.00000474,-0.0000
 1816,0.00000635,0.00000925,-0.00000876,0.00000625,0.00000879,-0.000023
 07,0.00001186,-0.00000841,0.00002111,0.00256214,0.00040817,0.00057925,
 -0.00367003,-0.00151071,-0.00105016,-0.00019710,-0.00015304,-0.0000872
 8,-0.00062285,0.00004932,-0.00019993,0.13481970,0.23866619,0.00223132,
 -0.00051496,-0.00116104,0.00029469,0.00016945,0.00028735,-0.00018548,-
 0.00024906,0.00009613,-0.00013819,0.00021140,-0.00025487,0.00029761,-0
 .00035381,0.00022416,0.00665756,0.00851712,0.00446335,0.00021062,0.000
 37338,-0.00053304,-0.00598818,0.00258066,0.00244409,-0.01093085,-0.015
 96601,-0.00230851,-0.06120564,-0.07124777,-0.07494757,-0.00000332,0.00
 002716,0.00000200,0.00000459,0.00000222,0.00001187,0.00083800,-0.00027
 273,-0.00083306,0.00261235,-0.00044911,-0.00190865,-0.00031252,0.00044
 299,-0.00044721,-0.00357137,0.00367843,0.00418911,0.00008567,-0.000111
 62,0.00002421,-0.00000488,-0.00001325,-0.00001360,-0.00000799,0.000004
 84,-0.00002495,0.00000320,0.00000681,-0.00002761,0.00003283,0.00004871
 ,0.00006053,-0.00001039,0.00001749,0.00003937,0.00001812,-0.00000640,0
 .00004296,0.00001194,-0.00001524,-0.00004848,-0.00001564,-0.00000348,-
 0.00001909,-0.00000233,-0.00000119,-0.00000463,0.00000267,0.00000459,0
 .00000600,-0.00000202,0.00000513,-0.00000043,-0.00002850,-0.00001698,0
 .00004044,0.00000035,0.00000084,0.00000960,-0.00000519,0.00000796,0.00
 000132,-0.00002225,-0.00002025,-0.00003138,-0.00000019,-0.00000049,-0.
 00000084,-0.00000060,-0.00000054,-0.00000051,0.00000009,0.00000039,0.0
 0000035,0.00000079,0.00000019,-0.00000009,0.00000013,-0.00000251,-0.00
 000085,0.00000027,0.00000080,0.00000028,-0.00000004,-0.00000086,-0.000
 00111,-0.00000042,0.00000005,0.00000021,0.00000067,-0.00000055,0.00000
 047,-0.00000062,-0.00000005,0.00000026,-0.00000016,-0.00000040,-0.0000
 0046,0.00000043,0.00000088,-0.00000065,-0.00000228,-0.00000023,-0.0000
 0097,-0.00000001,-0.00000066,-0.00000053,-0.00000029,0.00000070,0.0000
 0040,0.00000109,-0.00000080,0.00000001,-0.00000052,-0.00000017,-0.0000
 0273,-0.00000102,-0.00000115,-0.00000098,0.00000018,0.00000093,0.00000
 014,0.00000093,-0.00000032,0.00000048,-0.00000201,-0.00000002,-0.00000
 303,-0.00000008,0.00000122,-0.00000003,-0.00000088,-0.00000173,-0.0000
 0102,0.00000064,0.00000071,0.00000176,0.00000044,-0.00000072,0.0000013
 6,0.00000063,-0.00000109,0.,-0.00000125,-0.00000010,-0.00000264,-0.000
 00047,0.00000033,0.00000065,-0.00000016,0.00000350,0.00000621,-0.00000
 200,0.00000019,-0.00000873,-0.00000119,-0.00000373,0.00000019,0.000000
 37,0.00000322,0.00000344,0.00000675,0.00000925,-0.00000421,-0.00000358
 ,-0.00000254,0.00000261,-0.00000247,0.00000506,-0.00000100,0.00000191,
 -0.00000256,-0.00000303,0.00001702,0.00002894,-0.00000504,-0.00000111,
 -0.00000653,0.00001100,0.00000381,-0.00000649,-0.00000684,-0.00001376,
 -0.00001576,-0.00000223,0.00000157,-0.00000714,-0.00000153,0.00000138,
 -0.00000082,-0.00000092,-0.00000028,0.00000177,-0.00000071,-0.00000333
 ,0.00000217,-0.00000024,0.00000044,0.00000112,-0.00000132,-0.00000062,
 0.00000044,0.00000073,0.00000057,0.00000014,0.00000012,-0.00000111,0.0
 0000154,-0.00000077,-0.00041180,-0.00075821,-0.00010875,0.00004380,-0.
 00002849,-0.00001874,-0.00004902,0.00000682,0.00000770,-0.00004023,-0.
 00001313,0.00010348,0.00003403,0.00000401,0.00003216,-0.00001938,-0.00
 000683,0.00002915,0.00000364,-0.00001818,-0.00002281,0.00000266,0.0000
 0327,-0.00000197,-0.00001223,0.00005856,-0.00003403,0.00000507,-0.0000
 0113,-0.00001528,0.00001819,0.00000198,0.00001289,-0.00000565,-0.00000
 180,-0.00000458,-0.00000894,-0.00001822,0.00000423,0.00001468,0.000000
 78,-0.00000333,-0.00001079,0.00001550,0.00000442,-0.00000502,0.0000027
 9,-0.00000552,0.00000655,0.00000146,0.00000187,-0.00000146,0.00000098,
 -0.00000084,-0.00000070,-0.00000059,-0.00000188,0.00000031,0.00000035,
 0.00000104,-0.00000612,-0.00000435,-0.00000710,-0.00000331,-0.00000215
 ,-0.00000045,-0.00000046,-0.00000670,-0.00000738,-0.00001419,0.0000136
 7,-0.00001204,0.00045973,0.00037120,0.00205050,-0.00204269,-0.00116699
 ,-0.00101654,0.00002266,-0.00006897,-0.00023026,0.00011904,-0.00014978
 ,-0.00092470,0.07103514,0.07490123,0.07081273\\0.00000457,-0.00000134,
 0.00000535,0.00000253,0.00000597,-0.00000511,0.00000234,-0.00000243,0.
 00000385,-0.00000151,-0.00000134,0.00000111,-0.00000634,0.00000263,-0.
 00000483,-0.00000636,0.00000638,-0.00000641,-0.00000560,0.00000232,-0.
 00000129,0.00000046,-0.00000293,0.00000324,-0.00000182,-0.00000284,0.0
 0000242,-0.00000137,-0.00000554,0.00000286,-0.00000015,-0.00000200,0.0
 0000050,0.00000040,0.00000202,-0.00000193,0.00000037,0.00000099,0.0000
 0186,-0.00000323,0.00000145,0.00000064,0.00000048,-0.00000117,-0.00000
 022,0.00000142,0.00000120,0.00000175,0.00000172,-0.00000118,-0.0000004
 7,0.00000115,0.00000179,0.00000150,0.00000131,-0.00000434,-0.00000405,
 0.00000116,0.00000182,0.00000136,0.00000097,0.00000356,0.00000183,-0.0
 0000107,-0.00000024,-0.00000218,-0.00000173,0.00000108,-0.00000220,0.0
 0000093,-0.00000021,0.00000111,0.00000201,-0.00000010,0.00000270,-0.00
 000592,0.00000062,0.00000242,0.00000094,-0.00000677,0.00000168,0.00000
 072,-0.00000130,-0.00000119,-0.00000640,0.00000634,-0.00000474,0.00000
 245,0.00000470,0.00000426,0.00000232,0.00000194,-0.00000273,0.00000207
 ,0.00000011,-0.00000054,-0.00000178,0.00000231,0.00000167,0.00000044,-
 0.00000148,0.00000013,0.00000285,-0.00000105,0.00000058,0.00000196,-0.
 00000213,0.00000050,0.00000412,0.00000178,-0.00000219,-0.00000003,0.00
 000085,-0.00000104,-0.00000012,-0.00000067,0.00000052,-0.00000087,-0.0
 0000121,0.00000074,0.00000321,-0.00000224,-0.00000110,-0.00000128,-0.0
 0000039,0.00000193,-0.00000065,-0.00000178,0.00000236,-0.00000013,-0.0
 0000163,0.00000298,0.00000331,-0.00000042,-0.00000003,0.00000011,-0.00
 000070,0.00000107,-0.00000181,-0.00000020,0.00000174,-0.00000480,-0.00
 000059,0.00000082,0.00000054,-0.00000207,0.00000385,0.00000074,-0.0000
 0099,-0.00000296,0.00000319,0.00000197,-0.00000286,0.00000384,-0.00000
 133,-0.00000123,0.00000865,0.00000296,-0.00000888,0.00000237,-0.000000
 60,0.00000011,0.00000179,0.00000001,-0.00000150,-0.00000224,-0.0000006
 8,-0.00000050,-0.00000449,0.00000528,-0.00000254,0.00000675,-0.0000053
 8,-0.00000071,0.00000316,-0.00000035,-0.00000161,0.00000738,0.00000032
 ,-0.00000115,-0.00000369,0.00000050,0.00000198,0.00000256,0.00000190,-
 0.00000128,0.00000593,-0.00000233,-0.00000183,0.00000183,0.00000325,-0
 .00000617,0.00000061,-0.00000476,0.00000024,0.00000054,0.00000368,-0.0
 0000123,0.00000088,0.00000517,-0.00000423,-0.00000093,0.00000246,-0.00
 000318,0.00000306,0.00000342,-0.00000234,-0.00000165,0.00000151,-0.000
 00257,-0.00000346,0.00000175,0.00000015,-0.00000231,0.00000057,-0.0000
 0068,-0.00000534,0.00000095,-0.00000421,-0.00000036,0.00000206,-0.0000
 0152,0.,0.00000335,0.00000024,-0.00000162,0.00000035,-0.00000069,-0.00
 000507,-0.00000142,-0.00000153,0.00000181,0.00000231,-0.00000090,0.000
 00096,0.00000187,-0.00000248,0.00000149,0.00000236,-0.00000262,-0.0000
 0340,0.,0.00000098,0.00000082,-0.00000194,-0.00000248,0.00000357,-0.00
 000397,0.00000265,-0.00000062,0.00000142,0.00000313,-0.00000893,0.0000
 0263,0.00000263,0.00000069,-0.00000377,-0.00000107,0.00000418,-0.00000
 027,0.00000520,0.00000497,-0.00000529,0.00000014,0.00000023,-0.0000019
 7,0.00000188,0.00000095,-0.00000103,0.00000204,-0.00000712,-0.00000588
 ,0.00000893,0.00000478,-0.00000113,-0.00000053,0.00000042,-0.00000122,
 0.00000456,-0.00000286,-0.00000149,0.00000342,-0.00000165,-0.00000151,
 0.00000052,-0.00000084,-0.00000216,0.00000118,0.00000119,-0.00000328,-
 0.00000126,-0.00000033,-0.00000410,0.00000423,-0.00000163,0.00000043,0
 .00000699,-0.00000094,-0.00000359,0.00000471,-0.00000445,-0.00000021,-
 0.00000173,0.00000041,0.00000063,0.00000378,-0.00000137,0.00000262,-0.
 00000478,0.00000077,-0.00000058,0.00000065,0.00000151,-0.00000069,-0.0
 0000159,-0.00000476,0.00000443,0.00000132,0.00000046,0.00000117,-0.000
 00155,-0.00000354,0.00000067,-0.00000196,-0.00000281,0.00000034,-0.000
 00037\\\@
 The archive entry for this job was punched.


 ... IT IS NO ONE DREAME THAT
     CAN PLEASE THESE ALL ...

                -- BEN JONSON
 Job cpu time:       2 days  3 hours  8 minutes 44.6 seconds.
 Elapsed time:       0 days  3 hours 15 minutes 19.5 seconds.
 File lengths (MBytes):  RWF=   9709 Int=      0 D2E=      0 Chk=     55 Scr=      1
 Normal termination of Gaussian 16 at Tue Dec 10 04:10:46 2024.
