/mnt/lustre/scratch/nvme/SLURM/9663789/usccqdma.CDLFqoMaNh
OMP_STACKSIZE=0m
GAUSS_PDEF=16
GAUSS_MDEF=65536MB
GAUSS_RDEF=SCF=Direct
 Entering Gaussian System, Link 0=g16.exe
 Initial command:
 /opt/cesga/2020/software/Core/g16/c1/l1.exe "/mnt/lustre/scratch/nvme/SLURM/9663789/usccqdma.CDLFqoMaNh/Gau-3458709.inp" -scrdir="/mnt/lustre/scratch/nvme/SLURM/9663789/usccqdma.CDLFqoMaNh/"
 Default is to use a total of  16 processors:
                               16 via shared-memory
                                1 via Linda
 Entering Link 1 = /opt/cesga/2020/software/Core/g16/c1/l1.exe PID=   3458735.
  
 Copyright (c) 1988-2019, Gaussian, Inc.  All Rights Reserved.
  
 This is part of the Gaussian(R) 16 program.  It is based on
 the Gaussian(R) 09 system (copyright 2009, Gaussian, Inc.),
 the Gaussian(R) 03 system (copyright 2003, Gaussian, Inc.),
 the Gaussian(R) 98 system (copyright 1998, Gaussian, Inc.),
 the Gaussian(R) 94 system (copyright 1995, Gaussian, Inc.),
 the Gaussian 92(TM) system (copyright 1992, Gaussian, Inc.),
 the Gaussian 90(TM) system (copyright 1990, Gaussian, Inc.),
 the Gaussian 88(TM) system (copyright 1988, Gaussian, Inc.),
 the Gaussian 86(TM) system (copyright 1986, Carnegie Mellon
 University), and the Gaussian 82(TM) system (copyright 1983,
 Carnegie Mellon University). Gaussian is a federally registered
 trademark of Gaussian, Inc.
  
 This software contains proprietary and confidential information,
 including trade secrets, belonging to Gaussian, Inc.
  
 This software is provided under written license and may be
 used, copied, transmitted, or stored only in accord with that
 written license.
  
 The following legend is applicable only to US Government
 contracts under FAR:
  
                    RESTRICTED RIGHTS LEGEND
  
 Use, reproduction and disclosure by the US Government is
 subject to restrictions as set forth in subparagraphs (a)
 and (c) of the Commercial Computer Software - Restricted
 Rights clause in FAR 52.227-19.
  
 Gaussian, Inc.
 340 Quinnipiac St., Bldg. 40, Wallingford CT 06492
  
  
 ---------------------------------------------------------------
 Warning -- This program may not be used in any manner that
 competes with the business of Gaussian, Inc. or will provide
 assistance to any competitor of Gaussian, Inc.  The licensee
 of this program is prohibited from giving any competitor of
 Gaussian, Inc. access to this program.  By using this program,
 the user acknowledges that Gaussian, Inc. is engaged in the
 business of creating and licensing software in the field of
 computational chemistry and represents and warrants to the
 licensee that it is not a competitor of Gaussian, Inc. and that
 it will not use this program in any manner prohibited above.
 ---------------------------------------------------------------
  

 Cite this work as:
 Gaussian 16, Revision C.01,
 M. J. Frisch, G. W. Trucks, H. B. Schlegel, G. E. Scuseria, 
 M. A. Robb, J. R. Cheeseman, G. Scalmani, V. Barone, 
 G. A. Petersson, H. Nakatsuji, X. Li, M. Caricato, A. V. Marenich, 
 J. Bloino, B. G. Janesko, R. Gomperts, B. Mennucci, H. P. Hratchian, 
 J. V. Ortiz, A. F. Izmaylov, J. L. Sonnenberg, D. Williams-Young, 
 F. Ding, F. Lipparini, F. Egidi, J. Goings, B. Peng, A. Petrone, 
 T. Henderson, D. Ranasinghe, V. G. Zakrzewski, J. Gao, N. Rega, 
 G. Zheng, W. Liang, M. Hada, M. Ehara, K. Toyota, R. Fukuda, 
 J. Hasegawa, M. Ishida, T. Nakajima, Y. Honda, O. Kitao, H. Nakai, 
 T. Vreven, K. Throssell, J. A. Montgomery, Jr., J. E. Peralta, 
 F. Ogliaro, M. J. Bearpark, J. J. Heyd, E. N. Brothers, K. N. Kudin, 
 V. N. Staroverov, T. A. Keith, R. Kobayashi, J. Normand, 
 K. Raghavachari, A. P. Rendell, J. C. Burant, S. S. Iyengar, 
 J. Tomasi, M. Cossi, J. M. Millam, M. Klene, C. Adamo, R. Cammi, 
 J. W. Ochterski, R. L. Martin, K. Morokuma, O. Farkas, 
 J. B. Foresman, and D. J. Fox, Gaussian, Inc., Wallingford CT, 2019.
 
 ******************************************
 Gaussian 16:  ES64L-G16RevC.01  3-Jul-2019
                 7-Dec-2024 
 ******************************************
 Default route: SCF=Direct
 -
 #
 -
 1/38=1,172=1/1;
 2/12=2,17=6,18=5,40=1/2;
 3/11=9,25=1,30=1/1,2,3;
 4//1;
 5/5=2,38=5/2;
 6/7=2,8=2,9=2,10=2,28=1/1;
 99/5=1,9=1/99;
 ----------------------------------------------------------------------
 /Users/danielmarcosatanes/Desktop/Tesis/sp3/Estructuras_supporting_gjf
 /44f/N-CH3/5-CF3-Bipy/OA/σ-(R-H)Ir(Bpin)3/L27-σ-(R-H)Ir(Bpin)3.log
 ----------------------------------------------------------------------
 Symbolic Z-matrix:
 Charge =  0 Multiplicity = 1
 C                    -1.96919  -1.91057   1.7106 
 C                    -2.69582  -0.35316   0.15466 
 C                    -3.90617  -1.01187  -0.00477 
 C                    -4.14311  -2.17421   0.72223 
 C                    -3.16086  -2.62855   1.58868 
 C                    -0.86059  -2.33853   2.59006 
 C                     1.37973  -2.09091   3.12006 
 C                     1.2984   -3.03204   4.13781 
 C                     0.07168  -3.63876   4.37982 
 C                    -1.02099  -3.28679   3.59999 
 H                    -2.44158   0.54925  -0.40702 
 H                    -5.0793   -2.71659   0.60693 
 H                    -3.31204  -3.55016   2.14493 
 H                     2.31258  -1.57773   2.88394 
 H                    -0.03702  -4.37553   5.17308 
 H                    -1.99407  -3.73354   3.78967 
 N                    -1.75278  -0.78687   0.99787 
 N                     0.33115  -1.75065   2.36621 
 Ir                    0.46183  -0.18861   0.69434 
 O                    -0.97927   1.87732  -0.9256 
 O                     0.12509  -1.20652  -2.14568 
 O                     3.32879   0.75073   1.01246 
 B                     0.4474   -1.47417  -0.82603 
 B                     0.26029   1.24511  -0.72818 
 B                     2.41424   0.0098    0.25153 
 O                     3.07768  -0.60854  -0.80655 
 O                     1.17658   1.74251  -1.63865 
 C                     0.56393   2.78391  -2.41441 
 C                    -0.95769   2.5137   -2.218 
 C                     4.54721   0.84842   0.25547 
 C                     4.48503  -0.42782  -0.6318 
 C                    -0.17001  -2.45803  -2.78162 
 C                     0.64499  -3.46173  -1.91694 
 O                     0.605    -2.84032  -0.6203 
 C                    -1.82626   3.75666  -2.18618 
 H                    -2.88436   3.46587  -2.11611 
 H                    -1.59395   4.39574  -1.32638 
 H                    -1.70435   4.33478  -3.11407 
 C                    -1.53174   1.50852  -3.21039 
 H                    -1.61026   1.93329  -4.22069 
 H                    -0.92488   0.59489  -3.24455 
 H                    -2.54583   1.23184  -2.8826 
 C                     1.00156   4.1157   -1.82253 
 H                     0.68138   4.96147  -2.44628 
 H                     0.58861   4.25793  -0.81593 
 H                     2.09826   4.13351  -1.75773 
 C                     1.05659   2.65544  -3.84242 
 H                     0.90117   1.64075  -4.22752 
 H                     0.5486    3.37198  -4.50413 
 H                     2.13423   2.86671  -3.87668 
 C                    -1.67667  -2.66086  -2.67257 
 H                    -2.01691  -3.55206  -3.21731 
 H                    -1.9874   -2.75445  -1.62138 
 H                    -2.18444  -1.78288  -3.09354 
 C                     0.24275  -2.37977  -4.23701 
 H                     0.12525  -3.3543   -4.73273 
 H                    -0.3911   -1.65428  -4.76445 
 H                     1.28358  -2.05413  -4.3385 
 C                     0.04396  -4.84903  -1.81942 
 H                    -0.95501  -4.82662  -1.36862 
 H                    -0.02998  -5.31408  -2.81314 
 H                     0.68268  -5.48681  -1.19482 
 C                     2.1082   -3.54857  -2.33006 
 H                     2.5572   -2.5486   -2.3916 
 H                     2.65333  -4.11281  -1.56179 
 H                     2.23214  -4.06661  -3.2909 
 C                     5.13461  -0.28976  -1.99471 
 H                     5.05302  -1.23912  -2.54108 
 H                     4.64162   0.48501  -2.59211 
 H                     6.20259  -0.04389  -1.90192 
 C                     5.01343  -1.67267   0.0712 
 H                     6.10694  -1.65888   0.17647 
 H                     4.56537  -1.78251   1.06809 
 H                     4.73265  -2.55395  -0.52008 
 C                     5.72197   0.90493   1.21125 
 H                     5.67815   1.83227   1.79701 
 H                     5.7175    0.06284   1.91266 
 H                     6.67444   0.89728   0.66153 
 C                     4.47411   2.1352   -0.55746 
 H                     3.61628   2.1144   -1.24338 
 H                     4.3376    2.98021   0.13123 
 H                     5.39462   2.31087  -1.13082 
 C                    -0.97182   3.55622   1.71102 
 O                    -1.02735   4.59425   1.062 
 C                    -2.24491   2.81233   2.1025 
 C                     0.43379   1.84727   2.90664 
 N                     0.22399   3.07798   2.18816 
 C                     1.45654   3.75475   1.83153 
 H                     2.17951  -3.27826   4.72465 
 C                    -4.89349  -0.51255  -1.01419 
 C                    -2.64153   3.24755   3.51426 
 H                    -2.06477   1.72676   2.09079 
 C                    -3.35846   3.10694   1.11168 
 H                     1.1553    1.20552   2.35073 
 H                    -0.49519   1.30147   3.08419 
 H                     0.90652   2.04007   3.8838 
 H                    -4.28309   2.59733   1.41809 
 H                    -3.08282   2.76131   0.10785 
 H                    -3.55125   4.18509   1.05445 
 H                    -3.57917   2.76513   3.82087 
 H                    -2.80022   4.33498   3.5343 
 H                    -1.87349   3.00885   4.26243 
 H                     2.07664   3.89261   2.72907 
 H                     1.21419   4.72828   1.40118 
 H                     2.02491   3.15036   1.10627 
 F                    -4.77895   0.80247  -1.21049 
 F                    -6.14976  -0.76675  -0.631 
 F                    -4.71449  -1.10997  -2.19894 
 
 Stoichiometry    C35H56B3F3IrN3O7
 Framework group  C1[X(C35H56B3F3IrN3O7)]
 Deg. of freedom   318
 Full point group                 C1      NOp   1
 Largest Abelian subgroup         C1      NOp   1
 Largest concise Abelian subgroup C1      NOp   1
                         Standard orientation:                         
 ---------------------------------------------------------------------
 Center     Atomic      Atomic             Coordinates (Angstroms)
 Number     Number       Type             X           Y           Z
 ---------------------------------------------------------------------
      1          6           0       -1.969188   -1.910572    1.710599
      2          6           0       -2.695819   -0.353162    0.154659
      3          6           0       -3.906169   -1.011873   -0.004771
      4          6           0       -4.143108   -2.174213    0.722229
      5          6           0       -3.160858   -2.628552    1.588679
      6          6           0       -0.860588   -2.338531    2.590059
      7          6           0        1.379732   -2.090909    3.120059
      8          6           0        1.298402   -3.032039    4.137809
      9          6           0        0.071683   -3.638760    4.379819
     10          6           0       -1.020987   -3.286791    3.599989
     11          1           0       -2.441580    0.549248   -0.407021
     12          1           0       -5.079298   -2.716594    0.606929
     13          1           0       -3.312037   -3.550163    2.144929
     14          1           0        2.312581   -1.577729    2.883939
     15          1           0       -0.037017   -4.375530    5.173079
     16          1           0       -1.994067   -3.733542    3.789669
     17          7           0       -1.752779   -0.786871    0.997869
     18          7           0        0.331151   -1.750650    2.366209
     19         77           0        0.461830   -0.188610    0.694339
     20          8           0       -0.979271    1.877319   -0.925601
     21          8           0        0.125091   -1.206520   -2.145681
     22          8           0        3.328790    0.750732    1.012459
     23          5           0        0.447401   -1.474170   -0.826031
     24          5           0        0.260290    1.245110   -0.728181
     25          5           0        2.414240    0.009801    0.251529
     26          8           0        3.077681   -0.608538   -0.806551
     27          8           0        1.176579    1.742510   -1.638651
     28          6           0        0.563929    2.783910   -2.414411
     29          6           0       -0.957691    2.513699   -2.218001
     30          6           0        4.547210    0.848423    0.255469
     31          6           0        4.485031   -0.427817   -0.631801
     32          6           0       -0.170008   -2.458030   -2.781621
     33          6           0        0.644993   -3.461730   -1.916941
     34          8           0        0.605002   -2.840320   -0.620301
     35          6           0       -1.826262    3.756658   -2.186181
     36          1           0       -2.884362    3.465868   -2.116111
     37          1           0       -1.593953    4.395739   -1.326381
     38          1           0       -1.704352    4.334779   -3.114071
     39          6           0       -1.531741    1.508519   -3.210391
     40          1           0       -1.610261    1.933289   -4.220691
     41          1           0       -0.924880    0.594889   -3.244551
     42          1           0       -2.545830    1.231838   -2.882601
     43          6           0        1.001558    4.115700   -1.822531
     44          1           0        0.681377    4.961470   -2.446281
     45          1           0        0.588608    4.257930   -0.815931
     46          1           0        2.098258    4.133511   -1.757731
     47          6           0        1.056589    2.655440   -3.842421
     48          1           0        0.901169    1.640750   -4.227521
     49          1           0        0.548598    3.371980   -4.504131
     50          1           0        2.134228    2.866711   -3.876681
     51          6           0       -1.676668   -2.660861   -2.672571
     52          1           0       -2.016907   -3.552062   -3.217311
     53          1           0       -1.987398   -2.754452   -1.621381
     54          1           0       -2.184438   -1.782882   -3.093541
     55          6           0        0.242752   -2.379770   -4.237011
     56          1           0        0.125253   -3.354300   -4.732731
     57          1           0       -0.391099   -1.654281   -4.764451
     58          1           0        1.283582   -2.054130   -4.338501
     59          6           0        0.043964   -4.849030   -1.819421
     60          1           0       -0.955006   -4.826621   -1.368621
     61          1           0       -0.029976   -5.314080   -2.813141
     62          1           0        0.682684   -5.486810   -1.194821
     63          6           0        2.108203   -3.548569   -2.330061
     64          1           0        2.557202   -2.548599   -2.391601
     65          1           0        2.653333   -4.112809   -1.561791
     66          1           0        2.232143   -4.066609   -3.290901
     67          6           0        5.134611   -0.289757   -1.994711
     68          1           0        5.053021   -1.239117   -2.541081
     69          1           0        4.641620    0.485013   -2.592111
     70          1           0        6.202590   -0.043886   -1.901921
     71          6           0        5.013431   -1.672667    0.071199
     72          1           0        6.106941   -1.658876    0.176469
     73          1           0        4.565372   -1.782507    1.068089
     74          1           0        4.732652   -2.553947   -0.520081
     75          6           0        5.721970    0.904933    1.211249
     76          1           0        5.678149    1.832273    1.797009
     77          1           0        5.717500    0.062843    1.912659
     78          1           0        6.674440    0.897284    0.661529
     79          6           0        4.474109    2.135203   -0.557461
     80          1           0        3.616279    2.114402   -1.243381
     81          1           0        4.337598    2.980213    0.131229
     82          1           0        5.394619    2.310873   -1.130821
     83          6           0       -0.971822    3.556219    1.711019
     84          8           0       -1.027353    4.594249    1.061999
     85          6           0       -2.244912    2.812328    2.102499
     86          6           0        0.433789    1.847270    2.906639
     87          7           0        0.223988    3.077980    2.188159
     88          6           0        1.456538    3.754751    1.831529
     89          1           0        2.179512   -3.278259    4.724649
     90          6           0       -4.893489   -0.512554   -1.014191
     91          6           0       -2.641532    3.247548    3.514259
     92          1           0       -2.064771    1.726758    2.090789
     93          6           0       -3.358462    3.106937    1.111679
     94          1           0        1.155300    1.205520    2.350729
     95          1           0       -0.495191    1.301469    3.084189
     96          1           0        0.906519    2.040070    3.883799
     97          1           0       -4.283091    2.597327    1.418089
     98          1           0       -3.082821    2.761308    0.107849
     99          1           0       -3.551252    4.185087    1.054449
    100          1           0       -3.579171    2.765127    3.820869
    101          1           0       -2.800222    4.334978    3.534299
    102          1           0       -1.873492    3.008848    4.262429
    103          1           0        2.076638    3.892611    2.729069
    104          1           0        1.214187    4.728280    1.401179
    105          1           0        2.024908    3.150361    1.106269
    106          9           0       -4.778950    0.802467   -1.210491
    107          9           0       -6.149759   -0.766754   -0.631001
    108          9           0       -4.714489   -1.109973   -2.198941
 ---------------------------------------------------------------------
 Rotational constants (GHZ):           0.0646354           0.0541299           0.0489358
 Standard basis: STO-3G (5D, 7F)
 IA out of range in STO.
 Error termination via Lnk1e in /opt/cesga/2020/software/Core/g16/c1/l301.exe at Sat Dec  7 22:04:57 2024.
 Job cpu time:       0 days  0 hours  0 minutes  0.4 seconds.
 Elapsed time:       0 days  0 hours  0 minutes  0.1 seconds.
 File lengths (MBytes):  RWF=      6 Int=      0 D2E=      0 Chk=      1 Scr=      1
