/mnt/lustre/scratch/nvme/SLURM/9663717/usccqdma.wKM144dSk8
OMP_STACKSIZE=0m
GAUSS_PDEF=16
GAUSS_MDEF=65536MB
GAUSS_RDEF=SCF=Direct
 Entering Gaussian System, Link 0=g16.exe
 Initial command:
 /opt/cesga/2020/software/Core/g16/c1/l1.exe "/mnt/lustre/scratch/nvme/SLURM/9663717/usccqdma.wKM144dSk8/Gau-92302.inp" -scrdir="/mnt/lustre/scratch/nvme/SLURM/9663717/usccqdma.wKM144dSk8/"
 Default is to use a total of  16 processors:
                               16 via shared-memory
                                1 via Linda
 Entering Link 1 = /opt/cesga/2020/software/Core/g16/c1/l1.exe PID=     92329.
  
 Copyright (c) 1988-2019, Gaussian, Inc.  All Rights Reserved.
  
 This is part of the Gaussian(R) 16 program.  It is based on
 the Gaussian(R) 09 system (copyright 2009, Gaussian, Inc.),
 the Gaussian(R) 03 system (copyright 2003, Gaussian, Inc.),
 the Gaussian(R) 98 system (copyright 1998, Gaussian, Inc.),
 the Gaussian(R) 94 system (copyright 1995, Gaussian, Inc.),
 the Gaussian 92(TM) system (copyright 1992, Gaussian, Inc.),
 the Gaussian 90(TM) system (copyright 1990, Gaussian, Inc.),
 the Gaussian 88(TM) system (copyright 1988, Gaussian, Inc.),
 the Gaussian 86(TM) system (copyright 1986, Carnegie Mellon
 University), and the Gaussian 82(TM) system (copyright 1983,
 Carnegie Mellon University). Gaussian is a federally registered
 trademark of Gaussian, Inc.
  
 This software contains proprietary and confidential information,
 including trade secrets, belonging to Gaussian, Inc.
  
 This software is provided under written license and may be
 used, copied, transmitted, or stored only in accord with that
 written license.
  
 The following legend is applicable only to US Government
 contracts under FAR:
  
                    RESTRICTED RIGHTS LEGEND
  
 Use, reproduction and disclosure by the US Government is
 subject to restrictions as set forth in subparagraphs (a)
 and (c) of the Commercial Computer Software - Restricted
 Rights clause in FAR 52.227-19.
  
 Gaussian, Inc.
 340 Quinnipiac St., Bldg. 40, Wallingford CT 06492
  
  
 ---------------------------------------------------------------
 Warning -- This program may not be used in any manner that
 competes with the business of Gaussian, Inc. or will provide
 assistance to any competitor of Gaussian, Inc.  The licensee
 of this program is prohibited from giving any competitor of
 Gaussian, Inc. access to this program.  By using this program,
 the user acknowledges that Gaussian, Inc. is engaged in the
 business of creating and licensing software in the field of
 computational chemistry and represents and warrants to the
 licensee that it is not a competitor of Gaussian, Inc. and that
 it will not use this program in any manner prohibited above.
 ---------------------------------------------------------------
  

 Cite this work as:
 Gaussian 16, Revision C.01,
 M. J. Frisch, G. W. Trucks, H. B. Schlegel, G. E. Scuseria, 
 M. A. Robb, J. R. Cheeseman, G. Scalmani, V. Barone, 
 G. A. Petersson, H. Nakatsuji, X. Li, M. Caricato, A. V. Marenich, 
 J. Bloino, B. G. Janesko, R. Gomperts, B. Mennucci, H. P. Hratchian, 
 J. V. Ortiz, A. F. Izmaylov, J. L. Sonnenberg, D. Williams-Young, 
 F. Ding, F. Lipparini, F. Egidi, J. Goings, B. Peng, A. Petrone, 
 T. Henderson, D. Ranasinghe, V. G. Zakrzewski, J. Gao, N. Rega, 
 G. Zheng, W. Liang, M. Hada, M. Ehara, K. Toyota, R. Fukuda, 
 J. Hasegawa, M. Ishida, T. Nakajima, Y. Honda, O. Kitao, H. Nakai, 
 T. Vreven, K. Throssell, J. A. Montgomery, Jr., J. E. Peralta, 
 F. Ogliaro, M. J. Bearpark, J. J. Heyd, E. N. Brothers, K. N. Kudin, 
 V. N. Staroverov, T. A. Keith, R. Kobayashi, J. Normand, 
 K. Raghavachari, A. P. Rendell, J. C. Burant, S. S. Iyengar, 
 J. Tomasi, M. Cossi, J. M. Millam, M. Klene, C. Adamo, R. Cammi, 
 J. W. Ochterski, R. L. Martin, K. Morokuma, O. Farkas, 
 J. B. Foresman, and D. J. Fox, Gaussian, Inc., Wallingford CT, 2019.
 
 ******************************************
 Gaussian 16:  ES64L-G16RevC.01  3-Jul-2019
                 7-Dec-2024 
 ******************************************
 Default route: SCF=Direct
 ----------------------------------------------------
 # m06/genecp scf=tight int=ultrafine 5d freq=noraman
 ----------------------------------------------------
 1/10=4,30=1,38=1/1,3;
 2/12=2,17=6,18=5,40=1/2;
 3/5=7,8=1,11=2,16=1,17=8,25=1,30=1,71=2,74=-54,75=-5,140=1/1,2,3;
 4//1;
 5/5=2,32=2,38=5,98=1/2;
 8/6=4,10=90,11=11/1;
 11/6=1,8=1,9=11,15=111,16=1/1,2,10;
 10/6=1/2;
 6/7=2,8=2,9=2,10=2,28=1/1;
 7/8=1,10=1,25=1/1,2,3,16;
 1/10=4,30=1/3;
 99//99;
 ------
 OPT-TS
 ------
 Symbolic Z-matrix:
 Charge =  0 Multiplicity = 1
 C                    -1.86726  -1.54609  -1.37205 
 C                    -1.17955  -0.60979  -3.36883 
 C                    -2.32777  -1.02878  -4.02726 
 C                    -3.28826  -1.72321  -3.30085 
 C                    -3.05216  -1.99241  -1.96108 
 C                    -1.51168  -1.83366   0.02925 
 C                    -0.10615  -1.37081   1.81104 
 C                    -0.677    -2.37177   2.58447 
 C                    -1.70836  -3.13416   2.04401 
 C                    -2.13026  -2.85484   0.75274 
 H                    -0.39254  -0.06338  -3.88561 
 H                    -4.21065  -2.05622  -3.77253 
 H                    -3.79163  -2.53485  -1.37551 
 H                     0.7277   -0.76513   2.17039 
 H                    -2.16925  -3.94043   2.61205 
 H                    -2.91501  -3.45264   0.29309 
 N                    -0.95954  -0.84147  -2.07283 
 N                    -0.5058   -1.09969   0.5575 
 Ir                    0.73769   0.07396  -0.8401 
 O                     1.58929  -2.77491  -0.63723 
 O                     2.30466   0.58072   1.71519 
 O                    -0.79285   1.97778  -0.80925 
 B                     2.15598   0.8767    0.33705 
 B                     2.02282  -1.44975  -0.82419 
 B                    -1.51495   2.39342   0.37072 
 O                    -2.1385    3.63329   0.08424 
 O                     3.41819  -1.42957  -0.90784 
 C                     3.88045  -2.78043  -0.99893 
 C                     2.73398  -3.56458  -0.30556 
 C                    -0.68782   3.14184  -1.65057 
 C                    -2.02266   3.86096  -1.31444 
 C                     3.527     1.16678   2.17888 
 C                     3.7362    2.33179   1.16969 
 O                     3.10685   1.83569  -0.0105 
 C                     2.53279  -4.98177  -0.80376 
 H                     2.28575  -5.00186  -1.87092 
 H                     3.43558  -5.58843  -0.64043 
 H                     1.70487  -5.45322  -0.25774 
 C                     2.85086  -3.55846   1.21528 
 H                     1.90736  -3.93036   1.63844 
 H                     3.66792  -4.19908   1.57511 
 H                     3.00893  -2.53572   1.58843 
 C                     4.01438  -3.11558  -2.47979 
 H                     4.44308  -4.11442  -2.64073 
 H                     3.04095  -3.06352  -2.98421 
 H                     4.67508  -2.3751   -2.9474 
 C                     5.23351  -2.89845  -0.325 
 H                     5.96857  -2.28641  -0.86402 
 H                     5.20458  -2.5518    0.71426 
 H                     5.58578  -3.94045  -0.33556 
 C                     3.35124   1.5931    3.62344 
 H                     4.23982   2.12729   3.98998 
 H                     2.47734   2.2448    3.74773 
 H                     3.20732   0.7071    4.25699 
 C                     4.60515   0.09626   2.07344 
 H                     4.71807  -0.23023   1.03082 
 H                     5.57532   0.44401   2.45391 
 H                     4.29736  -0.77485   2.66948 
 C                     3.01205   3.61167   1.57305 
 H                     1.9571    3.4178    1.8111 
 H                     3.4837    4.09972   2.43729 
 H                     3.03682   4.3097    0.72631 
 C                     5.18693   2.65118   0.86085 
 H                     5.72823   2.95325   1.76973 
 H                     5.69915   1.79381   0.41172 
 H                     5.23516   3.48178   0.14511 
 C                    -2.01452   5.35696  -1.56429 
 H                    -1.81632   5.58315  -2.62176 
 H                    -2.99444   5.77955  -1.30559 
 H                    -1.25925   5.85873  -0.94948 
 C                    -3.21799   3.22446  -2.02022 
 H                    -3.2573    3.49158  -3.08554 
 H                    -3.19631   2.12941  -1.93316 
 H                    -4.13681   3.58573  -1.54051 
 C                    -0.54177   2.73685  -3.1018 
 H                    -1.34772   2.06443  -3.41911 
 H                    -0.56034   3.62799  -3.74594 
 H                     0.41925   2.2258   -3.24826 
 C                     0.5382    3.93309  -1.21233 
 H                     0.41324   4.31855  -0.19034 
 H                     1.41488   3.27107  -1.22253 
 H                     0.7307    4.78447  -1.87997 
 H                     1.67489   0.71854  -1.97893 
 C                    -2.62301   0.90113   1.85961 
 O                    -2.66908   1.26108   0.64496 
 C                    -3.63603  -0.05495   2.40701 
 H                    -3.0975   -0.93434   2.79842 
 H                    -4.12616   0.40806   3.27865 
 C                    -0.79048   2.31419   1.82851 
 H                    -0.76445   3.29277   2.3314 
 H                     0.22648   1.89287   1.8092 
 N                    -1.64753   1.40936   2.59976 
 C                    -1.35966   1.11712   3.98207 
 H                    -0.32575   0.75248   4.06575 
 H                    -1.45153   2.02927   4.58698 
 H                    -2.03591   0.35596   4.38323 
 C                    -4.67223  -0.49987   1.38872 
 H                    -5.25371   0.36743   1.04242 
 H                    -4.15623  -0.88382   0.49544 
 C                    -5.59494  -1.56798   1.9516 
 H                    -4.99092  -2.40916   2.33823 
 H                    -6.14383  -1.17081   2.82324 
 C                    -6.58593  -2.0951    0.92524 
 H                    -7.17282  -1.2549    0.52114 
 H                    -6.02775  -2.50856   0.06777 
 C                    -7.51481  -3.1527    1.49642 
 H                    -8.21915  -3.52969   0.74506 
 H                    -6.94701  -4.01128   1.88164 
 H                    -8.1039   -2.74953   2.33174 
 H                    -0.29953  -2.55668   3.58824 
 H                    -2.46207  -0.80936  -5.08351 
 

 GradGradGradGradGradGradGradGradGradGradGradGradGradGradGradGradGradGrad
 Berny optimization.
 Initialization pass.
 Trust Radius=3.00D-01 FncErr=1.00D-07 GrdErr=1.00D-07 EigMax=2.50D+02 EigMin=1.00D-04
 Number of steps in this run=      2 maximum allowed number of steps=      2.
 GradGradGradGradGradGradGradGradGradGradGradGradGradGradGradGradGradGrad

 Stoichiometry    C36H61B3IrN3O7
 Framework group  C1[X(C36H61B3IrN3O7)]
 Deg. of freedom   327
 Full point group                 C1      NOp   1
 Largest Abelian subgroup         C1      NOp   1
 Largest concise Abelian subgroup C1      NOp   1
                         Standard orientation:                         
 ---------------------------------------------------------------------
 Center     Atomic      Atomic             Coordinates (Angstroms)
 Number     Number       Type             X           Y           Z
 ---------------------------------------------------------------------
      1          6           0       -1.867258   -1.546091   -1.372051
      2          6           0       -1.179549   -0.609790   -3.368831
      3          6           0       -2.327768   -1.028781   -4.027261
      4          6           0       -3.288258   -1.723212   -3.300851
      5          6           0       -3.052158   -1.992412   -1.961081
      6          6           0       -1.511678   -1.833660    0.029249
      7          6           0       -0.106148   -1.370809    1.811039
      8          6           0       -0.676997   -2.371770    2.584469
      9          6           0       -1.708357   -3.134160    2.044009
     10          6           0       -2.130257   -2.854841    0.752739
     11          1           0       -0.392539   -0.063379   -3.885611
     12          1           0       -4.210648   -2.056222   -3.772531
     13          1           0       -3.791627   -2.534852   -1.375511
     14          1           0        0.727701   -0.765129    2.170389
     15          1           0       -2.169246   -3.940431    2.612049
     16          1           0       -2.915006   -3.452641    0.293089
     17          7           0       -0.959538   -0.841470   -2.072831
     18          7           0       -0.505798   -1.099690    0.557499
     19         77           0        0.737691    0.073961   -0.840101
     20          8           0        1.589293   -2.774908   -0.637231
     21          8           0        2.304660    0.580723    1.715189
     22          8           0       -0.792851    1.977780   -0.809251
     23          5           0        2.155980    0.876703    0.337049
     24          5           0        2.022822   -1.449748   -0.824191
     25          5           0       -1.514951    2.393420    0.370719
     26          8           0       -2.138502    3.633289    0.084239
     27          8           0        3.418192   -1.429567   -0.907841
     28          6           0        3.880453   -2.780426   -0.998931
     29          6           0        2.733984   -3.564577   -0.305561
     30          6           0       -0.687822    3.141840   -1.650571
     31          6           0       -2.022662    3.860959   -1.314441
     32          6           0        3.527000    1.166784    2.178879
     33          6           0        3.736199    2.331794    1.169689
     34          8           0        3.106849    1.835693   -0.010501
     35          6           0        2.532795   -4.981767   -0.803761
     36          1           0        2.285755   -5.001857   -1.870921
     37          1           0        3.435585   -5.588426   -0.640431
     38          1           0        1.704875   -5.453218   -0.257741
     39          6           0        2.850864   -3.558457    1.215279
     40          1           0        1.907364   -3.930358    1.638439
     41          1           0        3.667924   -4.199076    1.575109
     42          1           0        3.008933   -2.535717    1.588429
     43          6           0        4.014383   -3.115576   -2.479791
     44          1           0        4.443084   -4.114416   -2.640731
     45          1           0        3.040953   -3.063517   -2.984211
     46          1           0        4.675083   -2.375096   -2.947401
     47          6           0        5.233513   -2.898445   -0.325001
     48          1           0        5.968573   -2.286405   -0.864021
     49          1           0        5.204583   -2.551795    0.714259
     50          1           0        5.585784   -3.940445   -0.335561
     51          6           0        3.351240    1.593103    3.623439
     52          1           0        4.239819    2.127294    3.989979
     53          1           0        2.477339    2.244803    3.747729
     54          1           0        3.207320    0.707103    4.256989
     55          6           0        4.605151    0.096264    2.073439
     56          1           0        4.718071   -0.230226    1.030819
     57          1           0        5.575321    0.444015    2.453909
     58          1           0        4.297361   -0.774846    2.669479
     59          6           0        3.012048    3.611673    1.573049
     60          1           0        1.957098    3.417802    1.811099
     61          1           0        3.483698    4.099724    2.437289
     62          1           0        3.036818    4.309703    0.726309
     63          6           0        5.186929    2.651185    0.860849
     64          1           0        5.728229    2.953255    1.769729
     65          1           0        5.699150    1.793815    0.411719
     66          1           0        5.235158    3.481785    0.145109
     67          6           0       -2.014523    5.356959   -1.564291
     68          1           0       -1.816323    5.583149   -2.621761
     69          1           0       -2.994444    5.779549   -1.305591
     70          1           0       -1.259254    5.858730   -0.949481
     71          6           0       -3.217992    3.224458   -2.020221
     72          1           0       -3.257302    3.491578   -3.085541
     73          1           0       -3.196311    2.129408   -1.933161
     74          1           0       -4.136812    3.585728   -1.540511
     75          6           0       -0.541771    2.736850   -3.101801
     76          1           0       -1.347721    2.064430   -3.419111
     77          1           0       -0.560342    3.627990   -3.745941
     78          1           0        0.419249    2.225801   -3.248261
     79          6           0        0.538198    3.933091   -1.212331
     80          1           0        0.413238    4.318551   -0.190341
     81          1           0        1.414878    3.271072   -1.222531
     82          1           0        0.730697    4.784471   -1.879971
     83          1           0        1.674890    0.718542   -1.978931
     84          6           0       -2.623010    0.901129    1.859609
     85          8           0       -2.669080    1.261079    0.644959
     86          6           0       -3.636029   -0.054952    2.407009
     87          1           0       -3.097498   -0.934342    2.798419
     88          1           0       -4.126159    0.408058    3.278649
     89          6           0       -0.790481    2.314190    1.828509
     90          1           0       -0.764452    3.292770    2.331399
     91          1           0        0.226479    1.892871    1.809199
     92          7           0       -1.647530    1.409360    2.599759
     93          6           0       -1.359660    1.117120    3.982069
     94          1           0       -0.325750    0.752481    4.065749
     95          1           0       -1.451531    2.029270    4.586979
     96          1           0       -2.035909    0.355959    4.383229
     97          6           0       -4.672229   -0.499873    1.388719
     98          1           0       -5.253709    0.367427    1.042419
     99          1           0       -4.156228   -0.883822    0.495439
    100          6           0       -5.594938   -1.567983    1.951599
    101          1           0       -4.990917   -2.409163    2.338229
    102          1           0       -6.143828   -1.170814    2.823239
    103          6           0       -6.585927   -2.095104    0.925239
    104          1           0       -7.172818   -1.254905    0.521139
    105          1           0       -6.027747   -2.508564    0.067769
    106          6           0       -7.514807   -3.152705    1.496419
    107          1           0       -8.219146   -3.529696    0.745059
    108          1           0       -6.947006   -4.011285    1.881639
    109          1           0       -8.103897   -2.749535    2.331739
    110          1           0       -0.299527   -2.556679    3.588239
    111          1           0       -2.462068   -0.809361   -5.083511
 ---------------------------------------------------------------------
 Rotational constants (GHZ):           0.0727212           0.0535469           0.0453005
 General basis read from cards:  (5D, 7F)
 ======================================================================================================
                                       Pseudopotential Parameters
 ======================================================================================================
  Center     Atomic      Valence      Angular      Power
  Number     Number     Electrons     Momentum     of R      Exponent        Coefficient   SO-Coeffient
 ======================================================================================================
    1          6
                                   No pseudopotential on this center.
    2          6
                                   No pseudopotential on this center.
    3          6
                                   No pseudopotential on this center.
    4          6
                                   No pseudopotential on this center.
    5          6
                                   No pseudopotential on this center.
    6          6
                                   No pseudopotential on this center.
    7          6
                                   No pseudopotential on this center.
    8          6
                                   No pseudopotential on this center.
    9          6
                                   No pseudopotential on this center.
   10          6
                                   No pseudopotential on this center.
   11          1
                                   No pseudopotential on this center.
   12          1
                                   No pseudopotential on this center.
   13          1
                                   No pseudopotential on this center.
   14          1
                                   No pseudopotential on this center.
   15          1
                                   No pseudopotential on this center.
   16          1
                                   No pseudopotential on this center.
   17          7
                                   No pseudopotential on this center.
   18          7
                                   No pseudopotential on this center.
   19         77           17
                                      G and up 
                                                     1      823.5880147       -0.15780140    0.00000000
                                                     2      364.6613336    -1517.52704460    0.00000000
                                                     2       55.7082801     -316.53065290    0.00000000
                                                     2       12.0464544      -91.88809410    0.00000000
                                                     2        3.5120610       -9.22417730    0.00000000
                                      S - G
                                                     0      188.0490770        3.15780140    0.00000000
                                                     1      340.4194712       26.83225770    0.00000000
                                                     2      128.2373673      800.42500070    0.00000000
                                                     2       33.8644961      369.40506830    0.00000000
                                                     2        4.7560005      242.41718990    0.00000000
                                                     2        3.9649974     -118.21732820    0.00000000
                                      P - G
                                                     0      289.7291139        2.15780140    0.00000000
                                                     1       87.4633789       61.96786100    0.00000000
                                                     2       30.4363766      269.05819860    0.00000000
                                                     2        4.0553412      231.16547930    0.00000000
                                                     2        3.5525341     -133.69526670    0.00000000
                                      D - G
                                                     0      136.4017106        3.15780140    0.00000000
                                                     1       95.0776925       45.93498030    0.00000000
                                                     2       49.2258410      359.03446680    0.00000000
                                                     2       15.0874145      176.47401190    0.00000000
                                                     2        4.0405764       54.51552860    0.00000000
                                      F - G
                                                     0      127.3507908        3.95461970    0.00000000
                                                     1       66.2364374       52.97736550    0.00000000
                                                     2       34.4299229      274.86433830    0.00000000
                                                     2       10.1995721      137.20473380    0.00000000
                                                     2        2.5409702       14.86333050    0.00000000
   20          8
                                   No pseudopotential on this center.
   21          8
                                   No pseudopotential on this center.
   22          8
                                   No pseudopotential on this center.
   23          5
                                   No pseudopotential on this center.
   24          5
                                   No pseudopotential on this center.
   25          5
                                   No pseudopotential on this center.
   26          8
                                   No pseudopotential on this center.
   27          8
                                   No pseudopotential on this center.
   28          6
                                   No pseudopotential on this center.
   29          6
                                   No pseudopotential on this center.
   30          6
                                   No pseudopotential on this center.
   31          6
                                   No pseudopotential on this center.
   32          6
                                   No pseudopotential on this center.
   33          6
                                   No pseudopotential on this center.
   34          8
                                   No pseudopotential on this center.
   35          6
                                   No pseudopotential on this center.
   36          1
                                   No pseudopotential on this center.
   37          1
                                   No pseudopotential on this center.
   38          1
                                   No pseudopotential on this center.
   39          6
                                   No pseudopotential on this center.
   40          1
                                   No pseudopotential on this center.
   41          1
                                   No pseudopotential on this center.
   42          1
                                   No pseudopotential on this center.
   43          6
                                   No pseudopotential on this center.
   44          1
                                   No pseudopotential on this center.
   45          1
                                   No pseudopotential on this center.
   46          1
                                   No pseudopotential on this center.
   47          6
                                   No pseudopotential on this center.
   48          1
                                   No pseudopotential on this center.
   49          1
                                   No pseudopotential on this center.
   50          1
                                   No pseudopotential on this center.
   51          6
                                   No pseudopotential on this center.
   52          1
                                   No pseudopotential on this center.
   53          1
                                   No pseudopotential on this center.
   54          1
                                   No pseudopotential on this center.
   55          6
                                   No pseudopotential on this center.
   56          1
                                   No pseudopotential on this center.
   57          1
                                   No pseudopotential on this center.
   58          1
                                   No pseudopotential on this center.
   59          6
                                   No pseudopotential on this center.
   60          1
                                   No pseudopotential on this center.
   61          1
                                   No pseudopotential on this center.
   62          1
                                   No pseudopotential on this center.
   63          6
                                   No pseudopotential on this center.
   64          1
                                   No pseudopotential on this center.
   65          1
                                   No pseudopotential on this center.
   66          1
                                   No pseudopotential on this center.
   67          6
                                   No pseudopotential on this center.
   68          1
                                   No pseudopotential on this center.
   69          1
                                   No pseudopotential on this center.
   70          1
                                   No pseudopotential on this center.
   71          6
                                   No pseudopotential on this center.
   72          1
                                   No pseudopotential on this center.
   73          1
                                   No pseudopotential on this center.
   74          1
                                   No pseudopotential on this center.
   75          6
                                   No pseudopotential on this center.
   76          1
                                   No pseudopotential on this center.
   77          1
                                   No pseudopotential on this center.
   78          1
                                   No pseudopotential on this center.
   79          6
                                   No pseudopotential on this center.
   80          1
                                   No pseudopotential on this center.
   81          1
                                   No pseudopotential on this center.
   82          1
                                   No pseudopotential on this center.
   83          1
                                   No pseudopotential on this center.
   84          6
                                   No pseudopotential on this center.
   85          8
                                   No pseudopotential on this center.
   86          6
                                   No pseudopotential on this center.
   87          1
                                   No pseudopotential on this center.
   88          1
                                   No pseudopotential on this center.
   89          6
                                   No pseudopotential on this center.
   90          1
                                   No pseudopotential on this center.
   91          1
                                   No pseudopotential on this center.
   92          7
                                   No pseudopotential on this center.
   93          6
                                   No pseudopotential on this center.
   94          1
                                   No pseudopotential on this center.
   95          1
                                   No pseudopotential on this center.
   96          1
                                   No pseudopotential on this center.
   97          6
                                   No pseudopotential on this center.
   98          1
                                   No pseudopotential on this center.
   99          1
                                   No pseudopotential on this center.
  100          6
                                   No pseudopotential on this center.
  101          1
                                   No pseudopotential on this center.
  102          1
                                   No pseudopotential on this center.
  103          6
                                   No pseudopotential on this center.
  104          1
                                   No pseudopotential on this center.
  105          1
                                   No pseudopotential on this center.
  106          6
                                   No pseudopotential on this center.
  107          1
                                   No pseudopotential on this center.
  108          1
                                   No pseudopotential on this center.
  109          1
                                   No pseudopotential on this center.
  110          1
                                   No pseudopotential on this center.
  111          1
                                   No pseudopotential on this center.
 ======================================================================================================
 There are   881 symmetry adapted cartesian basis functions of A   symmetry.
 There are   830 symmetry adapted basis functions of A   symmetry.
   830 basis functions,  1659 primitive gaussians,   881 cartesian basis functions
   193 alpha electrons      193 beta electrons
       nuclear repulsion energy      8202.4205403402 Hartrees.
 NAtoms=  111 NActive=  111 NUniq=  111 SFac= 1.00D+00 NAtFMM=   60 NAOKFM=T Big=T
 Integral buffers will be    131072 words long.
 Raffenetti 2 integral format.
 Two-electron integral symmetry is turned on.
 One-electron integrals computed using PRISM.
   1 Symmetry operations used in ECPInt.
 ECPInt:  NShTT=   53301 NPrTT=  320676 LenC2=   40837 LenP2D=  125424.
 LDataN:  DoStor=T MaxTD1= 6 Len=  172
 NBasis=   830 RedAO= T EigKep=  5.93D-04  NBF=   830
 NBsUse=   830 1.00D-06 EigRej= -1.00D+00 NBFU=   830
 Defaulting to unpruned grid for atomic number  77.
 ExpMin= 2.90D-02 ExpMax= 5.48D+03 ExpMxC= 8.25D+02 IAcc=3 IRadAn=         5 AccDes= 0.00D+00
 Harris functional with IExCor= 1009 and IRadAn=       5 diagonalized for initial guess.
 HarFok:  IExCor= 1009 AccDes= 0.00D+00 IRadAn=         5 IDoV= 1 UseB2=F ITyADJ=14
 ICtDFT=  3500011 ScaDFX=  1.000000  1.000000  1.000000  1.000000
 Defaulting to unpruned grid for atomic number  77.
 FoFCou: FMM=F IPFlag=           0 FMFlag=      100000 FMFlg1=        2001
         NFxFlg=           0 DoJE=T BraDBF=F KetDBF=T FulRan=T
         wScrn=  0.000000 ICntrl=       500 IOpCl=  0 I1Cent=   200000004 NGrid=           0
         NMat0=    1 NMatS0=      1 NMatT0=    0 NMatD0=    1 NMtDS0=    0 NMtDT0=    0
 Petite list used in FoFCou.
 Requested convergence on RMS density matrix=1.00D-08 within 128 cycles.
 Requested convergence on MAX density matrix=1.00D-06.
 Requested convergence on             energy=1.00D-06.
 No special actions if energy rises.
 Defaulting to unpruned grid for atomic number  77.
 Defaulting to unpruned grid for atomic number  77.
 Defaulting to unpruned grid for atomic number  77.
 Defaulting to unpruned grid for atomic number  77.
 Defaulting to unpruned grid for atomic number  77.
 Defaulting to unpruned grid for atomic number  77.
 Defaulting to unpruned grid for atomic number  77.
 Defaulting to unpruned grid for atomic number  77.
 Defaulting to unpruned grid for atomic number  77.
 Defaulting to unpruned grid for atomic number  77.
 Defaulting to unpruned grid for atomic number  77.
 Defaulting to unpruned grid for atomic number  77.
 Defaulting to unpruned grid for atomic number  77.
 Defaulting to unpruned grid for atomic number  77.
 Defaulting to unpruned grid for atomic number  77.
 Defaulting to unpruned grid for atomic number  77.
 SCF Done:  E(RM06) =  -2277.54974288     A.U. after   16 cycles
            NFock= 16  Conv=0.87D-08     -V/T= 2.0390
 DoSCS=F DFT=T ScalE2(SS,OS)=  1.000000  1.000000
 Range of M.O.s used for correlation:     1   830
 NBasis=   830 NAE=   193 NBE=   193 NFC=     0 NFV=     0
 NROrb=    830 NOA=   193 NOB=   193 NVA=   637 NVB=   637
   1 Symmetry operations used in ECPInt.
 ECPInt:  NShTT=   53301 NPrTT=  320676 LenC2=   40837 LenP2D=  125424.
 LDataN:  DoStor=T MaxTD1= 7 Len=  274
 Number of processors reduced to   8 by ecpmxn.
 Symmetrizing basis deriv contribution to polar:
 IMax=3 JMax=2 DiffMx= 0.00D+00
 G2DrvN: will do   112 centers at a time, making    1 passes.
 Calling FoFCou, ICntrl=  3107 FMM=T I1Cent=   0 AccDes= 0.00D+00.
 Defaulting to unpruned grid for atomic number  77.
 Defaulting to unpruned grid for atomic number  77.
 Defaulting to unpruned grid for atomic number  77.
 Defaulting to unpruned grid for atomic number  77.
 Defaulting to unpruned grid for atomic number  77.
 Defaulting to unpruned grid for atomic number  77.
 Defaulting to unpruned grid for atomic number  77.
 Defaulting to unpruned grid for atomic number  77.
 Defaulting to unpruned grid for atomic number  77.
 Defaulting to unpruned grid for atomic number  77.
 Defaulting to unpruned grid for atomic number  77.
 Defaulting to unpruned grid for atomic number  77.
 Defaulting to unpruned grid for atomic number  77.
 Defaulting to unpruned grid for atomic number  77.
 Defaulting to unpruned grid for atomic number  77.
 Defaulting to unpruned grid for atomic number  77.
 End of G2Drv F.D. properties file   721 does not exist.
 End of G2Drv F.D. properties file   722 does not exist.
 End of G2Drv F.D. properties file   788 does not exist.
          IDoAtm=11111111111111111111111111111111111111111111111111
          IDoAtm=11111111111111111111111111111111111111111111111111
          IDoAtm=11111111111
          Differentiating once with respect to electric field.
                with respect to dipole field.
          Differentiating once with respect to nuclear coordinates.
 Defaulting to unpruned grid for atomic number  77.
 CalDSu exits because no D1Ps are significant.
 Defaulting to unpruned grid for atomic number  77.
 Defaulting to unpruned grid for atomic number  77.
 Defaulting to unpruned grid for atomic number  77.
 Defaulting to unpruned grid for atomic number  77.
 Defaulting to unpruned grid for atomic number  77.
 Defaulting to unpruned grid for atomic number  77.
 Defaulting to unpruned grid for atomic number  77.
 Defaulting to unpruned grid for atomic number  77.
 Defaulting to unpruned grid for atomic number  77.
 Defaulting to unpruned grid for atomic number  77.
 Defaulting to unpruned grid for atomic number  77.
 Defaulting to unpruned grid for atomic number  77.
 Defaulting to unpruned grid for atomic number  77.
 Defaulting to unpruned grid for atomic number  77.
 Defaulting to unpruned grid for atomic number  77.
 Defaulting to unpruned grid for atomic number  77.
          There are   336 degrees of freedom in the 1st order CPHF.  IDoFFX=6 NUNeed=     3.
    333 vectors produced by pass  0 Test12= 1.23D-13 1.00D-09 XBig12= 4.76D+02 9.47D+00.
 AX will form    72 AO Fock derivatives at one time.
    333 vectors produced by pass  1 Test12= 1.23D-13 1.00D-09 XBig12= 7.11D+01 1.28D+00.
    333 vectors produced by pass  2 Test12= 1.23D-13 1.00D-09 XBig12= 1.08D+00 1.24D-01.
    333 vectors produced by pass  3 Test12= 1.23D-13 1.00D-09 XBig12= 7.96D-03 1.36D-02.
    333 vectors produced by pass  4 Test12= 1.23D-13 1.00D-09 XBig12= 2.33D-05 3.98D-04.
    298 vectors produced by pass  5 Test12= 1.23D-13 1.00D-09 XBig12= 4.29D-08 1.73D-05.
     71 vectors produced by pass  6 Test12= 1.23D-13 1.00D-09 XBig12= 6.26D-11 5.39D-07.
      3 vectors produced by pass  7 Test12= 1.23D-13 1.00D-09 XBig12= 8.55D-14 1.95D-08.
 InvSVY:  IOpt=1 It=  1 EMax= 1.78D-14
 Solved reduced A of dimension  2037 with   336 vectors.
 Isotropic polarizability for W=    0.000000      492.01 Bohr**3.
 End of Minotr F.D. properties file   721 does not exist.
 End of Minotr F.D. properties file   722 does not exist.
 End of Minotr F.D. properties file   788 does not exist.
 Hyperfine terms turned off by default for NAtoms > 100.

 **********************************************************************

            Population analysis using the SCF Density.

 **********************************************************************

 Orbital symmetries:
       Occupied  (A) (A) (A) (A) (A) (A) (A) (A) (A) (A) (A) (A)
                 (A) (A) (A) (A) (A) (A) (A) (A) (A) (A) (A) (A)
                 (A) (A) (A) (A) (A) (A) (A) (A) (A) (A) (A) (A)
                 (A) (A) (A) (A) (A) (A) (A) (A) (A) (A) (A) (A)
                 (A) (A) (A) (A) (A) (A) (A) (A) (A) (A) (A) (A)
                 (A) (A) (A) (A) (A) (A) (A) (A) (A) (A) (A) (A)
                 (A) (A) (A) (A) (A) (A) (A) (A) (A) (A) (A) (A)
                 (A) (A) (A) (A) (A) (A) (A) (A) (A) (A) (A) (A)
                 (A) (A) (A) (A) (A) (A) (A) (A) (A) (A) (A) (A)
                 (A) (A) (A) (A) (A) (A) (A) (A) (A) (A) (A) (A)
                 (A) (A) (A) (A) (A) (A) (A) (A) (A) (A) (A) (A)
                 (A) (A) (A) (A) (A) (A) (A) (A) (A) (A) (A) (A)
                 (A) (A) (A) (A) (A) (A) (A) (A) (A) (A) (A) (A)
                 (A) (A) (A) (A) (A) (A) (A) (A) (A) (A) (A) (A)
                 (A) (A) (A) (A) (A) (A) (A) (A) (A) (A) (A) (A)
                 (A) (A) (A) (A) (A) (A) (A) (A) (A) (A) (A) (A)
                 (A)
       Virtual   (A) (A) (A) (A) (A) (A) (A) (A) (A) (A) (A) (A)
                 (A) (A) (A) (A) (A) (A) (A) (A) (A) (A) (A) (A)
                 (A) (A) (A) (A) (A) (A) (A) (A) (A) (A) (A) (A)
                 (A) (A) (A) (A) (A) (A) (A) (A) (A) (A) (A) (A)
                 (A) (A) (A) (A) (A) (A) (A) (A) (A) (A) (A) (A)
                 (A) (A) (A) (A) (A) (A) (A) (A) (A) (A) (A) (A)
                 (A) (A) (A) (A) (A) (A) (A) (A) (A) (A) (A) (A)
                 (A) (A) (A) (A) (A) (A) (A) (A) (A) (A) (A) (A)
                 (A) (A) (A) (A) (A) (A) (A) (A) (A) (A) (A) (A)
                 (A) (A) (A) (A) (A) (A) (A) (A) (A) (A) (A) (A)
                 (A) (A) (A) (A) (A) (A) (A) (A) (A) (A) (A) (A)
                 (A) (A) (A) (A) (A) (A) (A) (A) (A) (A) (A) (A)
                 (A) (A) (A) (A) (A) (A) (A) (A) (A) (A) (A) (A)
                 (A) (A) (A) (A) (A) (A) (A) (A) (A) (A) (A) (A)
                 (A) (A) (A) (A) (A) (A) (A) (A) (A) (A) (A) (A)
                 (A) (A) (A) (A) (A) (A) (A) (A) (A) (A) (A) (A)
                 (A) (A) (A) (A) (A) (A) (A) (A) (A) (A) (A) (A)
                 (A) (A) (A) (A) (A) (A) (A) (A) (A) (A) (A) (A)
                 (A) (A) (A) (A) (A) (A) (A) (A) (A) (A) (A) (A)
                 (A) (A) (A) (A) (A) (A) (A) (A) (A) (A) (A) (A)
                 (A) (A) (A) (A) (A) (A) (A) (A) (A) (A) (A) (A)
                 (A) (A) (A) (A) (A) (A) (A) (A) (A) (A) (A) (A)
                 (A) (A) (A) (A) (A) (A) (A) (A) (A) (A) (A) (A)
                 (A) (A) (A) (A) (A) (A) (A) (A) (A) (A) (A) (A)
                 (A) (A) (A) (A) (A) (A) (A) (A) (A) (A) (A) (A)
                 (A) (A) (A) (A) (A) (A) (A) (A) (A) (A) (A) (A)
                 (A) (A) (A) (A) (A) (A) (A) (A) (A) (A) (A) (A)
                 (A) (A) (A) (A) (A) (A) (A) (A) (A) (A) (A) (A)
                 (A) (A) (A) (A) (A) (A) (A) (A) (A) (A) (A) (A)
                 (A) (A) (A) (A) (A) (A) (A) (A) (A) (A) (A) (A)
                 (A) (A) (A) (A) (A) (A) (A) (A) (A) (A) (A) (A)
                 (A) (A) (A) (A) (A) (A) (A) (A) (A) (A) (A) (A)
                 (A) (A) (A) (A) (A) (A) (A) (A) (A) (A) (A) (A)
                 (A) (A) (A) (A) (A) (A) (A) (A) (A) (A) (A) (A)
                 (A) (A) (A) (A) (A) (A) (A) (A) (A) (A) (A) (A)
                 (A) (A) (A) (A) (A) (A) (A) (A) (A) (A) (A) (A)
                 (A) (A) (A) (A) (A) (A) (A) (A) (A) (A) (A) (A)
                 (A) (A) (A) (A) (A) (A) (A) (A) (A) (A) (A) (A)
                 (A) (A) (A) (A) (A) (A) (A) (A) (A) (A) (A) (A)
                 (A) (A) (A) (A) (A) (A) (A) (A) (A) (A) (A) (A)
                 (A) (A) (A) (A) (A) (A) (A) (A) (A) (A) (A) (A)
                 (A) (A) (A) (A) (A) (A) (A) (A) (A) (A) (A) (A)
                 (A) (A) (A) (A) (A) (A) (A) (A) (A) (A) (A) (A)
                 (A) (A) (A) (A) (A) (A) (A) (A) (A) (A) (A) (A)
                 (A) (A) (A) (A) (A) (A) (A) (A) (A) (A) (A) (A)
                 (A) (A) (A) (A) (A) (A) (A) (A) (A) (A) (A) (A)
                 (A) (A) (A) (A) (A) (A) (A) (A) (A) (A) (A) (A)
                 (A) (A) (A) (A) (A) (A) (A) (A) (A) (A) (A) (A)
                 (A) (A) (A) (A) (A) (A) (A) (A) (A) (A) (A) (A)
                 (A) (A) (A) (A) (A) (A) (A) (A) (A) (A) (A) (A)
                 (A) (A) (A) (A) (A) (A) (A) (A) (A) (A) (A) (A)
                 (A) (A) (A) (A) (A) (A) (A) (A) (A) (A) (A) (A)
                 (A) (A) (A) (A) (A) (A) (A) (A) (A) (A) (A) (A)
                 (A)
 The electronic state is 1-A.
 Alpha  occ. eigenvalues --  -19.24826 -19.19177 -19.19013 -19.18427 -19.18291
 Alpha  occ. eigenvalues --  -19.17994 -19.17245 -14.45760 -14.44153 -14.43366
 Alpha  occ. eigenvalues --  -10.38222 -10.31167 -10.31111 -10.29955 -10.29742
 Alpha  occ. eigenvalues --  -10.29202 -10.28378 -10.28327 -10.28159 -10.27982
 Alpha  occ. eigenvalues --  -10.27891 -10.27817 -10.27809 -10.27803 -10.27789
 Alpha  occ. eigenvalues --  -10.27694 -10.27603 -10.27318 -10.27182 -10.25818
 Alpha  occ. eigenvalues --  -10.25659 -10.25516 -10.24447 -10.23634 -10.22410
 Alpha  occ. eigenvalues --  -10.21932 -10.21630 -10.21588 -10.21346 -10.21334
 Alpha  occ. eigenvalues --  -10.21306 -10.21178 -10.21125 -10.21059 -10.20986
 Alpha  occ. eigenvalues --  -10.19977  -6.80783  -6.77395  -6.76974  -3.58792
 Alpha  occ. eigenvalues --   -2.01338  -2.00666  -2.00132  -1.10942  -1.04439
 Alpha  occ. eigenvalues --   -1.04322  -1.04070  -0.99017  -0.97463  -0.97386
 Alpha  occ. eigenvalues --   -0.97374  -0.97340  -0.96510  -0.84144  -0.83674
 Alpha  occ. eigenvalues --   -0.82931  -0.82027  -0.79954  -0.79157  -0.79038
 Alpha  occ. eigenvalues --   -0.78651  -0.76695  -0.74870  -0.73700  -0.73641
 Alpha  occ. eigenvalues --   -0.73604  -0.73197  -0.69459  -0.69248  -0.68760
 Alpha  occ. eigenvalues --   -0.68628  -0.68224  -0.67239  -0.66629  -0.66543
 Alpha  occ. eigenvalues --   -0.66080  -0.63960  -0.63038  -0.62772  -0.60613
 Alpha  occ. eigenvalues --   -0.60441  -0.60097  -0.59861  -0.57510  -0.56817
 Alpha  occ. eigenvalues --   -0.55807  -0.53620  -0.53144  -0.53085  -0.52772
 Alpha  occ. eigenvalues --   -0.52495  -0.52089  -0.52058  -0.51817  -0.51626
 Alpha  occ. eigenvalues --   -0.50387  -0.49511  -0.49186  -0.49026  -0.46850
 Alpha  occ. eigenvalues --   -0.46637  -0.46313  -0.46193  -0.45836  -0.45451
 Alpha  occ. eigenvalues --   -0.45262  -0.45090  -0.45026  -0.44759  -0.44621
 Alpha  occ. eigenvalues --   -0.44466  -0.43996  -0.43492  -0.43362  -0.43323
 Alpha  occ. eigenvalues --   -0.43117  -0.42981  -0.42671  -0.42295  -0.42218
 Alpha  occ. eigenvalues --   -0.42176  -0.41549  -0.41055  -0.40651  -0.39899
 Alpha  occ. eigenvalues --   -0.39521  -0.39270  -0.39209  -0.39004  -0.38921
 Alpha  occ. eigenvalues --   -0.38720  -0.38610  -0.38480  -0.38422  -0.38295
 Alpha  occ. eigenvalues --   -0.38232  -0.37940  -0.37713  -0.37507  -0.37272
 Alpha  occ. eigenvalues --   -0.36514  -0.36331  -0.36234  -0.36027  -0.35794
 Alpha  occ. eigenvalues --   -0.35653  -0.35641  -0.35550  -0.35453  -0.34906
 Alpha  occ. eigenvalues --   -0.34869  -0.34665  -0.34590  -0.34408  -0.34184
 Alpha  occ. eigenvalues --   -0.33915  -0.33725  -0.33582  -0.33260  -0.32618
 Alpha  occ. eigenvalues --   -0.32541  -0.32194  -0.31878  -0.30985  -0.30710
 Alpha  occ. eigenvalues --   -0.29975  -0.29908  -0.29885  -0.28929  -0.28775
 Alpha  occ. eigenvalues --   -0.28472  -0.27732  -0.26266  -0.26189  -0.25299
 Alpha  occ. eigenvalues --   -0.25220  -0.24893  -0.24336  -0.24157  -0.23074
 Alpha  occ. eigenvalues --   -0.18754  -0.18687  -0.17845
 Alpha virt. eigenvalues --   -0.06315  -0.03370  -0.02651  -0.00068   0.02004
 Alpha virt. eigenvalues --    0.03513   0.05049   0.06054   0.07148   0.07632
 Alpha virt. eigenvalues --    0.08016   0.09088   0.09192   0.09881   0.10176
 Alpha virt. eigenvalues --    0.10590   0.11117   0.11399   0.11527   0.11801
 Alpha virt. eigenvalues --    0.12000   0.12605   0.13020   0.13253   0.13559
 Alpha virt. eigenvalues --    0.13766   0.14208   0.14405   0.14760   0.14950
 Alpha virt. eigenvalues --    0.15108   0.15251   0.15486   0.15753   0.15824
 Alpha virt. eigenvalues --    0.15913   0.16095   0.16362   0.16376   0.16589
 Alpha virt. eigenvalues --    0.16718   0.16891   0.16902   0.17173   0.17376
 Alpha virt. eigenvalues --    0.17577   0.17665   0.17914   0.18217   0.18314
 Alpha virt. eigenvalues --    0.18412   0.18638   0.18754   0.18817   0.19057
 Alpha virt. eigenvalues --    0.19195   0.19331   0.19490   0.19858   0.19963
 Alpha virt. eigenvalues --    0.20089   0.20306   0.20451   0.20675   0.20955
 Alpha virt. eigenvalues --    0.21154   0.21308   0.21476   0.21659   0.21909
 Alpha virt. eigenvalues --    0.22169   0.22268   0.22799   0.22980   0.23353
 Alpha virt. eigenvalues --    0.23509   0.23692   0.24035   0.24141   0.24326
 Alpha virt. eigenvalues --    0.24718   0.24965   0.25191   0.25303   0.25544
 Alpha virt. eigenvalues --    0.25865   0.26183   0.26556   0.26862   0.27332
 Alpha virt. eigenvalues --    0.27568   0.27809   0.28135   0.28374   0.28489
 Alpha virt. eigenvalues --    0.28986   0.29042   0.29390   0.29591   0.29835
 Alpha virt. eigenvalues --    0.30217   0.30494   0.30684   0.31216   0.31747
 Alpha virt. eigenvalues --    0.31906   0.32663   0.33493   0.33688   0.34468
 Alpha virt. eigenvalues --    0.35019   0.35814   0.36045   0.37048   0.37519
 Alpha virt. eigenvalues --    0.38470   0.38758   0.39252   0.39653   0.40722
 Alpha virt. eigenvalues --    0.41119   0.41340   0.41991   0.43286   0.44156
 Alpha virt. eigenvalues --    0.45706   0.46263   0.47391   0.48128   0.48215
 Alpha virt. eigenvalues --    0.49238   0.49781   0.50425   0.50772   0.51222
 Alpha virt. eigenvalues --    0.51466   0.51553   0.52213   0.52391   0.52596
 Alpha virt. eigenvalues --    0.53036   0.53509   0.53758   0.54077   0.54386
 Alpha virt. eigenvalues --    0.54677   0.55211   0.55543   0.56043   0.56517
 Alpha virt. eigenvalues --    0.56910   0.57030   0.57269   0.57562   0.57686
 Alpha virt. eigenvalues --    0.58042   0.58252   0.58316   0.58969   0.59176
 Alpha virt. eigenvalues --    0.59361   0.59623   0.59912   0.60044   0.60223
 Alpha virt. eigenvalues --    0.60244   0.60833   0.61035   0.61423   0.61930
 Alpha virt. eigenvalues --    0.62095   0.62389   0.62806   0.63032   0.63312
 Alpha virt. eigenvalues --    0.63581   0.63998   0.64183   0.64509   0.65011
 Alpha virt. eigenvalues --    0.65163   0.65506   0.66384   0.66427   0.66770
 Alpha virt. eigenvalues --    0.67201   0.67276   0.67709   0.67849   0.68092
 Alpha virt. eigenvalues --    0.68459   0.68742   0.69409   0.69575   0.69936
 Alpha virt. eigenvalues --    0.70708   0.70984   0.71517   0.72054   0.72274
 Alpha virt. eigenvalues --    0.72390   0.72791   0.73285   0.73595   0.73796
 Alpha virt. eigenvalues --    0.74344   0.74416   0.74807   0.75147   0.75808
 Alpha virt. eigenvalues --    0.75959   0.76297   0.76513   0.76657   0.77243
 Alpha virt. eigenvalues --    0.77476   0.77994   0.78354   0.78624   0.78743
 Alpha virt. eigenvalues --    0.79213   0.79504   0.79856   0.80012   0.80208
 Alpha virt. eigenvalues --    0.80937   0.81045   0.81643   0.81805   0.82057
 Alpha virt. eigenvalues --    0.82399   0.82825   0.83370   0.83672   0.83809
 Alpha virt. eigenvalues --    0.84207   0.84632   0.84868   0.85088   0.85330
 Alpha virt. eigenvalues --    0.85573   0.85716   0.86040   0.86146   0.86658
 Alpha virt. eigenvalues --    0.86776   0.86982   0.87152   0.87283   0.87670
 Alpha virt. eigenvalues --    0.87871   0.88038   0.88272   0.88570   0.88967
 Alpha virt. eigenvalues --    0.89241   0.89546   0.89601   0.89876   0.90107
 Alpha virt. eigenvalues --    0.90194   0.90369   0.90608   0.90825   0.90965
 Alpha virt. eigenvalues --    0.91038   0.91434   0.91689   0.91948   0.92016
 Alpha virt. eigenvalues --    0.92300   0.92636   0.92914   0.93191   0.93315
 Alpha virt. eigenvalues --    0.93649   0.93945   0.94138   0.94320   0.94787
 Alpha virt. eigenvalues --    0.95025   0.95216   0.95936   0.96042   0.96465
 Alpha virt. eigenvalues --    0.96665   0.96850   0.97067   0.97505   0.97995
 Alpha virt. eigenvalues --    0.98291   0.98735   0.98914   0.99273   0.99534
 Alpha virt. eigenvalues --    0.99907   1.00615   1.00834   1.01244   1.01581
 Alpha virt. eigenvalues --    1.01835   1.02525   1.03576   1.04557   1.04941
 Alpha virt. eigenvalues --    1.05012   1.05647   1.06023   1.06512   1.07286
 Alpha virt. eigenvalues --    1.07774   1.07863   1.08330   1.09082   1.09969
 Alpha virt. eigenvalues --    1.10672   1.10973   1.11303   1.11692   1.11983
 Alpha virt. eigenvalues --    1.13530   1.14485   1.15041   1.16222   1.16813
 Alpha virt. eigenvalues --    1.17606   1.18052   1.18437   1.18957   1.19490
 Alpha virt. eigenvalues --    1.20085   1.21173   1.21646   1.22282   1.22721
 Alpha virt. eigenvalues --    1.23478   1.23776   1.24134   1.25184   1.25404
 Alpha virt. eigenvalues --    1.25843   1.27238   1.27743   1.28126   1.28622
 Alpha virt. eigenvalues --    1.29216   1.30534   1.30597   1.31653   1.32243
 Alpha virt. eigenvalues --    1.32733   1.32971   1.33769   1.34894   1.35589
 Alpha virt. eigenvalues --    1.36175   1.36588   1.38034   1.38402   1.39266
 Alpha virt. eigenvalues --    1.39693   1.40607   1.41120   1.41625   1.42190
 Alpha virt. eigenvalues --    1.42796   1.42887   1.43596   1.43884   1.44790
 Alpha virt. eigenvalues --    1.45216   1.45992   1.46112   1.46275   1.47246
 Alpha virt. eigenvalues --    1.47494   1.47650   1.48155   1.48392   1.49129
 Alpha virt. eigenvalues --    1.49652   1.49846   1.50182   1.51071   1.52187
 Alpha virt. eigenvalues --    1.52963   1.53473   1.54900   1.55179   1.55661
 Alpha virt. eigenvalues --    1.57869   1.58313   1.59077   1.59504   1.60703
 Alpha virt. eigenvalues --    1.60978   1.62198   1.63030   1.63081   1.64016
 Alpha virt. eigenvalues --    1.65031   1.65376   1.66110   1.66268   1.67038
 Alpha virt. eigenvalues --    1.67354   1.67902   1.68267   1.68889   1.69721
 Alpha virt. eigenvalues --    1.70164   1.70446   1.71519   1.71683   1.72956
 Alpha virt. eigenvalues --    1.73578   1.74797   1.76274   1.76921   1.77093
 Alpha virt. eigenvalues --    1.78409   1.78416   1.79126   1.79371   1.80135
 Alpha virt. eigenvalues --    1.80626   1.81137   1.81785   1.82268   1.82773
 Alpha virt. eigenvalues --    1.83175   1.83371   1.83677   1.84395   1.85020
 Alpha virt. eigenvalues --    1.85292   1.86311   1.86390   1.86917   1.87155
 Alpha virt. eigenvalues --    1.87378   1.87811   1.87845   1.88048   1.88897
 Alpha virt. eigenvalues --    1.89339   1.89614   1.90196   1.90668   1.91282
 Alpha virt. eigenvalues --    1.91534   1.91828   1.92458   1.92656   1.92813
 Alpha virt. eigenvalues --    1.93002   1.93282   1.93496   1.93960   1.94096
 Alpha virt. eigenvalues --    1.94610   1.94962   1.95162   1.95650   1.95846
 Alpha virt. eigenvalues --    1.96394   1.96959   1.97190   1.97352   1.97889
 Alpha virt. eigenvalues --    1.98766   1.99037   1.99594   2.00510   2.00684
 Alpha virt. eigenvalues --    2.01749   2.02662   2.03453   2.03675   2.04132
 Alpha virt. eigenvalues --    2.04444   2.04844   2.04924   2.05842   2.06246
 Alpha virt. eigenvalues --    2.06429   2.07373   2.07698   2.08015   2.08558
 Alpha virt. eigenvalues --    2.08619   2.09170   2.09442   2.11125   2.11480
 Alpha virt. eigenvalues --    2.11641   2.11906   2.12018   2.13109   2.13356
 Alpha virt. eigenvalues --    2.14264   2.14535   2.14670   2.15252   2.15742
 Alpha virt. eigenvalues --    2.16135   2.16230   2.16352   2.17394   2.17759
 Alpha virt. eigenvalues --    2.18266   2.18548   2.18832   2.19191   2.19903
 Alpha virt. eigenvalues --    2.20023   2.20255   2.20464   2.21163   2.21289
 Alpha virt. eigenvalues --    2.22122   2.22215   2.22530   2.22766   2.22956
 Alpha virt. eigenvalues --    2.23429   2.23750   2.24170   2.24513   2.25053
 Alpha virt. eigenvalues --    2.25182   2.26498   2.26799   2.27339   2.27839
 Alpha virt. eigenvalues --    2.28236   2.28425   2.28558   2.28861   2.29390
 Alpha virt. eigenvalues --    2.29950   2.31115   2.31876   2.32177   2.32507
 Alpha virt. eigenvalues --    2.32715   2.33130   2.33301   2.33907   2.34745
 Alpha virt. eigenvalues --    2.34859   2.35471   2.35946   2.36243   2.36713
 Alpha virt. eigenvalues --    2.38012   2.39799   2.40129   2.40865   2.41033
 Alpha virt. eigenvalues --    2.42193   2.42856   2.46080   2.46760   2.46874
 Alpha virt. eigenvalues --    2.47535   2.48877   2.49156   2.49863   2.50523
 Alpha virt. eigenvalues --    2.51163   2.51737   2.52028   2.52963   2.54176
 Alpha virt. eigenvalues --    2.54381   2.55212   2.56691   2.57186   2.58221
 Alpha virt. eigenvalues --    2.60413   2.60854   2.61825   2.62070   2.62221
 Alpha virt. eigenvalues --    2.62891   2.64667   2.65321   2.66123   2.66275
 Alpha virt. eigenvalues --    2.66584   2.66893   2.68726   2.69473   2.70583
 Alpha virt. eigenvalues --    2.71098   2.72217   2.75174   2.77291   2.79062
 Alpha virt. eigenvalues --    2.79234   2.79655   2.79915   2.80470   2.81294
 Alpha virt. eigenvalues --    2.81546   2.81705   2.81755   2.83112   2.83442
 Alpha virt. eigenvalues --    2.83868   2.84041   2.84632   2.85276   2.87393
 Alpha virt. eigenvalues --    2.87610   2.90758   2.92600   2.93429   2.95648
 Alpha virt. eigenvalues --    2.96247   2.96581   2.97190   2.99298   3.00062
 Alpha virt. eigenvalues --    3.03515   3.05744   3.06525   3.09618   3.12575
 Alpha virt. eigenvalues --    3.13669   3.13925   3.21912   3.24474   3.30775
 Alpha virt. eigenvalues --    3.44182  11.42816
          Condensed to atoms (all electrons):
 Mulliken charges:
               1
     1  C    0.303695
     2  C    0.043822
     3  C   -0.169360
     4  C   -0.143923
     5  C   -0.173978
     6  C    0.305044
     7  C    0.036648
     8  C   -0.178100
     9  C   -0.153373
    10  C   -0.171997
    11  H    0.202635
    12  H    0.178400
    13  H    0.155431
    14  H    0.219576
    15  H    0.175481
    16  H    0.161900
    17  N   -0.460137
    18  N   -0.511250
    19  Ir  -0.100288
    20  O   -0.524966
    21  O   -0.562377
    22  O   -0.580930
    23  B    0.435103
    24  B    0.414913
    25  B    0.845369
    26  O   -0.565625
    27  O   -0.519756
    28  C    0.302252
    29  C    0.308475
    30  C    0.336451
    31  C    0.318605
    32  C    0.299363
    33  C    0.300313
    34  O   -0.501361
    35  C   -0.510567
    36  H    0.170719
    37  H    0.146003
    38  H    0.160511
    39  C   -0.502408
    40  H    0.151519
    41  H    0.145432
    42  H    0.169261
    43  C   -0.514218
    44  H    0.141630
    45  H    0.176934
    46  H    0.176962
    47  C   -0.510100
    48  H    0.170363
    49  H    0.162626
    50  H    0.144880
    51  C   -0.506013
    52  H    0.152008
    53  H    0.154008
    54  H    0.155004
    55  C   -0.507878
    56  H    0.194851
    57  H    0.145421
    58  H    0.147201
    59  C   -0.497814
    60  H    0.151243
    61  H    0.143453
    62  H    0.171627
    63  C   -0.510714
    64  H    0.139509
    65  H    0.178705
    66  H    0.168870
    67  C   -0.515714
    68  H    0.144676
    69  H    0.161206
    70  H    0.168471
    71  C   -0.506388
    72  H    0.140874
    73  H    0.173360
    74  H    0.159708
    75  C   -0.524015
    76  H    0.147569
    77  H    0.149979
    78  H    0.202056
    79  C   -0.525294
    80  H    0.150537
    81  H    0.227749
    82  H    0.143494
    83  H    0.075606
    84  C    0.626496
    85  O   -0.512235
    86  C   -0.422275
    87  H    0.175505
    88  H    0.191135
    89  C   -0.393994
    90  H    0.163370
    91  H    0.179137
    92  N   -0.374654
    93  C   -0.379700
    94  H    0.195801
    95  H    0.197723
    96  H    0.179079
    97  C   -0.265903
    98  H    0.176014
    99  H    0.145280
   100  C   -0.276836
   101  H    0.129668
   102  H    0.146194
   103  C   -0.281932
   104  H    0.158446
   105  H    0.136581
   106  C   -0.499544
   107  H    0.170327
   108  H    0.158745
   109  H    0.164304
   110  H    0.173742
   111  H    0.180566
 Sum of Mulliken charges =  -0.00000
 Mulliken charges with hydrogens summed into heavy atoms:
               1
     1  C    0.303695
     2  C    0.246457
     3  C    0.011206
     4  C    0.034477
     5  C   -0.018548
     6  C    0.305044
     7  C    0.256224
     8  C   -0.004359
     9  C    0.022108
    10  C   -0.010097
    17  N   -0.460137
    18  N   -0.511250
    19  Ir  -0.024682
    20  O   -0.524966
    21  O   -0.562377
    22  O   -0.580930
    23  B    0.435103
    24  B    0.414913
    25  B    0.845369
    26  O   -0.565625
    27  O   -0.519756
    28  C    0.302252
    29  C    0.308475
    30  C    0.336451
    31  C    0.318605
    32  C    0.299363
    33  C    0.300313
    34  O   -0.501361
    35  C   -0.033333
    39  C   -0.036196
    43  C   -0.018691
    47  C   -0.032231
    51  C   -0.044993
    55  C   -0.020404
    59  C   -0.031492
    63  C   -0.023630
    67  C   -0.041361
    71  C   -0.032445
    75  C   -0.024412
    79  C   -0.003513
    84  C    0.626496
    85  O   -0.512235
    86  C   -0.055635
    89  C   -0.051488
    92  N   -0.374654
    93  C    0.192903
    97  C    0.055391
   100  C   -0.000973
   103  C    0.013095
   106  C   -0.006168
 APT charges:
               1
     1  C    0.166989
     2  C    0.060572
     3  C   -0.035710
     4  C    0.082619
     5  C   -0.154623
     6  C    0.101477
     7  C   -0.006057
     8  C   -0.010074
     9  C   -0.008702
    10  C   -0.116594
    11  H    0.060408
    12  H    0.030269
    13  H    0.037820
    14  H    0.126888
    15  H    0.033158
    16  H    0.039475
    17  N   -0.142522
    18  N    0.027339
    19  Ir  -0.503161
    20  O   -0.921459
    21  O   -1.014294
    22  O   -0.952664
    23  B    1.264036
    24  B    1.274957
    25  B    1.287907
    26  O   -0.929325
    27  O   -1.000395
    28  C    0.494182
    29  C    0.471321
    30  C    0.482908
    31  C    0.474552
    32  C    0.518848
    33  C    0.485611
    34  O   -1.001644
    35  C   -0.003995
    36  H    0.000649
    37  H   -0.020371
    38  H   -0.006753
    39  C   -0.031300
    40  H   -0.006906
    41  H   -0.023003
    42  H    0.002456
    43  C   -0.031277
    44  H   -0.029297
    45  H    0.004387
    46  H    0.003552
    47  C   -0.007596
    48  H    0.000753
    49  H    0.001976
    50  H   -0.025086
    51  C   -0.005915
    52  H   -0.020540
    53  H   -0.008027
    54  H   -0.004749
    55  C   -0.056472
    56  H    0.037916
    57  H   -0.034107
    58  H   -0.004234
    59  C   -0.019387
    60  H   -0.010356
    61  H   -0.032840
    62  H    0.002339
    63  C   -0.004204
    64  H   -0.026970
    65  H    0.004624
    66  H   -0.004742
    67  C   -0.004414
    68  H   -0.011832
    69  H   -0.019413
    70  H    0.002764
    71  C   -0.022853
    72  H   -0.020816
    73  H   -0.006530
    74  H   -0.012090
    75  C   -0.044523
    76  H   -0.003775
    77  H   -0.019863
    78  H    0.038035
    79  C   -0.062773
    80  H    0.006001
    81  H    0.063071
    82  H   -0.024770
    83  H   -0.094371
    84  C    0.894758
    85  O   -0.865427
    86  C   -0.027836
    87  H    0.020133
    88  H   -0.008857
    89  C   -0.029060
    90  H   -0.010252
    91  H    0.044502
    92  N   -0.603807
    93  C    0.291995
    94  H   -0.000544
    95  H   -0.010722
    96  H    0.005811
    97  C    0.095737
    98  H   -0.018512
    99  H   -0.011662
   100  C    0.097565
   101  H   -0.030642
   102  H   -0.050443
   103  C    0.125330
   104  H   -0.041608
   105  H   -0.061890
   106  C    0.061307
   107  H   -0.029035
   108  H   -0.015943
   109  H   -0.020227
   110  H    0.038711
   111  H    0.034137
 Sum of APT charges =  -0.00000
 APT charges with hydrogens summed into heavy atoms:
               1
     1  C    0.166989
     2  C    0.120980
     3  C   -0.001574
     4  C    0.112888
     5  C   -0.116803
     6  C    0.101477
     7  C    0.120831
     8  C    0.028637
     9  C    0.024456
    10  C   -0.077118
    17  N   -0.142522
    18  N    0.027339
    19  Ir  -0.597531
    20  O   -0.921459
    21  O   -1.014294
    22  O   -0.952664
    23  B    1.264036
    24  B    1.274957
    25  B    1.287907
    26  O   -0.929325
    27  O   -1.000395
    28  C    0.494182
    29  C    0.471321
    30  C    0.482908
    31  C    0.474552
    32  C    0.518848
    33  C    0.485611
    34  O   -1.001644
    35  C   -0.030470
    39  C   -0.058754
    43  C   -0.052635
    47  C   -0.029953
    51  C   -0.039230
    55  C   -0.056897
    59  C   -0.060245
    63  C   -0.031292
    67  C   -0.032895
    71  C   -0.062289
    75  C   -0.030126
    79  C   -0.018472
    84  C    0.894758
    85  O   -0.865427
    86  C   -0.016560
    89  C    0.005190
    92  N   -0.603807
    93  C    0.286540
    97  C    0.065563
   100  C    0.016481
   103  C    0.021831
   106  C   -0.003898
 Electronic spatial extent (au):  <R**2>=          28241.5130
 Charge=             -0.0000 electrons
 Dipole moment (field-independent basis, Debye):
    X=             -6.9793    Y=             -4.4219    Z=              4.2079  Tot=              9.2720
 Quadrupole moment (field-independent basis, Debye-Ang):
   XX=           -302.4249   YY=           -315.3867   ZZ=           -284.7527
   XY=             13.3252   XZ=              4.8220   YZ=              0.2637
 Traceless Quadrupole moment (field-independent basis, Debye-Ang):
   XX=             -1.5701   YY=            -14.5320   ZZ=             16.1021
   XY=             13.3252   XZ=              4.8220   YZ=              0.2637
 Octapole moment (field-independent basis, Debye-Ang**2):
  XXX=             18.9179  YYY=            -19.4907  ZZZ=            -87.8700  XYY=             43.7122
  XXY=            -56.4975  XXZ=             -9.0933  XZZ=            -43.4918  YZZ=              7.5499
  YYZ=            -22.6151  XYZ=              2.8504
 Hexadecapole moment (field-independent basis, Debye-Ang**3):
 XXXX=         -18347.2033 YYYY=         -12243.2242 ZZZZ=          -6756.2345 XXXY=            104.6064
 XXXZ=            -39.8235 YYYX=             78.3033 YYYZ=           -109.7599 ZZZX=            -25.9257
 ZZZY=             60.7120 XXYY=          -5060.5525 XXZZ=          -4166.9045 YYZZ=          -3158.9571
 XXYZ=            137.5810 YYXZ=             -9.0812 ZZXY=             31.4075
 N-N= 8.202420540340D+03 E-N=-2.168326141725D+04  KE= 2.192063670116D+03
  Exact polarizability:     528.745      49.600     468.548      31.893     -23.978     478.744
 Approx polarizability:     718.603      94.842     668.540      42.579     -60.007     771.436
   1 Symmetry operations used in ECPInt.
 ECPInt:  NShTT=   53301 NPrTT=  320676 LenC2=   40837 LenP2D=  125424.
 LDataN:  DoStor=T MaxTD1= 8 Len=  415
 Calling FoFJK, ICntrl=    100127 FMM=F ISym2X=0 I1Cent= 0 IOpClX= 0 NMat=1 NMatS=1 NMatT=0.
 Defaulting to unpruned grid for atomic number  77.
 Defaulting to unpruned grid for atomic number  77.
 Defaulting to unpruned grid for atomic number  77.
 Defaulting to unpruned grid for atomic number  77.
 Defaulting to unpruned grid for atomic number  77.
 Defaulting to unpruned grid for atomic number  77.
 Defaulting to unpruned grid for atomic number  77.
 Defaulting to unpruned grid for atomic number  77.
 Defaulting to unpruned grid for atomic number  77.
 Defaulting to unpruned grid for atomic number  77.
 Defaulting to unpruned grid for atomic number  77.
 Defaulting to unpruned grid for atomic number  77.
 Defaulting to unpruned grid for atomic number  77.
 Defaulting to unpruned grid for atomic number  77.
 Defaulting to unpruned grid for atomic number  77.
 Defaulting to unpruned grid for atomic number  77.
 Full mass-weighted force constant matrix:
 Low frequencies ---   -6.0433   -0.0009   -0.0008   -0.0004    3.8375    5.2311
 Low frequencies ---   16.5431   22.7835   25.7307
 Diagonal vibrational polarizability:
      117.1147917     118.0360088      61.0227763
 Harmonic frequencies (cm**-1), IR intensities (KM/Mole), Raman scattering
 activities (A**4/AMU), depolarization ratios for plane and unpolarized
 incident light, reduced masses (AMU), force constants (mDyne/A),
 and normal coordinates:
                      1                      2                      3
                      A                      A                      A
 Frequencies --     16.4364                22.7155                25.6483
 Red. masses --      4.0018                 3.9696                 4.4064
 Frc consts  --      0.0006                 0.0012                 0.0017
 IR Inten    --      0.2765                 0.0783                 0.3112
  Atom AN      X      Y      Z        X      Y      Z        X      Y      Z
     1   6    -0.02   0.03  -0.00     0.02  -0.03   0.03    -0.02   0.06  -0.04
     2   6    -0.01   0.02  -0.01     0.00  -0.05   0.02     0.03   0.02  -0.04
     3   6    -0.03   0.06   0.00     0.01  -0.07   0.03     0.00   0.09  -0.04
     4   6    -0.04   0.08   0.01     0.01  -0.07   0.04    -0.03   0.15  -0.04
     5   6    -0.04   0.07   0.00     0.02  -0.05   0.04    -0.05   0.13  -0.04
     6   6    -0.01   0.01  -0.01     0.02  -0.01   0.03    -0.03   0.03  -0.05
     7   6     0.01  -0.04  -0.02     0.03   0.01   0.02    -0.02  -0.03  -0.04
     8   6     0.00  -0.03  -0.02     0.03   0.02   0.04    -0.05  -0.02  -0.05
     9   6    -0.02  -0.01  -0.02     0.02   0.02   0.05    -0.07   0.01  -0.06
    10   6    -0.03   0.01  -0.01     0.02  -0.00   0.05    -0.06   0.04  -0.06
    11   1     0.00  -0.00  -0.01    -0.00  -0.04   0.01     0.06  -0.02  -0.04
    12   1    -0.06   0.11   0.02     0.02  -0.08   0.04    -0.06   0.21  -0.04
    13   1    -0.05   0.09   0.01     0.03  -0.05   0.05    -0.08   0.17  -0.04
    14   1     0.03  -0.06  -0.02     0.03   0.01   0.01    -0.00  -0.05  -0.03
    15   1    -0.03  -0.00  -0.03     0.02   0.03   0.07    -0.09   0.02  -0.07
    16   1    -0.04   0.03  -0.01     0.01  -0.00   0.06    -0.08   0.07  -0.07
    17   7    -0.01   0.00  -0.01     0.01  -0.03   0.02     0.02   0.01  -0.04
    18   7     0.00  -0.01  -0.01     0.03  -0.01   0.02    -0.01  -0.01  -0.04
    19  77     0.01  -0.02  -0.01     0.01  -0.01   0.01     0.02  -0.01  -0.02
    20   8     0.05   0.00   0.11     0.03  -0.01  -0.10     0.03  -0.01  -0.04
    21   8     0.04  -0.04  -0.02     0.01   0.01  -0.00    -0.03  -0.00   0.01
    22   8    -0.00  -0.02  -0.00    -0.00  -0.02   0.01    -0.01  -0.03  -0.02
    23   5     0.01  -0.01  -0.01     0.01   0.01  -0.00    -0.00  -0.01   0.00
    24   5     0.02  -0.00   0.01     0.02   0.00  -0.02     0.03  -0.00  -0.00
    25   5     0.00  -0.03   0.00    -0.00  -0.02   0.01    -0.01  -0.02  -0.02
    26   8     0.00  -0.03   0.02    -0.00  -0.02   0.01    -0.02  -0.03  -0.03
    27   8     0.02   0.01  -0.06     0.02   0.02   0.03     0.03   0.01   0.04
    28   6     0.03   0.01  -0.01     0.04   0.03  -0.01     0.05   0.02   0.04
    29   6     0.08   0.03   0.09     0.02  -0.01  -0.09     0.03  -0.00  -0.02
    30   6    -0.01  -0.01   0.01    -0.01  -0.02   0.00    -0.01  -0.03  -0.02
    31   6    -0.01  -0.02   0.02    -0.02  -0.03   0.01    -0.01  -0.03  -0.03
    32   6     0.02  -0.01  -0.02     0.00   0.02  -0.00    -0.04  -0.00   0.04
    33   6    -0.02   0.01  -0.00    -0.00   0.02  -0.00    -0.02  -0.01   0.03
    34   8    -0.03   0.02  -0.00     0.00   0.01  -0.00     0.01  -0.01   0.02
    35   6     0.08   0.01   0.16     0.05   0.01  -0.16     0.06   0.00  -0.05
    36   1     0.02  -0.05   0.18     0.09   0.05  -0.17     0.09   0.02  -0.06
    37   1     0.09   0.03   0.15     0.05   0.01  -0.16     0.06   0.01  -0.03
    38   1     0.11   0.02   0.23     0.04  -0.02  -0.21     0.05  -0.02  -0.09
    39   6     0.16   0.10   0.08    -0.04  -0.07  -0.09    -0.02  -0.03  -0.01
    40   1     0.19   0.10   0.15    -0.06  -0.09  -0.14    -0.03  -0.05  -0.05
    41   1     0.20   0.14   0.06    -0.05  -0.09  -0.08    -0.03  -0.03   0.00
    42   1     0.15   0.12   0.03    -0.05  -0.09  -0.04    -0.04  -0.04   0.01
    43   6    -0.04  -0.06  -0.00     0.10   0.10  -0.02     0.10   0.05   0.03
    44   1    -0.03  -0.06   0.03     0.12   0.11  -0.05     0.12   0.05   0.03
    45   1    -0.06  -0.10   0.04     0.12   0.11  -0.06     0.12   0.05   0.00
    46   1    -0.07  -0.08  -0.07     0.11   0.13   0.04     0.11   0.06   0.07
    47   6     0.07   0.07  -0.08     0.02   0.01   0.03     0.03   0.02   0.08
    48   1     0.03   0.06  -0.14     0.03   0.04   0.09     0.04   0.03   0.11
    49   1     0.12   0.12  -0.09    -0.03  -0.03   0.05    -0.01  -0.00   0.08
    50   1     0.09   0.07  -0.05     0.02   0.01   0.00     0.03   0.02   0.07
    51   6     0.02  -0.05  -0.01    -0.00   0.02  -0.00    -0.08   0.01   0.03
    52   1     0.01  -0.03  -0.01    -0.01   0.03  -0.00    -0.08   0.01   0.05
    53   1     0.00  -0.08   0.01    -0.01   0.02  -0.01    -0.08   0.01   0.00
    54   1     0.06  -0.06  -0.03     0.00   0.02   0.00    -0.10   0.01   0.03
    55   6     0.06   0.03  -0.05     0.01   0.02   0.00    -0.04  -0.01   0.07
    56   1     0.06   0.05  -0.06     0.01   0.03   0.00    -0.02  -0.01   0.08
    57   1     0.05   0.05  -0.06     0.00   0.03   0.01    -0.05  -0.01   0.09
    58   1     0.10   0.01  -0.06     0.01   0.02   0.00    -0.06  -0.00   0.07
    59   6    -0.05  -0.01   0.04    -0.01   0.01  -0.01    -0.02  -0.00   0.01
    60   1    -0.04  -0.05   0.05    -0.01   0.01  -0.01    -0.03   0.00  -0.01
    61   1    -0.05  -0.02   0.04    -0.02   0.02  -0.01    -0.04   0.00   0.01
    62   1    -0.08   0.01   0.05    -0.02   0.01  -0.01    -0.00  -0.01   0.00
    63   6    -0.04   0.06  -0.01    -0.00   0.03  -0.00    -0.01  -0.02   0.06
    64   1    -0.03   0.06  -0.02    -0.01   0.03  -0.00    -0.03  -0.01   0.07
    65   1    -0.02   0.09  -0.04     0.00   0.03   0.00    -0.00  -0.02   0.08
    66   1    -0.07   0.08   0.00    -0.01   0.03  -0.00     0.01  -0.02   0.06
    67   6    -0.01  -0.02   0.03    -0.03  -0.03   0.00    -0.02  -0.03  -0.03
    68   1    -0.02  -0.01   0.03    -0.04  -0.03   0.00    -0.02  -0.04  -0.03
    69   1    -0.02  -0.02   0.04    -0.03  -0.04   0.01    -0.03  -0.04  -0.04
    70   1    -0.01  -0.02   0.03    -0.03  -0.02  -0.00    -0.03  -0.03  -0.03
    71   6    -0.01  -0.02   0.02    -0.02  -0.04   0.02    -0.01  -0.05  -0.03
    72   1    -0.02  -0.01   0.02    -0.03  -0.04   0.02    -0.01  -0.05  -0.03
    73   1    -0.00  -0.02   0.01    -0.01  -0.04   0.02     0.00  -0.05  -0.02
    74   1    -0.01  -0.03   0.03    -0.02  -0.04   0.03    -0.01  -0.05  -0.03
    75   6    -0.01  -0.00   0.00    -0.03  -0.03   0.00     0.00  -0.02  -0.02
    76   1    -0.01   0.00   0.00    -0.02  -0.04   0.02     0.01  -0.02  -0.03
    77   1    -0.01   0.00   0.01    -0.04  -0.04  -0.00     0.01  -0.02  -0.02
    78   1    -0.01  -0.00  -0.00    -0.02  -0.02  -0.00     0.01  -0.02  -0.01
    79   6    -0.01  -0.01   0.01    -0.02  -0.01  -0.01    -0.02  -0.02  -0.01
    80   1    -0.01  -0.02   0.01    -0.01  -0.01  -0.01    -0.02  -0.02  -0.01
    81   1    -0.01  -0.01  -0.00    -0.01  -0.01  -0.02    -0.01  -0.02  -0.00
    82   1    -0.02  -0.00   0.01    -0.03  -0.02  -0.02    -0.01  -0.02  -0.01
    83   1     0.00  -0.02  -0.01    -0.00   0.01  -0.00     0.03  -0.01  -0.01
    84   6    -0.01  -0.03  -0.00    -0.01  -0.02   0.01     0.01  -0.00   0.01
    85   8    -0.00  -0.03  -0.00    -0.00  -0.02   0.01    -0.00  -0.03   0.00
    86   6    -0.02  -0.02  -0.01    -0.03  -0.00   0.00     0.01   0.01   0.04
    87   1    -0.03  -0.03  -0.02    -0.04  -0.02   0.00     0.01   0.01   0.04
    88   1    -0.01  -0.02  -0.00    -0.02   0.00  -0.00     0.03   0.03   0.04
    89   6     0.00  -0.04   0.00    -0.00  -0.02   0.01     0.01  -0.01  -0.03
    90   1     0.01  -0.05   0.01    -0.00  -0.02   0.01     0.01   0.00  -0.04
    91   1    -0.00  -0.05  -0.00    -0.01  -0.03   0.02     0.00  -0.01  -0.03
    92   7    -0.01  -0.04  -0.00    -0.01  -0.02   0.01     0.01   0.01  -0.01
    93   6    -0.01  -0.05  -0.00    -0.02  -0.01   0.01     0.03   0.02  -0.01
    94   1    -0.01  -0.05  -0.00    -0.02  -0.01   0.02     0.03  -0.00  -0.02
    95   1    -0.00  -0.05   0.00    -0.03  -0.01   0.01     0.06   0.03  -0.02
    96   1    -0.01  -0.05  -0.01    -0.03  -0.01   0.01     0.02   0.04   0.01
    97   6    -0.03   0.01  -0.01    -0.03   0.02  -0.01    -0.02  -0.00   0.07
    98   1    -0.01   0.03  -0.01     0.02   0.04  -0.04    -0.02  -0.01   0.06
    99   1    -0.04  -0.00  -0.01    -0.03  -0.02   0.01    -0.04  -0.04   0.07
   100   6    -0.07   0.04  -0.01    -0.09   0.08  -0.01    -0.01   0.02   0.13
   101   1    -0.10   0.02  -0.02    -0.15   0.05   0.01    -0.01   0.04   0.17
   102   1    -0.06   0.06  -0.01    -0.09   0.12  -0.03    -0.01   0.06   0.11
   103   6    -0.09   0.08  -0.02    -0.10   0.12  -0.03    -0.02  -0.03   0.16
   104   1    -0.05   0.11  -0.02    -0.03   0.15  -0.07    -0.01  -0.06   0.11
   105   1    -0.10   0.06  -0.02    -0.10   0.07  -0.01    -0.02  -0.10   0.19
   106   6    -0.13   0.12  -0.02    -0.19   0.20  -0.04    -0.02   0.01   0.24
   107   1    -0.15   0.15  -0.03    -0.19   0.23  -0.06    -0.02  -0.04   0.26
   108   1    -0.17   0.09  -0.03    -0.26   0.17  -0.00    -0.03   0.04   0.30
   109   1    -0.12   0.14  -0.02    -0.19   0.26  -0.07    -0.03   0.07   0.20
   110   1     0.01  -0.05  -0.03     0.03   0.03   0.04    -0.05  -0.05  -0.05
   111   1    -0.03   0.07   0.01     0.00  -0.08   0.02     0.01   0.10  -0.04
                      4                      5                      6
                      A                      A                      A
 Frequencies --     30.4135                34.5260                35.8891
 Red. masses --      3.9034                 4.3874                 4.2632
 Frc consts  --      0.0021                 0.0031                 0.0032
 IR Inten    --      0.7114                 0.0326                 0.1983
  Atom AN      X      Y      Z        X      Y      Z        X      Y      Z
     1   6     0.03   0.00  -0.04    -0.01  -0.01   0.03    -0.02   0.04   0.04
     2   6     0.07  -0.02  -0.04     0.00  -0.02   0.03    -0.06   0.05   0.04
     3   6     0.10  -0.06  -0.06     0.00  -0.03   0.03    -0.11   0.12   0.08
     4   6     0.09  -0.06  -0.07    -0.00  -0.02   0.03    -0.11   0.15   0.11
     5   6     0.06  -0.03  -0.06    -0.01  -0.01   0.03    -0.06   0.10   0.09
     6   6     0.00   0.03  -0.02    -0.02  -0.00   0.04     0.02   0.01   0.03
     7   6    -0.02   0.06  -0.01    -0.00  -0.01   0.03     0.04  -0.00   0.01
     8   6    -0.05   0.08   0.00    -0.02   0.00   0.04     0.06  -0.02   0.01
     9   6    -0.04   0.08   0.00    -0.04   0.02   0.05     0.06  -0.02   0.01
    10   6    -0.02   0.06  -0.01    -0.03   0.02   0.05     0.04  -0.01   0.02
    11   1     0.07  -0.02  -0.03     0.01  -0.03   0.03    -0.06   0.02   0.01
    12   1     0.11  -0.09  -0.09    -0.00  -0.02   0.03    -0.15   0.21   0.14
    13   1     0.05  -0.03  -0.07    -0.01   0.00   0.03    -0.06   0.12   0.11
    14   1    -0.02   0.06  -0.01     0.01  -0.03   0.02     0.04  -0.00   0.01
    15   1    -0.06   0.10   0.01    -0.05   0.03   0.05     0.08  -0.04   0.01
    16   1    -0.02   0.05  -0.01    -0.04   0.02   0.05     0.04  -0.01   0.02
    17   7     0.04   0.01  -0.03    -0.00  -0.01   0.03    -0.02   0.01   0.02
    18   7     0.00   0.03  -0.02    -0.00  -0.01   0.03     0.02   0.01   0.02
    19  77     0.02   0.01  -0.02    -0.01  -0.00   0.03     0.02  -0.00   0.00
    20   8    -0.03   0.00  -0.01     0.02  -0.00  -0.01    -0.02  -0.01  -0.02
    21   8     0.06  -0.05  -0.03     0.02  -0.06   0.03     0.06  -0.02  -0.02
    22   8     0.01  -0.00   0.02     0.00  -0.00  -0.03     0.01  -0.00  -0.02
    23   5     0.02   0.01  -0.01    -0.01  -0.01   0.04     0.02   0.01  -0.01
[...]
 .00004374,-0.00002376,0.00000093,0.00002634,0.00090992,0.00025924,0.00
 080507,-0.00765874,-0.00097254,-0.01140472,-0.09495784,0.05017145,-0.2
 9332209,-0.00132469,0.00350821,-0.00627931,-0.00304857,-0.00011129,0.0
 0197576,0.00000355,0.00000049,-0.00000293,-0.00000441,-0.00000294,-0.0
 0000743,0.00003424,0.00001627,0.00001915,0.00082867,-0.00100971,-0.000
 16827,0.00099051,-0.00104217,0.00000431,-0.00004815,0.00029762,-0.0003
 0569,0.00001376,0.00009305,-0.00011594,-0.00022483,0.00446424,0.000246
 93,-0.00005830,-0.00060069,0.00010897,0.00021385,-0.00033485,0.0000994
 0,0.00020082,0.00001823,0.00027667,-0.00003304,0.00004629,0.00004087,-
 0.00028674,-0.00007755,-0.00031317,-0.00031525,0.00040081,-0.00004814,
 0.00004819,-0.00004440,-0.00011421,-0.00001713,0.00001491,0.00003234,0
 .00018278,-0.00018257,0.00005269,0.00002355,0.00013285,0.00002750,-0.0
 0026726,0.00011541,-0.00024025,0.00000195,-0.00003591,0.00001425,0.000
 01285,-0.00000705,-0.00001292,-0.00007774,0.00001901,-0.00004801,-0.00
 001253,-0.00001058,-0.00007423,0.00013102,0.00006615,0.00013036,0.0000
 3375,-0.00001977,0.00004787,-0.00000289,0.00001798,0.00002938,0.000007
 50,-0.00001383,-0.00000539,-0.00002147,-0.00001221,-0.00001767,0.00013
 964,0.00008924,0.00010868,-0.00002287,-0.00017039,-0.00016801,-0.00002
 581,0.00000075,0.00003912,0.00007960,0.00003974,-0.00006087,-0.0000209
 5,-0.00004357,0.00000805,0.00000655,-0.00000630,-0.00000628,0.00000587
 ,0.00000918,0.00000550,-0.00000964,0.00000055,0.00001599,0.00000143,-0
 .00002208,-0.00000690,-0.00000653,-0.00000192,0.00001357,0.00001371,0.
 00001794,0.00000993,0.00001265,-0.00000744,-0.00000216,0.00001111,0.00
 001856,-0.00001925,-0.00000444,-0.00000476,0.00001379,0.00000149,0.000
 00022,-0.00000318,0.00000745,-0.00000972,0.00002601,0.00001811,0.00003
 473,-0.00002291,-0.00000702,0.00000139,-0.00000253,0.00000501,-0.00001
 442,0.00000570,0.00000622,-0.00001898,0.00002250,0.00000430,-0.0000021
 5,0.00001656,-0.00000070,0.00000045,-0.00000672,0.00000321,0.00000868,
 0.00000625,-0.00000252,-0.00000735,0.00000194,0.00000243,0.00000444,0.
 00001293,0.00000887,0.00000562,0.00000370,0.00000073,0.00000005,-0.000
 00569,-0.00000039,-0.00000505,0.00000036,-0.00000448,0.00000130,0.0000
 0404,0.00000107,-0.00000190,-0.00000002,-0.00000366,0.00000276,0.00000
 027,0.00000239,0.00000051,0.00000016,-0.00000098,-0.00000203,0.0000037
 8,0.00000162,-0.00000067,0.00000028,0.00000328,0.00000235,-0.00000126,
 -0.00000369,0.00000225,0.00000143,0.00000770,0.00000443,-0.00001151,0.
 00000226,-0.00000002,0.00000272,-0.00000609,0.00001014,-0.00000128,-0.
 00000655,-0.00000763,0.00001706,0.00001032,0.00000356,-0.00000095,-0.0
 0000413,0.00000514,0.00000516,-0.00000942,-0.00001416,-0.00000629,-0.0
 0000110,0.00000592,-0.00000181,0.00010252,0.00022853,-0.00010592,-0.00
 009162,-0.00005835,-0.00022874,-0.00003025,0.00001432,0.00017644,-0.00
 001749,0.00000632,0.00000942,-0.00006583,0.00003863,-0.00005559,-0.000
 01394,0.00002135,0.00000174,0.00003816,0.00002179,0.00003717,-0.000006
 99,0.00000796,0.00000341,-0.00000482,0.00000392,-0.00002817,0.00008158
 ,0.00002205,0.00008520,-0.00001735,0.00005688,-0.00004703,-0.00006759,
 0.00016549,0.00000688,0.00000659,-0.00002321,0.00001624,-0.00001653,0.
 00003311,-0.00002836,0.00000464,-0.00001515,-0.00002416,-0.00000323,0.
 00000704,0.00001072,0.00000703,-0.00000968,0.00002514,0.00000455,0.000
 00181,0.00000826,0.00001444,-0.00000249,-0.00001821,-0.00001165,0.0000
 0650,0.00000615,0.00001284,-0.00000589,-0.00001457,-0.00000401,0.00000
 235,0.00000259,-0.00000018,0.00000427,0.00001507,0.00000051,0.00000404
 ,0.00000231,-0.00000127,-0.00000125,-0.00000152,0.00000288,0.00000033,
 -0.00000254,-0.00000420,0.00000100,0.00000382,0.10429871,-0.05523038,0
 .30879146,-0.00195385,-0.00100964,0.00062634,0.00318793,0.00817333,-0.
 02469065,-0.05857999,-0.00188148,-0.03717148,0.00736530,-0.00349647,0.
 02210792,-0.00140543,-0.00484428,0.00138437,-0.00017609,0.00064290,0.0
 0010068,0.00002435,0.00004127,-0.00004551,-0.00003917,-0.00002611,0.00
 002394,0.00006544,0.00008146,0.00001645,-0.00006224,-0.00007754,-0.000
 08993,-0.00012036,0.00128898,0.00089112,0.00008194,0.00197544,-0.00008
 684,0.00032985,-0.00034575,0.00113089,-0.00000402,-0.00000867,0.000004
 67,-0.00000318,0.00000424,-0.00000341,0.00005558,0.00003283,-0.0000181
 0,-0.00278185,-0.00471513,-0.00454366,-0.00001577,-0.00007418,0.000107
 67,0.00049449,0.00063341,0.00006196,-0.00001955,0.00005754,0.00000015,
 -0.00006415,-0.00001755,-0.00008171,-0.00000944,-0.00007509,0.00004630
 ,0.00005061,-0.00013726,0.00009292,0.00004770,-0.00010315,-0.00002068,
 -0.00001341,0.00000092,0.00001342,-0.00001908,-0.00000459,0.00000208,-
 0.00006448,0.00005771,0.00002344,0.00001552,-0.00003788,-0.00001648,0.
 00002178,-0.00001988,-0.00000124,0.00001382,0.00004489,-0.00009632,0.0
 0004456,-0.00000159,0.00001646,0.00002422,0.00000430,0.00000560,0.0000
 0008,0.00001961,0.00003380,-0.00012031,-0.00007777,-0.00007816,-0.0000
 0288,0.00000142,-0.00000619,0.00000093,0.00000096,0.00000305,-0.000000
 13,0.00000293,0.00000065,0.00000021,0.00000024,0.00000061,-0.00000748,
 0.00000118,0.00000111,0.00000089,-0.00000089,0.00000107,-0.00000092,0.
 00000159,-0.00000244,0.00000157,0.00000089,0.00000257,-0.00001178,0.00
 000688,0.00000498,-0.00000090,0.00000283,0.00000411,0.00000914,0.00000
 173,-0.00000709,-0.00000500,-0.00000240,-0.00000217,-0.00000210,0.0000
 0569,0.00000604,-0.00000161,-0.00000188,-0.00000161,0.00000251,-0.0000
 0127,0.00000431,-0.00000231,0.00000241,-0.00000106,-0.00000690,0.00000
 039,0.00000009,-0.00000162,-0.00000208,-0.00000387,0.00000051,0.000000
 11,0.00000096,0.00000099,0.00000135,-0.00000203,-0.00000603,-0.0000037
 9,-0.00000255,0.00000265,-0.00000220,0.00000111,-0.00000482,0.00000157
 ,-0.00000144,0.00000094,0.00000146,-0.00000187,-0.00000353,-0.00000028
 ,-0.00000674,-0.00000106,0.00000195,0.00000094,-0.00000002,-0.00000478
 ,-0.00000316,0.,-0.00000064,0.00000170,-0.00000093,-0.00000441,-0.0000
 1249,-0.00000690,-0.00000246,-0.00000070,0.00000013,0.00000204,-0.0000
 0026,0.,-0.00000243,0.00000143,-0.00000726,-0.00000212,-0.00000845,0.0
 0000279,-0.00000225,0.00000217,-0.00000160,0.00000314,0.00000326,-0.00
 000187,-0.00000383,-0.00000082,-0.00002386,0.00000099,-0.00000624,0.00
 001142,0.00001203,-0.00000502,0.00001351,-0.00001834,0.00001132,-0.000
 00329,-0.00000007,0.00000545,-0.00001893,0.00001295,0.00004987,0.00006
 087,0.00001022,-0.00001108,0.00000548,-0.00000275,0.00000361,-0.000042
 19,-0.00000021,-0.00003121,-0.00001436,0.00000321,0.00002299,0.0000047
 6,0.00000547,0.00000741,-0.00000192,0.00000584,-0.00001038,0.00000083,
 -0.00000863,0.00000030,-0.00002959,-0.00000745,0.00001477,-0.00001251,
 -0.00001518,0.00001408,0.00001429,0.00001319,-0.00001636,-0.00000662,0
 .00000488,0.00000021,0.00000100,0.00000021,-0.00000131,0.00000327,0.00
 000203,0.00000389,-0.00000529,-0.00000029,0.00000032,0.00000357,-0.000
 00067,-0.00000121,-0.00000116,0.00000349,0.00000703,0.00000598,0.00000
 460,-0.00000438,-0.00000034,-0.00000039,0.00000226,-0.00000009,-0.0000
 0101,0.00000061,0.00000020,-0.00000001,-0.00000016,0.00000101,0.000000
 74,-0.00000158,0.00001474,-0.00001047,-0.00002122,-0.00000503,0.000005
 89,0.00000738,-0.00000150,-0.00000741,-0.00000231,-0.00000133,0.000002
 47,-0.00000092,-0.00000087,0.00000067,-0.00000531,-0.00000205,0.000000
 68,0.00000531,0.00001412,-0.00001609,-0.00002003,-0.00000692,0.0000076
 7,0.00000579,0.00000275,0.00000388,0.00001061,-0.00000106,0.00000780,0
 .00000650,-0.00000146,-0.00000285,-0.00000103,0.00000002,0.00000129,-0
 .00000264,-0.00000300,-0.00000193,0.00000302,0.00001492,-0.00000573,-0
 .00000655,0.05369425,-0.00040301,-0.00058791,-0.00000083,0.00018530,0.
 00370212,-0.01065798,-0.00143742,-0.05170787,0.06019889,0.00372112,0.0
 0009306,0.01512495,-0.00512535,0.00413098,0.00238845,0.00071812,-0.000
 99712,-0.00039316,-0.00000066,-0.00004344,0.00013012,0.00008405,0.0000
 6977,-0.00002555,-0.00005782,-0.00003104,-0.00010849,0.00001658,-0.000
 02479,0.00015772,0.00152040,-0.00220504,-0.00040523,0.00179824,-0.0025
 1196,-0.00123704,0.00011124,0.00008522,0.00073017,-0.00000316,-0.00000
 126,-0.00000331,0.00000372,-0.00000591,0.00000100,-0.00004559,0.000053
 07,0.00001213,-0.00513925,0.00546472,0.00016711,-0.00011351,0.00002956
 ,-0.00013331,0.00032863,-0.00015709,0.00014776,-0.00000536,-0.00004609
 ,-0.00001702,-0.00001011,-0.00002524,-0.00000243,-0.00000125,-0.000095
 33,0.00001724,-0.00009545,0.00016236,-0.00008701,-0.00003227,0.0000645
 1,-0.00000673,-0.00001206,0.00007049,-0.00005774,0.00002863,-0.0000404
 8,0.00008960,0.00003356,-0.00003816,-0.00000363,-0.00001059,0.00002564
 ,0.00001419,-0.00000531,0.00001126,0.00000042,0.00005737,0.00008344,-0
 .00010058,-0.00002345,-0.00002263,-0.00005770,-0.00000032,0.00000405,-
 0.00000737,-0.00000138,-0.00000606,-0.00001485,0.00002552,-0.00001245,
 0.00002526,0.00000062,-0.00000357,0.00000791,0.00000207,0.00000068,-0.
 00000481,0.00000002,-0.00000190,-0.00000149,-0.00000079,0.00000007,0.0
 0000165,0.00000030,-0.00000281,-0.00000182,-0.00000061,0.00000317,0.00
 000011,0.00000116,-0.00000063,0.00000023,-0.00000200,-0.00000247,-0.00
 000226,0.00000928,-0.00000213,-0.00000456,0.00000305,-0.00000401,-0.00
 000006,-0.00000446,0.00000485,0.00000347,-0.00000212,0.00000101,0.0000
 0029,0.00000178,-0.00000352,-0.00000369,-0.00000031,0.00000107,0.00000
 127,-0.00000160,0.00000075,-0.00000327,0.00000196,-0.00000240,0.000000
 88,-0.00000332,-0.00000189,0.00000118,0.00000072,0.00000036,-0.0000015
 1,0.00000121,-0.00000134,-0.00000145,-0.00000075,-0.00000088,0.0000013
 6,0.00000101,-0.00000191,0.00000109,0.00000091,0.00000197,-0.00000075,
 0.00000075,0.00000005,-0.00000009,-0.00000048,-0.00000142,0.00000219,-
 0.00000182,-0.00000062,-0.00000097,0.00000126,0.00000211,-0.00000373,0
 .00000257,-0.00000063,0.00000205,-0.00000371,-0.00000327,0.00000098,0.
 00000197,0.00000040,0.00000322,0.00000176,0.00000090,0.00000101,0.0000
 0108,-0.00000089,-0.00000088,-0.00000163,-0.00000101,0.00000031,0.0000
 1080,0.00000170,0.00000188,-0.00000203,-0.00000730,0.00000343,-0.00000
 386,-0.00000180,-0.00000009,0.00000484,0.00000552,0.00000408,0.0000182
 4,0.00003193,-0.00001149,0.00000589,-0.00004296,0.00002003,-0.00000304
 ,0.00001568,-0.00003472,-0.00000248,0.00000577,0.00001455,-0.00009730,
 -0.00012164,0.00007361,0.00003850,0.00005887,-0.00004433,-0.00000066,-
 0.00003298,-0.00001343,0.00003678,0.00002668,-0.00000127,-0.00000856,-
 0.00000371,0.00004005,0.00000855,0.00001067,0.00001278,-0.00000260,0.0
 0000180,-0.00000546,-0.00000496,-0.00000545,-0.00000247,0.00002958,0.0
 0002612,0.00006892,-0.00001840,0.00000549,-0.00004276,-0.00000930,-0.0
 0003417,0.00004222,-0.00001160,0.00000180,0.00000802,-0.00000039,-0.00
 000075,0.00000189,0.00000196,0.00000175,0.00000447,0.00000414,-0.00000
 599,0.00001224,-0.00000083,0.00000058,-0.00000316,-0.00000101,0.000001
 48,0.00000134,0.00002024,0.00000251,0.00002044,-0.00000508,0.00000304,
 -0.00001040,0.00000163,0.00000002,0.00000099,0.00000007,0.00000111,0.0
 0000168,-0.00000157,-0.00000159,0.00000139,0.00001371,-0.00000412,-0.0
 0000677,0.00000254,-0.00000037,0.00000036,-0.00000961,-0.00000817,-0.0
 0001351,0.00000124,0.00000352,-0.00000028,0.00000106,-0.00000277,-0.00
 000063,-0.00000344,0.00000059,0.00000496,0.00000538,-0.00000709,-0.000
 01196,-0.00000024,0.00000052,0.00000218,0.00000258,0.00000627,0.000005
 65,0.00000065,0.00000640,0.00000267,-0.00000399,-0.00000161,-0.0000018
 6,0.00000152,-0.00000171,0.00000180,-0.00000238,-0.00000184,0.00000245
 ,-0.00001701,0.00002257,0.00001239,0.00388138,0.04457318,-0.00000611,-
 0.00035877,0.00091904,0.00246230,0.00407433,-0.00948780,-0.03738039,0.
 06015487,-0.32503516,-0.00436771,0.00114422,-0.01000586,0.00176588,0.0
 0263337,0.00091580,0.00020162,-0.00028296,-0.00006908,0.00000676,-0.00
 001956,0.00004323,0.00001751,0.00001922,-0.00002683,-0.00002357,-0.000
 01643,-0.00001718,0.00000941,0.00003334,-0.00000197,0.00030037,-0.0007
 4272,0.00015504,0.00042653,-0.00092570,0.00043249,-0.00035033,0.000056
 90,-0.00047546,0.00000291,0.00000049,-0.00000414,0.00000182,0.00000480
 ,-0.00000742,-0.00002341,-0.00003426,0.00002198,-0.00335799,0.00024355
 ,0.00046702,-0.00008739,-0.00000528,-0.00009551,0.00021344,0.00034333,
 0.00005557,-0.00006412,0.00008997,-0.00000514,-0.00011132,-0.00005490,
 -0.00012013,0.00005803,-0.00017546,0.00006149,0.00014322,0.00008319,0.
 00012154,0.00015746,-0.00015805,-0.00002223,-0.00004876,0.00015311,-0.
 00004229,0.00005889,-0.00009216,0.00012335,-0.00009970,0.00007150,0.00
 001877,0.00002117,-0.00004621,-0.00001249,0.00004512,-0.00003527,0.000
 00282,0.00004154,0.00012849,-0.00015178,-0.00004481,-0.00001521,-0.000
 08541,0.00005128,0.00001855,0.00001259,0.00001315,0.00002901,0.0000429
 9,-0.00014062,-0.00012002,-0.00006722,-0.00000291,0.00000446,-0.000006
 48,0.00000149,-0.00000052,0.00000271,-0.00000380,0.00000480,0.00000048
 ,0.00000155,-0.00000205,0.00000106,-0.00000676,0.00000522,-0.00000330,
 0.,-0.00000456,0.00000273,-0.00000567,0.00000415,-0.00000337,0.0000032
 1,0.00000194,0.00000460,-0.00000865,0.00000733,0.00000321,-0.00000203,
 0.00000563,0.00000416,0.00000490,-0.00000040,-0.00000623,-0.00000302,-
 0.00000281,-0.00000034,-0.00000313,0.00000465,0.00000550,-0.00000288,-
 0.00000288,0.00000011,0.00000298,-0.00000091,0.00000226,-0.00000295,0.
 00000421,-0.00000145,-0.00001147,-0.00000141,-0.00000193,-0.00000401,-
 0.00000376,-0.00000621,0.00000252,0.00000052,0.00000071,0.00000237,0.0
 0000102,-0.00000031,-0.00000909,-0.00000523,-0.00000338,0.00000493,-0.
 00000031,0.00000059,-0.00000837,0.00000046,-0.00000281,0.00000220,0.00
 000018,0.00000085,-0.00000445,-0.00000248,-0.00000982,-0.00000074,0.00
 000465,-0.00000098,0.00000061,-0.00000695,-0.00000480,-0.00000253,-0.0
 0000255,0.00000427,-0.00000150,-0.00000609,-0.00000980,-0.00000702,-0.
 00000243,-0.00000261,0.00000217,0.00000170,-0.00000064,-0.00000110,-0.
 00000348,0.00000350,0.00001837,0.00000067,0.00000366,-0.00000364,-0.00
 000776,0.00000628,0.00000009,-0.00000552,-0.00000178,0.00000421,0.0000
 0900,0.00000402,0.00002962,0.00003725,-0.00000408,0.00000294,-0.000055
 56,0.00002837,-0.00000921,0.00001911,-0.00005017,0.00000040,0.00000685
 ,0.00001203,-0.00007535,-0.00009293,0.00005288,-0.00002707,-0.00000293
 ,-0.00010873,0.00000324,-0.00002580,-0.00000028,0.00002606,0.00002969,
 -0.00001479,-0.00001326,-0.00001109,0.00004464,0.00000775,0.00001268,0
 .00001188,0.00000336,0.00001221,-0.00001208,-0.00000388,-0.00001405,0.
 00000217,-0.00000598,-0.00002091,0.00006077,-0.00000817,0.00002965,-0.
 00001738,-0.00000956,-0.00006589,0.00002154,0.00000409,-0.00000034,0.0
 0000063,-0.00000454,0.00000122,0.00000850,-0.00000220,-0.00000493,-0.0
 0000550,-0.00000111,-0.00000566,0.00000448,0.00000136,-0.00000464,-0.0
 0000934,0.00000012,0.00000464,0.00001318,0.00001386,-0.00001606,0.0000
 0627,-0.00000631,0.00000451,0.00000540,0.00000218,0.00000294,0.0000036
 1,0.00000097,-0.00000392,-0.00000049,-0.00000189,0.00000101,0.00000412
 ,-0.00002100,0.00001615,0.00002691,0.00001004,-0.00000741,-0.00000830,
 -0.00000046,0.00000447,-0.00000121,0.00000037,-0.00000201,-0.00000183,
 -0.00000096,-0.00000414,0.00000815,0.00000506,-0.00000132,-0.00000810,
 -0.00001972,0.00001771,0.00002046,0.00000743,-0.00000678,-0.00000361,0
 .00000174,-0.00000784,-0.00001386,0.00000167,-0.00000819,-0.00000467,0
 .00000246,0.00000358,0.00000255,-0.00000098,-0.00000149,0.00000197,0.0
 0000350,0.00000146,-0.00000515,-0.00000960,0.00000578,-0.00000476,0.04
 024500,-0.06604483,0.34228876\\-0.00000617,-0.00000479,0.00000383,-0.0
 0000106,-0.00000343,0.00000703,0.00000531,0.00000432,0.00000409,-0.000
 00329,-0.00000381,0.00000304,0.00000192,0.00000222,0.00000434,-0.00000
 477,-0.00000348,0.00000012,-0.00000325,-0.00000365,-0.00000036,-0.0000
 0127,-0.00000007,-0.00000075,0.00000413,0.00000125,-0.00000026,0.00000
 289,0.00000405,-0.00000042,-0.00000245,0.00000010,0.00000096,-0.000003
 91,-0.00000052,0.00000091,-0.00000054,0.00000008,0.00000021,0.00000358
 ,0.00000211,0.,0.00000046,-0.00000090,0.00000216,-0.00000004,-0.000000
 98,0.00000090,0.00000068,0.00000506,-0.00001251,0.00000189,0.00000371,
 -0.00000020,-0.00000322,-0.00000185,0.00000114,0.00000375,0.00000352,-
 0.00000046,-0.00000089,-0.00000059,0.00000049,0.00000210,-0.00000233,0
 .00000066,0.00000443,0.00000359,-0.00000062,0.00000440,-0.00000382,-0.
 00000116,-0.00000164,0.00000337,-0.00000083,-0.00000065,-0.00000115,-0
 .00000073,-0.00000631,0.00000043,-0.00000041,-0.00000292,0.00000052,-0
 .00000359,-0.00000173,-0.00000263,-0.00000493,-0.00000167,0.00000147,-
 0.00000354,0.00000270,-0.00000328,0.00000356,0.00000046,0.00000454,-0.
 00000913,-0.00000375,-0.00000096,0.00000165,-0.00000278,-0.00000280,-0
 .00000067,-0.00000218,0.00000442,-0.00000545,-0.00000030,0.00000043,0.
 00000199,0.00000328,-0.00000103,-0.00000181,-0.00000128,-0.00000055,0.
 00000028,0.00000102,0.00000486,0.00000071,0.00000064,-0.00000076,-0.00
 000103,0.00000055,0.00000019,-0.00000168,0.00000134,-0.00000148,-0.000
 00080,-0.00000680,-0.00000445,-0.00000295,-0.00000153,0.00000237,-0.00
 000166,0.00000200,-0.00000006,0.00000019,0.00000146,0.00000240,-0.0000
 0358,0.00000119,-0.00000131,0.00000032,-0.00000014,0.00000117,-0.00000
 220,-0.00000017,0.00000017,-0.00000230,0.00000046,0.00000013,-0.000003
 33,-0.00000830,0.00000496,0.00000263,0.00000403,0.00000143,-0.00000142
 ,0.00000746,-0.00000438,-0.00000231,0.00000155,-0.00000207,-0.00000014
 ,0.00000128,-0.00000216,0.00000256,0.00000052,-0.00000099,-0.00000511,
 0.00000080,0.00000035,-0.00000240,0.00000194,0.00000074,-0.00000268,-0
 .00000208,-0.00000503,0.00000141,0.00000408,0.00000145,-0.00000178,0.0
 0000044,0.00000081,-0.00000168,0.00000005,0.00000233,-0.00000269,0.000
 00156,0.00000410,-0.00000271,0.00000048,-0.00000012,-0.00000186,0.0000
 0147,-0.00000253,-0.00000312,-0.00000034,0.00000038,-0.00000194,0.0000
 0015,0.00000465,0.00000117,-0.00000152,-0.00000033,0.00000223,-0.00000
 076,-0.00000083,0.00000094,-0.00000176,-0.00000135,-0.00000081,-0.0000
 1042,0.00000264,0.00000757,-0.00000140,0.00000077,-0.00000039,-0.00000
 035,-0.00000069,0.00000201,0.00000560,-0.00000267,-0.00000255,-0.00000
 699,0.00000573,-0.00000179,-0.00000004,0.00000036,0.00000138,-0.000002
 05,-0.00000281,0.00000299,0.00000190,-0.00000240,-0.00000017,0.0000008
 8,0.00000675,-0.00000223,0.00000032,-0.00000021,-0.00000069,-0.0000002
 2,-0.00000133,0.00000037,-0.00000300,-0.00000415,0.00000315,0.00000026
 ,0.00000065,-0.00000118,0.00000808,0.00000557,0.00000787,-0.00000207,-
 0.00000033,0.00000101,-0.00000015,0.00000382,0.00000325,0.00000154,-0.
 00000310,0.00000060,0.00000231,-0.00000157,-0.00000083,0.00000136,-0.0
 0000409,0.00000090,0.00000039,0.00000237,0.00000116,0.00000145,-0.0000
 0022,-0.00000104,-0.00000724,-0.00000364,-0.00000901,-0.00000101,0.000
 00257,0.00000703,0.00000404,-0.00000120,0.00000037,0.00000197,-0.00000
 276,-0.00000056,0.00000196,0.00000044,-0.00000006,-0.00000209,-0.00000
 847,0.00000536,-0.00000183,0.00000370,0.00000092,0.00000097,-0.0000027
 0,-0.00000014,0.00000499,0.00000185,-0.00000066,0.00000124,0.00000031,
 0.00000113,0.00000052,-0.00000001,0.00000380,0.00000317,0.00000181,0.0
 0000057,-0.00000054,0.00000077,0.00000285,-0.00000092,-0.00000065,0.00
 000326,0.00000435,-0.00000367,0.00000983,-0.00000269,-0.00000187,0.000
 00007,-0.00000107,0.00000126,0.00000073,0.00000083,-0.00000008,0.00000
 239,0.00000191,-0.00000051,0.00000073,-0.00000296,0.00000052,-0.000001
 53\\\@
 The archive entry for this job was punched.


 TO SEE A WORLD IN A GRAIN OF SAND
 AND A HEAVEN IN A WILD FLOWER
 HOLD INFINITY IN THE PALM OF YOUR HAND
 AND ETERNITY IN AN HOUR

                       -- WILLIAM BLAKE
 Job cpu time:       1 days 15 hours 17 minutes 13.3 seconds.
 Elapsed time:       0 days  2 hours 30 minutes 12.9 seconds.
 File lengths (MBytes):  RWF=   8594 Int=      0 D2E=      0 Chk=     49 Scr=      1
 Normal termination of Gaussian 16 at Sun Dec  8 00:09:28 2024.
