/mnt/lustre/scratch/nvme/SLURM/9663633/usccqdma.Zx05l15UUn
OMP_STACKSIZE=0m
GAUSS_PDEF=16
GAUSS_MDEF=65536MB
GAUSS_RDEF=SCF=Direct
 Entering Gaussian System, Link 0=g16.exe
 Initial command:
 /opt/cesga/2020/software/Core/g16/c1/l1.exe "/mnt/lustre/scratch/nvme/SLURM/9663633/usccqdma.Zx05l15UUn/Gau-1828991.inp" -scrdir="/mnt/lustre/scratch/nvme/SLURM/9663633/usccqdma.Zx05l15UUn/"
 Default is to use a total of  16 processors:
                               16 via shared-memory
                                1 via Linda
 Entering Link 1 = /opt/cesga/2020/software/Core/g16/c1/l1.exe PID=   1829020.
  
 Copyright (c) 1988-2019, Gaussian, Inc.  All Rights Reserved.
  
 This is part of the Gaussian(R) 16 program.  It is based on
 the Gaussian(R) 09 system (copyright 2009, Gaussian, Inc.),
 the Gaussian(R) 03 system (copyright 2003, Gaussian, Inc.),
 the Gaussian(R) 98 system (copyright 1998, Gaussian, Inc.),
 the Gaussian(R) 94 system (copyright 1995, Gaussian, Inc.),
 the Gaussian 92(TM) system (copyright 1992, Gaussian, Inc.),
 the Gaussian 90(TM) system (copyright 1990, Gaussian, Inc.),
 the Gaussian 88(TM) system (copyright 1988, Gaussian, Inc.),
 the Gaussian 86(TM) system (copyright 1986, Carnegie Mellon
 University), and the Gaussian 82(TM) system (copyright 1983,
 Carnegie Mellon University). Gaussian is a federally registered
 trademark of Gaussian, Inc.
  
 This software contains proprietary and confidential information,
 including trade secrets, belonging to Gaussian, Inc.
  
 This software is provided under written license and may be
 used, copied, transmitted, or stored only in accord with that
 written license.
  
 The following legend is applicable only to US Government
 contracts under FAR:
  
                    RESTRICTED RIGHTS LEGEND
  
 Use, reproduction and disclosure by the US Government is
 subject to restrictions as set forth in subparagraphs (a)
 and (c) of the Commercial Computer Software - Restricted
 Rights clause in FAR 52.227-19.
  
 Gaussian, Inc.
 340 Quinnipiac St., Bldg. 40, Wallingford CT 06492
  
  
 ---------------------------------------------------------------
 Warning -- This program may not be used in any manner that
 competes with the business of Gaussian, Inc. or will provide
 assistance to any competitor of Gaussian, Inc.  The licensee
 of this program is prohibited from giving any competitor of
 Gaussian, Inc. access to this program.  By using this program,
 the user acknowledges that Gaussian, Inc. is engaged in the
 business of creating and licensing software in the field of
 computational chemistry and represents and warrants to the
 licensee that it is not a competitor of Gaussian, Inc. and that
 it will not use this program in any manner prohibited above.
 ---------------------------------------------------------------
  

 Cite this work as:
 Gaussian 16, Revision C.01,
 M. J. Frisch, G. W. Trucks, H. B. Schlegel, G. E. Scuseria, 
 M. A. Robb, J. R. Cheeseman, G. Scalmani, V. Barone, 
 G. A. Petersson, H. Nakatsuji, X. Li, M. Caricato, A. V. Marenich, 
 J. Bloino, B. G. Janesko, R. Gomperts, B. Mennucci, H. P. Hratchian, 
 J. V. Ortiz, A. F. Izmaylov, J. L. Sonnenberg, D. Williams-Young, 
 F. Ding, F. Lipparini, F. Egidi, J. Goings, B. Peng, A. Petrone, 
 T. Henderson, D. Ranasinghe, V. G. Zakrzewski, J. Gao, N. Rega, 
 G. Zheng, W. Liang, M. Hada, M. Ehara, K. Toyota, R. Fukuda, 
 J. Hasegawa, M. Ishida, T. Nakajima, Y. Honda, O. Kitao, H. Nakai, 
 T. Vreven, K. Throssell, J. A. Montgomery, Jr., J. E. Peralta, 
 F. Ogliaro, M. J. Bearpark, J. J. Heyd, E. N. Brothers, K. N. Kudin, 
 V. N. Staroverov, T. A. Keith, R. Kobayashi, J. Normand, 
 K. Raghavachari, A. P. Rendell, J. C. Burant, S. S. Iyengar, 
 J. Tomasi, M. Cossi, J. M. Millam, M. Klene, C. Adamo, R. Cammi, 
 J. W. Ochterski, R. L. Martin, K. Morokuma, O. Farkas, 
 J. B. Foresman, and D. J. Fox, Gaussian, Inc., Wallingford CT, 2019.
 
 ******************************************
 Gaussian 16:  ES64L-G16RevC.01  3-Jul-2019
                 7-Dec-2024 
 ******************************************
 Default route: SCF=Direct
 ----------------------------------------------------
 # m06/genecp scf=tight int=ultrafine 5d freq=noraman
 ----------------------------------------------------
 1/10=4,30=1,38=1/1,3;
 2/12=2,17=6,18=5,40=1/2;
 3/5=7,8=1,11=2,16=1,17=8,25=1,30=1,71=2,74=-54,75=-5,140=1/1,2,3;
 4//1;
 5/5=2,32=2,38=5,98=1/2;
 8/6=4,10=90,11=11/1;
 11/6=1,8=1,9=11,15=111,16=1/1,2,10;
 10/6=1/2;
 6/7=2,8=2,9=2,10=2,28=1/1;
 7/8=1,10=1,25=1/1,2,3,16;
 1/10=4,30=1/3;
 99//99;
 ------
 OPT-TS
 ------
 Symbolic Z-matrix:
 Charge =  0 Multiplicity = 1
 C                     1.60735  -2.70292  -1.15217 
 C                     2.68897  -0.6715   -0.90321 
 C                     3.92678  -1.29418  -0.79969 
 C                     3.99553  -2.67896  -0.90271 
 C                     2.82049  -3.39042  -1.08896 
 C                     0.30254  -3.38873  -1.21524 
 C                    -1.97043  -3.24284  -0.79283 
 C                    -2.16413  -4.57939  -1.11253 
 C                    -1.07238  -5.33366  -1.52417 
 C                     0.17666  -4.73183  -1.56488 
 H                     2.58507   0.41469  -0.84468 
 H                     4.95173  -3.19186  -0.82651 
 H                     2.84573  -4.47605  -1.13792 
 H                    -2.78185  -2.60837  -0.4362 
 H                    -1.18817  -6.37938  -1.80149 
 H                     1.04856  -5.29999  -1.88058 
 N                     1.55995  -1.35992  -1.0739 
 N                    -0.77347  -2.64752  -0.86835 
 Ir                   -0.48296  -0.50246  -0.55507 
 O                    -0.09315   0.26467   2.3752 
 O                    -3.03542  -0.74214   1.057 
 O                     2.08706   2.42477  -0.92349 
 B                    -2.23588   0.07493   0.23505 
 B                    -0.03549  -0.70352   1.36822 
 B                     0.93988   2.83523  -1.54755 
 O                     0.35499   3.91096  -0.9429 
 O                     0.50594  -1.88706   1.8827 
 C                     1.0641   -1.5937    3.16701 
 C                     0.21368  -0.37223   3.62149 
 C                     2.33486   3.30362   0.19323 
 C                     0.97981   4.08433   0.34804 
 C                    -4.28744  -0.08388   1.27769 
 C                    -3.91919   1.40924   1.05183 
 O                    -2.86468   1.32001   0.08827 
 C                    -1.1107   -0.77832   4.2573 
 H                    -1.67115  -1.4543    3.59697 
 H                    -0.97127  -1.25936   5.23489 
 H                    -1.72006   0.12366   4.40759 
 C                     0.93472   0.61988   4.51208 
 H                     1.23354   0.15413   5.46253 
 H                     1.82923   1.02743   4.02631 
 H                     0.26436   1.4595    4.7404 
 C                     0.94645  -2.81624   4.05544 
 H                    -0.08435  -3.18468   4.09606 
 H                     1.57756  -3.62336   3.66105 
 H                     1.28243  -2.59319   5.07864 
 C                     2.53487  -1.25679   2.94452 
 H                     2.65166  -0.37287   2.30188 
 H                     3.0705   -1.07736   3.88684 
 H                     3.01407  -2.10294   2.43277 
 C                    -5.26741  -0.61776   0.23918 
 H                    -6.28165  -0.21972   0.38013 
 H                    -4.93494  -0.37661  -0.78015 
 H                    -5.31514  -1.71163   0.32908 
 C                    -4.78772  -0.4165    2.66963 
 H                    -4.03608  -0.18533   3.43247 
 H                    -5.70736   0.14044   2.90161 
 H                    -5.01514  -1.48867   2.73612 
 C                    -5.03502   2.26756   0.48798 
 H                    -5.3923    1.89264  -0.47848 
 H                    -5.88818   2.31318   1.18065 
 H                    -4.6683    3.29147   0.33598 
 C                    -3.33432   2.07189   2.29411 
 H                    -2.48158   1.49519   2.6803 
 H                    -2.9586    3.06502   2.01587 
 H                    -4.08187   2.19813   3.08937 
 C                     0.02734   3.49152   1.37531 
 H                    -0.16062   2.42457   1.2066 
 H                     0.40204   3.62108   2.40046 
 H                    -0.93345   4.01651   1.28971 
 C                     1.14269   5.57026   0.60365 
 H                     1.7049    6.06946  -0.19317 
 H                     0.15316   6.03992   0.66515 
 H                     1.65858   5.74287   1.55881 
 C                     3.51454   4.17244  -0.21448 
 H                     3.82259   4.85235   0.59036 
 H                     4.361     3.51779  -0.45834 
 H                     3.28204   4.76752  -1.1073 
 C                     2.69825   2.4511    1.39297 
 H                     3.63077   1.9045    1.19223 
 H                     2.8621    3.07924   2.28112 
 H                     1.90492   1.72613   1.6189 
 H                    -0.17635   1.07008  -0.37831 
 C                    -1.51063   0.81775  -3.0383 
 O                    -0.80447  -0.20544  -2.96516 
 C                    -3.01707   0.7157   -3.15058 
 H                    -3.45084   1.22079  -2.27278 
 H                    -3.35163   1.28523  -4.03131 
 C                     0.4674    2.2312   -2.93016 
 H                     0.92647   1.24971  -3.08804 
 H                     0.80793   2.88241  -3.75383 
 N                    -0.98041   2.0616   -3.06482 
 C                    -1.8081    3.24669  -2.90658 
 H                    -1.18584   4.13096  -3.07084 
 H                    -2.62572   3.26276  -3.63667 
 H                    -2.22295   3.30744  -1.88928 
 C                    -3.49813  -0.71894  -3.23465 
 H                    -3.05571  -1.24104  -4.09094 
 H                    -3.21178  -1.27524  -2.33338 
 C                     5.13008  -0.46511  -0.48246 
 F                     5.19705  -0.20403   0.83279 
 F                     6.26556  -1.08525  -0.81961 
 F                     5.10236   0.71348  -1.11073 
 H                    -3.15824  -5.01326  -1.03971 
 H                    -4.59073  -0.75416  -3.33193 
 

 GradGradGradGradGradGradGradGradGradGradGradGradGradGradGradGradGradGrad
 Berny optimization.
 Initialization pass.
 Trust Radius=3.00D-01 FncErr=1.00D-07 GrdErr=1.00D-07 EigMax=2.50D+02 EigMin=1.00D-04
 Number of steps in this run=      2 maximum allowed number of steps=      2.
 GradGradGradGradGradGradGradGradGradGradGradGradGradGradGradGradGradGrad

 Stoichiometry    C34H54B3F3IrN3O7
 Framework group  C1[X(C34H54B3F3IrN3O7)]
 Deg. of freedom   309
 Full point group                 C1      NOp   1
 Largest Abelian subgroup         C1      NOp   1
 Largest concise Abelian subgroup C1      NOp   1
                         Standard orientation:                         
 ---------------------------------------------------------------------
 Center     Atomic      Atomic             Coordinates (Angstroms)
 Number     Number       Type             X           Y           Z
 ---------------------------------------------------------------------
      1          6           0        1.607352   -2.702919   -1.152170
      2          6           0        2.688971   -0.671499   -0.903210
      3          6           0        3.926781   -1.294178   -0.799690
      4          6           0        3.995532   -2.678958   -0.902710
      5          6           0        2.820492   -3.390419   -1.088960
      6          6           0        0.302542   -3.388730   -1.215240
      7          6           0       -1.970428   -3.242841   -0.792830
      8          6           0       -2.164128   -4.579391   -1.112530
      9          6           0       -1.072377   -5.333660   -1.524170
     10          6           0        0.176663   -4.731830   -1.564880
     11          1           0        2.585070    0.414691   -0.844680
     12          1           0        4.951732   -3.191858   -0.826510
     13          1           0        2.845732   -4.476049   -1.137920
     14          1           0       -2.781848   -2.608371   -0.436200
     15          1           0       -1.188167   -6.379380   -1.801490
     16          1           0        1.048563   -5.299990   -1.880580
     17          7           0        1.559951   -1.359919   -1.073900
     18          7           0       -0.773468   -2.647520   -0.868350
     19         77           0       -0.482959   -0.502460   -0.555070
     20          8           0       -0.093150    0.264670    2.375200
     21          8           0       -3.035419   -0.742141    1.057000
     22          8           0        2.087060    2.424771   -0.923490
     23          5           0       -2.235879    0.074929    0.235050
     24          5           0       -0.035489   -0.703520    1.368220
     25          5           0        0.939879    2.835230   -1.547550
     26          8           0        0.354989    3.910960   -0.942900
     27          8           0        0.505941   -1.887060    1.882700
     28          6           0        1.064101   -1.593699    3.167010
     29          6           0        0.213681   -0.372230    3.621490
     30          6           0        2.334859    3.303621    0.193230
     31          6           0        0.979809    4.084330    0.348040
     32          6           0       -4.287439   -0.083882    1.277690
     33          6           0       -3.919190    1.409238    1.051830
     34          8           0       -2.864680    1.320009    0.088270
     35          6           0       -1.110699   -0.778320    4.257300
     36          1           0       -1.671149   -1.454301    3.596970
     37          1           0       -0.971269   -1.259360    5.234890
     38          1           0       -1.720059    0.123659    4.407590
     39          6           0        0.934720    0.619880    4.512080
     40          1           0        1.233541    0.154131    5.462530
     41          1           0        1.829230    1.027431    4.026310
     42          1           0        0.264360    1.459500    4.740400
     43          6           0        0.946452   -2.816240    4.055440
     44          1           0       -0.084348   -3.184680    4.096060
     45          1           0        1.577562   -3.623359    3.661050
     46          1           0        1.282432   -2.593189    5.078640
     47          6           0        2.534871   -1.256789    2.944520
     48          1           0        2.651661   -0.372869    2.301880
     49          1           0        3.070501   -1.077359    3.886840
     50          1           0        3.014071   -2.102939    2.432770
     51          6           0       -5.267409   -0.617762    0.239180
     52          1           0       -6.281649   -0.219722    0.380130
     53          1           0       -4.934939   -0.376612   -0.780150
     54          1           0       -5.315139   -1.711632    0.329080
     55          6           0       -4.787719   -0.416502    2.669630
     56          1           0       -4.036079   -0.185332    3.432470
     57          1           0       -5.707359    0.140438    2.901610
     58          1           0       -5.015139   -1.488672    2.736120
     59          6           0       -5.035020    2.267558    0.487980
     60          1           0       -5.392300    1.892638   -0.478480
     61          1           0       -5.888180    2.313178    1.180650
     62          1           0       -4.668301    3.291468    0.335980
     63          6           0       -3.334320    2.071889    2.294110
     64          1           0       -2.481580    1.495189    2.680300
     65          1           0       -2.958601    3.065019    2.015870
     66          1           0       -4.081870    2.198128    3.089370
     67          6           0        0.027339    3.491520    1.375310
     68          1           0       -0.160620    2.424570    1.206600
     69          1           0        0.402039    3.621080    2.400460
     70          1           0       -0.933451    4.016510    1.289710
     71          6           0        1.142688    5.570261    0.603650
     72          1           0        1.704898    6.069461   -0.193170
     73          1           0        0.153158    6.039920    0.665150
     74          1           0        1.658578    5.742871    1.558810
     75          6           0        3.514539    4.172442   -0.214480
     76          1           0        3.822589    4.852352    0.590360
     77          1           0        4.360999    3.517792   -0.458340
     78          1           0        3.282039    4.767521   -1.107300
     79          6           0        2.698250    2.451101    1.392970
     80          1           0        3.630770    1.904502    1.192230
     81          1           0        2.862099    3.079241    2.281120
     82          1           0        1.904920    1.726131    1.618900
     83          1           0       -0.176350    1.070080   -0.378310
     84          6           0       -1.510630    0.817749   -3.038300
     85          8           0       -0.804469   -0.205440   -2.965160
     86          6           0       -3.017070    0.715699   -3.150580
     87          1           0       -3.450840    1.220789   -2.272780
     88          1           0       -3.351630    1.285229   -4.031310
     89          6           0        0.467400    2.231200   -2.930160
     90          1           0        0.926470    1.249710   -3.088040
     91          1           0        0.807929    2.882410   -3.753830
     92          7           0       -0.980410    2.061600   -3.064820
     93          6           0       -1.808101    3.246689   -2.906580
     94          1           0       -1.185841    4.130960   -3.070840
     95          1           0       -2.625721    3.262759   -3.636670
     96          1           0       -2.222951    3.307439   -1.889280
     97          6           0       -3.498129   -0.718941   -3.234650
     98          1           0       -3.055709   -1.241041   -4.090940
     99          1           0       -3.211779   -1.275241   -2.333380
    100          6           0        5.130081   -0.465108   -0.482460
    101          9           0        5.197051   -0.204028    0.832790
    102          9           0        6.265561   -1.085247   -0.819610
    103          9           0        5.102360    0.713482   -1.110730
    104          1           0       -3.158237   -5.013261   -1.039710
    105          1           0       -4.590729   -0.754162   -3.331930
 ---------------------------------------------------------------------
 Rotational constants (GHZ):           0.0680177           0.0553898           0.0482780
 General basis read from cards:  (5D, 7F)
 ======================================================================================================
                                       Pseudopotential Parameters
 ======================================================================================================
  Center     Atomic      Valence      Angular      Power
  Number     Number     Electrons     Momentum     of R      Exponent        Coefficient   SO-Coeffient
 ======================================================================================================
    1          6
                                   No pseudopotential on this center.
    2          6
                                   No pseudopotential on this center.
    3          6
                                   No pseudopotential on this center.
    4          6
                                   No pseudopotential on this center.
    5          6
                                   No pseudopotential on this center.
    6          6
                                   No pseudopotential on this center.
    7          6
                                   No pseudopotential on this center.
    8          6
                                   No pseudopotential on this center.
    9          6
                                   No pseudopotential on this center.
   10          6
                                   No pseudopotential on this center.
   11          1
                                   No pseudopotential on this center.
   12          1
                                   No pseudopotential on this center.
   13          1
                                   No pseudopotential on this center.
   14          1
                                   No pseudopotential on this center.
   15          1
                                   No pseudopotential on this center.
   16          1
                                   No pseudopotential on this center.
   17          7
                                   No pseudopotential on this center.
   18          7
                                   No pseudopotential on this center.
   19         77           17
                                      G and up 
                                                     1      823.5880147       -0.15780140    0.00000000
                                                     2      364.6613336    -1517.52704460    0.00000000
                                                     2       55.7082801     -316.53065290    0.00000000
                                                     2       12.0464544      -91.88809410    0.00000000
                                                     2        3.5120610       -9.22417730    0.00000000
                                      S - G
                                                     0      188.0490770        3.15780140    0.00000000
                                                     1      340.4194712       26.83225770    0.00000000
                                                     2      128.2373673      800.42500070    0.00000000
                                                     2       33.8644961      369.40506830    0.00000000
                                                     2        4.7560005      242.41718990    0.00000000
                                                     2        3.9649974     -118.21732820    0.00000000
                                      P - G
                                                     0      289.7291139        2.15780140    0.00000000
                                                     1       87.4633789       61.96786100    0.00000000
                                                     2       30.4363766      269.05819860    0.00000000
                                                     2        4.0553412      231.16547930    0.00000000
                                                     2        3.5525341     -133.69526670    0.00000000
                                      D - G
                                                     0      136.4017106        3.15780140    0.00000000
                                                     1       95.0776925       45.93498030    0.00000000
                                                     2       49.2258410      359.03446680    0.00000000
                                                     2       15.0874145      176.47401190    0.00000000
                                                     2        4.0405764       54.51552860    0.00000000
                                      F - G
                                                     0      127.3507908        3.95461970    0.00000000
                                                     1       66.2364374       52.97736550    0.00000000
                                                     2       34.4299229      274.86433830    0.00000000
                                                     2       10.1995721      137.20473380    0.00000000
                                                     2        2.5409702       14.86333050    0.00000000
   20          8
                                   No pseudopotential on this center.
   21          8
                                   No pseudopotential on this center.
   22          8
                                   No pseudopotential on this center.
   23          5
                                   No pseudopotential on this center.
   24          5
                                   No pseudopotential on this center.
   25          5
                                   No pseudopotential on this center.
   26          8
                                   No pseudopotential on this center.
   27          8
                                   No pseudopotential on this center.
   28          6
                                   No pseudopotential on this center.
   29          6
                                   No pseudopotential on this center.
   30          6
                                   No pseudopotential on this center.
   31          6
                                   No pseudopotential on this center.
   32          6
                                   No pseudopotential on this center.
   33          6
                                   No pseudopotential on this center.
   34          8
                                   No pseudopotential on this center.
   35          6
                                   No pseudopotential on this center.
   36          1
                                   No pseudopotential on this center.
   37          1
                                   No pseudopotential on this center.
   38          1
                                   No pseudopotential on this center.
   39          6
                                   No pseudopotential on this center.
   40          1
                                   No pseudopotential on this center.
   41          1
                                   No pseudopotential on this center.
   42          1
                                   No pseudopotential on this center.
   43          6
                                   No pseudopotential on this center.
   44          1
                                   No pseudopotential on this center.
   45          1
                                   No pseudopotential on this center.
   46          1
                                   No pseudopotential on this center.
   47          6
                                   No pseudopotential on this center.
   48          1
                                   No pseudopotential on this center.
   49          1
                                   No pseudopotential on this center.
   50          1
                                   No pseudopotential on this center.
   51          6
                                   No pseudopotential on this center.
   52          1
                                   No pseudopotential on this center.
   53          1
                                   No pseudopotential on this center.
   54          1
                                   No pseudopotential on this center.
   55          6
                                   No pseudopotential on this center.
   56          1
                                   No pseudopotential on this center.
   57          1
                                   No pseudopotential on this center.
   58          1
                                   No pseudopotential on this center.
   59          6
                                   No pseudopotential on this center.
   60          1
                                   No pseudopotential on this center.
   61          1
                                   No pseudopotential on this center.
   62          1
                                   No pseudopotential on this center.
   63          6
                                   No pseudopotential on this center.
   64          1
                                   No pseudopotential on this center.
   65          1
                                   No pseudopotential on this center.
   66          1
                                   No pseudopotential on this center.
   67          6
                                   No pseudopotential on this center.
   68          1
                                   No pseudopotential on this center.
   69          1
                                   No pseudopotential on this center.
   70          1
                                   No pseudopotential on this center.
   71          6
                                   No pseudopotential on this center.
   72          1
                                   No pseudopotential on this center.
   73          1
                                   No pseudopotential on this center.
   74          1
                                   No pseudopotential on this center.
   75          6
                                   No pseudopotential on this center.
   76          1
                                   No pseudopotential on this center.
   77          1
                                   No pseudopotential on this center.
   78          1
                                   No pseudopotential on this center.
   79          6
                                   No pseudopotential on this center.
   80          1
                                   No pseudopotential on this center.
   81          1
                                   No pseudopotential on this center.
   82          1
                                   No pseudopotential on this center.
   83          1
                                   No pseudopotential on this center.
   84          6
                                   No pseudopotential on this center.
   85          8
                                   No pseudopotential on this center.
   86          6
                                   No pseudopotential on this center.
   87          1
                                   No pseudopotential on this center.
   88          1
                                   No pseudopotential on this center.
   89          6
                                   No pseudopotential on this center.
   90          1
                                   No pseudopotential on this center.
   91          1
                                   No pseudopotential on this center.
   92          7
                                   No pseudopotential on this center.
   93          6
                                   No pseudopotential on this center.
   94          1
                                   No pseudopotential on this center.
   95          1
                                   No pseudopotential on this center.
   96          1
                                   No pseudopotential on this center.
   97          6
                                   No pseudopotential on this center.
   98          1
                                   No pseudopotential on this center.
   99          1
                                   No pseudopotential on this center.
  100          6
                                   No pseudopotential on this center.
  101          9
                                   No pseudopotential on this center.
  102          9
                                   No pseudopotential on this center.
  103          9
                                   No pseudopotential on this center.
  104          1
                                   No pseudopotential on this center.
  105          1
                                   No pseudopotential on this center.
 ======================================================================================================
 There are   882 symmetry adapted cartesian basis functions of A   symmetry.
 There are   830 symmetry adapted basis functions of A   symmetry.
   830 basis functions,  1659 primitive gaussians,   882 cartesian basis functions
   197 alpha electrons      197 beta electrons
       nuclear repulsion energy      8586.5006359843 Hartrees.
 NAtoms=  105 NActive=  105 NUniq=  105 SFac= 1.00D+00 NAtFMM=   60 NAOKFM=T Big=T
 Integral buffers will be    131072 words long.
 Raffenetti 2 integral format.
 Two-electron integral symmetry is turned on.
 One-electron integrals computed using PRISM.
   1 Symmetry operations used in ECPInt.
 ECPInt:  NShTT=   50086 NPrTT=  307226 LenC2=   39197 LenP2D=  121950.
 LDataN:  DoStor=T MaxTD1= 6 Len=  172
 NBasis=   830 RedAO= T EigKep=  5.02D-04  NBF=   830
 NBsUse=   830 1.00D-06 EigRej= -1.00D+00 NBFU=   830
 Defaulting to unpruned grid for atomic number  77.
 ExpMin= 2.90D-02 ExpMax= 7.00D+03 ExpMxC= 1.05D+03 IAcc=3 IRadAn=         5 AccDes= 0.00D+00
 Harris functional with IExCor= 1009 and IRadAn=       5 diagonalized for initial guess.
 HarFok:  IExCor= 1009 AccDes= 0.00D+00 IRadAn=         5 IDoV= 1 UseB2=F ITyADJ=14
 ICtDFT=  3500011 ScaDFX=  1.000000  1.000000  1.000000  1.000000
 Defaulting to unpruned grid for atomic number  77.
 FoFCou: FMM=F IPFlag=           0 FMFlag=      100000 FMFlg1=        2001
         NFxFlg=           0 DoJE=T BraDBF=F KetDBF=T FulRan=T
         wScrn=  0.000000 ICntrl=       500 IOpCl=  0 I1Cent=   200000004 NGrid=           0
         NMat0=    1 NMatS0=      1 NMatT0=    0 NMatD0=    1 NMtDS0=    0 NMtDT0=    0
 Petite list used in FoFCou.
 Requested convergence on RMS density matrix=1.00D-08 within 128 cycles.
 Requested convergence on MAX density matrix=1.00D-06.
 Requested convergence on             energy=1.00D-06.
 No special actions if energy rises.
 Defaulting to unpruned grid for atomic number  77.
 Defaulting to unpruned grid for atomic number  77.
 Defaulting to unpruned grid for atomic number  77.
 Defaulting to unpruned grid for atomic number  77.
 Defaulting to unpruned grid for atomic number  77.
 Defaulting to unpruned grid for atomic number  77.
 Defaulting to unpruned grid for atomic number  77.
 Defaulting to unpruned grid for atomic number  77.
 Defaulting to unpruned grid for atomic number  77.
 Defaulting to unpruned grid for atomic number  77.
 Defaulting to unpruned grid for atomic number  77.
 Defaulting to unpruned grid for atomic number  77.
 Defaulting to unpruned grid for atomic number  77.
 Defaulting to unpruned grid for atomic number  77.
 Defaulting to unpruned grid for atomic number  77.
 Defaulting to unpruned grid for atomic number  77.
 SCF Done:  E(RM06) =  -2496.64860023     A.U. after   16 cycles
            NFock= 16  Conv=0.49D-08     -V/T= 2.0358
 DoSCS=F DFT=T ScalE2(SS,OS)=  1.000000  1.000000
 Range of M.O.s used for correlation:     1   830
 NBasis=   830 NAE=   197 NBE=   197 NFC=     0 NFV=     0
 NROrb=    830 NOA=   197 NOB=   197 NVA=   633 NVB=   633
   1 Symmetry operations used in ECPInt.
 ECPInt:  NShTT=   50086 NPrTT=  307226 LenC2=   39197 LenP2D=  121950.
 LDataN:  DoStor=T MaxTD1= 7 Len=  274
 Number of processors reduced to   8 by ecpmxn.
 Symmetrizing basis deriv contribution to polar:
 IMax=3 JMax=2 DiffMx= 0.00D+00
 G2DrvN: will do   106 centers at a time, making    1 passes.
 Calling FoFCou, ICntrl=  3107 FMM=T I1Cent=   0 AccDes= 0.00D+00.
 Defaulting to unpruned grid for atomic number  77.
 Defaulting to unpruned grid for atomic number  77.
 Defaulting to unpruned grid for atomic number  77.
 Defaulting to unpruned grid for atomic number  77.
 Defaulting to unpruned grid for atomic number  77.
 Defaulting to unpruned grid for atomic number  77.
 Defaulting to unpruned grid for atomic number  77.
 Defaulting to unpruned grid for atomic number  77.
 Defaulting to unpruned grid for atomic number  77.
 Defaulting to unpruned grid for atomic number  77.
 Defaulting to unpruned grid for atomic number  77.
 Defaulting to unpruned grid for atomic number  77.
 Defaulting to unpruned grid for atomic number  77.
 Defaulting to unpruned grid for atomic number  77.
 Defaulting to unpruned grid for atomic number  77.
 Defaulting to unpruned grid for atomic number  77.
 End of G2Drv F.D. properties file   721 does not exist.
 End of G2Drv F.D. properties file   722 does not exist.
 End of G2Drv F.D. properties file   788 does not exist.
          IDoAtm=11111111111111111111111111111111111111111111111111
          IDoAtm=11111111111111111111111111111111111111111111111111
          IDoAtm=11111
          Differentiating once with respect to electric field.
                with respect to dipole field.
          Differentiating once with respect to nuclear coordinates.
 Defaulting to unpruned grid for atomic number  77.
 CalDSu exits because no D1Ps are significant.
 Defaulting to unpruned grid for atomic number  77.
 Defaulting to unpruned grid for atomic number  77.
 Defaulting to unpruned grid for atomic number  77.
 Defaulting to unpruned grid for atomic number  77.
 Defaulting to unpruned grid for atomic number  77.
 Defaulting to unpruned grid for atomic number  77.
 Defaulting to unpruned grid for atomic number  77.
 Defaulting to unpruned grid for atomic number  77.
 Defaulting to unpruned grid for atomic number  77.
 Defaulting to unpruned grid for atomic number  77.
 Defaulting to unpruned grid for atomic number  77.
 Defaulting to unpruned grid for atomic number  77.
 Defaulting to unpruned grid for atomic number  77.
 Defaulting to unpruned grid for atomic number  77.
 Defaulting to unpruned grid for atomic number  77.
 Defaulting to unpruned grid for atomic number  77.
          There are   318 degrees of freedom in the 1st order CPHF.  IDoFFX=6 NUNeed=     3.
    315 vectors produced by pass  0 Test12= 1.25D-13 1.00D-09 XBig12= 5.07D+02 9.73D+00.
 AX will form    72 AO Fock derivatives at one time.
    315 vectors produced by pass  1 Test12= 1.25D-13 1.00D-09 XBig12= 7.55D+01 7.90D-01.
    315 vectors produced by pass  2 Test12= 1.25D-13 1.00D-09 XBig12= 9.52D-01 9.62D-02.
    315 vectors produced by pass  3 Test12= 1.25D-13 1.00D-09 XBig12= 6.20D-03 7.12D-03.
    315 vectors produced by pass  4 Test12= 1.25D-13 1.00D-09 XBig12= 2.11D-05 3.48D-04.
    282 vectors produced by pass  5 Test12= 1.25D-13 1.00D-09 XBig12= 4.71D-08 1.46D-05.
     76 vectors produced by pass  6 Test12= 1.25D-13 1.00D-09 XBig12= 6.98D-11 4.53D-07.
      3 vectors produced by pass  7 Test12= 1.25D-13 1.00D-09 XBig12= 8.84D-14 1.60D-08.
 InvSVY:  IOpt=1 It=  1 EMax= 1.78D-14
 Solved reduced A of dimension  1936 with   318 vectors.
 Isotropic polarizability for W=    0.000000      475.50 Bohr**3.
 End of Minotr F.D. properties file   721 does not exist.
 End of Minotr F.D. properties file   722 does not exist.
 End of Minotr F.D. properties file   788 does not exist.
 Hyperfine terms turned off by default for NAtoms > 100.

 **********************************************************************

            Population analysis using the SCF Density.

 **********************************************************************

 Orbital symmetries:
       Occupied  (A) (A) (A) (A) (A) (A) (A) (A) (A) (A) (A) (A)
                 (A) (A) (A) (A) (A) (A) (A) (A) (A) (A) (A) (A)
                 (A) (A) (A) (A) (A) (A) (A) (A) (A) (A) (A) (A)
                 (A) (A) (A) (A) (A) (A) (A) (A) (A) (A) (A) (A)
                 (A) (A) (A) (A) (A) (A) (A) (A) (A) (A) (A) (A)
                 (A) (A) (A) (A) (A) (A) (A) (A) (A) (A) (A) (A)
                 (A) (A) (A) (A) (A) (A) (A) (A) (A) (A) (A) (A)
                 (A) (A) (A) (A) (A) (A) (A) (A) (A) (A) (A) (A)
                 (A) (A) (A) (A) (A) (A) (A) (A) (A) (A) (A) (A)
                 (A) (A) (A) (A) (A) (A) (A) (A) (A) (A) (A) (A)
                 (A) (A) (A) (A) (A) (A) (A) (A) (A) (A) (A) (A)
                 (A) (A) (A) (A) (A) (A) (A) (A) (A) (A) (A) (A)
                 (A) (A) (A) (A) (A) (A) (A) (A) (A) (A) (A) (A)
                 (A) (A) (A) (A) (A) (A) (A) (A) (A) (A) (A) (A)
                 (A) (A) (A) (A) (A) (A) (A) (A) (A) (A) (A) (A)
                 (A) (A) (A) (A) (A) (A) (A) (A) (A) (A) (A) (A)
                 (A) (A) (A) (A) (A)
       Virtual   (A) (A) (A) (A) (A) (A) (A) (A) (A) (A) (A) (A)
                 (A) (A) (A) (A) (A) (A) (A) (A) (A) (A) (A) (A)
                 (A) (A) (A) (A) (A) (A) (A) (A) (A) (A) (A) (A)
                 (A) (A) (A) (A) (A) (A) (A) (A) (A) (A) (A) (A)
                 (A) (A) (A) (A) (A) (A) (A) (A) (A) (A) (A) (A)
                 (A) (A) (A) (A) (A) (A) (A) (A) (A) (A) (A) (A)
                 (A) (A) (A) (A) (A) (A) (A) (A) (A) (A) (A) (A)
                 (A) (A) (A) (A) (A) (A) (A) (A) (A) (A) (A) (A)
                 (A) (A) (A) (A) (A) (A) (A) (A) (A) (A) (A) (A)
                 (A) (A) (A) (A) (A) (A) (A) (A) (A) (A) (A) (A)
                 (A) (A) (A) (A) (A) (A) (A) (A) (A) (A) (A) (A)
                 (A) (A) (A) (A) (A) (A) (A) (A) (A) (A) (A) (A)
                 (A) (A) (A) (A) (A) (A) (A) (A) (A) (A) (A) (A)
                 (A) (A) (A) (A) (A) (A) (A) (A) (A) (A) (A) (A)
                 (A) (A) (A) (A) (A) (A) (A) (A) (A) (A) (A) (A)
                 (A) (A) (A) (A) (A) (A) (A) (A) (A) (A) (A) (A)
                 (A) (A) (A) (A) (A) (A) (A) (A) (A) (A) (A) (A)
                 (A) (A) (A) (A) (A) (A) (A) (A) (A) (A) (A) (A)
                 (A) (A) (A) (A) (A) (A) (A) (A) (A) (A) (A) (A)
                 (A) (A) (A) (A) (A) (A) (A) (A) (A) (A) (A) (A)
                 (A) (A) (A) (A) (A) (A) (A) (A) (A) (A) (A) (A)
                 (A) (A) (A) (A) (A) (A) (A) (A) (A) (A) (A) (A)
                 (A) (A) (A) (A) (A) (A) (A) (A) (A) (A) (A) (A)
                 (A) (A) (A) (A) (A) (A) (A) (A) (A) (A) (A) (A)
                 (A) (A) (A) (A) (A) (A) (A) (A) (A) (A) (A) (A)
                 (A) (A) (A) (A) (A) (A) (A) (A) (A) (A) (A) (A)
                 (A) (A) (A) (A) (A) (A) (A) (A) (A) (A) (A) (A)
                 (A) (A) (A) (A) (A) (A) (A) (A) (A) (A) (A) (A)
                 (A) (A) (A) (A) (A) (A) (A) (A) (A) (A) (A) (A)
                 (A) (A) (A) (A) (A) (A) (A) (A) (A) (A) (A) (A)
                 (A) (A) (A) (A) (A) (A) (A) (A) (A) (A) (A) (A)
                 (A) (A) (A) (A) (A) (A) (A) (A) (A) (A) (A) (A)
                 (A) (A) (A) (A) (A) (A) (A) (A) (A) (A) (A) (A)
                 (A) (A) (A) (A) (A) (A) (A) (A) (A) (A) (A) (A)
                 (A) (A) (A) (A) (A) (A) (A) (A) (A) (A) (A) (A)
                 (A) (A) (A) (A) (A) (A) (A) (A) (A) (A) (A) (A)
                 (A) (A) (A) (A) (A) (A) (A) (A) (A) (A) (A) (A)
                 (A) (A) (A) (A) (A) (A) (A) (A) (A) (A) (A) (A)
                 (A) (A) (A) (A) (A) (A) (A) (A) (A) (A) (A) (A)
                 (A) (A) (A) (A) (A) (A) (A) (A) (A) (A) (A) (A)
                 (A) (A) (A) (A) (A) (A) (A) (A) (A) (A) (A) (A)
                 (A) (A) (A) (A) (A) (A) (A) (A) (A) (A) (A) (A)
                 (A) (A) (A) (A) (A) (A) (A) (A) (A) (A) (A) (A)
                 (A) (A) (A) (A) (A) (A) (A) (A) (A) (A) (A) (A)
                 (A) (A) (A) (A) (A) (A) (A) (A) (A) (A) (A) (A)
                 (A) (A) (A) (A) (A) (A) (A) (A) (A) (A) (A) (A)
                 (A) (A) (A) (A) (A) (A) (A) (A) (A) (A) (A) (A)
                 (A) (A) (A) (A) (A) (A) (A) (A) (A) (A) (A) (A)
                 (A) (A) (A) (A) (A) (A) (A) (A) (A) (A) (A) (A)
                 (A) (A) (A) (A) (A) (A) (A) (A) (A) (A) (A) (A)
                 (A) (A) (A) (A) (A) (A) (A) (A) (A) (A) (A) (A)
                 (A) (A) (A) (A) (A) (A) (A) (A) (A) (A) (A) (A)
                 (A) (A) (A) (A) (A) (A) (A) (A) (A)
 The electronic state is 1-A.
 Alpha  occ. eigenvalues --  -24.82810 -24.82515 -24.82170 -19.21867 -19.21612
 Alpha  occ. eigenvalues --  -19.19482 -19.19334 -19.19236 -19.19008 -19.18645
 Alpha  occ. eigenvalues --  -14.44489 -14.43959 -14.42021 -10.50946 -10.34007
 Alpha  occ. eigenvalues --  -10.31889 -10.31327 -10.30177 -10.30057 -10.29899
 Alpha  occ. eigenvalues --  -10.29591 -10.29266 -10.28750 -10.28711 -10.28653
 Alpha  occ. eigenvalues --  -10.28608 -10.28439 -10.28295 -10.28265 -10.27812
 Alpha  occ. eigenvalues --  -10.27250 -10.26224 -10.24388 -10.23871 -10.22910
 Alpha  occ. eigenvalues --  -10.22879 -10.22440 -10.22425 -10.22401 -10.22388
 Alpha  occ. eigenvalues --  -10.22366 -10.22359 -10.22266 -10.22139 -10.21766
 Alpha  occ. eigenvalues --  -10.21312 -10.20933  -6.81364  -6.78391  -6.77605
 Alpha  occ. eigenvalues --   -3.59702  -2.02303  -2.01528  -2.01096  -1.35322
 Alpha  occ. eigenvalues --   -1.26863  -1.26275  -1.07567  -1.05333  -1.04941
 Alpha  occ. eigenvalues --   -1.04063  -1.00998  -0.99579  -0.98416  -0.98028
 Alpha  occ. eigenvalues --   -0.97070  -0.93533  -0.85531  -0.83447  -0.82738
 Alpha  occ. eigenvalues --   -0.80895  -0.79774  -0.79639  -0.78503  -0.77748
 Alpha  occ. eigenvalues --   -0.75105  -0.74338  -0.74199  -0.73201  -0.71413
 Alpha  occ. eigenvalues --   -0.70425  -0.69970  -0.69808  -0.69449  -0.68173
 Alpha  occ. eigenvalues --   -0.67969  -0.67299  -0.67219  -0.67079  -0.64817
 Alpha  occ. eigenvalues --   -0.63727  -0.62910  -0.61341  -0.61307  -0.61148
 Alpha  occ. eigenvalues --   -0.61013  -0.60709  -0.59751  -0.56552  -0.55747
 Alpha  occ. eigenvalues --   -0.54571  -0.53899  -0.53643  -0.53146  -0.52800
 Alpha  occ. eigenvalues --   -0.52551  -0.52339  -0.51731  -0.49899  -0.49830
 Alpha  occ. eigenvalues --   -0.48883  -0.48730  -0.48621  -0.48140  -0.47657
 Alpha  occ. eigenvalues --   -0.47222  -0.46842  -0.46659  -0.46392  -0.46191
 Alpha  occ. eigenvalues --   -0.45840  -0.45668  -0.45564  -0.45131  -0.44692
 Alpha  occ. eigenvalues --   -0.44629  -0.44490  -0.44119  -0.43999  -0.43954
 Alpha  occ. eigenvalues --   -0.43688  -0.43355  -0.43083  -0.42822  -0.42734
 Alpha  occ. eigenvalues --   -0.42649  -0.41962  -0.41573  -0.40463  -0.40312
 Alpha  occ. eigenvalues --   -0.40073  -0.39956  -0.39834  -0.39664  -0.39646
 Alpha  occ. eigenvalues --   -0.39590  -0.39425  -0.39371  -0.39098  -0.38970
 Alpha  occ. eigenvalues --   -0.38887  -0.38673  -0.38407  -0.38248  -0.38062
 Alpha  occ. eigenvalues --   -0.37267  -0.37071  -0.36995  -0.36973  -0.36478
 Alpha  occ. eigenvalues --   -0.36280  -0.36244  -0.35967  -0.35706  -0.35553
 Alpha  occ. eigenvalues --   -0.35393  -0.35211  -0.34946  -0.34781  -0.34466
 Alpha  occ. eigenvalues --   -0.34175  -0.34141  -0.33946  -0.33304  -0.33224
 Alpha  occ. eigenvalues --   -0.32867  -0.32322  -0.31510  -0.31328  -0.31014
 Alpha  occ. eigenvalues --   -0.30626  -0.30557  -0.30461  -0.29633  -0.29368
 Alpha  occ. eigenvalues --   -0.27746  -0.27472  -0.26618  -0.26458  -0.25988
 Alpha  occ. eigenvalues --   -0.25456  -0.24912  -0.24161  -0.23344  -0.19765
 Alpha  occ. eigenvalues --   -0.19011  -0.18986
 Alpha virt. eigenvalues --   -0.06941  -0.03659  -0.02734   0.01179   0.03455
 Alpha virt. eigenvalues --    0.04683   0.05070   0.05561   0.06828   0.07670
 Alpha virt. eigenvalues --    0.08177   0.08709   0.09320   0.09724   0.10706
 Alpha virt. eigenvalues --    0.10897   0.10959   0.11615   0.11946   0.12237
 Alpha virt. eigenvalues --    0.12624   0.12846   0.13047   0.13279   0.13434
 Alpha virt. eigenvalues --    0.13708   0.13779   0.14010   0.14420   0.14768
 Alpha virt. eigenvalues --    0.15273   0.15336   0.15637   0.15760   0.15875
 Alpha virt. eigenvalues --    0.15962   0.16187   0.16404   0.16656   0.16994
 Alpha virt. eigenvalues --    0.17076   0.17258   0.17439   0.17572   0.17814
 Alpha virt. eigenvalues --    0.17991   0.18289   0.18691   0.18834   0.18881
 Alpha virt. eigenvalues --    0.19133   0.19286   0.19411   0.19653   0.19658
 Alpha virt. eigenvalues --    0.20070   0.20148   0.20353   0.20526   0.20800
 Alpha virt. eigenvalues --    0.21028   0.21333   0.21505   0.21723   0.22023
 Alpha virt. eigenvalues --    0.22372   0.22592   0.22742   0.22839   0.23137
 Alpha virt. eigenvalues --    0.23608   0.24140   0.24224   0.24742   0.24894
 Alpha virt. eigenvalues --    0.24980   0.25102   0.25459   0.25491   0.25787
 Alpha virt. eigenvalues --    0.25967   0.26296   0.26587   0.26893   0.26998
 Alpha virt. eigenvalues --    0.27515   0.27620   0.28081   0.28247   0.28379
 Alpha virt. eigenvalues --    0.28696   0.28841   0.29578   0.29687   0.30034
 Alpha virt. eigenvalues --    0.30513   0.30723   0.31264   0.31648   0.31989
 Alpha virt. eigenvalues --    0.32412   0.33461   0.34108   0.34698   0.34793
 Alpha virt. eigenvalues --    0.35383   0.36752   0.37363   0.37421   0.38318
 Alpha virt. eigenvalues --    0.38778   0.39097   0.40134   0.40242   0.40813
 Alpha virt. eigenvalues --    0.42132   0.43230   0.43388   0.45629   0.46222
 Alpha virt. eigenvalues --    0.47228   0.47758   0.48694   0.49269   0.49575
 Alpha virt. eigenvalues --    0.49687   0.50128   0.50893   0.51255   0.51606
 Alpha virt. eigenvalues --    0.51923   0.52042   0.52485   0.52804   0.53101
 Alpha virt. eigenvalues --    0.53767   0.54108   0.54604   0.55161   0.55287
 Alpha virt. eigenvalues --    0.55861   0.56100   0.56645   0.57112   0.57266
 Alpha virt. eigenvalues --    0.57417   0.57794   0.57976   0.58196   0.58483
 Alpha virt. eigenvalues --    0.58560   0.58821   0.59083   0.59299   0.59763
 Alpha virt. eigenvalues --    0.59900   0.60017   0.60123   0.60644   0.60896
 Alpha virt. eigenvalues --    0.61387   0.61496   0.61741   0.62165   0.62357
 Alpha virt. eigenvalues --    0.62746   0.63139   0.63607   0.63897   0.64231
 Alpha virt. eigenvalues --    0.64601   0.64944   0.65098   0.65527   0.65741
 Alpha virt. eigenvalues --    0.66353   0.66609   0.66909   0.67099   0.67651
 Alpha virt. eigenvalues --    0.67719   0.68082   0.68510   0.68832   0.69229
 Alpha virt. eigenvalues --    0.69923   0.70323   0.70606   0.70741   0.71454
 Alpha virt. eigenvalues --    0.71663   0.72095   0.72383   0.72654   0.72873
 Alpha virt. eigenvalues --    0.73196   0.73469   0.73728   0.74081   0.74322
 Alpha virt. eigenvalues --    0.74895   0.75193   0.75565   0.75751   0.76334
 Alpha virt. eigenvalues --    0.76711   0.77626   0.77933   0.78380   0.78681
 Alpha virt. eigenvalues --    0.78726   0.79174   0.79341   0.79973   0.80120
 Alpha virt. eigenvalues --    0.81077   0.81744   0.82343   0.82574   0.82761
 Alpha virt. eigenvalues --    0.83199   0.83508   0.83798   0.84061   0.84401
 Alpha virt. eigenvalues --    0.84812   0.84898   0.85063   0.85420   0.85549
 Alpha virt. eigenvalues --    0.85945   0.86083   0.86523   0.86653   0.86932
 Alpha virt. eigenvalues --    0.87229   0.87277   0.87471   0.87776   0.88382
 Alpha virt. eigenvalues --    0.88607   0.88758   0.88972   0.89330   0.89752
 Alpha virt. eigenvalues --    0.89834   0.90088   0.90292   0.90579   0.90757
 Alpha virt. eigenvalues --    0.91370   0.91475   0.91780   0.92042   0.92151
 Alpha virt. eigenvalues --    0.92950   0.93405   0.93549   0.93889   0.94178
 Alpha virt. eigenvalues --    0.94319   0.94533   0.95082   0.95374   0.95571
 Alpha virt. eigenvalues --    0.95621   0.96071   0.96460   0.96633   0.97270
 Alpha virt. eigenvalues --    0.97608   0.97879   0.97990   0.98303   0.98652
 Alpha virt. eigenvalues --    0.98878   0.99320   0.99608   1.00056   1.00636
 Alpha virt. eigenvalues --    1.01018   1.01159   1.02484   1.02931   1.03398
 Alpha virt. eigenvalues --    1.03746   1.03848   1.04648   1.04925   1.05841
 Alpha virt. eigenvalues --    1.06205   1.06683   1.06758   1.07197   1.07983
 Alpha virt. eigenvalues --    1.08533   1.09227   1.09872   1.10096   1.11116
 Alpha virt. eigenvalues --    1.11668   1.13246   1.13901   1.14235   1.14455
 Alpha virt. eigenvalues --    1.14940   1.15790   1.16298   1.17033   1.17554
 Alpha virt. eigenvalues --    1.17816   1.17947   1.18216   1.19123   1.19710
 Alpha virt. eigenvalues --    1.20608   1.20937   1.21472   1.21636   1.21942
 Alpha virt. eigenvalues --    1.22858   1.23029   1.23720   1.24668   1.25246
 Alpha virt. eigenvalues --    1.25514   1.26695   1.27253   1.27606   1.28260
 Alpha virt. eigenvalues --    1.28972   1.29579   1.29812   1.30402   1.30967
 Alpha virt. eigenvalues --    1.31289   1.32276   1.33002   1.33910   1.34707
 Alpha virt. eigenvalues --    1.35364   1.35545   1.36518   1.37160   1.37444
 Alpha virt. eigenvalues --    1.37626   1.38104   1.38243   1.38715   1.39163
 Alpha virt. eigenvalues --    1.39745   1.40758   1.40930   1.41615   1.42013
 Alpha virt. eigenvalues --    1.42444   1.43231   1.43877   1.44185   1.44893
 Alpha virt. eigenvalues --    1.45381   1.45963   1.46439   1.46496   1.47029
 Alpha virt. eigenvalues --    1.47213   1.47785   1.48111   1.48873   1.49994
 Alpha virt. eigenvalues --    1.50215   1.50920   1.51364   1.52098   1.52664
 Alpha virt. eigenvalues --    1.53460   1.54793   1.55021   1.55842   1.56068
 Alpha virt. eigenvalues --    1.56678   1.57786   1.58450   1.59824   1.61059
 Alpha virt. eigenvalues --    1.62132   1.62965   1.63657   1.64090   1.64445
 Alpha virt. eigenvalues --    1.65392   1.65926   1.66487   1.67066   1.67424
 Alpha virt. eigenvalues --    1.68105   1.68638   1.68946   1.69372   1.69675
 Alpha virt. eigenvalues --    1.70923   1.71616   1.72242   1.73105   1.73858
 Alpha virt. eigenvalues --    1.74159   1.75450   1.76072   1.76661   1.77246
 Alpha virt. eigenvalues --    1.77697   1.78374   1.78498   1.78698   1.79125
 Alpha virt. eigenvalues --    1.80156   1.80402   1.81301   1.81715   1.82124
 Alpha virt. eigenvalues --    1.82879   1.83208   1.83526   1.83996   1.84361
 Alpha virt. eigenvalues --    1.84986   1.85411   1.85755   1.85971   1.86258
 Alpha virt. eigenvalues --    1.87271   1.87473   1.87578   1.87931   1.88350
 Alpha virt. eigenvalues --    1.88539   1.89315   1.89757   1.89996   1.90852
 Alpha virt. eigenvalues --    1.91206   1.91670   1.91744   1.92327   1.92359
 Alpha virt. eigenvalues --    1.92428   1.93203   1.93309   1.93559   1.93758
 Alpha virt. eigenvalues --    1.93927   1.94278   1.94504   1.95094   1.95354
 Alpha virt. eigenvalues --    1.96066   1.96302   1.97372   1.97945   1.98095
 Alpha virt. eigenvalues --    1.98882   1.99609   1.99972   2.00521   2.01672
 Alpha virt. eigenvalues --    2.01840   2.02245   2.02575   2.03096   2.03394
 Alpha virt. eigenvalues --    2.04114   2.04241   2.04727   2.04832   2.05402
 Alpha virt. eigenvalues --    2.06320   2.06683   2.06968   2.07308   2.07611
 Alpha virt. eigenvalues --    2.07944   2.08144   2.08457   2.09472   2.09727
 Alpha virt. eigenvalues --    2.10034   2.10494   2.10764   2.11412   2.11874
 Alpha virt. eigenvalues --    2.12187   2.12473   2.12904   2.13690   2.13852
 Alpha virt. eigenvalues --    2.14232   2.14726   2.14926   2.15552   2.15890
 Alpha virt. eigenvalues --    2.16112   2.16534   2.16734   2.17090   2.17695
 Alpha virt. eigenvalues --    2.18193   2.18727   2.18829   2.19514   2.19745
 Alpha virt. eigenvalues --    2.20133   2.20317   2.20522   2.21246   2.21717
 Alpha virt. eigenvalues --    2.21964   2.22578   2.22829   2.23396   2.23474
 Alpha virt. eigenvalues --    2.23809   2.24068   2.24747   2.24989   2.25637
 Alpha virt. eigenvalues --    2.26097   2.26478   2.26746   2.27203   2.27443
 Alpha virt. eigenvalues --    2.27910   2.28239   2.28807   2.29176   2.29809
 Alpha virt. eigenvalues --    2.30691   2.31150   2.31715   2.31932   2.32515
 Alpha virt. eigenvalues --    2.33019   2.33989   2.34245   2.34500   2.35355
 Alpha virt. eigenvalues --    2.36016   2.36139   2.36908   2.39107   2.39281
 Alpha virt. eigenvalues --    2.39710   2.40010   2.41290   2.43406   2.43911
 Alpha virt. eigenvalues --    2.44488   2.45614   2.45642   2.46987   2.47658
 Alpha virt. eigenvalues --    2.48396   2.48472   2.49366   2.50101   2.50496
 Alpha virt. eigenvalues --    2.51428   2.51555   2.51695   2.52766   2.54747
 Alpha virt. eigenvalues --    2.55282   2.58330   2.60363   2.60712   2.60942
 Alpha virt. eigenvalues --    2.61166   2.62272   2.62445   2.65178   2.65369
 Alpha virt. eigenvalues --    2.65586   2.65982   2.66216   2.67450   2.69357
 Alpha virt. eigenvalues --    2.69632   2.70747   2.70943   2.73262   2.74735
 Alpha virt. eigenvalues --    2.76889   2.77522   2.78656   2.78876   2.79017
 Alpha virt. eigenvalues --    2.79676   2.80050   2.80507   2.81214   2.81587
 Alpha virt. eigenvalues --    2.82018   2.82561   2.83381   2.84013   2.84740
 Alpha virt. eigenvalues --    2.87556   2.90110   2.90715   2.91490   2.92989
 Alpha virt. eigenvalues --    2.93370   2.94571   2.95681   2.96591   2.97145
 Alpha virt. eigenvalues --    2.98611   2.99616   3.02119   3.04581   3.06395
 Alpha virt. eigenvalues --    3.07279   3.07698   3.08672   3.08925   3.12270
 Alpha virt. eigenvalues --    3.12745   3.13394   3.15324   3.20147   3.25277
 Alpha virt. eigenvalues --    3.31748   3.45001  11.83386
          Condensed to atoms (all electrons):
 Mulliken charges:
               1
     1  C    0.306819
     2  C    0.018404
     3  C   -0.070644
     4  C   -0.163138
     5  C   -0.190163
     6  C    0.321638
     7  C    0.071603
     8  C   -0.169803
     9  C   -0.141715
    10  C   -0.181617
    11  H    0.239606
    12  H    0.195318
    13  H    0.173886
    14  H    0.201308
    15  H    0.179384
    16  H    0.168834
    17  N   -0.479435
    18  N   -0.526806
    19  Ir  -0.084858
    20  O   -0.535601
    21  O   -0.536174
    22  O   -0.504413
    23  B    0.418980
    24  B    0.452311
    25  B    0.704020
    26  O   -0.509283
    27  O   -0.515623
    28  C    0.303163
    29  C    0.293054
    30  C    0.285330
    31  C    0.275799
    32  C    0.306942
    33  C    0.292766
    34  O   -0.521762
    35  C   -0.506349
    36  H    0.188533
    37  H    0.146724
    38  H    0.155278
    39  C   -0.506780
    40  H    0.149415
    41  H    0.163909
    42  H    0.165724
    43  C   -0.512389
    44  H    0.174803
    45  H    0.164031
    46  H    0.147390
    47  C   -0.493661
    48  H    0.156711
    49  H    0.150750
    50  H    0.158514
    51  C   -0.505353
    52  H    0.151450
    53  H    0.156750
    54  H    0.158603
    55  C   -0.506891
    56  H    0.168107
    57  H    0.146800
    58  H    0.162987
    59  C   -0.511403
    60  H    0.160152
    61  H    0.149912
    62  H    0.166055
    63  C   -0.497536
    64  H    0.177312
    65  H    0.158698
    66  H    0.141585
    67  C   -0.498807
    68  H    0.237406
    69  H    0.138982
    70  H    0.154213
    71  C   -0.505866
    72  H    0.163453
    73  H    0.172201
    74  H    0.153160
    75  C   -0.502249
    76  H    0.155356
    77  H    0.174710
    78  H    0.162318
    79  C   -0.516156
    80  H    0.154982
    81  H    0.150835
    82  H    0.195276
    83  H    0.011266
    84  C    0.649054
    85  O   -0.513119
    86  C   -0.405733
    87  H    0.200457
    88  H    0.167608
    89  C   -0.382029
    90  H    0.212691
    91  H    0.162809
    92  N   -0.380989
    93  C   -0.362366
    94  H    0.182837
    95  H    0.164708
    96  H    0.209143
    97  C   -0.481547
    98  H    0.183123
    99  H    0.168949
   100  C    0.964482
   101  F   -0.304604
   102  F   -0.318463
   103  F   -0.309005
   104  H    0.179780
   105  H    0.153176
 Sum of Mulliken charges =  -0.00000
 Mulliken charges with hydrogens summed into heavy atoms:
               1
     1  C    0.306819
     2  C    0.258010
     3  C   -0.070644
     4  C    0.032181
     5  C   -0.016277
     6  C    0.321638
     7  C    0.272910
     8  C    0.009976
     9  C    0.037669
    10  C   -0.012783
    17  N   -0.479435
    18  N   -0.526806
    19  Ir  -0.073592
    20  O   -0.535601
    21  O   -0.536174
    22  O   -0.504413
    23  B    0.418980
    24  B    0.452311
    25  B    0.704020
    26  O   -0.509283
    27  O   -0.515623
    28  C    0.303163
    29  C    0.293054
    30  C    0.285330
    31  C    0.275799
    32  C    0.306942
    33  C    0.292766
    34  O   -0.521762
    35  C   -0.015815
    39  C   -0.027732
    43  C   -0.026165
    47  C   -0.027686
    51  C   -0.038550
    55  C   -0.028997
    59  C   -0.035284
    63  C   -0.019941
    67  C    0.031794
    71  C   -0.017052
    75  C   -0.009865
    79  C   -0.015063
    84  C    0.649054
    85  O   -0.513119
    86  C   -0.037668
    89  C   -0.006529
    92  N   -0.380989
    93  C    0.194323
    97  C    0.023701
   100  C    0.964482
   101  F   -0.304604
   102  F   -0.318463
   103  F   -0.309005
 APT charges:
               1
     1  C    0.242524
     2  C    0.055049
     3  C   -0.211230
     4  C    0.086112
     5  C   -0.180441
     6  C    0.106764
     7  C    0.015844
     8  C   -0.007724
     9  C    0.050809
    10  C   -0.132500
    11  H    0.160086
    12  H    0.059273
    13  H    0.042251
    14  H    0.090631
    15  H    0.026289
    16  H    0.038794
    17  N   -0.175407
    18  N   -0.021730
    19  Ir  -0.445500
    20  O   -0.968336
    21  O   -0.969714
    22  O   -0.921630
    23  B    1.215667
    24  B    1.230864
    25  B    1.141200
    26  O   -0.869250
    27  O   -0.897956
    28  C    0.453611
    29  C    0.468587
    30  C    0.476228
    31  C    0.464754
    32  C    0.496636
    33  C    0.474220
    34  O   -0.991805
    35  C   -0.034674
    36  H    0.018744
    37  H   -0.028723
    38  H    0.001182
    39  C   -0.000223
    40  H   -0.019711
    41  H   -0.004304
    42  H    0.004300
    43  C   -0.005826
    44  H    0.002727
    45  H   -0.007095
    46  H   -0.015706
    47  C   -0.021046
    48  H   -0.000071
    49  H   -0.017887
    50  H   -0.016076
    51  C   -0.027498
    52  H   -0.027804
    53  H    0.003422
    54  H   -0.002989
    55  C   -0.004967
    56  H    0.002659
    57  H   -0.023161
    58  H   -0.003457
    59  C   -0.002745
    60  H   -0.002363
    61  H   -0.020479
    62  H   -0.001283
    63  C   -0.036425
    64  H    0.020782
    65  H   -0.000496
    66  H   -0.028474
    67  C   -0.051140
    68  H    0.067251
    69  H   -0.018370
    70  H   -0.004730
    71  C   -0.004583
    72  H   -0.011029
    73  H    0.000688
    74  H   -0.005155
    75  C   -0.020774
    76  H   -0.013669
    77  H    0.000811
    78  H   -0.007470
    79  C   -0.038293
    80  H    0.014558
    81  H   -0.007055
    82  H    0.032011
    83  H   -0.159509
    84  C    1.086616
    85  O   -0.908812
    86  C   -0.016282
    87  H    0.038289
    88  H   -0.029390
    89  C    0.002055
    90  H    0.059030
    91  H   -0.038387
    92  N   -0.701616
    93  C    0.291109
    94  H    0.020625
    95  H   -0.023686
    96  H    0.004705
    97  C    0.066603
    98  H   -0.004289
    99  H   -0.008920
   100  C    1.792030
   101  F   -0.573593
   102  F   -0.603417
   103  F   -0.535977
   104  H    0.035392
   105  H   -0.028933
 Sum of APT charges =  -0.00000
 APT charges with hydrogens summed into heavy atoms:
               1
     1  C    0.242524
     2  C    0.215135
     3  C   -0.211230
     4  C    0.145385
     5  C   -0.138190
     6  C    0.106764
     7  C    0.106475
     8  C    0.027668
     9  C    0.077099
    10  C   -0.093706
    17  N   -0.175407
    18  N   -0.021730
    19  Ir  -0.605009
    20  O   -0.968336
    21  O   -0.969714
    22  O   -0.921630
    23  B    1.215667
    24  B    1.230864
    25  B    1.141200
    26  O   -0.869250
    27  O   -0.897956
    28  C    0.453611
    29  C    0.468587
    30  C    0.476228
    31  C    0.464754
    32  C    0.496636
    33  C    0.474220
    34  O   -0.991805
    35  C   -0.043472
    39  C   -0.019938
    43  C   -0.025900
    47  C   -0.055080
    51  C   -0.054868
    55  C   -0.028926
    59  C   -0.026870
    63  C   -0.044613
    67  C   -0.006989
    71  C   -0.020079
    75  C   -0.041102
    79  C    0.001221
    84  C    1.086616
    85  O   -0.908812
    86  C   -0.007382
    89  C    0.022698
    92  N   -0.701616
    93  C    0.292752
    97  C    0.024461
   100  C    1.792030
   101  F   -0.573593
   102  F   -0.603417
   103  F   -0.535977
 Electronic spatial extent (au):  <R**2>=          26902.4490
 Charge=             -0.0000 electrons
 Dipole moment (field-independent basis, Debye):
    X=             -0.3090    Y=             -3.2878    Z=             -0.6043  Tot=              3.3571
 Quadrupole moment (field-independent basis, Debye-Ang):
   XX=           -305.5204   YY=           -278.4149   ZZ=           -311.4743
   XY=             -4.2070   XZ=              3.3562   YZ=              6.4171
 Traceless Quadrupole moment (field-independent basis, Debye-Ang):
   XX=             -7.0505   YY=             20.0550   ZZ=            -13.0044
   XY=             -4.2070   XZ=              3.3562   YZ=              6.4171
 Octapole moment (field-independent basis, Debye-Ang**2):
  XXX=            -56.5580  YYY=           -184.0229  ZZZ=            -48.3710  XYY=             33.9905
  XXY=            -51.0637  XXZ=            -35.3763  XZZ=              4.8451  YZZ=              7.7201
  YYZ=            -87.8286  XYZ=             13.4366
 Hexadecapole moment (field-independent basis, Debye-Ang**3):
 XXXX=         -14895.8228 YYYY=         -10812.5158 ZZZZ=          -8325.7128 XXXY=           -103.2711
 XXXZ=            -29.8485 YYYX=             97.7383 YYYZ=            326.0756 ZZZX=             77.0633
 ZZZY=           -156.2768 XXYY=          -4135.4532 XXZZ=          -3825.0762 YYZZ=          -3287.9227
 XXYZ=             57.0050 YYXZ=             21.2499 ZZXY=            -41.9456
 N-N= 8.586500635984D+03 E-N=-2.298075845896D+04  KE= 2.410383743631D+03
  Exact polarizability:     524.989      -1.094     515.080       4.090      22.200     386.428
 Approx polarizability:     761.033      -5.937     756.798      -1.404      31.971     553.237
   1 Symmetry operations used in ECPInt.
 ECPInt:  NShTT=   50086 NPrTT=  307226 LenC2=   39197 LenP2D=  121950.
 LDataN:  DoStor=T MaxTD1= 8 Len=  415
 Calling FoFJK, ICntrl=    100127 FMM=F ISym2X=0 I1Cent= 0 IOpClX= 0 NMat=1 NMatS=1 NMatT=0.
 Defaulting to unpruned grid for atomic number  77.
 Defaulting to unpruned grid for atomic number  77.
 Defaulting to unpruned grid for atomic number  77.
 Defaulting to unpruned grid for atomic number  77.
 Defaulting to unpruned grid for atomic number  77.
 Defaulting to unpruned grid for atomic number  77.
 Defaulting to unpruned grid for atomic number  77.
 Defaulting to unpruned grid for atomic number  77.
 Defaulting to unpruned grid for atomic number  77.
 Defaulting to unpruned grid for atomic number  77.
 Defaulting to unpruned grid for atomic number  77.
 Defaulting to unpruned grid for atomic number  77.
 Defaulting to unpruned grid for atomic number  77.
 Defaulting to unpruned grid for atomic number  77.
 Defaulting to unpruned grid for atomic number  77.
 Defaulting to unpruned grid for atomic number  77.
 Full mass-weighted force constant matrix:
 Low frequencies ---  -11.9226   -7.2304   -3.3658   -0.0005   -0.0004   -0.0002
 Low frequencies ---   20.5041   29.6915   34.3783
 Diagonal vibrational polarizability:
       71.8904498      64.8300328     163.0050010
 Harmonic frequencies (cm**-1), IR intensities (KM/Mole), Raman scattering
 activities (A**4/AMU), depolarization ratios for plane and unpolarized
 incident light, reduced masses (AMU), force constants (mDyne/A),
 and normal coordinates:
                      1                      2                      3
                      A                      A                      A
 Frequencies --     18.3671                29.5300                34.3711
 Red. masses --      3.8531                 5.7324                 5.3484
 Frc consts  --      0.0008                 0.0029                 0.0037
 IR Inten    --      0.1774                 0.9032                 1.3327
  Atom AN      X      Y      Z        X      Y      Z        X      Y      Z
     1   6     0.01  -0.01   0.02     0.00  -0.01   0.04     0.01  -0.02   0.08
     2   6    -0.00   0.00  -0.01    -0.01   0.01  -0.04     0.01  -0.00  -0.02
     3   6     0.00   0.01   0.01    -0.00   0.02  -0.05    -0.00  -0.01   0.08
     4   6     0.01   0.01   0.03     0.01   0.02  -0.02    -0.01  -0.02   0.20
     5   6     0.01  -0.00   0.04     0.01   0.00   0.03    -0.00  -0.02   0.20
     6   6     0.01  -0.02   0.03     0.00  -0.02   0.10     0.01  -0.02   0.06
     7   6     0.01  -0.02   0.01     0.00  -0.01   0.08    -0.01   0.01  -0.05
     8   6     0.02  -0.03   0.05     0.01  -0.04   0.20     0.00  -0.01   0.00
     9   6     0.03  -0.03   0.08     0.02  -0.06   0.27     0.02  -0.03   0.10
    10   6     0.02  -0.03   0.07     0.01  -0.06   0.21     0.02  -0.03   0.13
    11   1    -0.01   0.00  -0.03    -0.02   0.01  -0.07     0.01   0.00  -0.10
    12   1     0.01   0.02   0.05     0.01   0.03  -0.03    -0.02  -0.02   0.29
    13   1     0.02  -0.00   0.07     0.02   0.00   0.06    -0.01  -0.03   0.29
    14   1     0.00  -0.01  -0.01    -0.00   0.01   0.03    -0.03   0.02  -0.12
    15   1     0.04  -0.04   0.11     0.03  -0.09   0.36     0.03  -0.04   0.15
    16   1     0.03  -0.03   0.09     0.02  -0.08   0.26     0.04  -0.05   0.20
    17   7     0.00  -0.01  -0.00    -0.01  -0.01   0.00     0.01  -0.01  -0.02
    18   7     0.01  -0.02   0.01    -0.00  -0.00   0.03    -0.01   0.00  -0.02
    19  77     0.00  -0.01  -0.01    -0.00   0.00  -0.01    -0.01   0.01  -0.04
    20   8    -0.02  -0.03  -0.00    -0.00  -0.03  -0.00     0.02   0.00  -0.05
    21   8    -0.05  -0.01  -0.09    -0.00   0.03  -0.00     0.04  -0.04  -0.00
    22   8    -0.01   0.00  -0.01     0.01   0.02   0.03    -0.00   0.01  -0.05
    23   5     0.01   0.01  -0.01    -0.01   0.01  -0.03     0.00  -0.02  -0.01
    24   5     0.00  -0.01  -0.01    -0.02  -0.02  -0.01     0.01   0.00  -0.05
    25   5    -0.01  -0.00  -0.02     0.01   0.03   0.04     0.00   0.04  -0.04
    26   8    -0.03  -0.01  -0.01     0.00   0.01   0.07     0.03   0.04  -0.02
    27   8     0.02  -0.01  -0.02    -0.05  -0.04  -0.02    -0.00  -0.00  -0.05
    28   6     0.00  -0.01  -0.01    -0.02  -0.05  -0.02    -0.00  -0.01  -0.05
    29   6    -0.02  -0.03  -0.01    -0.00  -0.04  -0.01     0.02   0.00  -0.05
    30   6    -0.02   0.00  -0.01     0.00  -0.01   0.05     0.02  -0.00  -0.04
    31   6    -0.03  -0.01  -0.01     0.00  -0.01   0.07     0.03   0.01  -0.02
    32   6    -0.01   0.05  -0.05    -0.01   0.02  -0.03     0.03  -0.07   0.04
    33   6     0.07   0.04   0.07    -0.03   0.02  -0.08    -0.01  -0.06   0.04
    34   8     0.08   0.06   0.08    -0.02   0.00  -0.07    -0.02  -0.03   0.02
    35   6    -0.03  -0.06  -0.03    -0.00  -0.02  -0.00     0.02   0.02  -0.04
    36   1    -0.01  -0.06  -0.05    -0.01  -0.02   0.00    -0.00   0.04  -0.04
    37   1    -0.03  -0.08  -0.04    -0.00  -0.02  -0.00     0.01   0.01  -0.04
    38   1    -0.04  -0.08  -0.02     0.01  -0.02  -0.00     0.04   0.03  -0.02
    39   6    -0.05  -0.03   0.01     0.02  -0.06  -0.00     0.04  -0.01  -0.05
    40   1    -0.05  -0.03   0.01     0.02  -0.08  -0.01     0.03  -0.01  -0.05
    41   1    -0.06  -0.01   0.02     0.03  -0.07  -0.01     0.04  -0.02  -0.06
    42   1    -0.07  -0.04   0.01     0.04  -0.05   0.01     0.05   0.00  -0.05
    43   6     0.01  -0.03  -0.02    -0.03  -0.05  -0.03    -0.03  -0.01  -0.05
    44   1     0.02  -0.04  -0.04    -0.03  -0.04  -0.02    -0.03   0.01  -0.05
    45   1     0.03  -0.01  -0.03    -0.05  -0.06  -0.04    -0.04  -0.02  -0.05
    46   1    -0.00  -0.03  -0.02    -0.01  -0.06  -0.03    -0.02  -0.02  -0.05
    47   6    -0.00   0.01   0.01    -0.02  -0.07  -0.04     0.00  -0.04  -0.04
    48   1    -0.01   0.02   0.01    -0.02  -0.06  -0.03     0.02  -0.05  -0.05
    49   1    -0.02   0.01   0.01    -0.00  -0.09  -0.05    -0.00  -0.03  -0.04
    50   1     0.02   0.02   0.01    -0.04  -0.07  -0.06    -0.00  -0.05  -0.02
    51   6    -0.03   0.18  -0.10     0.00  -0.02  -0.02     0.01  -0.08   0.06
    52   1    -0.02   0.22  -0.07    -0.00  -0.02  -0.05     0.01  -0.10   0.08
    53   1    -0.02   0.26  -0.08     0.01  -0.05  -0.03    -0.01  -0.07   0.05
    54   1    -0.08   0.18  -0.20     0.01  -0.02   0.01     0.03  -0.08   0.05
    55   6    -0.04  -0.03  -0.08    -0.02   0.06  -0.03     0.07  -0.09   0.05
    56   1    -0.03  -0.15  -0.06    -0.02   0.10  -0.03     0.08  -0.07   0.03
    57   1    -0.00   0.01  -0.04    -0.02   0.06  -0.05     0.06  -0.12   0.07
    58   1    -0.12  -0.02  -0.17    -0.01   0.06   0.01     0.11  -0.10   0.04
    59   6     0.13   0.15   0.12    -0.03  -0.01  -0.11    -0.04  -0.08   0.07
    60   1     0.12   0.25   0.09    -0.02  -0.04  -0.10    -0.05  -0.08   0.08
    61   1     0.12   0.14   0.11    -0.04  -0.00  -0.12    -0.02  -0.10   0.09
    62   1     0.19   0.14   0.21    -0.04  -0.01  -0.13    -0.06  -0.07   0.06
    63   6     0.09  -0.08   0.13    -0.04   0.06  -0.09     0.00  -0.05   0.03
    64   1     0.06  -0.14   0.10    -0.04   0.07  -0.07     0.03  -0.03   0.01
    65   1     0.13  -0.07   0.21    -0.03   0.05  -0.12    -0.03  -0.04   0.03
    66   1     0.08  -0.11   0.13    -0.04   0.09  -0.10     0.02  -0.08   0.05
    67   6    -0.03  -0.02  -0.02     0.00  -0.03   0.06     0.03   0.00  -0.03
    68   1    -0.01  -0.02  -0.01    -0.00  -0.03   0.03     0.02   0.01  -0.05
    69   1    -0.04  -0.01  -0.01     0.01  -0.05   0.06     0.03  -0.02  -0.03
    70   1    -0.04  -0.04  -0.02     0.01  -0.02   0.07     0.03   0.01  -0.02
    71   6    -0.04  -0.01  -0.01     0.00  -0.02   0.10     0.05   0.00   0.01
    72   1    -0.05  -0.00  -0.01     0.01  -0.00   0.11     0.05   0.01   0.01
    73   1    -0.05  -0.02  -0.01     0.01  -0.02   0.10     0.06   0.01   0.02
    74   1    -0.05  -0.00  -0.01     0.00  -0.04   0.10     0.06  -0.02   0.01
    75   6    -0.03   0.01  -0.00     0.01  -0.00   0.09     0.02  -0.01  -0.04
    76   1    -0.04   0.01  -0.00    -0.00  -0.02   0.11     0.04  -0.02  -0.04
    77   1    -0.02   0.02  -0.00     0.01   0.01   0.08     0.02  -0.01  -0.06
    78   1    -0.03   0.01  -0.00     0.01   0.02   0.10     0.02   0.00  -0.04
    79   6    -0.02   0.00  -0.01    -0.00  -0.05   0.03     0.02  -0.02  -0.05
    80   1    -0.02   0.01  -0.01    -0.01  -0.06   0.01     0.02  -0.02  -0.06
    81   1    -0.03   0.00  -0.01     0.01  -0.08   0.05     0.02  -0.03  -0.05
    82   1    -0.02  -0.00  -0.01    -0.01  -0.05   0.01     0.02  -0.02  -0.06
    83   1     0.01  -0.01  -0.02     0.01  -0.00  -0.00    -0.01   0.01  -0.04
    84   6    -0.01  -0.01  -0.00     0.03   0.04  -0.01    -0.05   0.08  -0.00
    85   8    -0.00  -0.01  -0.01     0.05   0.04  -0.01    -0.07   0.07  -0.03
    86   6    -0.01  -0.01   0.02     0.04   0.02  -0.04    -0.06   0.10   0.04
    87   1     0.01   0.00   0.03     0.01   0.01  -0.06    -0.02   0.07   0.08
    88   1    -0.02  -0.01   0.03     0.05   0.01  -0.05    -0.08   0.15   0.07
    89   6    -0.01  -0.00  -0.02     0.01   0.06   0.02    -0.03   0.05  -0.03
    90   1    -0.01  -0.00  -0.02     0.03   0.07   0.00    -0.05   0.05  -0.05
    91   1    -0.01  -0.00  -0.02     0.01   0.08   0.04    -0.04   0.05  -0.04
    92   7    -0.01  -0.01  -0.01     0.02   0.04   0.01    -0.04   0.07  -0.00
    93   6    -0.01  -0.01  -0.02     0.00   0.03   0.02    -0.02   0.08   0.03
    94   1    -0.01  -0.01  -0.03    -0.01   0.04   0.03    -0.01   0.08   0.03
    95   1    -0.01  -0.01  -0.03     0.00   0.03   0.03    -0.03   0.11   0.04
    96   1    -0.02   0.00  -0.03     0.01   0.02   0.03    -0.00   0.08   0.03
    97   6    -0.01  -0.01   0.04     0.06   0.01  -0.04    -0.08   0.11  -0.01
    98   1    -0.02  -0.01   0.04     0.08   0.01  -0.03    -0.12   0.15  -0.06
    99   1    -0.00  -0.00   0.04     0.06   0.02  -0.04    -0.04   0.07  -0.05
   100   6    -0.01   0.02  -0.00    -0.00   0.04  -0.10     0.00  -0.01   0.08
   101   9    -0.00   0.03  -0.00     0.05   0.02  -0.10     0.00   0.01   0.07
   102   9    -0.00   0.03  -0.00    -0.01   0.05  -0.15    -0.00  -0.02   0.09
   103   9    -0.02   0.02  -0.01    -0.04   0.04  -0.08     0.02  -0.02   0.05
   104   1     0.02  -0.03   0.05     0.02  -0.04   0.24    -0.00  -0.00  -0.02
   105   1    -0.01  -0.01   0.05     0.06  -0.01  -0.06    -0.08   0.13   0.04
                      4                      5                      6
                      A                      A                      A
 Frequencies --     41.3475                46.6277                47.4798
 Red. masses --      4.9641                 4.0853                 4.6543
 Frc consts  --      0.0050                 0.0052                 0.0062
 IR Inten    --      0.2288                 0.3743                 0.1039
  Atom AN      X      Y      Z        X      Y      Z        X      Y      Z
     1   6     0.03   0.01   0.01     0.01   0.02  -0.02    -0.00  -0.03   0.04
     2   6     0.02   0.02  -0.00     0.01   0.01  -0.00     0.00  -0.02  -0.00
     3   6     0.02   0.02   0.03     0.01   0.01  -0.02     0.00  -0.03   0.01
     4   6     0.02   0.02   0.06     0.01   0.01  -0.05    -0.01  -0.03   0.07
     5   6     0.03   0.01   0.05     0.00   0.02  -0.05    -0.01  -0.03   0.08
     6   6     0.03   0.01  -0.01     0.00   0.02  -0.01    -0.01  -0.02   0.02
     7   6     0.02   0.01  -0.04     0.01   0.02   0.04    -0.02   0.01  -0.06
     8   6     0.02   0.01  -0.05     0.01   0.01   0.05    -0.03   0.01  -0.07
     9   6     0.03   0.01  -0.04     0.01   0.01   0.03    -0.02  -0.00  -0.03
    10   6     0.03   0.01  -0.02     0.00   0.02   0.00    -0.01  -0.02   0.02
    11   1     0.02   0.02  -0.02     0.02   0.01   0.01     0.01  -0.02  -0.03
    12   1     0.02   0.02   0.09     0.01   0.00  -0.07    -0.01  -0.03   0.09
    13   1     0.03   0.01   0.07     0.00   0.02  -0.07    -0.02  -0.03   0.12
    14   1     0.02   0.01  -0.04     0.02   0.01   0.05    -0.02   0.02  -0.08
    15   1     0.03   0.02  -0.05     0.00   0.01   0.04    -0.02   0.00  -0.03
    16   1     0.04   0.02  -0.01    -0.00   0.02  -0.01    -0.01  -0.03   0.05
    17   7     0.02   0.01  -0.01     0.01   0.02  -0.00     0.00  -0.02   0.01
    18   7     0.02   0.01  -0.01     0.01   0.02   0.01    -0.01  -0.01  -0.01
    19  77     0.01   0.00  -0.00     0.01   0.02  -0.00     0.00  -0.01   0.00
    20   8     0.04  -0.03  -0.00     0.00   0.04  -0.01    -0.02   0.02  -0.01
    21   8     0.02   0.07   0.03    -0.01  -0.03  -0.05    -0.02  -0.01  -0.04
    22   8    -0.03  -0.00  -0.04     0.02  -0.00  -0.03    -0.01  -0.02   0.03
    23   5     0.02   0.03  -0.01    -0.00   0.00  -0.01    -0.00  -0.01  -0.01
    24   5     0.02  -0.02  -0.01    -0.02   0.03   0.00     0.04   0.01  -0.00
    25   5    -0.08  -0.06   0.03    -0.02  -0.02   0.03    -0.03  -0.03   0.07
    26   8    -0.12  -0.10   0.08    -0.01  -0.04   0.07    -0.04  -0.05   0.09
    27   8    -0.02  -0.04  -0.01    -0.08   0.01   0.02     0.12   0.05   0.00
    28   6    -0.01  -0.07  -0.01    -0.07   0.00   0.02     0.09   0.09   0.01
    29   6     0.03  -0.04  -0.00    -0.03   0.04   0.00     0.01   0.04  -0.01
    30   6    -0.02  -0.02  -0.03     0.07  -0.01  -0.04     0.02  -0.01   0.03
    31   6    -0.04  -0.06   0.04     0.07  -0.02   0.03     0.01  -0.02   0.06
    32   6     0.03   0.09   0.01    -0.02  -0.05  -0.04    -0.03  -0.01  -0.07
    33   6     0.04   0.08  -0.05    -0.02  -0.04   0.02    -0.02  -0.01  -0.05
    34   8     0.03   0.03  -0.06    -0.01   0.01   0.03     0.01  -0.00  -0.02
    35   6     0.02  -0.00  -0.00    -0.05   0.10  -0.00     0.03  -0.03  -0.02
    36   1    -0.00   0.01   0.00    -0.07   0.12  -0.01     0.08  -0.08  -0.02
    37   1     0.00  -0.00  -0.00    -0.08   0.10  -0.00     0.05  -0.01  -0.01
    38   1     0.04   0.02  -0.00    -0.02   0.12  -0.01    -0.03  -0.07  -0.04
    39   6     0.06  -0.07  -0.00    -0.00   0.03  -0.01    -0.06   0.09  -0.01
    40   1     0.05  -0.08  -0.01    -0.03   0.03   0.00    -0.06   0.13   0.01
    41   1     0.07  -0.09  -0.01     0.02  -0.02  -0.00    -0.07   0.13   0.01
    42   1     0.08  -0.05   0.01     0.03   0.06  -0.03    -0.11   0.06  -0.04
    43   6    -0.05  -0.07  -0.02    -0.13   0.02   0.03     0.15   0.09   0.02
    44   1    -0.06  -0.04  -0.03    -0.14   0.05   0.02     0.18   0.04   0.02
    45   1    -0.08  -0.09  -0.03    -0.15  -0.01   0.05     0.20   0.12   0.03
    46   1    -0.05  -0.09  -0.02    -0.13   0.02   0.04     0.14   0.12   0.02
    47   6    -0.00  -0.11  -0.01    -0.06  -0.05   0.03     0.08   0.17   0.02
    48   1     0.02  -0.10   0.01    -0.03  -0.04   0.04     0.05   0.14  -0.02
[...]
 .00000003,0.00000045,-0.00000034,0.00000088,0.00000049,-0.00000023,-0.
 00000351,0.00000023,0.00000003,0.00000060,-0.00000159,-0.00000261,-0.0
 0000154,0.00000185,0.00000004,0.00000362,-0.00000738,-0.00035450,-0.00
 006168,-0.00014471,0.00004593,-0.00004108,0.00008396,-0.00005300,0.000
 08001,0.00001054,-0.00002530,-0.00002275,0.00000050,0.00000716,-0.0000
 0011,0.00001190,0.00002048,-0.00000046,-0.00001389,-0.00000520,0.00001
 101,0.00000179,-0.00000204,-0.00000778,0.00000783,0.00000040,0.0000094
 8,0.00004329,-0.00001406,0.00002488,-0.00000995,0.00001398,-0.00000611
 ,0.00000308,0.00000066,-0.00000190,0.00000472,-0.00000509,0.00000715,-
 0.00000464,-0.00000243,-0.00000644,0.00004025,0.00003823,0.00002280,-0
 .00001181,-0.00000529,0.00000902,-0.00007736,-0.00003777,-0.00003107,0
 .00002592,0.00002087,-0.00000684,-0.00000866,-0.00000702,-0.00000732,-
 0.00001261,-0.00000085,0.00000173,-0.00000393,-0.00000458,0.00000301,0
 .11329385,0.10204739,-0.00017893,0.00030662,-0.00127994,-0.00011580,-0
 .00000617,0.00001226,0.00006430,-0.00005897,-0.00001917,0.00001316,0.0
 0011463,-0.00001013,-0.00008407,-0.00011942,0.00003214,0.00040823,-0.0
 0084376,-0.00070877,-0.00705719,-0.00094361,0.00194747,0.02159319,0.00
 127836,-0.03937588,0.00783504,0.00473409,0.00245437,0.00243460,-0.0028
 2771,0.00603552,0.00000660,-0.00000400,-0.00000338,-0.00000132,-0.0000
 0006,-0.00001347,-0.00003615,0.00002880,0.00005577,-0.00063980,0.00111
 072,-0.00282429,-0.00097995,0.00119650,-0.00324009,0.00049443,0.000213
 76,0.00022034,0.00011701,0.00011477,0.00008094,0.00016187,-0.00357477,
 0.00744191,-0.00022743,0.00033147,-0.00041387,-0.00000127,0.00001352,-
 0.00005286,0.00010165,0.00002900,-0.00005694,-0.00002528,-0.00000323,-
 0.00002226,-0.00010116,-0.00008626,0.00006381,0.00000270,-0.00004708,0
 .00006617,0.00003586,0.00002725,0.00002024,-0.00001191,-0.00001568,-0.
 00002172,-0.00000289,0.00004244,-0.00003193,0.00000019,-0.00001191,0.0
 0002601,-0.00000655,-0.00001709,0.00002562,0.00000506,0.00000600,0.000
 01315,0.00000681,0.00000228,0.00001695,-0.00001534,-0.00001678,0.00001
 324,-0.00000837,-0.00001987,0.00002848,0.00004900,0.00002368,-0.000058
 26,0.00000046,-0.00000345,-0.00001163,-0.00000068,-0.00000479,0.000006
 93,-0.00000033,-0.00000020,-0.00000539,0.00000048,0.00000301,0.0000019
 2,0.00000288,0.00000277,-0.00000524,-0.00000147,-0.00000077,-0.0000026
 3,0.00000435,0.00000145,0.00000049,-0.00000171,-0.00000021,0.00000150,
 -0.00001319,-0.00000071,0.00000032,0.00000753,-0.00000403,-0.00000651,
 -0.00000500,0.00000054,0.00000023,0.00000311,0.00000442,-0.00000004,-0
 .00000083,0.00000222,-0.00000801,0.00000211,0.00000394,0.00000012,-0.0
 0000130,-0.00000096,0.00000020,-0.00000051,-0.00000131,0.00000179,-0.0
 0001288,-0.00005470,-0.00000380,0.00000079,0.00001236,0.00000045,0.000
 00538,0.00002364,-0.00000642,0.00001545,0.00000881,0.00001729,-0.00001
 244,-0.00002917,0.00000043,-0.00000003,0.00000058,-0.00000360,-0.00000
 072,0.00001015,-0.00000242,0.00001478,0.00001146,-0.00000734,0.0000064
 1,0.00000369,-0.00000206,-0.00000308,-0.00000251,-0.00000001,0.0000030
 5,-0.00000308,-0.00000134,0.00000041,0.00000454,0.00000071,0.00000135,
 0.00000472,-0.00000323,-0.00000375,-0.00000151,0.00000126,0.00000080,0
 .00000479,-0.00000037,0.00000244,-0.00000349,-0.00000276,0.00000033,0.
 00000206,-0.00000589,0.00000031,-0.00000163,0.00000686,-0.00000141,-0.
 00000291,-0.00000317,-0.00000021,-0.00000077,0.00000112,-0.00000068,0.
 00000018,-0.00000183,0.00000082,0.00000051,-0.00000005,-0.00000005,-0.
 00000006,0.00000091,-0.00000081,-0.00000104,-0.00000121,-0.00000010,-0
 .00000115,-0.00000286,-0.00000092,-0.00000117,-0.00000042,-0.00000038,
 0.,0.00000077,0.00000040,0.00000157,-0.00000097,-0.00000091,0.00000026
 ,-0.00000273,-0.00000128,0.00000050,0.00000050,-0.00000101,-0.00000061
 ,-0.00000093,0.00000140,-0.00000056,0.00000336,0.00010301,-0.00012888,
 0.00016964,0.00003198,-0.00000158,-0.00000508,-0.00001347,-0.00000008,
 -0.00003042,0.00000008,0.00001176,-0.00000363,-0.00000292,-0.00001600,
 0.00000571,-0.00000238,-0.00000404,0.00000081,0.00000602,-0.00000742,-
 0.00000372,0.00000247,-0.00000048,0.00000052,-0.00000172,0.00000001,0.
 00000250,-0.00002160,-0.00001736,0.00000524,-0.00000647,0.00000785,0.0
 0000493,-0.00000149,-0.00000160,0.00000073,-0.00000050,0.00000186,-0.0
 0000185,0.00000209,-0.00000061,-0.00000062,-0.00002850,-0.00004376,0.0
 0001354,0.00002121,0.00002017,-0.00003980,0.00002157,0.00002654,0.0000
 2396,-0.00002328,-0.00002767,0.00004516,0.00001358,0.00001186,0.000004
 50,0.00000027,0.00000292,-0.00000439,-0.00000140,0.00000687,-0.0000103
 0,-0.02392551,-0.00083062,0.02945808,0.00001425,-0.00002001,0.00001323
 ,0.00000354,0.00000428,0.00000832,-0.00000209,-0.00001408,0.00000042,-
 0.00000113,0.00002333,0.00000019,-0.00001811,-0.00000522,-0.00000397,0
 .00005623,-0.00004491,0.00000015,-0.00009258,0.00001626,0.00000386,-0.
 00003137,-0.00008525,-0.00001084,-0.00003289,0.00000677,0.00001492,0.0
 0002556,0.00003374,0.00000531,0.00001053,-0.00000530,0.00000872,-0.000
 00186,0.00000163,0.00000076,0.00000010,0.00000512,0.00000112,-0.000072
 21,-0.00000456,0.00003646,-0.00000540,0.00001009,0.00000130,-0.0000008
 5,0.00000151,0.00000274,0.00003640,0.00001215,-0.00000897,0.00004860,-
 0.00000689,-0.00000982,0.00016465,-0.00008942,-0.00001533,0.00000082,-
 0.00002511,-0.00020348,0.00042038,0.00003468,-0.00013514,-0.00010778,-
 0.00006315,-0.00017593,-0.00048329,-0.00000497,0.00029892,-0.00002014,
 -0.00002595,0.00032095,0.00007629,0.00012942,0.00032491,-0.00003540,-0
 .00010999,-0.00018541,-0.00004863,0.00005988,-0.00017355,0.00002293,0.
 00001789,0.00006158,-0.00000658,-0.00003360,0.00006693,0.00002609,0.00
 006565,0.00005868,0.00003336,0.00002084,0.00010288,-0.00038492,-0.0000
 1967,-0.00002134,-0.00018120,-0.00002556,0.00011658,0.00025762,-0.0000
 0182,-0.00017536,0.00000107,0.00000661,-0.00001177,-0.00000804,0.00000
 668,0.00000693,0.00000560,0.00000384,-0.00000790,-0.00000042,-0.000010
 98,-0.00000444,0.00000207,0.00000475,-0.00000970,-0.00000368,0.0000010
 2,-0.00000739,0.00000568,0.00000176,0.00000287,0.00000033,-0.00000650,
 0.00000117,-0.00000639,-0.00000280,-0.00000837,0.00000367,0.00000229,0
 .00000180,0.00000076,0.00000061,0.00000244,-0.00000245,0.00000225,-0.0
 0000888,-0.00000224,-0.00000735,-0.00000846,0.00000414,0.00000640,0.00
 000073,-0.00000616,-0.00000150,-0.00000745,0.00000348,-0.00000210,0.00
 000207,0.00016469,0.00011571,0.00014983,0.00000529,0.00000104,0.000026
 16,-0.00003297,-0.00012633,-0.00046412,-0.00000362,0.00000195,-0.00003
 258,0.00010100,0.00003319,0.00005501,-0.00000183,0.00000163,0.00005173
 ,0.00000915,-0.00000553,-0.00001698,-0.00000608,0.00001204,-0.00001925
 ,0.00000870,-0.00001644,-0.00005273,-0.00000364,-0.00005177,-0.0000102
 6,0.00001785,-0.00000595,-0.00000508,0.00000438,0.00002721,0.00002348,
 0.00004359,0.00001394,-0.00002795,-0.00000191,-0.00000181,0.00001721,-
 0.00000121,0.00001980,0.00001105,0.00000565,-0.00000821,-0.00001785,-0
 .00000543,0.00000217,-0.00001991,-0.00000446,0.00000319,0.00001302,-0.
 00000256,-0.00000019,-0.00001334,0.00000369,-0.00000758,0.00000832,-0.
 00000289,-0.00000068,-0.00001282,0.00000079,0.00000247,0.00000303,0.00
 000505,-0.00000196,0.00000361,-0.00000498,-0.00000524,-0.00000744,-0.0
 0000230,-0.00000942,-0.00000860,-0.00000576,-0.00000757,-0.00000655,0.
 00000158,0.00000369,0.00000244,0.00000360,0.00000483,0.00000134,-0.000
 00589,-0.00000843,-0.00001050,0.00000043,0.00000375,0.00000164,-0.0000
 0339,-0.00000424,-0.00001035,0.00000077,0.00000240,0.00000645,-0.00000
 815,0.00001724,0.00000353,0.00082562,-0.00015002,-0.00002502,-0.000438
 41,-0.00135852,-0.00041168,-0.00791073,0.00159200,-0.00066132,0.000228
 53,-0.00006159,-0.00012483,0.00019431,-0.00014062,0.00034162,0.0001519
 8,-0.00021095,-0.00006374,0.00005472,0.00001443,0.00000519,-0.00008847
 ,-0.00004425,-0.00000190,-0.00084447,-0.00048811,-0.00001946,-0.000203
 73,0.00022984,0.00000470,-0.00000474,-0.00005245,0.00000004,0.00002240
 ,0.00000768,0.00000659,0.00003797,-0.00004077,-0.00001250,-0.31058969,
 -0.00654169,-0.02298488,-0.01080068,-0.00074021,-0.00253989,-0.0064041
 1,-0.00037783,0.00059291,0.00009421,0.00001719,0.00003693,-0.00002322,
 -0.00001105,-0.00002693,-0.00004288,0.00000476,-0.00000082,-0.00002058
 ,-0.00000424,-0.00000813,0.00000994,0.00003670,-0.00001866,0.33580453,
 -0.00001949,-0.00000853,0.00000472,0.00000387,-0.00002162,-0.00000443,
 0.00000656,0.00002573,0.00000094,-0.00000658,-0.00001548,-0.00000137,0
 .00001949,0.00000773,0.00000805,-0.00011654,0.00004026,0.00000998,0.00
 006303,0.00009665,-0.00002586,0.00006318,0.00003774,-0.00000085,-0.000
 00241,0.00001894,-0.00000572,0.00001103,-0.00002123,-0.00001370,0.0000
 0445,-0.00002379,0.00000708,0.00000103,0.00000015,-0.00000023,-0.00000
 360,0.00000075,-0.00000009,0.00006184,0.00001275,-0.00003237,0.0000062
 8,-0.00000742,-0.00000131,-0.00000111,-0.00000315,-0.00000267,0.000000
 86,-0.00000517,-0.00003723,-0.00005153,-0.00007362,0.00003297,0.000007
 84,-0.00003130,0.00024788,0.00000370,0.00002070,0.00003319,-0.00000616
 ,0.00000896,0.00000677,-0.00007544,0.00000322,-0.00016797,0.00001520,-
 0.00010051,-0.00002795,0.00004483,0.00001608,-0.00011796,0.00000721,0.
 00003874,0.00035533,-0.00002262,-0.00005233,-0.00013512,0.00000492,-0.
 00000839,0.00002935,-0.00000927,-0.00000290,-0.00001920,-0.00000757,0.
 00000114,-0.00000862,0.00001103,0.00003346,0.00002818,0.00001843,0.000
 00353,0.00006920,0.00004982,-0.00002649,0.00000786,-0.00007510,0.00003
 831,0.00000051,0.00004161,0.00001050,-0.00003461,0.00000033,-0.0000002
 6,0.00000303,0.00000136,0.00000173,-0.00000046,0.00000026,-0.00000094,
 0.00000168,-0.00000066,-0.00000002,-0.00000099,-0.00000260,0.00000009,
 0.00000082,0.00000100,0.00000061,0.00000041,0.00000214,-0.00000085,-0.
 00000017,-0.00000130,0.00000045,0.00000120,0.00000178,0.00000003,0.000
 00193,0.00000032,0.00000048,-0.00000101,-0.00000066,0.00000016,-0.0000
 0086,0.00000050,-0.00000002,0.00000200,0.00000194,-0.00000069,0.000002
 23,-0.00000075,-0.00000195,-0.00000107,0.00000134,0.00000038,0.0000021
 8,-0.00000093,0.00000158,-0.00000043,0.00002490,-0.00004761,-0.0001816
 7,0.00001174,-0.00000406,-0.00001927,-0.00003846,0.00019278,-0.0000351
 7,-0.00000426,-0.00005172,0.00010948,0.00000099,0.00000539,0.00000323,
 -0.00000005,-0.00000005,0.00000182,0.00000036,0.00000072,-0.00000143,0
 .00000149,-0.00000351,0.00000054,-0.00002759,-0.00003745,-0.00005561,0
 .00001273,0.00000915,0.00001948,0.00000660,0.00000689,0.00001489,-0.00
 000030,0.00000590,0.00001388,0.00001874,-0.00002354,0.00000315,0.00000
 489,0.00000067,0.00000735,-0.00000531,0.00000220,-0.00000150,-0.000000
 55,0.00000122,-0.00000365,-0.00000501,-0.00000391,-0.00000886,-0.00000
 117,-0.00000466,0.00000226,0.00000092,0.00000211,-0.00000804,0.0000006
 0,-0.00000022,0.00000361,-0.00000236,0.00000135,-0.00001166,0.00000203
 ,0.00000318,0.00000088,0.00000154,-0.00000092,0.00000226,-0.00000246,-
 0.00000456,-0.00000427,0.00000080,-0.00000604,-0.00000652,-0.00000337,
 -0.00000340,-0.00000263,-0.00000080,0.00000133,0.00000186,0.00000223,0
 .00000521,-0.00000106,-0.00000494,-0.00001010,-0.00000546,-0.00000293,
 0.00000109,-0.00000041,-0.00000183,0.00000282,-0.00000674,0.00000048,-
 0.00000103,0.00000085,0.00002741,0.00006858,-0.00001532,0.00134755,-0.
 00811910,-0.00010492,0.00065119,0.00179870,0.00003880,-0.03353923,-0.0
 0079047,-0.00309002,0.00061889,0.00143025,-0.00020062,0.00050981,0.001
 33508,0.00048659,0.00006742,-0.00050808,-0.00002299,0.00000276,0.00000
 725,0.00001712,-0.00017093,-0.00005070,-0.00002209,-0.00250413,0.00022
 167,-0.00017568,-0.00021389,0.00043945,-0.00003128,0.00002510,-0.00005
 252,0.00001354,0.00005675,0.00001586,0.00006194,0.00002127,-0.00002467
 ,-0.00002266,-0.00545220,-0.04675346,-0.00065849,0.01430661,-0.0001017
 4,0.00328497,0.01576040,0.00002926,-0.00069684,-0.00002905,-0.00005161
 ,-0.00000201,0.00000830,0.00001270,0.00000813,0.00000797,0.00000823,0.
 00000098,0.00000607,0.00002696,-0.00000674,-0.00000272,-0.00003065,0.0
 0002536,0.00845210,0.05103561,-0.00001291,-0.00000497,-0.00001010,-0.0
 0001251,0.00000589,0.00000185,0.00000772,-0.00001847,-0.00000578,-0.00
 000328,0.00002268,0.00000237,-0.00001539,0.00000053,-0.00000932,0.0000
 7197,-0.00003160,-0.00002060,-0.00004963,-0.00004422,-0.00000128,-0.00
 002416,-0.00004753,-0.00002002,-0.00001449,0.00000670,0.00001563,-0.00
 000375,0.00004027,0.00001899,0.00000478,0.00000828,0.00000047,-0.00000
 086,0.00000085,0.00000081,-0.00000006,0.00000343,-0.00000237,-0.000104
 39,-0.00000089,0.00006240,-0.00000205,0.00000495,0.00000167,0.00000001
 ,0.00000346,0.00000408,0.00004736,0.00002841,0.00007974,0.00007008,0.0
 0001239,-0.00002280,0.00012934,-0.00010931,-0.00052955,0.00002780,-0.0
 0003578,-0.00013459,0.00044933,-0.00000428,-0.00010264,-0.00001260,-0.
 00003499,-0.00001561,-0.00057785,0.00014506,0.00035688,-0.00012426,-0.
 00003874,0.00031607,-0.00000707,0.00005310,0.00002169,0.00000602,-0.00
 003011,-0.00003154,-0.00000860,0.00003803,-0.00010258,0.00001240,0.000
 01662,0.00003934,-0.00000743,-0.00001972,0.00003874,0.00000364,0.00002
 029,0.00001510,0.00000151,0.00000306,0.00002580,-0.00055648,-0.0000628
 3,0.00000425,-0.00011091,-0.00007391,0.00007764,0.00028451,-0.00002912
 ,-0.00005510,0.00000009,0.00000551,-0.00001067,-0.00000859,0.00001188,
 0.00000420,0.00000761,0.00000131,-0.00000183,-0.00000186,-0.00001275,-
 0.00000867,0.00000387,0.00000435,-0.00000669,-0.00000191,-0.00000107,-
 0.00000242,0.00000423,0.00000279,0.00000117,-0.00000031,-0.00000500,-0
 .00000170,-0.00000484,-0.00000347,-0.00000595,0.00000175,0.00000331,0.
 00000092,0.00000252,-0.00000122,0.00000028,-0.00000165,0.00000219,-0.0
 0000445,-0.00000136,-0.00000690,-0.00000646,0.00000270,0.00000400,0.00
 000092,-0.00000334,-0.00000015,-0.00000351,0.00000351,-0.00000212,-0.0
 0000088,0.00030172,0.00028737,-0.00013947,-0.00001605,-0.00000255,0.00
 007622,-0.00025436,-0.00026687,-0.00004777,-0.00001243,0.00001186,-0.0
 0000574,0.00016457,0.00004944,0.00007788,-0.00000308,0.00000025,0.0000
 7730,0.00000463,-0.00000215,-0.00002040,-0.00000864,0.00000778,-0.0000
 2560,-0.00001308,-0.00000443,-0.00007246,0.00002229,-0.00003993,0.0000
 4863,0.00001447,-0.00000864,0.00000777,0.00001498,0.00003166,0.0000237
 1,0.00003740,0.00002889,-0.00003012,-0.00000332,-0.00000322,0.00001443
 ,0.00000451,0.00002277,0.00001025,0.00000018,-0.00000814,-0.00000764,0
 .00000190,0.00000852,-0.00000970,-0.00001042,0.00000589,0.00000650,-0.
 00000038,-0.00000151,-0.00000231,0.00000211,-0.00001240,0.00000304,0.0
 0000006,0.00000063,-0.00000276,0.00000107,0.00000134,-0.00000049,0.000
 00152,-0.00000249,0.00000109,-0.00000121,-0.00000087,-0.00000078,0.000
 00084,-0.00000346,-0.00000223,-0.00000170,-0.00000157,-0.00000121,0.00
 000203,0.00000045,-0.00000016,-0.00000001,0.00000047,0.00000067,0.0000
 0123,-0.00000037,-0.00000483,0.00000221,0.00000046,0.00000042,-0.00000
 228,-0.00000322,-0.00000191,0.00000006,0.00000354,0.00000583,-0.000025
 69,-0.00002506,0.00001975,0.00005779,-0.00022718,0.00048494,-0.0000254
 5,-0.00006544,0.00048975,-0.00122619,0.00032315,-0.00126962,-0.0002966
 3,0.00025966,-0.00001737,0.00033594,-0.00013930,0.00008847,0.00001798,
 -0.00003497,-0.00000862,0.00000838,0.00000281,-0.00000866,-0.00001003,
 -0.00001363,0.00000367,-0.00016332,-0.00002084,0.00011014,-0.00000736,
 0.00003375,0.00001499,0.00000139,-0.00000420,-0.00001082,-0.00000094,0
 .00002233,0.00000086,-0.00000892,-0.00001260,-0.00001393,-0.02350046,-
 0.00105379,-0.05021612,0.02544203,0.00200267,0.00367792,-0.02632121,-0
 .00207754,-0.00099147,0.00003506,0.00002586,0.00001397,-0.00000947,-0.
 00000803,-0.00001223,-0.00001388,-0.00000272,-0.00000100,-0.00000792,-
 0.00001172,0.00000071,0.00000119,0.00003168,-0.00001131,0.02599674,0.0
 0106540,0.04770391\\0.00000154,-0.00000112,-0.00000270,0.00000504,0.00
 000477,-0.00000426,-0.00000295,0.00000862,-0.00000189,-0.00000415,-0.0
 0000130,0.00000140,0.00000221,0.00000186,-0.00000057,-0.00000645,-0.00
 000654,-0.00000085,-0.00001187,0.00000148,0.00000572,0.00000593,-0.000
 00296,-0.00000736,-0.00001788,-0.00000162,0.00000203,0.00001307,0.0000
 0736,0.00000087,-0.00000872,0.00000385,-0.00002098,-0.00000068,0.00000
 097,-0.00000152,-0.00000166,-0.00000360,-0.00000158,0.00000711,-0.0000
 0673,0.00000166,-0.00000126,0.00000472,0.00000360,-0.00000291,0.000001
 37,-0.00000098,-0.00002691,-0.00001494,-0.00000151,0.00001467,-0.00000
 720,-0.00000352,0.00001840,0.00000561,-0.00000538,0.00000372,-0.000003
 17,0.00000828,0.00002175,0.00001090,-0.00001671,0.00000294,-0.00000181
 ,0.00004673,-0.00002802,-0.00001163,0.00001300,-0.00000028,0.00001036,
 -0.00001148,0.00002105,-0.00003297,-0.00001731,0.00000377,0.00001308,0
 .00000822,0.00000446,-0.00000642,-0.00000317,0.00000323,0.00000383,0.0
 0000943,-0.00000354,-0.00000345,0.00000176,-0.00000200,0.00001619,-0.0
 0000672,-0.00000535,-0.00001232,-0.00001011,-0.00000644,0.00000562,-0.
 00000419,0.00000760,0.00000595,-0.00000269,-0.00000712,0.00000207,0.00
 000799,-0.00000070,0.00000266,-0.00001375,0.00000485,0.00000240,0.0000
 0500,0.00000269,-0.00000109,0.00000517,0.00000583,-0.00000271,0.000003
 85,-0.00000006,0.00000405,-0.00000542,0.00000449,0.00000077,0.00000397
 ,0.00000098,-0.00000179,0.00000010,0.00000306,-0.00000260,-0.00000090,
 0.00000015,-0.00000030,0.00000359,0.00000399,0.00000064,0.00000091,0.0
 0000305,-0.00000029,-0.00000126,0.00000081,-0.00000069,-0.00000436,-0.
 00000310,-0.00000563,-0.00001506,0.00000478,0.00000300,-0.00000394,0.0
 0000541,0.00000023,0.00000440,-0.00000023,0.00000261,0.00000144,-0.000
 00233,-0.00000558,0.00001080,-0.00000147,0.00000069,0.00000109,0.00000
 446,0.00000067,-0.00000509,0.00000084,0.00000337,0.00000312,-0.0000023
 0,0.00000101,0.00001132,0.00000016,-0.00000088,-0.00000050,0.00000486,
 -0.00000067,0.00000089,0.00000212,0.00000152,0.00000266,0.00000414,-0.
 00000795,0.00000570,-0.00000104,-0.00000036,0.00000186,-0.00000134,-0.
 00000104,0.00000484,0.00000133,0.00000636,0.00000011,-0.00000800,0.000
 00008,-0.00000285,0.00000550,0.00000187,0.00000580,0.00000004,-0.00000
 239,0.00000191,0.00000187,0.00000007,0.00000242,0.00001355,0.00001425,
 0.00001375,-0.00000240,-0.00000227,-0.00002090,-0.00000082,-0.00000419
 ,-0.00000560,-0.00000116,-0.00000200,-0.00000004,0.00000280,0.00000123
 ,-0.00000124,-0.00000093,0.00000123,-0.00000200,-0.00000046,0.00000238
 ,0.00000035,0.00000130,-0.00000058,-0.00000131,-0.00000364,0.00000385,
 -0.00000430,0.00000110,-0.00000083,-0.00000302,-0.00000312,-0.00000040
 ,-0.00000228,-0.00000156,0.,-0.00000173,-0.00000379,0.00000176,-0.0000
 0654,0.00000601,-0.00000370,-0.00000377,0.00000206,0.00000252,0.000001
 41,-0.00000127,0.00000083,-0.00000352,-0.00000635,-0.00000231,0.000003
 98,0.00001803,-0.00000707,0.00001593,-0.00000133,-0.00000165,0.0000153
 9,-0.00001449,-0.00003896,-0.00001460,-0.00000216,0.00001598,0.0000050
 2,-0.00000171,0.00000821,0.00000774,-0.00000474,0.00001188,0.00000223,
 -0.00000248,-0.00000015,-0.00000185,-0.00000418,-0.00000235,0.00000011
 ,0.00000230,-0.00000512,-0.00001843,-0.00001966,0.00001344,0.00000912,
 -0.00000541,-0.00000630,0.00000345,0.00000122,-0.00000277,-0.00000316,
 0.00000039,0.00000487,-0.00000016,-0.00000454,0.00001888,0.00000893,-0
 .00000057,-0.00000303,-0.00000919,-0.00000403,0.00000200,0.00000943,0.
 00000247,0.00000750,-0.00000446,-0.00000097,-0.00000275,-0.00000029,0.
 00000124,-0.00000255,-0.00000597,-0.00000279,-0.00000668,0.00000039,0.
 00000079,-0.00000161,0.00000482,-0.00000187,-0.00000236,-0.00000075\\\
 @
 The archive entry for this job was punched.


 SCIENCE IS LONG AND LIFE IS SHORT.

                     DON MOSER IN THE FEBRUARY 1979 SMITHSONIAN
 Job cpu time:       1 days 21 hours 32 minutes 45.3 seconds.
 Elapsed time:       0 days  2 hours 54 minutes  2.6 seconds.
 File lengths (MBytes):  RWF=   8253 Int=      0 D2E=      0 Chk=     49 Scr=      1
 Normal termination of Gaussian 16 at Sat Dec  7 21:47:26 2024.
