/mnt/lustre/scratch/nvme/SLURM/9663618/usccqdma.hYM2671KGo
OMP_STACKSIZE=0m
GAUSS_PDEF=16
GAUSS_MDEF=65536MB
GAUSS_RDEF=SCF=Direct
 Entering Gaussian System, Link 0=g16.exe
 Initial command:
 /opt/cesga/2020/software/Core/g16/c1/l1.exe "/mnt/lustre/scratch/nvme/SLURM/9663618/usccqdma.hYM2671KGo/Gau-3119535.inp" -scrdir="/mnt/lustre/scratch/nvme/SLURM/9663618/usccqdma.hYM2671KGo/"
 Default is to use a total of  16 processors:
                               16 via shared-memory
                                1 via Linda
 Entering Link 1 = /opt/cesga/2020/software/Core/g16/c1/l1.exe PID=   3119561.
  
 Copyright (c) 1988-2019, Gaussian, Inc.  All Rights Reserved.
  
 This is part of the Gaussian(R) 16 program.  It is based on
 the Gaussian(R) 09 system (copyright 2009, Gaussian, Inc.),
 the Gaussian(R) 03 system (copyright 2003, Gaussian, Inc.),
 the Gaussian(R) 98 system (copyright 1998, Gaussian, Inc.),
 the Gaussian(R) 94 system (copyright 1995, Gaussian, Inc.),
 the Gaussian 92(TM) system (copyright 1992, Gaussian, Inc.),
 the Gaussian 90(TM) system (copyright 1990, Gaussian, Inc.),
 the Gaussian 88(TM) system (copyright 1988, Gaussian, Inc.),
 the Gaussian 86(TM) system (copyright 1986, Carnegie Mellon
 University), and the Gaussian 82(TM) system (copyright 1983,
 Carnegie Mellon University). Gaussian is a federally registered
 trademark of Gaussian, Inc.
  
 This software contains proprietary and confidential information,
 including trade secrets, belonging to Gaussian, Inc.
  
 This software is provided under written license and may be
 used, copied, transmitted, or stored only in accord with that
 written license.
  
 The following legend is applicable only to US Government
 contracts under FAR:
  
                    RESTRICTED RIGHTS LEGEND
  
 Use, reproduction and disclosure by the US Government is
 subject to restrictions as set forth in subparagraphs (a)
 and (c) of the Commercial Computer Software - Restricted
 Rights clause in FAR 52.227-19.
  
 Gaussian, Inc.
 340 Quinnipiac St., Bldg. 40, Wallingford CT 06492
  
  
 ---------------------------------------------------------------
 Warning -- This program may not be used in any manner that
 competes with the business of Gaussian, Inc. or will provide
 assistance to any competitor of Gaussian, Inc.  The licensee
 of this program is prohibited from giving any competitor of
 Gaussian, Inc. access to this program.  By using this program,
 the user acknowledges that Gaussian, Inc. is engaged in the
 business of creating and licensing software in the field of
 computational chemistry and represents and warrants to the
 licensee that it is not a competitor of Gaussian, Inc. and that
 it will not use this program in any manner prohibited above.
 ---------------------------------------------------------------
  

 Cite this work as:
 Gaussian 16, Revision C.01,
 M. J. Frisch, G. W. Trucks, H. B. Schlegel, G. E. Scuseria, 
 M. A. Robb, J. R. Cheeseman, G. Scalmani, V. Barone, 
 G. A. Petersson, H. Nakatsuji, X. Li, M. Caricato, A. V. Marenich, 
 J. Bloino, B. G. Janesko, R. Gomperts, B. Mennucci, H. P. Hratchian, 
 J. V. Ortiz, A. F. Izmaylov, J. L. Sonnenberg, D. Williams-Young, 
 F. Ding, F. Lipparini, F. Egidi, J. Goings, B. Peng, A. Petrone, 
 T. Henderson, D. Ranasinghe, V. G. Zakrzewski, J. Gao, N. Rega, 
 G. Zheng, W. Liang, M. Hada, M. Ehara, K. Toyota, R. Fukuda, 
 J. Hasegawa, M. Ishida, T. Nakajima, Y. Honda, O. Kitao, H. Nakai, 
 T. Vreven, K. Throssell, J. A. Montgomery, Jr., J. E. Peralta, 
 F. Ogliaro, M. J. Bearpark, J. J. Heyd, E. N. Brothers, K. N. Kudin, 
 V. N. Staroverov, T. A. Keith, R. Kobayashi, J. Normand, 
 K. Raghavachari, A. P. Rendell, J. C. Burant, S. S. Iyengar, 
 J. Tomasi, M. Cossi, J. M. Millam, M. Klene, C. Adamo, R. Cammi, 
 J. W. Ochterski, R. L. Martin, K. Morokuma, O. Farkas, 
 J. B. Foresman, and D. J. Fox, Gaussian, Inc., Wallingford CT, 2019.
 
 ******************************************
 Gaussian 16:  ES64L-G16RevC.01  3-Jul-2019
                 7-Dec-2024 
 ******************************************
 Default route: SCF=Direct
 ----------------------------------------------------
 # m06/genecp scf=tight int=ultrafine 5d freq=noraman
 ----------------------------------------------------
 1/10=4,30=1,38=1/1,3;
 2/12=2,17=6,18=5,40=1/2;
 3/5=7,8=1,11=2,16=1,17=8,25=1,30=1,71=2,74=-54,75=-5,140=1/1,2,3;
 4//1;
 5/5=2,32=2,38=5,98=1/2;
 8/6=4,10=90,11=11/1;
 11/6=1,8=1,9=11,15=111,16=1/1,2,10;
 10/6=1/2;
 6/7=2,8=2,9=2,10=2,28=1/1;
 7/8=1,10=1,25=1/1,2,3,16;
 1/10=4,30=1/3;
 99//99;
 ------
 OPT-TS
 ------
 Symbolic Z-matrix:
 Charge =  0 Multiplicity = 1
 C                     0.26817  -2.78954  -0.56067 
 C                     2.13666  -1.41445  -0.62099 
 C                     2.97079  -2.48858  -0.88087 
 C                     2.42479  -3.75978  -0.99391 
 C                     1.05645  -3.90489  -0.83676 
 C                    -1.18708  -2.86977  -0.3573 
 C                    -3.10174  -1.7091    0.24734 
 C                    -3.89551  -2.83218   0.05264 
 C                    -3.29824  -4.01537  -0.36645 
 C                    -1.92925  -4.0317   -0.5771 
 H                     2.52008  -0.39744  -0.5557 
 H                     3.05836  -4.61933  -1.19833 
 H                     0.60744  -4.89071  -0.91579 
 H                    -3.52763  -0.74865   0.54112 
 H                    -3.8987   -4.90556  -0.53612 
 H                    -1.44925  -4.93943  -0.93196 
 N                     0.82127  -1.5595   -0.45376 
 N                    -1.78403  -1.73045   0.05536 
 Ir                   -0.43647   0.09517   0.11369 
 O                     1.85304  -0.43032   2.07619 
 O                    -3.17421   1.4123   -0.18829 
 O                     1.98756   1.71101  -0.74265 
 B                    -1.79944   1.61239  -0.22437 
 B                     0.48068  -0.21443   1.99259 
 B                     0.94217   1.58407   0.17264 
 O                     1.05452   2.55091   1.16382 
 O                    -0.10061  -0.29809   3.24077 
 C                     0.95967  -0.33818   4.2153 
 C                     2.13804  -0.92717   3.39235 
 C                     2.93535   2.65503  -0.21204 
 C                     2.05053   3.49626   0.75426 
 C                    -3.80965   2.61738  -0.65731 
 C                    -2.71739   3.68794  -0.37188 
 O                    -1.5067    2.93028  -0.53172 
 C                     3.51699  -0.46222   3.81236 
 H                     3.74485  -0.78732   4.83772 
 H                     4.2716   -0.8945    3.14147 
 H                     3.61012   0.629     3.76552 
 C                     2.11151  -2.44759   3.29104 
 H                     2.832    -2.7544    2.5198 
 H                     2.38919  -2.93472   4.23543 
 H                     1.11656  -2.80523   2.99046 
 C                     1.20352   1.09985   4.65207 
 H                     1.96765   1.1683    5.43825 
 H                     1.50453   1.7216    3.79705 
 H                     0.26545   1.5098    5.04643 
 C                     0.52127  -1.18289   5.39289 
 H                     1.34136  -1.29756   6.11653 
 H                    -0.31803  -0.69715   5.90628 
 H                     0.19115  -2.17876   5.07684 
 C                    -4.09861   2.44525  -2.14193 
 H                    -4.67433   1.5224   -2.28716 
 H                    -4.6858    3.28424  -2.53874 
 H                    -3.17457   2.36337  -2.72958 
 C                    -5.10839   2.80701   0.09939 
 H                    -4.95307   2.78169   1.18331 
 H                    -5.57929   3.7643   -0.16614 
 H                    -5.8081    2.00181  -0.16015 
 C                    -2.69206   4.85787  -1.33349 
 H                    -3.64089   5.4123   -1.30377 
 H                    -1.88731   5.54923  -1.05057 
 H                    -2.50855   4.53206  -2.36394 
 C                    -2.73528   4.19016   1.06583 
 H                    -2.77008   3.35668   1.77991 
 H                    -1.80772   4.74557   1.25333 
 H                    -3.5872    4.85573   1.25938 
 C                     2.77154   4.01566   1.9821 
 H                     2.06693   4.56844   2.61683 
 H                     3.19342   3.19876   2.57973 
 H                     3.58595   4.69923   1.70148 
 C                     1.32404   4.64003   0.05685 
 H                     0.77933   4.28351  -0.8273 
 H                     0.58102   5.05411   0.75135 
 H                     2.01024   5.44567  -0.23766 
 C                     3.55077   3.43513  -1.35638 
 H                     2.79019   3.92545  -1.97462 
 H                     4.23897   4.20457  -0.97755 
 H                     4.12711   2.75635  -1.9994 
 C                     4.01049   1.84553   0.5002 
 H                     3.57318   1.2477    1.31089 
 H                     4.46917   1.15407  -0.22092 
 H                     4.80634   2.48283   0.90842 
 H                    -1.19983   0.96866   1.2484 
 C                     0.98791  -0.41739  -3.47611 
 O                     0.78565  -1.62142  -3.31208 
 C                     2.21863   0.06744  -4.22361 
 H                     1.93617   0.78915  -5.00503 
 H                     2.83996   0.63344  -3.50748 
 C                    -0.94008   0.14639  -2.11082 
 H                    -1.82297   0.72979  -2.40366 
 H                    -1.17096  -0.90032  -2.33541 
 N                     0.1629    0.53787  -2.96634 
 C                     0.31403   1.94823  -3.25991 
 H                    -0.25221   2.52132  -2.51712 
 H                     1.35891   2.26802  -3.1865 
 H                    -0.07042   2.19658  -4.26298 
 C                     3.00935  -1.08227  -4.81648 
 H                     3.32352  -1.78303  -4.03449 
 H                     2.40132  -1.6518   -5.52879 
 C                     4.44069  -2.22568  -0.94897 
 F                     5.11644  -3.27897  -1.4135 
 F                     4.71825  -1.17937  -1.7367 
 F                     4.92646  -1.93385   0.26568 
 C                    -5.36781  -2.71274   0.29708 
 F                    -5.61901  -2.39065   1.56967 
 F                    -5.90549  -1.75247  -0.46201 
 F                    -6.01034  -3.85326   0.03016 
 H                     3.90374  -0.71573  -5.3347 
 

 GradGradGradGradGradGradGradGradGradGradGradGradGradGradGradGradGradGrad
 Berny optimization.
 Initialization pass.
 Trust Radius=3.00D-01 FncErr=1.00D-07 GrdErr=1.00D-07 EigMax=2.50D+02 EigMin=1.00D-04
 Number of steps in this run=      2 maximum allowed number of steps=      2.
 GradGradGradGradGradGradGradGradGradGradGradGradGradGradGradGradGradGrad

 Stoichiometry    C35H53B3F6IrN3O7
 Framework group  C1[X(C35H53B3F6IrN3O7)]
 Deg. of freedom   318
 Full point group                 C1      NOp   1
 Largest Abelian subgroup         C1      NOp   1
 Largest concise Abelian subgroup C1      NOp   1
                         Standard orientation:                         
 ---------------------------------------------------------------------
 Center     Atomic      Atomic             Coordinates (Angstroms)
 Number     Number       Type             X           Y           Z
 ---------------------------------------------------------------------
      1          6           0        0.268169   -2.789540   -0.560670
      2          6           0        2.136659   -1.414451   -0.620990
      3          6           0        2.970789   -2.488581   -0.880870
      4          6           0        2.424789   -3.759781   -0.993910
      5          6           0        1.056449   -3.904890   -0.836760
      6          6           0       -1.187081   -2.869770   -0.357300
      7          6           0       -3.101741   -1.709099    0.247340
      8          6           0       -3.895511   -2.832179    0.052640
      9          6           0       -3.298241   -4.015369   -0.366450
     10          6           0       -1.929251   -4.031700   -0.577100
     11          1           0        2.520080   -0.397441   -0.555700
     12          1           0        3.058359   -4.619331   -1.198330
     13          1           0        0.607438   -4.890710   -0.915790
     14          1           0       -3.527630   -0.748649    0.541120
     15          1           0       -3.898702   -4.905559   -0.536120
     16          1           0       -1.449252   -4.939430   -0.931960
     17          7           0        0.821269   -1.559500   -0.453760
     18          7           0       -1.784031   -1.730450    0.055360
     19         77           0       -0.436470    0.095170    0.113690
     20          8           0        1.853040   -0.430321    2.076190
     21          8           0       -3.174210    1.412301   -0.188290
     22          8           0        1.987560    1.711009   -0.742650
     23          5           0       -1.799440    1.612390   -0.224370
     24          5           0        0.480680   -0.214430    1.992590
     25          5           0        0.942170    1.584070    0.172640
     26          8           0        1.054520    2.550910    1.163820
     27          8           0       -0.100610   -0.298090    3.240770
     28          6           0        0.959670   -0.338180    4.215300
     29          6           0        2.138039   -0.927171    3.392350
     30          6           0        2.935350    2.655029   -0.212040
     31          6           0        2.050531    3.496259    0.754260
     32          6           0       -3.809650    2.617381   -0.657310
     33          6           0       -2.717389    3.687941   -0.371880
     34          8           0       -1.506700    2.930280   -0.531720
     35          6           0        3.516990   -0.462221    3.812360
     36          1           0        3.744850   -0.787321    4.837720
     37          1           0        4.271600   -0.894501    3.141470
     38          1           0        3.610120    0.628999    3.765520
     39          6           0        2.111509   -2.447591    3.291040
     40          1           0        2.831999   -2.754401    2.519800
     41          1           0        2.389189   -2.934721    4.235430
     42          1           0        1.116559   -2.805230    2.990460
     43          6           0        1.203520    1.099850    4.652070
     44          1           0        1.967650    1.168299    5.438250
     45          1           0        1.504530    1.721600    3.797050
     46          1           0        0.265450    1.509800    5.046430
     47          6           0        0.521269   -1.182890    5.392890
     48          1           0        1.341359   -1.297560    6.116530
     49          1           0       -0.318030   -0.697150    5.906280
     50          1           0        0.191149   -2.178760    5.076840
     51          6           0       -4.098610    2.445251   -2.141930
     52          1           0       -4.674330    1.522401   -2.287160
     53          1           0       -4.685799    3.284241   -2.538740
     54          1           0       -3.174570    2.363371   -2.729580
     55          6           0       -5.108390    2.807011    0.099390
     56          1           0       -4.953070    2.781691    1.183310
     57          1           0       -5.579289    3.764301   -0.166140
     58          1           0       -5.808100    2.001811   -0.160150
     59          6           0       -2.692059    4.857871   -1.333490
     60          1           0       -3.640889    5.412301   -1.303770
     61          1           0       -1.887309    5.549230   -1.050570
     62          1           0       -2.508549    4.532061   -2.363940
     63          6           0       -2.735279    4.190161    1.065830
     64          1           0       -2.770079    3.356681    1.779910
     65          1           0       -1.807719    4.745570    1.253330
     66          1           0       -3.587199    4.855731    1.259380
     67          6           0        2.771541    4.015659    1.982100
     68          1           0        2.066931    4.568439    2.616830
     69          1           0        3.193421    3.198759    2.579730
     70          1           0        3.585951    4.699229    1.701480
     71          6           0        1.324041    4.640030    0.056850
     72          1           0        0.779331    4.283510   -0.827300
     73          1           0        0.581021    5.054110    0.751350
     74          1           0        2.010241    5.445669   -0.237660
     75          6           0        3.550771    3.435129   -1.356380
     76          1           0        2.790191    3.925449   -1.974620
     77          1           0        4.238971    4.204569   -0.977550
     78          1           0        4.127110    2.756349   -1.999400
     79          6           0        4.010490    1.845529    0.500200
     80          1           0        3.573180    1.247699    1.310890
     81          1           0        4.469170    1.154069   -0.220920
     82          1           0        4.806340    2.482829    0.908420
     83          1           0       -1.199830    0.968660    1.248400
     84          6           0        0.987910   -0.417390   -3.476110
     85          8           0        0.785649   -1.621420   -3.312080
     86          6           0        2.218630    0.067439   -4.223610
     87          1           0        1.936170    0.789149   -5.005030
     88          1           0        2.839960    0.633439   -3.507480
     89          6           0       -0.940080    0.146390   -2.110820
     90          1           0       -1.822970    0.729790   -2.403660
     91          1           0       -1.170960   -0.900320   -2.335410
     92          7           0        0.162900    0.537870   -2.966340
     93          6           0        0.314030    1.948230   -3.259910
     94          1           0       -0.252210    2.521320   -2.517120
     95          1           0        1.358910    2.268020   -3.186500
     96          1           0       -0.070420    2.196580   -4.262980
     97          6           0        3.009349   -1.082271   -4.816480
     98          1           0        3.323519   -1.783031   -4.034490
     99          1           0        2.401319   -1.651801   -5.528790
    100          6           0        4.440689   -2.225681   -0.948970
    101          9           0        5.116439   -3.278971   -1.413500
    102          9           0        4.718249   -1.179371   -1.736700
    103          9           0        4.926459   -1.933851    0.265680
    104          6           0       -5.367811   -2.712739    0.297080
    105          9           0       -5.619011   -2.390649    1.569670
    106          9           0       -5.905491   -1.752469   -0.462010
    107          9           0       -6.010341   -3.853259    0.030160
    108          1           0        3.903740   -0.715731   -5.334700
 ---------------------------------------------------------------------
 Rotational constants (GHZ):           0.0587742           0.0449958           0.0397859
 General basis read from cards:  (5D, 7F)
 ======================================================================================================
                                       Pseudopotential Parameters
 ======================================================================================================
  Center     Atomic      Valence      Angular      Power
  Number     Number     Electrons     Momentum     of R      Exponent        Coefficient   SO-Coeffient
 ======================================================================================================
    1          6
                                   No pseudopotential on this center.
    2          6
                                   No pseudopotential on this center.
    3          6
                                   No pseudopotential on this center.
    4          6
                                   No pseudopotential on this center.
    5          6
                                   No pseudopotential on this center.
    6          6
                                   No pseudopotential on this center.
    7          6
                                   No pseudopotential on this center.
    8          6
                                   No pseudopotential on this center.
    9          6
                                   No pseudopotential on this center.
   10          6
                                   No pseudopotential on this center.
   11          1
                                   No pseudopotential on this center.
   12          1
                                   No pseudopotential on this center.
   13          1
                                   No pseudopotential on this center.
   14          1
                                   No pseudopotential on this center.
   15          1
                                   No pseudopotential on this center.
   16          1
                                   No pseudopotential on this center.
   17          7
                                   No pseudopotential on this center.
   18          7
                                   No pseudopotential on this center.
   19         77           17
                                      G and up 
                                                     1      823.5880147       -0.15780140    0.00000000
                                                     2      364.6613336    -1517.52704460    0.00000000
                                                     2       55.7082801     -316.53065290    0.00000000
                                                     2       12.0464544      -91.88809410    0.00000000
                                                     2        3.5120610       -9.22417730    0.00000000
                                      S - G
                                                     0      188.0490770        3.15780140    0.00000000
                                                     1      340.4194712       26.83225770    0.00000000
                                                     2      128.2373673      800.42500070    0.00000000
                                                     2       33.8644961      369.40506830    0.00000000
                                                     2        4.7560005      242.41718990    0.00000000
                                                     2        3.9649974     -118.21732820    0.00000000
                                      P - G
                                                     0      289.7291139        2.15780140    0.00000000
                                                     1       87.4633789       61.96786100    0.00000000
                                                     2       30.4363766      269.05819860    0.00000000
                                                     2        4.0553412      231.16547930    0.00000000
                                                     2        3.5525341     -133.69526670    0.00000000
                                      D - G
                                                     0      136.4017106        3.15780140    0.00000000
                                                     1       95.0776925       45.93498030    0.00000000
                                                     2       49.2258410      359.03446680    0.00000000
                                                     2       15.0874145      176.47401190    0.00000000
                                                     2        4.0405764       54.51552860    0.00000000
                                      F - G
                                                     0      127.3507908        3.95461970    0.00000000
                                                     1       66.2364374       52.97736550    0.00000000
                                                     2       34.4299229      274.86433830    0.00000000
                                                     2       10.1995721      137.20473380    0.00000000
                                                     2        2.5409702       14.86333050    0.00000000
   20          8
                                   No pseudopotential on this center.
   21          8
                                   No pseudopotential on this center.
   22          8
                                   No pseudopotential on this center.
   23          5
                                   No pseudopotential on this center.
   24          5
                                   No pseudopotential on this center.
   25          5
                                   No pseudopotential on this center.
   26          8
                                   No pseudopotential on this center.
   27          8
                                   No pseudopotential on this center.
   28          6
                                   No pseudopotential on this center.
   29          6
                                   No pseudopotential on this center.
   30          6
                                   No pseudopotential on this center.
   31          6
                                   No pseudopotential on this center.
   32          6
                                   No pseudopotential on this center.
   33          6
                                   No pseudopotential on this center.
   34          8
                                   No pseudopotential on this center.
   35          6
                                   No pseudopotential on this center.
   36          1
                                   No pseudopotential on this center.
   37          1
                                   No pseudopotential on this center.
   38          1
                                   No pseudopotential on this center.
   39          6
                                   No pseudopotential on this center.
   40          1
                                   No pseudopotential on this center.
   41          1
                                   No pseudopotential on this center.
   42          1
                                   No pseudopotential on this center.
   43          6
                                   No pseudopotential on this center.
   44          1
                                   No pseudopotential on this center.
   45          1
                                   No pseudopotential on this center.
   46          1
                                   No pseudopotential on this center.
   47          6
                                   No pseudopotential on this center.
   48          1
                                   No pseudopotential on this center.
   49          1
                                   No pseudopotential on this center.
   50          1
                                   No pseudopotential on this center.
   51          6
                                   No pseudopotential on this center.
   52          1
                                   No pseudopotential on this center.
   53          1
                                   No pseudopotential on this center.
   54          1
                                   No pseudopotential on this center.
   55          6
                                   No pseudopotential on this center.
   56          1
                                   No pseudopotential on this center.
   57          1
                                   No pseudopotential on this center.
   58          1
                                   No pseudopotential on this center.
   59          6
                                   No pseudopotential on this center.
   60          1
                                   No pseudopotential on this center.
   61          1
                                   No pseudopotential on this center.
   62          1
                                   No pseudopotential on this center.
   63          6
                                   No pseudopotential on this center.
   64          1
                                   No pseudopotential on this center.
   65          1
                                   No pseudopotential on this center.
   66          1
                                   No pseudopotential on this center.
   67          6
                                   No pseudopotential on this center.
   68          1
                                   No pseudopotential on this center.
   69          1
                                   No pseudopotential on this center.
   70          1
                                   No pseudopotential on this center.
   71          6
                                   No pseudopotential on this center.
   72          1
                                   No pseudopotential on this center.
   73          1
                                   No pseudopotential on this center.
   74          1
                                   No pseudopotential on this center.
   75          6
                                   No pseudopotential on this center.
   76          1
                                   No pseudopotential on this center.
   77          1
                                   No pseudopotential on this center.
   78          1
                                   No pseudopotential on this center.
   79          6
                                   No pseudopotential on this center.
   80          1
                                   No pseudopotential on this center.
   81          1
                                   No pseudopotential on this center.
   82          1
                                   No pseudopotential on this center.
   83          1
                                   No pseudopotential on this center.
   84          6
                                   No pseudopotential on this center.
   85          8
                                   No pseudopotential on this center.
   86          6
                                   No pseudopotential on this center.
   87          1
                                   No pseudopotential on this center.
   88          1
                                   No pseudopotential on this center.
   89          6
                                   No pseudopotential on this center.
   90          1
                                   No pseudopotential on this center.
   91          1
                                   No pseudopotential on this center.
   92          7
                                   No pseudopotential on this center.
   93          6
                                   No pseudopotential on this center.
   94          1
                                   No pseudopotential on this center.
   95          1
                                   No pseudopotential on this center.
   96          1
                                   No pseudopotential on this center.
   97          6
                                   No pseudopotential on this center.
   98          1
                                   No pseudopotential on this center.
   99          1
                                   No pseudopotential on this center.
  100          6
                                   No pseudopotential on this center.
  101          9
                                   No pseudopotential on this center.
  102          9
                                   No pseudopotential on this center.
  103          9
                                   No pseudopotential on this center.
  104          6
                                   No pseudopotential on this center.
  105          9
                                   No pseudopotential on this center.
  106          9
                                   No pseudopotential on this center.
  107          9
                                   No pseudopotential on this center.
  108          1
                                   No pseudopotential on this center.
 ======================================================================================================
 There are   940 symmetry adapted cartesian basis functions of A   symmetry.
 There are   884 symmetry adapted basis functions of A   symmetry.
   884 basis functions,  1767 primitive gaussians,   940 cartesian basis functions
   213 alpha electrons      213 beta electrons
       nuclear repulsion energy      9737.3514081776 Hartrees.
 NAtoms=  108 NActive=  108 NUniq=  108 SFac= 1.00D+00 NAtFMM=   60 NAOKFM=T Big=T
 Integral buffers will be    131072 words long.
 Raffenetti 2 integral format.
 Two-electron integral symmetry is turned on.
 One-electron integrals computed using PRISM.
   1 Symmetry operations used in ECPInt.
 ECPInt:  NShTT=   54615 NPrTT=  339395 LenC2=   41139 LenP2D=  127486.
 LDataN:  DoStor=T MaxTD1= 6 Len=  172
 NBasis=   884 RedAO= T EigKep=  4.32D-04  NBF=   884
 NBsUse=   884 1.00D-06 EigRej= -1.00D+00 NBFU=   884
 Defaulting to unpruned grid for atomic number  77.
 ExpMin= 2.90D-02 ExpMax= 7.00D+03 ExpMxC= 1.05D+03 IAcc=3 IRadAn=         5 AccDes= 0.00D+00
 Harris functional with IExCor= 1009 and IRadAn=       5 diagonalized for initial guess.
 HarFok:  IExCor= 1009 AccDes= 0.00D+00 IRadAn=         5 IDoV= 1 UseB2=F ITyADJ=14
 ICtDFT=  3500011 ScaDFX=  1.000000  1.000000  1.000000  1.000000
 Defaulting to unpruned grid for atomic number  77.
 FoFCou: FMM=F IPFlag=           0 FMFlag=      100000 FMFlg1=        2001
         NFxFlg=           0 DoJE=T BraDBF=F KetDBF=T FulRan=T
         wScrn=  0.000000 ICntrl=       500 IOpCl=  0 I1Cent=   200000004 NGrid=           0
         NMat0=    1 NMatS0=      1 NMatT0=    0 NMatD0=    1 NMtDS0=    0 NMtDT0=    0
 Petite list used in FoFCou.
 Requested convergence on RMS density matrix=1.00D-08 within 128 cycles.
 Requested convergence on MAX density matrix=1.00D-06.
 Requested convergence on             energy=1.00D-06.
 No special actions if energy rises.
 Defaulting to unpruned grid for atomic number  77.
 Defaulting to unpruned grid for atomic number  77.
 Defaulting to unpruned grid for atomic number  77.
 Defaulting to unpruned grid for atomic number  77.
 Defaulting to unpruned grid for atomic number  77.
 Defaulting to unpruned grid for atomic number  77.
 Defaulting to unpruned grid for atomic number  77.
 Defaulting to unpruned grid for atomic number  77.
 Defaulting to unpruned grid for atomic number  77.
 Defaulting to unpruned grid for atomic number  77.
 Defaulting to unpruned grid for atomic number  77.
 Defaulting to unpruned grid for atomic number  77.
 Defaulting to unpruned grid for atomic number  77.
 Defaulting to unpruned grid for atomic number  77.
 Defaulting to unpruned grid for atomic number  77.
 Defaulting to unpruned grid for atomic number  77.
 SCF Done:  E(RM06) =  -2833.55230901     A.U. after   14 cycles
            NFock= 14  Conv=0.90D-08     -V/T= 2.0321
 DoSCS=F DFT=T ScalE2(SS,OS)=  1.000000  1.000000
 Range of M.O.s used for correlation:     1   884
 NBasis=   884 NAE=   213 NBE=   213 NFC=     0 NFV=     0
 NROrb=    884 NOA=   213 NOB=   213 NVA=   671 NVB=   671

 **** Warning!!: The largest alpha MO coefficient is  0.12168030D+02


 **** Warning!!: The smallest alpha delta epsilon is  0.97398354D-01

   1 Symmetry operations used in ECPInt.
 ECPInt:  NShTT=   54615 NPrTT=  339395 LenC2=   41139 LenP2D=  127486.
 LDataN:  DoStor=T MaxTD1= 7 Len=  274
 Number of processors reduced to   7 by ecpmxn.
 Symmetrizing basis deriv contribution to polar:
 IMax=3 JMax=2 DiffMx= 0.00D+00
 G2DrvN: will do   109 centers at a time, making    1 passes.
 Calling FoFCou, ICntrl=  3107 FMM=T I1Cent=   0 AccDes= 0.00D+00.
 Defaulting to unpruned grid for atomic number  77.
 Defaulting to unpruned grid for atomic number  77.
 Defaulting to unpruned grid for atomic number  77.
 Defaulting to unpruned grid for atomic number  77.
 Defaulting to unpruned grid for atomic number  77.
 Defaulting to unpruned grid for atomic number  77.
 Defaulting to unpruned grid for atomic number  77.
 Defaulting to unpruned grid for atomic number  77.
 Defaulting to unpruned grid for atomic number  77.
 Defaulting to unpruned grid for atomic number  77.
 Defaulting to unpruned grid for atomic number  77.
 Defaulting to unpruned grid for atomic number  77.
 Defaulting to unpruned grid for atomic number  77.
 Defaulting to unpruned grid for atomic number  77.
 Defaulting to unpruned grid for atomic number  77.
 Defaulting to unpruned grid for atomic number  77.
 End of G2Drv F.D. properties file   721 does not exist.
 End of G2Drv F.D. properties file   722 does not exist.
 End of G2Drv F.D. properties file   788 does not exist.
          IDoAtm=11111111111111111111111111111111111111111111111111
          IDoAtm=11111111111111111111111111111111111111111111111111
          IDoAtm=11111111
          Differentiating once with respect to electric field.
                with respect to dipole field.
          Differentiating once with respect to nuclear coordinates.
 Defaulting to unpruned grid for atomic number  77.
 CalDSu exits because no D1Ps are significant.
 Defaulting to unpruned grid for atomic number  77.
 Defaulting to unpruned grid for atomic number  77.
 Defaulting to unpruned grid for atomic number  77.
 Defaulting to unpruned grid for atomic number  77.
 Defaulting to unpruned grid for atomic number  77.
 Defaulting to unpruned grid for atomic number  77.
 Defaulting to unpruned grid for atomic number  77.
 Defaulting to unpruned grid for atomic number  77.
 Defaulting to unpruned grid for atomic number  77.
 Defaulting to unpruned grid for atomic number  77.
 Defaulting to unpruned grid for atomic number  77.
 Defaulting to unpruned grid for atomic number  77.
 Defaulting to unpruned grid for atomic number  77.
 Defaulting to unpruned grid for atomic number  77.
 Defaulting to unpruned grid for atomic number  77.
 Defaulting to unpruned grid for atomic number  77.
          There are   327 degrees of freedom in the 1st order CPHF.  IDoFFX=6 NUNeed=     3.
    324 vectors produced by pass  0 Test12= 1.43D-13 1.00D-09 XBig12= 5.26D+02 1.11D+01.
 AX will form    72 AO Fock derivatives at one time.
    324 vectors produced by pass  1 Test12= 1.43D-13 1.00D-09 XBig12= 8.68D+01 1.25D+00.
    324 vectors produced by pass  2 Test12= 1.43D-13 1.00D-09 XBig12= 9.56D-01 9.71D-02.
    324 vectors produced by pass  3 Test12= 1.43D-13 1.00D-09 XBig12= 7.09D-03 5.26D-03.
    324 vectors produced by pass  4 Test12= 1.43D-13 1.00D-09 XBig12= 3.11D-05 2.75D-04.
    291 vectors produced by pass  5 Test12= 1.43D-13 1.00D-09 XBig12= 6.58D-08 1.16D-05.
     86 vectors produced by pass  6 Test12= 1.43D-13 1.00D-09 XBig12= 9.67D-11 6.82D-07.
      3 vectors produced by pass  7 Test12= 1.43D-13 1.00D-09 XBig12= 1.26D-13 2.55D-08.
 InvSVY:  IOpt=1 It=  1 EMax= 1.07D-14
 Solved reduced A of dimension  2000 with   327 vectors.
 Isotropic polarizability for W=    0.000000      491.01 Bohr**3.
 End of Minotr F.D. properties file   721 does not exist.
 End of Minotr F.D. properties file   722 does not exist.
 End of Minotr F.D. properties file   788 does not exist.
 Hyperfine terms turned off by default for NAtoms > 100.

 **********************************************************************

            Population analysis using the SCF Density.

 **********************************************************************

 Orbital symmetries:
       Occupied  (A) (A) (A) (A) (A) (A) (A) (A) (A) (A) (A) (A)
                 (A) (A) (A) (A) (A) (A) (A) (A) (A) (A) (A) (A)
                 (A) (A) (A) (A) (A) (A) (A) (A) (A) (A) (A) (A)
                 (A) (A) (A) (A) (A) (A) (A) (A) (A) (A) (A) (A)
                 (A) (A) (A) (A) (A) (A) (A) (A) (A) (A) (A) (A)
                 (A) (A) (A) (A) (A) (A) (A) (A) (A) (A) (A) (A)
                 (A) (A) (A) (A) (A) (A) (A) (A) (A) (A) (A) (A)
                 (A) (A) (A) (A) (A) (A) (A) (A) (A) (A) (A) (A)
                 (A) (A) (A) (A) (A) (A) (A) (A) (A) (A) (A) (A)
                 (A) (A) (A) (A) (A) (A) (A) (A) (A) (A) (A) (A)
                 (A) (A) (A) (A) (A) (A) (A) (A) (A) (A) (A) (A)
                 (A) (A) (A) (A) (A) (A) (A) (A) (A) (A) (A) (A)
                 (A) (A) (A) (A) (A) (A) (A) (A) (A) (A) (A) (A)
                 (A) (A) (A) (A) (A) (A) (A) (A) (A) (A) (A) (A)
                 (A) (A) (A) (A) (A) (A) (A) (A) (A) (A) (A) (A)
                 (A) (A) (A) (A) (A) (A) (A) (A) (A) (A) (A) (A)
                 (A) (A) (A) (A) (A) (A) (A) (A) (A) (A) (A) (A)
                 (A) (A) (A) (A) (A) (A) (A) (A) (A)
       Virtual   (A) (A) (A) (A) (A) (A) (A) (A) (A) (A) (A) (A)
                 (A) (A) (A) (A) (A) (A) (A) (A) (A) (A) (A) (A)
                 (A) (A) (A) (A) (A) (A) (A) (A) (A) (A) (A) (A)
                 (A) (A) (A) (A) (A) (A) (A) (A) (A) (A) (A) (A)
                 (A) (A) (A) (A) (A) (A) (A) (A) (A) (A) (A) (A)
                 (A) (A) (A) (A) (A) (A) (A) (A) (A) (A) (A) (A)
                 (A) (A) (A) (A) (A) (A) (A) (A) (A) (A) (A) (A)
                 (A) (A) (A) (A) (A) (A) (A) (A) (A) (A) (A) (A)
                 (A) (A) (A) (A) (A) (A) (A) (A) (A) (A) (A) (A)
                 (A) (A) (A) (A) (A) (A) (A) (A) (A) (A) (A) (A)
                 (A) (A) (A) (A) (A) (A) (A) (A) (A) (A) (A) (A)
                 (A) (A) (A) (A) (A) (A) (A) (A) (A) (A) (A) (A)
                 (A) (A) (A) (A) (A) (A) (A) (A) (A) (A) (A) (A)
                 (A) (A) (A) (A) (A) (A) (A) (A) (A) (A) (A) (A)
                 (A) (A) (A) (A) (A) (A) (A) (A) (A) (A) (A) (A)
                 (A) (A) (A) (A) (A) (A) (A) (A) (A) (A) (A) (A)
                 (A) (A) (A) (A) (A) (A) (A) (A) (A) (A) (A) (A)
                 (A) (A) (A) (A) (A) (A) (A) (A) (A) (A) (A) (A)
                 (A) (A) (A) (A) (A) (A) (A) (A) (A) (A) (A) (A)
                 (A) (A) (A) (A) (A) (A) (A) (A) (A) (A) (A) (A)
                 (A) (A) (A) (A) (A) (A) (A) (A) (A) (A) (A) (A)
                 (A) (A) (A) (A) (A) (A) (A) (A) (A) (A) (A) (A)
                 (A) (A) (A) (A) (A) (A) (A) (A) (A) (A) (A) (A)
                 (A) (A) (A) (A) (A) (A) (A) (A) (A) (A) (A) (A)
                 (A) (A) (A) (A) (A) (A) (A) (A) (A) (A) (A) (A)
                 (A) (A) (A) (A) (A) (A) (A) (A) (A) (A) (A) (A)
                 (A) (A) (A) (A) (A) (A) (A) (A) (A) (A) (A) (A)
                 (A) (A) (A) (A) (A) (A) (A) (A) (A) (A) (A) (A)
                 (A) (A) (A) (A) (A) (A) (A) (A) (A) (A) (A) (A)
                 (A) (A) (A) (A) (A) (A) (A) (A) (A) (A) (A) (A)
                 (A) (A) (A) (A) (A) (A) (A) (A) (A) (A) (A) (A)
                 (A) (A) (A) (A) (A) (A) (A) (A) (A) (A) (A) (A)
                 (A) (A) (A) (A) (A) (A) (A) (A) (A) (A) (A) (A)
                 (A) (A) (A) (A) (A) (A) (A) (A) (A) (A) (A) (A)
                 (A) (A) (A) (A) (A) (A) (A) (A) (A) (A) (A) (A)
                 (A) (A) (A) (A) (A) (A) (A) (A) (A) (A) (A) (A)
                 (A) (A) (A) (A) (A) (A) (A) (A) (A) (A) (A) (A)
                 (A) (A) (A) (A) (A) (A) (A) (A) (A) (A) (A) (A)
                 (A) (A) (A) (A) (A) (A) (A) (A) (A) (A) (A) (A)
                 (A) (A) (A) (A) (A) (A) (A) (A) (A) (A) (A) (A)
                 (A) (A) (A) (A) (A) (A) (A) (A) (A) (A) (A) (A)
                 (A) (A) (A) (A) (A) (A) (A) (A) (A) (A) (A) (A)
                 (A) (A) (A) (A) (A) (A) (A) (A) (A) (A) (A) (A)
                 (A) (A) (A) (A) (A) (A) (A) (A) (A) (A) (A) (A)
                 (A) (A) (A) (A) (A) (A) (A) (A) (A) (A) (A) (A)
                 (A) (A) (A) (A) (A) (A) (A) (A) (A) (A) (A) (A)
                 (A) (A) (A) (A) (A) (A) (A) (A) (A) (A) (A) (A)
                 (A) (A) (A) (A) (A) (A) (A) (A) (A) (A) (A) (A)
                 (A) (A) (A) (A) (A) (A) (A) (A) (A) (A) (A) (A)
                 (A) (A) (A) (A) (A) (A) (A) (A) (A) (A) (A) (A)
                 (A) (A) (A) (A) (A) (A) (A) (A) (A) (A) (A) (A)
                 (A) (A) (A) (A) (A) (A) (A) (A) (A) (A) (A) (A)
                 (A) (A) (A) (A) (A) (A) (A) (A) (A) (A) (A) (A)
                 (A) (A) (A) (A) (A) (A) (A) (A) (A) (A) (A) (A)
                 (A) (A) (A) (A) (A) (A) (A) (A) (A) (A) (A) (A)
                 (A) (A) (A) (A) (A) (A) (A) (A) (A) (A) (A)
 The electronic state is 1-A.
 Alpha  occ. eigenvalues --  -24.83448 -24.83234 -24.82812 -24.82755 -24.82706
 Alpha  occ. eigenvalues --  -24.82495 -19.21561 -19.21245 -19.21030 -19.20811
 Alpha  occ. eigenvalues --  -19.20800 -19.20131 -19.16335 -14.46364 -14.45617
 Alpha  occ. eigenvalues --  -14.40315 -10.51557 -10.51309 -10.33138 -10.32913
 Alpha  occ. eigenvalues --  -10.31893 -10.31614 -10.31023 -10.30356 -10.30252
 Alpha  occ. eigenvalues --  -10.30156 -10.29943 -10.29732 -10.29701 -10.29668
 Alpha  occ. eigenvalues --  -10.29579 -10.29388 -10.29361 -10.29109 -10.28864
 Alpha  occ. eigenvalues --  -10.25248 -10.23852 -10.23550 -10.23457 -10.23421
 Alpha  occ. eigenvalues --  -10.23316 -10.23288 -10.23208 -10.23122 -10.23098
 Alpha  occ. eigenvalues --  -10.22915 -10.22901 -10.22292 -10.22275 -10.22242
 Alpha  occ. eigenvalues --  -10.21819  -6.82631  -6.80633  -6.79883  -3.65195
 Alpha  occ. eigenvalues --   -2.08239  -2.06898  -2.05886  -1.35909  -1.35667
 Alpha  occ. eigenvalues --   -1.27435  -1.27238  -1.26844  -1.26602  -1.07443
 Alpha  occ. eigenvalues --   -1.06919  -1.06333  -1.02220  -1.01123  -1.00496
 Alpha  occ. eigenvalues --   -0.99924  -0.99469  -0.98679  -0.91795  -0.86797
 Alpha  occ. eigenvalues --   -0.85911  -0.84417  -0.81340  -0.80914  -0.80638
 Alpha  occ. eigenvalues --   -0.80530  -0.76853  -0.75813  -0.75739  -0.75352
 Alpha  occ. eigenvalues --   -0.74977  -0.72535  -0.71147  -0.70854  -0.70488
 Alpha  occ. eigenvalues --   -0.69686  -0.69401  -0.68848  -0.68397  -0.68103
 Alpha  occ. eigenvalues --   -0.67697  -0.67522  -0.66490  -0.65470  -0.62716
 Alpha  occ. eigenvalues --   -0.62171  -0.62064  -0.61845  -0.61668  -0.61583
 Alpha  occ. eigenvalues --   -0.61443  -0.60955  -0.60752  -0.60403  -0.57010
 Alpha  occ. eigenvalues --   -0.55685  -0.55213  -0.55006  -0.54726  -0.54605
 Alpha  occ. eigenvalues --   -0.53961  -0.53447  -0.51584  -0.51422  -0.49746
 Alpha  occ. eigenvalues --   -0.49700  -0.49317  -0.49166  -0.49067  -0.48972
 Alpha  occ. eigenvalues --   -0.48839  -0.48339  -0.47766  -0.47744  -0.47368
 Alpha  occ. eigenvalues --   -0.47167  -0.47051  -0.46912  -0.46768  -0.46712
 Alpha  occ. eigenvalues --   -0.46242  -0.45885  -0.45663  -0.45455  -0.45182
 Alpha  occ. eigenvalues --   -0.44980  -0.44962  -0.44919  -0.44571  -0.44508
 Alpha  occ. eigenvalues --   -0.44141  -0.44021  -0.43703  -0.43443  -0.43200
 Alpha  occ. eigenvalues --   -0.43128  -0.42999  -0.42741  -0.42384  -0.40926
 Alpha  occ. eigenvalues --   -0.40798  -0.40528  -0.40462  -0.40398  -0.40225
 Alpha  occ. eigenvalues --   -0.40084  -0.40036  -0.40013  -0.39907  -0.39863
 Alpha  occ. eigenvalues --   -0.39494  -0.39278  -0.39238  -0.38930  -0.38335
 Alpha  occ. eigenvalues --   -0.37990  -0.37950  -0.37638  -0.37350  -0.37207
 Alpha  occ. eigenvalues --   -0.37061  -0.36992  -0.36779  -0.36569  -0.36492
 Alpha  occ. eigenvalues --   -0.36304  -0.36126  -0.36001  -0.35669  -0.35407
 Alpha  occ. eigenvalues --   -0.35007  -0.34713  -0.34605  -0.34542  -0.33775
 Alpha  occ. eigenvalues --   -0.33525  -0.33389  -0.33010  -0.32860  -0.32736
 Alpha  occ. eigenvalues --   -0.32136  -0.31936  -0.31492  -0.31199  -0.30854
 Alpha  occ. eigenvalues --   -0.30361  -0.30118  -0.28524  -0.27742  -0.27435
 Alpha  occ. eigenvalues --   -0.27168  -0.26761  -0.26621  -0.25702  -0.24378
 Alpha  occ. eigenvalues --   -0.23772  -0.22651  -0.18162
 Alpha virt. eigenvalues --   -0.08422  -0.04681  -0.03851  -0.00321   0.01974
 Alpha virt. eigenvalues --    0.03575   0.04886   0.05819   0.06163   0.06826
 Alpha virt. eigenvalues --    0.07438   0.07901   0.08949   0.09102   0.09301
 Alpha virt. eigenvalues --    0.09347   0.10131   0.10809   0.11372   0.11583
 Alpha virt. eigenvalues --    0.11885   0.12089   0.12209   0.12819   0.12984
 Alpha virt. eigenvalues --    0.13306   0.13608   0.14148   0.14251   0.14430
 Alpha virt. eigenvalues --    0.14538   0.14678   0.14812   0.15202   0.15354
 Alpha virt. eigenvalues --    0.15532   0.15620   0.15788   0.16028   0.16264
 Alpha virt. eigenvalues --    0.16461   0.16599   0.16756   0.16984   0.17275
 Alpha virt. eigenvalues --    0.17479   0.17795   0.17921   0.18184   0.18435
 Alpha virt. eigenvalues --    0.18597   0.18888   0.19035   0.19124   0.19322
 Alpha virt. eigenvalues --    0.19544   0.19639   0.19979   0.20088   0.20315
 Alpha virt. eigenvalues --    0.20344   0.20689   0.20925   0.21073   0.21211
 Alpha virt. eigenvalues --    0.21699   0.21913   0.22002   0.22310   0.22552
 Alpha virt. eigenvalues --    0.22613   0.22804   0.23064   0.23409   0.23582
 Alpha virt. eigenvalues --    0.23687   0.24053   0.24323   0.24417   0.24549
 Alpha virt. eigenvalues --    0.24861   0.25104   0.25441   0.25552   0.25837
 Alpha virt. eigenvalues --    0.26009   0.26037   0.26522   0.26538   0.26749
 Alpha virt. eigenvalues --    0.27164   0.27550   0.27760   0.27819   0.28167
 Alpha virt. eigenvalues --    0.28597   0.28998   0.29663   0.30299   0.30376
 Alpha virt. eigenvalues --    0.31176   0.31848   0.32099   0.32462   0.33366
 Alpha virt. eigenvalues --    0.34316   0.34787   0.35010   0.35354   0.35482
 Alpha virt. eigenvalues --    0.36572   0.36656   0.37041   0.37758   0.38606
 Alpha virt. eigenvalues --    0.39280   0.39591   0.39993   0.40571   0.41346
 Alpha virt. eigenvalues --    0.43614   0.44466   0.46293   0.47336   0.47699
 Alpha virt. eigenvalues --    0.48021   0.48709   0.48873   0.49440   0.49879
 Alpha virt. eigenvalues --    0.50166   0.50186   0.50524   0.50686   0.51085
 Alpha virt. eigenvalues --    0.51296   0.51577   0.51813   0.52109   0.52980
 Alpha virt. eigenvalues --    0.53510   0.53625   0.53975   0.54560   0.54740
 Alpha virt. eigenvalues --    0.55095   0.55367   0.55939   0.56105   0.56455
 Alpha virt. eigenvalues --    0.56628   0.56737   0.57035   0.57570   0.57762
 Alpha virt. eigenvalues --    0.57902   0.58492   0.58783   0.58869   0.59167
 Alpha virt. eigenvalues --    0.59407   0.59659   0.60015   0.60199   0.60487
 Alpha virt. eigenvalues --    0.60809   0.61054   0.61528   0.61851   0.62039
 Alpha virt. eigenvalues --    0.62675   0.63059   0.63422   0.63583   0.63773
 Alpha virt. eigenvalues --    0.64103   0.64527   0.65133   0.65235   0.65659
 Alpha virt. eigenvalues --    0.66046   0.66408   0.66883   0.67298   0.67415
 Alpha virt. eigenvalues --    0.67676   0.68198   0.68382   0.68775   0.69172
 Alpha virt. eigenvalues --    0.69340   0.69607   0.70074   0.70424   0.70879
 Alpha virt. eigenvalues --    0.71427   0.71573   0.72086   0.72203   0.72489
 Alpha virt. eigenvalues --    0.72704   0.72905   0.73464   0.74090   0.74222
 Alpha virt. eigenvalues --    0.74402   0.74874   0.75002   0.75508   0.75760
 Alpha virt. eigenvalues --    0.76673   0.77269   0.77524   0.77749   0.77896
 Alpha virt. eigenvalues --    0.78370   0.78436   0.78695   0.79357   0.79825
 Alpha virt. eigenvalues --    0.80516   0.80880   0.81096   0.81965   0.82471
 Alpha virt. eigenvalues --    0.82642   0.82872   0.83479   0.83640   0.83898
 Alpha virt. eigenvalues --    0.84065   0.84339   0.84492   0.84803   0.85129
 Alpha virt. eigenvalues --    0.85192   0.85294   0.85621   0.85650   0.85858
 Alpha virt. eigenvalues --    0.86097   0.86731   0.86848   0.87293   0.87947
 Alpha virt. eigenvalues --    0.88177   0.88573   0.88707   0.88839   0.89247
 Alpha virt. eigenvalues --    0.89318   0.89672   0.89802   0.90124   0.90290
 Alpha virt. eigenvalues --    0.90428   0.90773   0.91096   0.91169   0.91471
 Alpha virt. eigenvalues --    0.91790   0.92138   0.92389   0.92782   0.93052
 Alpha virt. eigenvalues --    0.93131   0.93305   0.93810   0.94176   0.94236
 Alpha virt. eigenvalues --    0.94619   0.95263   0.95455   0.95627   0.96058
 Alpha virt. eigenvalues --    0.96136   0.96862   0.96956   0.97435   0.97641
 Alpha virt. eigenvalues --    0.97851   0.98602   0.99221   0.99540   0.99950
 Alpha virt. eigenvalues --    1.00827   1.01275   1.01907   1.02004   1.02695
 Alpha virt. eigenvalues --    1.03566   1.04155   1.04449   1.04806   1.06014
 Alpha virt. eigenvalues --    1.06426   1.06869   1.07450   1.07953   1.08164
 Alpha virt. eigenvalues --    1.08656   1.08813   1.09057   1.09325   1.09876
 Alpha virt. eigenvalues --    1.10084   1.11349   1.11532   1.12151   1.12714
 Alpha virt. eigenvalues --    1.13891   1.14061   1.14720   1.15147   1.16030
 Alpha virt. eigenvalues --    1.16107   1.16618   1.16698   1.17377   1.17817
 Alpha virt. eigenvalues --    1.18236   1.18294   1.18863   1.19228   1.19590
 Alpha virt. eigenvalues --    1.20067   1.20664   1.21337   1.21773   1.22045
 Alpha virt. eigenvalues --    1.22392   1.23131   1.23510   1.23553   1.23849
 Alpha virt. eigenvalues --    1.25033   1.25505   1.25825   1.26895   1.27792
 Alpha virt. eigenvalues --    1.28659   1.28867   1.29620   1.29937   1.30485
 Alpha virt. eigenvalues --    1.30989   1.31826   1.32806   1.33183   1.33735
 Alpha virt. eigenvalues --    1.33823   1.34115   1.34236   1.34498   1.35164
 Alpha virt. eigenvalues --    1.35261   1.36389   1.36637   1.37243   1.37386
 Alpha virt. eigenvalues --    1.37911   1.38307   1.38545   1.39278   1.39643
 Alpha virt. eigenvalues --    1.39917   1.40310   1.41350   1.41979   1.42432
 Alpha virt. eigenvalues --    1.42700   1.43289   1.43642   1.44030   1.44501
 Alpha virt. eigenvalues --    1.44630   1.45226   1.45796   1.46200   1.46687
 Alpha virt. eigenvalues --    1.47209   1.47356   1.47822   1.48270   1.48455
 Alpha virt. eigenvalues --    1.49331   1.49879   1.50473   1.52130   1.52604
 Alpha virt. eigenvalues --    1.53177   1.54380   1.54911   1.55659   1.56415
 Alpha virt. eigenvalues --    1.57099   1.58173   1.58374   1.60001   1.60259
 Alpha virt. eigenvalues --    1.61375   1.62220   1.62820   1.62927   1.64033
 Alpha virt. eigenvalues --    1.64459   1.65014   1.65410   1.65748   1.66512
 Alpha virt. eigenvalues --    1.66800   1.67140   1.67463   1.68180   1.68344
 Alpha virt. eigenvalues --    1.69654   1.70007   1.70706   1.71008   1.71730
 Alpha virt. eigenvalues --    1.72247   1.72739   1.73922   1.74801   1.75017
 Alpha virt. eigenvalues --    1.75198   1.75498   1.76069   1.76558   1.76793
 Alpha virt. eigenvalues --    1.77271   1.77523   1.77832   1.78464   1.79048
 Alpha virt. eigenvalues --    1.79141   1.80364   1.80637   1.81168   1.81793
 Alpha virt. eigenvalues --    1.82148   1.82243   1.82546   1.83634   1.84102
 Alpha virt. eigenvalues --    1.84628   1.84948   1.85295   1.85529   1.85921
 Alpha virt. eigenvalues --    1.86148   1.86448   1.86531   1.87251   1.87552
 Alpha virt. eigenvalues --    1.87759   1.87929   1.88472   1.89916   1.90193
 Alpha virt. eigenvalues --    1.90493   1.90570   1.90962   1.91190   1.91433
 Alpha virt. eigenvalues --    1.91862   1.91930   1.92238   1.92348   1.92835
 Alpha virt. eigenvalues --    1.93033   1.93438   1.93603   1.93899   1.94134
 Alpha virt. eigenvalues --    1.94765   1.95080   1.95570   1.96535   1.96914
 Alpha virt. eigenvalues --    1.97288   1.98027   1.98421   1.99096   1.99365
 Alpha virt. eigenvalues --    2.00249   2.00423   2.01212   2.01668   2.01838
 Alpha virt. eigenvalues --    2.02009   2.02219   2.02701   2.02855   2.02913
 Alpha virt. eigenvalues --    2.03374   2.03696   2.03969   2.04551   2.04818
 Alpha virt. eigenvalues --    2.05610   2.05688   2.05967   2.06358   2.06509
 Alpha virt. eigenvalues --    2.06912   2.07306   2.07687   2.08102   2.09074
 Alpha virt. eigenvalues --    2.09270   2.09673   2.09785   2.10076   2.10187
 Alpha virt. eigenvalues --    2.10693   2.11078   2.11601   2.12034   2.12476
 Alpha virt. eigenvalues --    2.12655   2.12921   2.13377   2.13679   2.14024
 Alpha virt. eigenvalues --    2.14369   2.14948   2.15569   2.15758   2.16285
 Alpha virt. eigenvalues --    2.16489   2.16760   2.16949   2.17292   2.17801
 Alpha virt. eigenvalues --    2.18185   2.18654   2.18951   2.19130   2.19660
 Alpha virt. eigenvalues --    2.20036   2.20163   2.20839   2.21117   2.21693
 Alpha virt. eigenvalues --    2.22135   2.22719   2.23104   2.23275   2.23426
 Alpha virt. eigenvalues --    2.24213   2.24603   2.24980   2.25303   2.25655
 Alpha virt. eigenvalues --    2.25863   2.25894   2.25940   2.26903   2.27188
 Alpha virt. eigenvalues --    2.27651   2.28301   2.28562   2.29166   2.29511
 Alpha virt. eigenvalues --    2.30602   2.31190   2.31789   2.32324   2.32420
 Alpha virt. eigenvalues --    2.33109   2.33235   2.33481   2.34405   2.34807
 Alpha virt. eigenvalues --    2.35776   2.36480   2.37015   2.38259   2.38453
 Alpha virt. eigenvalues --    2.38923   2.39384   2.39552   2.41490   2.43362
 Alpha virt. eigenvalues --    2.43681   2.44761   2.45201   2.46707   2.47153
 Alpha virt. eigenvalues --    2.47639   2.47824   2.48195   2.48621   2.48778
 Alpha virt. eigenvalues --    2.49189   2.49342   2.50079   2.51116   2.52121
 Alpha virt. eigenvalues --    2.53127   2.54220   2.54593   2.58600   2.59656
 Alpha virt. eigenvalues --    2.60667   2.61108   2.61484   2.62635   2.63174
 Alpha virt. eigenvalues --    2.63628   2.64002   2.65048   2.65244   2.65887
 Alpha virt. eigenvalues --    2.67716   2.68374   2.69925   2.71419   2.73484
 Alpha virt. eigenvalues --    2.75565   2.76496   2.76808   2.77228   2.77631
 Alpha virt. eigenvalues --    2.77804   2.78185   2.78968   2.79070   2.79629
 Alpha virt. eigenvalues --    2.80139   2.80617   2.80896   2.81343   2.81514
 Alpha virt. eigenvalues --    2.82717   2.83339   2.84415   2.85493   2.87286
 Alpha virt. eigenvalues --    2.88877   2.90046   2.90940   2.91686   2.93283
 Alpha virt. eigenvalues --    2.94238   2.95037   2.95697   2.96992   2.97764
 Alpha virt. eigenvalues --    3.00819   3.02644   3.04095   3.05043   3.05229
 Alpha virt. eigenvalues --    3.06071   3.06465   3.07651   3.08896   3.09550
 Alpha virt. eigenvalues --    3.10201   3.11476   3.11892   3.12862   3.15651
 Alpha virt. eigenvalues --    3.17509   3.22662   3.27802   3.32397   3.45533
 Alpha virt. eigenvalues --   13.92219
          Condensed to atoms (all electrons):
 Mulliken charges:
               1
     1  C    0.357571
     2  C    0.077368
     3  C   -0.054994
     4  C   -0.152095
     5  C   -0.177410
     6  C    0.292855
     7  C    0.036552
     8  C   -0.078385
     9  C   -0.158125
    10  C   -0.188637
    11  H    0.224501
    12  H    0.198911
    13  H    0.175166
    14  H    0.244129
    15  H    0.200862
    16  H    0.183320
    17  N   -0.549608
    18  N   -0.487959
    19  Ir  -0.139026
    20  O   -0.521316
    21  O   -0.526807
    22  O   -0.530243
    23  B    0.432597
    24  B    0.514694
    25  B    0.487342
    26  O   -0.519191
    27  O   -0.499112
    28  C    0.290332
    29  C    0.298736
    30  C    0.296107
    31  C    0.290673
    32  C    0.294400
    33  C    0.287509
    34  O   -0.514390
    35  C   -0.507416
    36  H    0.154355
    37  H    0.169892
    38  H    0.165820
    39  C   -0.507372
    40  H    0.160034
    41  H    0.155987
    42  H    0.172193
    43  C   -0.509208
    44  H    0.146181
    45  H    0.182310
    46  H    0.175167
    47  C   -0.514425
    48  H    0.150471
    49  H    0.174973
    50  H    0.170051
    51  C   -0.505910
    52  H    0.178902
    53  H    0.156014
    54  H    0.165253
    55  C   -0.514901
    56  H    0.176411
    57  H    0.152970
    58  H    0.174499
    59  C   -0.512205
    60  H    0.155274
    61  H    0.171438
    62  H    0.167779
    63  C   -0.509507
    64  H    0.184240
    65  H    0.173842
    66  H    0.152603
    67  C   -0.506108
    68  H    0.171320
    69  H    0.160667
    70  H    0.150532
    71  C   -0.491452
    72  H    0.169776
    73  H    0.160953
    74  H    0.145241
    75  C   -0.512631
    76  H    0.166541
    77  H    0.154624
    78  H    0.167388
    79  C   -0.514511
    80  H    0.180089
    81  H    0.156261
    82  H    0.151929
    83  H    0.220509
    84  C    0.582610
    85  O   -0.547537
    86  C   -0.403716
    87  H    0.166348
    88  H    0.173589
    89  C   -0.320351
    90  H    0.147969
    91  H    0.180399
    92  N   -0.339538
    93  C   -0.368750
    94  H    0.194786
    95  H    0.169716
    96  H    0.158415
    97  C   -0.467659
    98  H    0.153194
    99  H    0.171640
   100  C    0.969415
   101  F   -0.316982
   102  F   -0.309327
   103  F   -0.306851
   104  C    0.970569
   105  F   -0.307107
   106  F   -0.307267
   107  F   -0.318118
   108  H    0.151384
 Sum of Mulliken charges =  -0.00000
 Mulliken charges with hydrogens summed into heavy atoms:
               1
     1  C    0.357571
     2  C    0.301869
     3  C   -0.054994
     4  C    0.046816
     5  C   -0.002244
     6  C    0.292855
     7  C    0.280681
     8  C   -0.078385
     9  C    0.042736
    10  C   -0.005317
    17  N   -0.549608
    18  N   -0.487959
    19  Ir   0.081483
    20  O   -0.521316
    21  O   -0.526807
    22  O   -0.530243
    23  B    0.432597
    24  B    0.514694
    25  B    0.487342
    26  O   -0.519191
    27  O   -0.499112
    28  C    0.290332
    29  C    0.298736
    30  C    0.296107
    31  C    0.290673
    32  C    0.294400
    33  C    0.287509
    34  O   -0.514390
    35  C   -0.017350
    39  C   -0.019157
    43  C   -0.005550
    47  C   -0.018929
    51  C   -0.005739
    55  C   -0.011020
    59  C   -0.017714
    63  C    0.001178
    67  C   -0.023589
    71  C   -0.015482
    75  C   -0.024078
    79  C   -0.026233
    84  C    0.582610
    85  O   -0.547537
    86  C   -0.063779
    89  C    0.008018
    92  N   -0.339538
    93  C    0.154166
    97  C    0.008559
   100  C    0.969415
   101  F   -0.316982
   102  F   -0.309327
   103  F   -0.306851
   104  C    0.970569
   105  F   -0.307107
   106  F   -0.307267
   107  F   -0.318118
 APT charges:
               1
     1  C    0.134314
     2  C    0.058554
     3  C   -0.171500
     4  C    0.072349
     5  C   -0.154666
     6  C    0.245184
     7  C    0.041810
     8  C   -0.176987
     9  C    0.083030
    10  C   -0.212733
    11  H    0.135064
    12  H    0.066162
    13  H    0.041776
    14  H    0.116832
    15  H    0.068765
    16  H    0.047890
    17  N   -0.054976
    18  N   -0.131215
    19  Ir  -1.023893
    20  O   -0.948950
    21  O   -1.017079
    22  O   -0.946762
    23  B    1.457189
    24  B    1.261490
    25  B    1.241321
    26  O   -0.965201
    27  O   -0.942280
    28  C    0.465888
    29  C    0.462222
    30  C    0.479038
    31  C    0.480137
    32  C    0.517293
    33  C    0.508149
    34  O   -1.013360
    35  C   -0.007768
    36  H   -0.017378
    37  H    0.012060
    38  H    0.001829
    39  C   -0.036091
    40  H   -0.000163
    41  H   -0.015960
    42  H   -0.008582
    43  C   -0.028264
    44  H   -0.023243
    45  H    0.013534
    46  H    0.002926
    47  C   -0.006142
    48  H   -0.014319
    49  H    0.000437
    50  H   -0.000412
    51  C   -0.049142
    52  H    0.011505
    53  H   -0.019233
    54  H    0.007097
    55  C   -0.017411
    56  H    0.008097
    57  H   -0.013684
    58  H    0.002012
    59  C   -0.007620
    60  H   -0.014229
    61  H   -0.002395
    62  H    0.005457
    63  C   -0.035110
    64  H    0.009483
    65  H    0.006633
    66  H   -0.023241
    67  C    0.008268
    68  H    0.001296
    69  H   -0.007158
    70  H   -0.018524
    71  C   -0.026588
    72  H    0.017613
    73  H   -0.001402
    74  H   -0.027995
    75  C   -0.012970
    76  H    0.006265
    77  H   -0.014422
    78  H    0.002717
    79  C   -0.038108
    80  H    0.024505
    81  H   -0.001679
    82  H   -0.020529
    83  H    0.067583
    84  C    0.821199
    85  O   -0.670641
    86  C    0.020011
    87  H   -0.027272
    88  H   -0.031759
    89  C    0.347150
    90  H   -0.058382
    91  H   -0.045905
    92  N   -0.758685
    93  C    0.301389
    94  H    0.053698
    95  H   -0.014477
    96  H   -0.072138
    97  C    0.074988
    98  H   -0.005486
    99  H   -0.004492
   100  C    1.751760
   101  F   -0.575275
   102  F   -0.532018
   103  F   -0.559325
   104  C    1.831041
   105  F   -0.576514
   106  F   -0.563305
   107  F   -0.597564
   108  H   -0.032404
 Sum of APT charges =  -0.00000
 APT charges with hydrogens summed into heavy atoms:
               1
     1  C    0.134314
     2  C    0.193618
     3  C   -0.171500
     4  C    0.138511
     5  C   -0.112890
     6  C    0.245184
     7  C    0.158641
     8  C   -0.176987
     9  C    0.151796
    10  C   -0.164843
    17  N   -0.054976
    18  N   -0.131215
    19  Ir  -0.956310
    20  O   -0.948950
    21  O   -1.017079
    22  O   -0.946762
    23  B    1.457189
    24  B    1.261490
    25  B    1.241321
    26  O   -0.965201
    27  O   -0.942280
    28  C    0.465888
    29  C    0.462222
    30  C    0.479038
    31  C    0.480137
    32  C    0.517293
    33  C    0.508149
    34  O   -1.013360
    35  C   -0.011257
    39  C   -0.060796
    43  C   -0.035049
    47  C   -0.020435
    51  C   -0.049773
    55  C   -0.020986
    59  C   -0.018787
    63  C   -0.042235
    67  C   -0.016119
    71  C   -0.038373
    75  C   -0.018411
    79  C   -0.035812
    84  C    0.821199
    85  O   -0.670641
    86  C   -0.039020
    89  C    0.242864
    92  N   -0.758685
    93  C    0.268472
    97  C    0.032605
   100  C    1.751760
   101  F   -0.575275
   102  F   -0.532018
   103  F   -0.559325
   104  C    1.831041
   105  F   -0.576514
   106  F   -0.563305
   107  F   -0.597564
 Electronic spatial extent (au):  <R**2>=          31929.6027
 Charge=             -0.0000 electrons
 Dipole moment (field-independent basis, Debye):
    X=              0.0365    Y=             -1.4578    Z=              0.7922  Tot=              1.6595
 Quadrupole moment (field-independent basis, Debye-Ang):
   XX=           -339.0752   YY=           -298.7435   ZZ=           -339.6041
   XY=             -1.0796   XZ=              9.0043   YZ=             -6.0240
 Traceless Quadrupole moment (field-independent basis, Debye-Ang):
   XX=            -13.2675   YY=             27.0641   ZZ=            -13.7965
   XY=             -1.0796   XZ=              9.0043   YZ=             -6.0240
 Octapole moment (field-independent basis, Debye-Ang**2):
  XXX=            -58.2570  YYY=           -155.0524  ZZZ=             55.8758  XYY=            -48.5899
  XXY=             50.0002  XXZ=             -3.6880  XZZ=              3.5833  YZZ=             14.1927
  YYZ=            -20.7949  XYZ=            -12.2434
 Hexadecapole moment (field-independent basis, Debye-Ang**3):
 XXXX=         -17809.9089 YYYY=         -12168.6157 ZZZZ=          -9649.9878 XXXY=            -70.8634
 XXXZ=            -20.9663 YYYX=             93.1708 YYYZ=            165.8918 ZZZX=            -34.3598
 ZZZY=           -150.5880 XXYY=          -4809.0023 XXZZ=          -4506.1453 YYZZ=          -3885.1331
 XXYZ=             13.0162 YYXZ=             10.4038 ZZXY=              7.4417
 N-N= 9.737351408178D+03 E-N=-2.608121965783D+04  KE= 2.745546371363D+03
  Exact polarizability:     538.930       3.805     520.490     -10.837       8.504     413.597
 Approx polarizability:     781.949       2.570     770.395     -28.392      22.392     588.202
   1 Symmetry operations used in ECPInt.
 ECPInt:  NShTT=   54615 NPrTT=  339395 LenC2=   41139 LenP2D=  127486.
 LDataN:  DoStor=T MaxTD1= 8 Len=  415
 Calling FoFJK, ICntrl=    100127 FMM=F ISym2X=0 I1Cent= 0 IOpClX= 0 NMat=1 NMatS=1 NMatT=0.
 Defaulting to unpruned grid for atomic number  77.
 Defaulting to unpruned grid for atomic number  77.
 Defaulting to unpruned grid for atomic number  77.
 Defaulting to unpruned grid for atomic number  77.
 Defaulting to unpruned grid for atomic number  77.
 Defaulting to unpruned grid for atomic number  77.
 Defaulting to unpruned grid for atomic number  77.
 Defaulting to unpruned grid for atomic number  77.
 Defaulting to unpruned grid for atomic number  77.
 Defaulting to unpruned grid for atomic number  77.
 Defaulting to unpruned grid for atomic number  77.
 Defaulting to unpruned grid for atomic number  77.
 Defaulting to unpruned grid for atomic number  77.
 Defaulting to unpruned grid for atomic number  77.
 Defaulting to unpruned grid for atomic number  77.
 Defaulting to unpruned grid for atomic number  77.
 Full mass-weighted force constant matrix:
 Low frequencies ---   -3.7005   -0.0008   -0.0007   -0.0007    3.1152    4.5159
 Low frequencies ---   18.2600   20.8235   33.3786
 Diagonal vibrational polarizability:
       82.8028620      64.1169655     122.4671710
 Harmonic frequencies (cm**-1), IR intensities (KM/Mole), Raman scattering
 activities (A**4/AMU), depolarization ratios for plane and unpolarized
 incident light, reduced masses (AMU), force constants (mDyne/A),
 and normal coordinates:
                      1                      2                      3
                      A                      A                      A
 Frequencies --     18.1692                20.8094                33.3751
 Red. masses --      8.3369                15.8895                 5.2363
 Frc consts  --      0.0016                 0.0041                 0.0034
 IR Inten    --      0.0866                 0.0696                 0.2848
  Atom AN      X      Y      Z        X      Y      Z        X      Y      Z
     1   6    -0.01   0.01  -0.04    -0.00  -0.00   0.00     0.01  -0.01  -0.02
     2   6    -0.00   0.01  -0.03    -0.00  -0.00  -0.01     0.01  -0.01  -0.00
     3   6    -0.00   0.01  -0.03    -0.00  -0.00  -0.02     0.01  -0.02   0.03
     4   6    -0.01   0.01  -0.05    -0.01  -0.00  -0.02     0.01  -0.02   0.03
     5   6    -0.01   0.01  -0.06    -0.01  -0.00  -0.01     0.01  -0.01   0.00
     6   6    -0.00   0.01  -0.01    -0.00  -0.00   0.02     0.01  -0.01  -0.03
     7   6     0.01   0.01   0.02     0.01   0.01   0.02     0.01  -0.01  -0.03
     8   6     0.02  -0.01   0.11     0.00   0.01   0.05     0.01  -0.02  -0.01
     9   6     0.01  -0.02   0.13    -0.01   0.01   0.06     0.01  -0.02  -0.01
    10   6     0.00  -0.01   0.06    -0.01  -0.00   0.05     0.01  -0.01  -0.02
    11   1    -0.00   0.01  -0.02    -0.00  -0.00  -0.01     0.01  -0.02  -0.01
    12   1    -0.01   0.01  -0.06    -0.01  -0.00  -0.03     0.02  -0.02   0.06
    13   1    -0.01   0.01  -0.07    -0.01  -0.00  -0.01     0.01  -0.02   0.01
    14   1     0.01   0.01   0.01     0.02   0.02   0.02     0.01  -0.01  -0.03
    15   1     0.02  -0.04   0.19    -0.01   0.00   0.09     0.01  -0.02   0.01
    16   1    -0.00  -0.02   0.08    -0.01  -0.01   0.07     0.01  -0.01  -0.02
    17   7    -0.00   0.01  -0.04    -0.00  -0.00  -0.00     0.01  -0.01  -0.03
    18   7     0.00   0.02  -0.04     0.01   0.01   0.01     0.00  -0.01  -0.04
    19  77    -0.00   0.01  -0.04     0.01  -0.00   0.00     0.00  -0.00  -0.04
    20   8    -0.04  -0.03  -0.01     0.01  -0.02  -0.00    -0.02   0.01  -0.00
    21   8     0.00   0.01  -0.08     0.00  -0.03  -0.03     0.00   0.00   0.01
    22   8     0.02   0.01   0.02     0.00   0.01   0.01    -0.00  -0.01  -0.05
    23   5     0.00   0.01  -0.06    -0.00  -0.01   0.00     0.00   0.00  -0.01
    24   5    -0.04  -0.02  -0.03     0.01  -0.01   0.00    -0.02   0.00  -0.03
    25   5     0.00   0.00  -0.00     0.00  -0.00   0.01     0.00  -0.01  -0.04
    26   8    -0.02  -0.01   0.01     0.00  -0.01   0.02     0.02  -0.01  -0.04
    27   8    -0.07  -0.04  -0.04     0.01  -0.02   0.00    -0.05   0.01  -0.05
    28   6    -0.09  -0.06  -0.02     0.02  -0.02  -0.00    -0.07   0.03  -0.02
    29   6    -0.07  -0.05  -0.01     0.01  -0.02  -0.01    -0.04   0.03   0.01
    30   6     0.01   0.00   0.06    -0.00   0.01   0.02     0.00  -0.01  -0.06
    31   6    -0.01  -0.01   0.04    -0.00  -0.00   0.02     0.02  -0.02  -0.04
    32   6     0.01   0.02  -0.08    -0.01  -0.04  -0.02    -0.00   0.03   0.09
    33   6     0.01   0.02  -0.06    -0.04  -0.02   0.02     0.01   0.01   0.12
    34   8     0.01   0.02  -0.04    -0.02  -0.00   0.03     0.00   0.01   0.03
    35   6    -0.08  -0.07   0.02     0.02  -0.03  -0.01    -0.06   0.05   0.04
    36   1    -0.10  -0.09   0.02     0.02  -0.03  -0.02    -0.09   0.08   0.06
    37   1    -0.07  -0.06   0.03     0.01  -0.02  -0.02    -0.04   0.04   0.08
    38   1    -0.07  -0.07   0.04     0.02  -0.03  -0.01    -0.07   0.05   0.01
    39   6    -0.08  -0.05  -0.04     0.01  -0.02  -0.02    -0.03   0.03   0.04
    40   1    -0.07  -0.04  -0.03     0.01  -0.02  -0.02    -0.01   0.02   0.06
    41   1    -0.09  -0.07  -0.04     0.01  -0.03  -0.02    -0.05   0.05   0.05
    42   1    -0.08  -0.04  -0.06     0.01  -0.02  -0.01    -0.02   0.02   0.01
    43   6    -0.09  -0.07   0.00     0.02  -0.03   0.01    -0.09   0.04  -0.04
    44   1    -0.10  -0.09   0.02     0.03  -0.03   0.00    -0.11   0.06  -0.02
    45   1    -0.07  -0.06   0.02     0.02  -0.02   0.01    -0.08   0.03  -0.04
    46   1    -0.09  -0.07  -0.01     0.02  -0.03   0.01    -0.10   0.04  -0.06
    47   6    -0.11  -0.08  -0.05     0.02  -0.03  -0.00    -0.09   0.05  -0.02
    48   1    -0.13  -0.09  -0.03     0.02  -0.04  -0.01    -0.11   0.06   0.00
    49   1    -0.12  -0.09  -0.06     0.02  -0.03   0.00    -0.11   0.05  -0.05
    50   1    -0.11  -0.07  -0.07     0.02  -0.03  -0.01    -0.07   0.04  -0.01
    51   6     0.03   0.03  -0.08     0.02  -0.02  -0.03    -0.03   0.11   0.09
    52   1     0.02   0.03  -0.10     0.03  -0.02  -0.06    -0.05   0.14   0.05
    53   1     0.04   0.03  -0.09     0.02  -0.02  -0.03    -0.02   0.15   0.14
    54   1     0.04   0.02  -0.07     0.03   0.00  -0.01    -0.04   0.12   0.07
    55   6     0.00   0.01  -0.10    -0.03  -0.09  -0.04     0.02  -0.00   0.13
    56   1    -0.01   0.01  -0.09    -0.05  -0.08  -0.04     0.05  -0.06   0.13
    57   1     0.00   0.01  -0.10    -0.06  -0.10  -0.05     0.01   0.01   0.19
    58   1     0.01   0.01  -0.11     0.01  -0.12  -0.06     0.01   0.01   0.11
    59   6     0.03   0.02  -0.05    -0.03  -0.01   0.03    -0.02   0.07   0.20
    60   1     0.03   0.02  -0.07    -0.04  -0.02   0.03    -0.02   0.06   0.26
    61   1     0.03   0.01  -0.04    -0.04  -0.01   0.06    -0.02   0.06   0.22
    62   1     0.04   0.02  -0.05    -0.01   0.01   0.03    -0.05   0.14   0.17
    63   6    -0.02   0.01  -0.06    -0.07  -0.04   0.02     0.07  -0.09   0.16
    64   1    -0.03   0.01  -0.06    -0.07  -0.05   0.01     0.08  -0.13   0.10
    65   1    -0.02   0.01  -0.04    -0.09  -0.03   0.05     0.08  -0.12   0.16
    66   1    -0.02   0.01  -0.07    -0.09  -0.06   0.01     0.09  -0.08   0.23
    67   6    -0.03  -0.02   0.07    -0.01  -0.00   0.02     0.04  -0.03  -0.04
    68   1    -0.05  -0.02   0.06    -0.01  -0.01   0.03     0.05  -0.04  -0.03
    69   1    -0.05  -0.03   0.07     0.00  -0.00   0.02     0.04  -0.04  -0.06
    70   1    -0.02  -0.02   0.09    -0.01   0.00   0.03     0.04  -0.04  -0.04
    71   6     0.01   0.00   0.04    -0.02  -0.00   0.03     0.02  -0.01  -0.02
    72   1     0.03   0.01   0.02    -0.01  -0.00   0.03     0.00   0.01  -0.01
    73   1    -0.00  -0.00   0.03    -0.03  -0.02   0.03     0.03  -0.00  -0.00
    74   1     0.02   0.01   0.06    -0.03   0.01   0.04     0.02  -0.01  -0.02
    75   6     0.05   0.01   0.08    -0.00   0.02   0.02    -0.01  -0.00  -0.06
    76   1     0.06   0.02   0.07    -0.01   0.02   0.03    -0.02   0.00  -0.05
    77   1     0.04   0.00   0.11    -0.01   0.02   0.03    -0.01  -0.00  -0.06
    78   1     0.06   0.02   0.09    -0.00   0.03   0.02    -0.02   0.01  -0.07
    79   6    -0.01  -0.01   0.07     0.00   0.01   0.01     0.02  -0.02  -0.08
    80   1    -0.03  -0.02   0.06     0.00   0.00   0.01     0.03  -0.03  -0.08
    81   1     0.00  -0.01   0.08    -0.00   0.01   0.01     0.01  -0.01  -0.10
    82   1    -0.01  -0.02   0.10     0.00   0.00   0.01     0.02  -0.02  -0.09
    83   1    -0.01   0.01  -0.05     0.00  -0.00   0.00     0.01  -0.02  -0.03
    84   6     0.06   0.05  -0.03     0.01   0.02  -0.00     0.01   0.02  -0.02
    85   8     0.06   0.04  -0.05     0.02   0.02  -0.01     0.02   0.02  -0.00
    86   6     0.07   0.06  -0.01     0.01   0.03  -0.00     0.02   0.01  -0.01
    87   1     0.08   0.07  -0.00     0.00   0.04   0.00     0.03   0.03   0.00
    88   1     0.06   0.05   0.01     0.01   0.03  -0.00     0.02  -0.01   0.00
    89   6     0.04   0.03  -0.05     0.01   0.00   0.00    -0.01   0.01  -0.04
    90   1     0.04   0.03  -0.06     0.01  -0.00   0.00    -0.00   0.02  -0.03
    91   1     0.05   0.03  -0.06     0.02   0.00   0.00    -0.02   0.01  -0.05
    92   7     0.05   0.04  -0.03     0.01   0.01   0.01    -0.01   0.01  -0.04
    93   6     0.06   0.04  -0.01     0.00   0.02   0.02    -0.01   0.01  -0.04
    94   1     0.04   0.03  -0.01     0.01   0.01   0.03    -0.01   0.01  -0.03
    95   1     0.06   0.04   0.01    -0.00   0.02   0.01    -0.01   0.01  -0.04
    96   1     0.07   0.06  -0.01    -0.01   0.02   0.02    -0.01   0.01  -0.04
    97   6     0.08   0.07  -0.01     0.01   0.04  -0.01     0.01   0.01  -0.02
    98   1     0.07   0.06  -0.01     0.01   0.03  -0.02    -0.00   0.00  -0.02
    99   1     0.09   0.07  -0.02     0.01   0.05  -0.02     0.01   0.02  -0.02
   100   6    -0.00   0.00  -0.01    -0.00  -0.00  -0.02     0.01  -0.02   0.07
   101   9    -0.00   0.01  -0.03    -0.01   0.00  -0.04     0.04  -0.05   0.18
   102   9     0.02   0.02   0.03    -0.01   0.01  -0.01     0.04  -0.07   0.00
   103   9    -0.01  -0.04   0.01     0.00  -0.02  -0.02    -0.03   0.08   0.07
   104   6     0.03  -0.03   0.20    -0.00   0.06  -0.01     0.01  -0.02   0.01
   105   9     0.11  -0.03   0.22    -0.03   0.56  -0.15     0.03   0.01   0.01
   106   9    -0.03  -0.04   0.24    -0.03  -0.27  -0.41    -0.01  -0.05  -0.00
   107   9     0.03  -0.04   0.25     0.04  -0.07   0.43     0.02  -0.04   0.05
   108   1     0.09   0.07   0.01     0.01   0.05  -0.01     0.01   0.01  -0.01
                      4                      5                      6
                      A                      A                      A
 Frequencies --     40.9683                41.2349                44.7805
 Red. masses --      4.4143                 4.8086                 4.7613
 Frc consts  --      0.0044                 0.0048                 0.0056
 IR Inten    --      0.1586                 0.5076                 0.6567
  Atom AN      X      Y      Z        X      Y      Z        X      Y      Z
     1   6     0.01   0.00   0.04    -0.02  -0.01  -0.01    -0.01  -0.03   0.06
     2   6    -0.01   0.02  -0.01    -0.01  -0.03   0.01    -0.02  -0.02  -0.02
     3   6     0.00   0.02   0.01    -0.02  -0.04   0.02    -0.01  -0.02  -0.00
     4   6     0.02   0.02   0.05    -0.03  -0.03   0.00    -0.01  -0.02   0.05
     5   6     0.02   0.00   0.06    -0.03  -0.02  -0.01    -0.00  -0.03   0.08
     6   6     0.01  -0.01   0.05    -0.02  -0.00  -0.01    -0.00  -0.03   0.08
     7   6    -0.00  -0.00   0.00    -0.02   0.01   0.00    -0.02  -0.00  -0.03
     8   6     0.01  -0.01   0.02    -0.02   0.01  -0.00    -0.01  -0.02   0.03
     9   6     0.02  -0.02   0.07    -0.03   0.01  -0.01     0.01  -0.05   0.14
    10   6     0.02  -0.02   0.08    -0.03   0.00  -0.02     0.01  -0.06   0.17
    11   1    -0.02   0.03  -0.04     0.00  -0.04   0.01    -0.02  -0.01  -0.06
    12   1     0.03   0.02   0.07    -0.03  -0.04   0.01    -0.01  -0.03   0.06
    13   1     0.03  -0.00   0.09    -0.04  -0.01  -0.02     0.00  -0.03   0.11
    14   1    -0.01   0.00  -0.03    -0.01   0.01   0.01    -0.03   0.02  -0.11
    15   1     0.03  -0.03   0.09    -0.04   0.02  -0.02     0.02  -0.07   0.20
    16   1     0.03  -0.03   0.12    -0.04   0.00  -0.03     0.02  -0.08   0.25
    17   7    -0.00   0.01   0.01    -0.01  -0.02   0.00    -0.01  -0.02   0.02
[...]
 01143,-0.00001857,-0.00001066,0.00000138,0.00001185,-0.00000978,0.0000
 1435,-0.00000851,-0.00001161,-0.00001106,0.00000898,-0.00000137,-0.000
 00676,0.00001191,0.00000692,0.00000653,0.00041121,-0.00003293,-0.00003
 592,-0.00013313,0.00008377,0.00003805,-0.00009667,-0.00003001,0.000022
 61,-0.00012623,-0.00001670,-0.00004478,-0.10620324,-0.22298314,-0.0316
 8675,-0.01235178,-0.02926752,-0.04323062,-0.01114777,-0.07794926,0.017
 42165,0.14313924,0.34047065,-0.00004117,0.00004419,0.00008780,0.000012
 70,0.00000343,0.00000493,-0.00000385,0.00001229,0.00000825,-0.00000372
 ,-0.00000537,0.00000161,0.00000346,-0.00001916,0.00000313,0.00008200,0
 .00017026,-0.00002497,0.00014982,-0.00061963,0.00142699,0.00101297,-0.
 00050554,0.00917867,0.00099862,-0.00104248,-0.00071971,-0.00022340,0.0
 0046941,0.00018523,0.00000219,-0.00000461,-0.00000424,-0.00000238,-0.0
 0000032,-0.00000397,-0.00000825,0.00001155,-0.00001180,0.00007705,0.00
 020468,-0.00014090,0.00042235,0.00088675,-0.00006915,-0.00005572,-0.00
 000919,-0.00000080,0.00001802,0.00005040,-0.00002317,0.00011352,0.0002
 1573,-0.00070666,0.00005934,0.00001042,0.00005489,-0.00001842,-0.00001
 063,0.00009132,-0.00002693,-0.00001541,0.00012153,-0.00000787,0.000007
 26,0.00002840,0.00005063,-0.00001654,-0.00010162,0.00004616,0.00000625
 ,-0.00021192,0.00000657,-0.00001356,-0.00003518,-0.00000011,0.00001402
 ,0.00003291,-0.00007029,-0.00003388,0.00013437,0.00002175,0.00001339,-
 0.00000971,0.00001010,0.00000911,-0.00003430,-0.00000498,-0.00000306,-
 0.00000908,0.00000379,0.00000460,-0.00000792,0.00000168,0.00001194,-0.
 00008331,0.00000679,-0.00001336,-0.00000987,-0.00002512,0.00000861,0.0
 0003222,-0.00000205,-0.00000062,0.00000834,0.00000458,-0.00000111,0.00
 000251,-0.00000518,0.00000290,0.00000148,0.00000081,-0.00000289,-0.000
 00306,0.00000752,0.00000080,0.00000834,-0.00001173,0.00000010,0.000004
 26,0.00000527,-0.00000342,0.00000319,0.00000109,-0.00000285,-0.0000120
 0,0.00000622,-0.00000718,0.00000424,-0.00000158,0.00000216,-0.00000128
 ,-0.00000358,-0.00000510,0.00000133,-0.00000207,0.00000769,0.00000412,
 0.00000562,0.00000570,-0.00000139,-0.00001197,-0.00000518,0.00000045,-
 0.00000027,0.00001594,0.00001665,0.00001492,-0.00001615,-0.00000443,-0
 .00003442,-0.00002910,0.00001481,0.00001183,-0.00000178,-0.00000300,0.
 00000502,0.00000387,0.00000359,-0.00000511,0.00000194,0.00000907,-0.00
 001724,-0.00001997,-0.00001030,0.00002057,0.00003981,0.00003119,-0.000
 00365,-0.00001056,0.00001305,-0.00000053,0.00000863,-0.00004498,-0.000
 00146,0.00000177,0.00000274,-0.00000018,-0.00000029,-0.00000356,0.0000
 0187,0.00000104,0.00000187,-0.00000480,-0.00000189,0.00001026,0.000008
 23,0.00001829,-0.00000406,0.00000725,-0.00000549,0.00000324,-0.0000012
 4,-0.00000189,0.00000567,-0.00000217,0.00000494,0.00000014,-0.00000175
 ,0.00000139,-0.00000213,-0.00000107,0.00000405,0.00000069,0.00000457,-
 0.00000213,0.00000007,-0.00000085,-0.00000156,0.00000210,0.00000205,-0
 .00000155,-0.00000167,0.00000174,-0.00000035,0.00000075,-0.00000122,0.
 00000247,0.00000151,-0.00000144,-0.00000097,-0.00000003,0.00000101,0.0
 0000112,0.00000050,0.00000137,-0.00000341,-0.00000012,0.00000102,0.000
 00059,0.00000067,-0.00000330,0.00000153,0.00000071,0.00000257,-0.00000
 051,-0.00000155,0.00000116,-0.00000002,-0.00000029,-0.00000171,0.00000
 121,0.00000189,0.00000113,0.00000047,-0.00000002,-0.00000168,0.0000110
 5,0.00000202,-0.00000019,-0.00007545,-0.00001194,0.00003248,0.00005655
 ,0.00001984,-0.00000138,0.00000162,-0.00000676,-0.00000077,-0.00000210
 ,-0.00000021,0.00000232,0.00000269,0.00000235,-0.00000993,-0.00002026,
 -0.00002970,0.00000776,-0.00002250,0.00000441,-0.00001074,0.00003272,0
 .00000342,-0.00001687,0.00004371,0.00005453,-0.00000176,-0.00000495,-0
 .00001171,-0.00000126,-0.00000022,-0.00000474,0.00000461,0.00000283,-0
 .00000281,0.00000095,-0.00000042,0.00000538,-0.00000312,-0.00000160,-0
 .00000376,-0.00000084,-0.00000217,0.00000046,0.00000046,0.00000186,0.0
 0000457,-0.00000969,-0.00000771,-0.00005078,-0.00000134,0.00000742,0.0
 0001008,0.00000192,-0.00000184,0.00001101,0.00000944,0.00000561,0.0000
 2300,-0.02144293,-0.03238059,-0.08284248,-0.02280520,-0.05535030,-0.03
 195747,0.00824494,0.02605000,0.01096062,0.03339731,0.06180855,0.094571
 71,-0.00005476,-0.00000105,-0.00001655,0.00002516,-0.00000773,-0.00002
 388,0.00001381,0.00005762,0.00002193,-0.00004132,-0.00004507,-0.000002
 89,0.00004397,-0.00000745,0.00000204,0.00008232,0.00000264,-0.00003654
 ,-0.00001814,-0.00001940,-0.00000887,-0.00001935,0.00004426,0.00001240
 ,0.00004228,-0.00003505,-0.00001244,-0.00004709,-0.00001650,0.00000785
 ,-0.00001163,-0.00000232,-0.00001285,-0.00000508,-0.00000718,0.0000026
 1,-0.00000129,0.00000092,-0.00000341,0.00000277,0.00000113,-0.00000313
 ,0.00000078,-0.00000070,-0.00000197,0.00000213,0.00000280,-0.00000485,
 -0.00005568,0.00006029,-0.00001333,0.00003198,0.00005812,0.00001872,-0
 .00001231,-0.00003441,0.00017109,0.00006646,-0.00001350,0.00008744,-0.
 00009131,0.00006640,0.00001849,0.00010331,0.00008285,0.00005081,0.0000
 9930,-0.00013902,-0.00014318,-0.00001639,-0.00001080,-0.00011520,-0.00
 008189,-0.00010993,-0.00010012,0.00006243,0.00009897,0.00004641,0.0000
 2489,-0.00000625,0.00008777,-0.00002200,-0.00000176,-0.00002792,-0.000
 01041,0.00001458,-0.00003632,-0.00009143,-0.00008781,-0.00003166,-0.00
 003299,-0.00002733,0.00001303,0.00002659,-0.00004559,0.00001233,0.0000
 4737,-0.00004371,-0.00000465,-0.00005970,0.00011045,0.00002884,0.00000
 113,-0.00000222,0.00000460,0.00000274,-0.00000065,0.00000525,-0.000000
 10,-0.00000090,-0.00000329,-0.00000101,0.00000225,-0.00000088,0.000000
 30,-0.00000278,0.00000458,-0.00000407,0.00000121,-0.00000395,0.0000014
 8,-0.00000304,0.00000651,0.00000400,0.00000325,-0.00000170,0.00000401,
 0.00000092,0.00000358,0.00000437,0.00000169,0.00000520,-0.00000276,-0.
 00000235,-0.00000242,-0.00000180,0.00000016,-0.00000149,0.00000137,0.0
 0000090,0.00000275,0.00000313,-0.00000140,0.00000409,-0.00000268,0.000
 00061,0.00000014,-0.00000032,0.00000076,-0.00000198,0.00000772,0.00001
 084,-0.00001337,0.00000607,-0.00000248,0.00000163,-0.00000993,0.000009
 02,0.00000224,-0.00000316,-0.00001202,0.00001019,-0.00000207,0.0000030
 1,0.00000069,0.00000059,-0.00000117,0.00000248,-0.00000408,0.00000532,
 -0.00000054,0.00000072,-0.00000296,0.00000004,-0.00000350,0.00000378,-
 0.00000405,-0.00000574,0.00000393,0.00000085,0.00000496,0.00000147,0.0
 0000177,0.00000291,-0.00000581,0.00000356,-0.00000819,0.00000612,0.000
 00202,0.00000153,-0.00000154,-0.00000392,0.00000376,-0.00000029,-0.000
 00023,-0.00000586,0.00000517,0.00000441,-0.00000101,0.00000198,0.00000
 202,-0.00000136,-0.00000009,0.00000228,-0.00000070,-0.00000172,0.00000
 105,0.00000537,0.00000500,0.,-0.00000200,0.00000076,-0.00000785,-0.000
 00295,-0.00000914,0.00000193,-0.00000057,-0.00000109,0.00000039,0.0000
 0681,0.00000947,0.00000011,0.00000494,0.00002802,-0.00000436,-0.000008
 10,-0.00001382,0.00000057,0.00000780,0.00000866,0.00000852,-0.00000884
 ,-0.00002053,0.00000080,0.00001216,0.00001270,0.00000347,-0.00000294,-
 0.00000146,-0.00000610,-0.00000812,-0.00000804,-0.00000337,0.00000907,
 0.00000553,0.00000883,-0.00001228,0.00000510,0.00000261,0.00048018,0.0
 0223744,0.00033062,-0.00004569,0.00075368,0.00046174,-0.01281216,-0.00
 680288,0.00658368,0.00007282,-0.00018252,-0.00050650,0.00065073,0.0000
 0360,0.00002622,0.00008342,0.00039269,-0.00033008,-0.00011044,-0.00000
 218,0.00011963,0.00004323,-0.00001869,0.00002524,-0.00132999,-0.000103
 31,0.00106383,-0.00006243,-0.00037449,0.00010656,-0.00001009,0.0000553
 7,-0.00001360,0.00005614,-0.00000982,-0.00000542,-0.00002058,0.0000555
 2,-0.00005234,-0.22447821,-0.07448427,0.10122792,0.00917035,0.00340610
 ,-0.00502310,-0.01304463,-0.00457206,0.00922618,-0.00020828,-0.0000317
 6,0.00011630,0.00007056,-0.00002480,-0.00002672,0.00005828,0.00002249,
 0.00002414,0.00005646,0.00001101,-0.00000178,0.00010542,0.00001087,-0.
 00002885,-0.00003023,0.00000476,0.00002496,-0.00003035,0.00000643,0.00
 000151,-0.00003262,-0.00001878,0.00000132,0.24137251,0.00004969,-0.000
 00131,-0.00002207,-0.00001710,-0.00002906,-0.00002862,-0.00002798,-0.0
 0004823,0.00000376,0.00002337,0.00007402,-0.00000627,-0.00000895,0.000
 02523,0.00001342,0.00000854,0.00000759,0.00000335,0.00000746,-0.000002
 63,-0.00000120,-0.00001206,-0.00000601,0.00000143,0.00000241,0.0000119
 5,0.00000361,-0.00000382,-0.00000178,0.00000302,-0.00000013,-0.0000177
 0,-0.00000299,-0.00001405,0.00001221,-0.00001472,-0.00000031,0.0000044
 9,-0.00000724,-0.00000096,-0.00000267,0.00000119,-0.00000016,-0.000000
 09,-0.00000120,0.00000321,0.00000773,-0.00000356,0.00005663,-0.0000358
 8,-0.00000637,-0.00002803,-0.00001899,-0.00000332,0.00001435,0.0000318
 7,-0.00004458,-0.00000042,0.00000204,0.00001888,0.00000063,-0.00000170
 ,-0.00001938,-0.00002429,0.00000349,0.00001128,0.00001142,0.00001247,0
 .00005898,-0.00001538,-0.00000598,-0.00002879,0.00002351,-0.00000145,-
 0.00000290,-0.00000687,0.00000348,0.00000975,0.00000351,-0.00000057,0.
 00002237,-0.00000536,-0.00000078,-0.00000692,-0.00000655,0.00000274,-0
 .00001327,0.00000786,0.00001755,-0.00001115,0.00000321,-0.00000864,-0.
 00000496,-0.00000018,0.00000255,-0.00000138,0.00000241,-0.00000006,-0.
 00000223,-0.00000710,-0.00000078,-0.00000479,0.00000102,0.00000126,0.0
 0000073,-0.00000020,-0.00000058,0.00000197,-0.00000108,0.00000007,-0.0
 0000161,0.00000014,0.00000041,-0.00000080,0.00000120,-0.00000125,0.000
 00009,-0.00000388,0.00000100,-0.00000199,0.00000005,-0.00000009,0.0000
 0313,0.00000246,0.00000059,-0.00000084,0.00000026,0.00000041,0.0000003
 2,0.00000112,0.00000034,0.00000115,-0.00000027,-0.00000059,-0.00000043
 ,-0.00000066,0.00000024,0.00000005,-0.00000049,0.00000003,0.00000068,0
 .00000093,-0.00000026,0.00000083,-0.00000089,0.00000033,0.00000036,0.0
 0000018,0.00000025,-0.00000066,-0.00000191,-0.00000293,0.00000388,-0.0
 0000057,0.00000023,-0.00000025,0.00000182,-0.00000051,-0.00000182,0.00
 000067,0.00000257,-0.00000242,-0.00000082,-0.00000122,0.00000010,0.000
 00030,-0.00000024,-0.00000007,0.00000043,0.00000053,-0.00000028,0.0000
 0020,-0.00000029,0.00000015,-0.00000004,0.00000026,-0.00000042,-0.0000
 0090,0.00000006,0.00000012,0.00000022,-0.00000085,-0.00000056,0.000000
 64,0.00000065,0.00000028,0.00000101,-0.00000057,0.00000106,0.00000052,
 -0.00000019,-0.00000002,0.00000033,-0.00000077,-0.00000039,-0.00000079
 ,0.00000026,-0.00000052,-0.00000109,0.00000092,0.00000079,-0.00000098,
 0.00000081,0.00000134,0.00000015,-0.00000106,-0.00000003,0.00000015,-0
 .00000020,-0.00000119,-0.00000008,0.00000104,0.00000157,0.00000264,0.0
 0000061,-0.00000012,-0.00000176,0.00000045,0.00000220,-0.00000043,-0.0
 0000178,-0.00000154,0.00001017,-0.00001334,-0.00000203,0.00000608,-0.0
 0000403,-0.00000250,-0.00000176,0.00000416,0.00000568,-0.00001486,0.00
 000818,-0.00000758,-0.00000075,-0.00000665,0.00000294,0.00000065,-0.00
 000203,0.00000065,-0.00000453,0.00000189,0.00000035,-0.00000034,0.0000
 0410,0.00000051,-0.00000408,0.00000272,0.00000272,0.00130732,-0.007342
 97,-0.00113608,-0.00150581,0.00187118,0.00103240,0.02333835,0.00928920
 ,-0.01354261,-0.00062049,0.00101841,0.00076944,-0.00087118,0.00101054,
 0.00037527,0.00010931,-0.00040807,0.00013487,0.00011579,0.00003492,-0.
 00010637,0.00001538,0.00002990,-0.00001549,0.00148635,0.00113705,-0.00
 112151,-0.00002664,0.00032835,-0.00001486,-0.00001298,-0.00003214,0.00
 000230,-0.00006366,-0.00000281,-0.00001307,0.00001533,-0.00000737,0.00
 001403,-0.07503068,-0.07869669,0.04350701,-0.01684268,-0.00642240,0.00
 689206,-0.01109530,-0.00565161,0.00903380,-0.00024273,0.00003766,-0.00
 010278,0.00007752,-0.00003023,-0.00002758,0.00008186,-0.00000705,0.000
 02299,0.00004693,0.00000425,0.00002200,0.00003274,-0.00000450,-0.00001
 089,-0.00000985,0.00000316,0.00000921,-0.00001001,0.00000522,-0.000000
 29,-0.00000856,-0.00000244,0.00000148,0.07968500,0.08380842,0.00001425
 ,0.00000136,0.00002251,-0.00000069,0.00004280,0.00008778,0.00001901,-0
 .00004664,0.00001502,-0.00001064,-0.00002947,0.00001855,-0.00002718,-0
 .00001428,-0.00000501,-0.00006737,-0.00000629,0.00002244,0.00001054,0.
 00001258,0.00000599,0.00001819,-0.00002834,-0.00000863,-0.00002828,0.0
 0002114,0.00000830,0.00003783,0.00000865,-0.00000513,0.00002713,0.0000
 1742,0.00001521,0.00001297,-0.00000054,0.00000885,0.00000074,0.0000019
 5,-0.00000057,-0.00000127,-0.00000059,0.00000240,0.00000059,0.00000089
 ,0.00000066,-0.00000368,-0.00000202,0.00000105,0.00000212,-0.00003508,
 0.00001229,-0.00001448,-0.00003984,-0.00001482,-0.00000311,0.00000163,
 -0.00011606,-0.00006959,0.00000335,-0.00007404,0.00005903,-0.00004586,
 -0.00001477,-0.00014997,-0.00009590,-0.00001182,-0.00006087,0.00010361
 ,0.00010491,0.00003748,0.00001606,0.00010189,0.00012840,0.00012096,0.0
 0005146,-0.00008055,-0.00008483,-0.00001980,-0.00002933,0.00000468,-0.
 00007142,0.00002135,0.00000206,0.00002033,0.00001361,-0.00000902,0.000
 03005,0.00009764,0.00008815,0.00002404,0.00003998,0.00001136,-0.000023
 68,-0.00001680,0.00003126,-0.00000695,-0.00002918,0.00002672,0.0000049
 5,0.00003466,-0.00007853,-0.00002264,0.00000099,0.00000160,-0.00000491
 ,-0.00000338,-0.00000070,-0.00000286,-0.00000091,0.00000370,0.00000249
 ,0.00000130,-0.00000399,-0.00000158,-0.00000070,0.00000185,-0.00000559
 ,0.00000523,-0.00000008,0.00000506,-0.00000074,0.00000216,-0.00000535,
 -0.00000555,-0.00000325,0.00000168,-0.00000331,-0.00000008,-0.00000393
 ,-0.00000313,-0.00000183,-0.00000478,0.00000263,0.00000136,0.00000188,
 0.00000033,-0.00000011,0.00000163,-0.00000199,-0.00000100,-0.00000240,
 -0.00000210,0.00000123,-0.00000382,0.00000147,0.00000006,0.00000031,0.
 00000037,-0.00000128,0.00000144,-0.00000580,-0.00000859,0.00000871,-0.
 00000354,0.00000143,-0.00000160,0.00000614,-0.00000525,-0.00000107,0.0
 0000228,0.00000737,-0.00000656,0.00000108,-0.00000273,-0.00000058,-0.0
 0000019,0.00000092,-0.00000206,0.00000283,-0.00000322,0.00000047,-0.00
 000067,0.00000165,0.,0.00000338,-0.00000031,0.00000352,0.00000298,-0.0
 0000274,-0.00000044,-0.00000335,-0.00000221,-0.00000101,-0.00000185,0.
 00000298,-0.00000294,0.00000678,-0.00000263,-0.00000156,-0.00000060,0.
 00000130,0.00000234,-0.00000249,-0.00000137,0.00000002,0.00000310,-0.0
 0000348,-0.00000313,-0.00000342,0.00000046,-0.00000010,-0.00000147,0.0
 0000272,0.00000077,0.00000193,0.00000129,-0.00000408,-0.00000413,-0.00
 000693,-0.00000128,-0.00000350,0.00000210,0.00001147,0.00000495,0.0000
 0605,-0.00000245,-0.00000308,0.00000355,0.00000287,-0.00000449,-0.0000
 1031,-0.00000054,0.00002597,-0.00004912,-0.00002024,-0.00000262,0.0000
 1600,0.00000348,-0.00000987,-0.00000223,0.00000201,-0.00000521,0.00001
 317,0.00000519,-0.00000637,-0.00002714,-0.00001766,0.00000035,0.000006
 48,0.00001146,0.00000614,0.00001876,0.00000137,-0.00000856,-0.00000440
 ,-0.00000842,0.00001236,-0.00000425,-0.00000199,0.00037033,-0.00166522
 ,0.00015276,0.00060591,-0.00056959,0.00022865,0.00899538,0.00515266,-0
 .00630248,-0.00032855,-0.00008784,0.00048437,-0.00024210,0.00048637,-0
 .00014200,-0.00005046,-0.00027810,0.00018011,0.00007893,-0.00001280,-0
 .00008871,-0.00003727,0.00000373,-0.00000761,0.00103372,0.00012985,-0.
 00060307,0.00006386,0.00024109,-0.00007758,0.00000375,-0.00003586,0.00
 000002,-0.00003024,-0.00001267,0.00001477,-0.00001171,-0.00003616,0.00
 002431,0.10115311,0.04316534,-0.10764307,0.01935167,0.00603482,-0.0098
 2977,-0.01766522,-0.00676888,0.01163128,0.00053588,0.00038333,-0.00021
 183,-0.00011161,-0.00005833,0.00006020,-0.00022377,-0.00031378,0.00029
 729,-0.00009134,-0.00005975,0.00008334,-0.00007474,-0.00000740,0.00001
 900,0.00002138,-0.00000354,-0.00001734,0.00002151,-0.00000499,-0.00000
 052,0.00002260,0.00001339,-0.00000053,-0.11337310,-0.04564405,0.111629
 84\\0.00000369,-0.00000124,-0.00000009,-0.00000159,0.00000345,0.000001
 19,0.00000646,-0.00000809,0.00000013,-0.00000146,-0.00000023,0.0000025
 8,-0.00000429,0.00000588,0.00000010,0.00000348,-0.00000366,-0.00000100
 ,0.00000442,-0.00000308,-0.00000125,-0.00000432,0.00000411,-0.00000644
 ,0.00000275,-0.00000273,-0.00000574,-0.00000107,-0.00000426,-0.0000069
 4,-0.00000126,0.00000168,-0.00000044,0.00000312,-0.00000032,-0.0000018
 3,-0.00000138,-0.00000107,-0.00000066,-0.00000082,-0.00000055,-0.00000
 296,0.00000096,0.00000221,-0.00000659,-0.00000073,0.00000356,-0.000006
 26,0.00000092,0.00000770,-0.00000194,-0.00001001,0.00000192,0.00000073
 ,0.00001019,-0.00000476,-0.00001312,-0.00000643,0.00000139,-0.00000361
 ,0.00000990,-0.00000246,0.00000032,-0.00000475,-0.00000012,0.00000108,
 -0.00000970,0.00000010,0.00000219,-0.00000192,0.00000635,0.00000349,0.
 00000522,-0.00000772,-0.00000439,-0.00000285,0.00000158,0.00001071,-0.
 00000307,0.00000003,-0.00000238,-0.00000249,-0.00001154,0.00000103,-0.
 00000118,-0.00000141,0.00000508,-0.00000444,0.00000008,-0.00000313,0.0
 0000797,0.00000172,0.00001053,-0.00000372,0.00000717,0.00000220,-0.000
 00099,-0.00000085,-0.00000982,0.00000229,0.00000073,-0.00000224,-0.000
 00131,-0.00000045,0.00000856,-0.00000322,-0.00000200,0.00000066,-0.000
 00356,-0.00000344,0.00000172,-0.00000308,-0.00000333,0.00000289,-0.000
 00797,0.00000222,0.00000004,0.00000034,-0.00000112,-0.00000157,-0.0000
 0122,-0.00000436,0.00000442,-0.00000208,-0.00000071,-0.00000385,-0.000
 00245,0.00000196,-0.00000756,-0.00000332,-0.00000416,0.00000441,-0.000
 00443,-0.00000311,0.00000312,-0.00000562,0.00000004,0.00000222,-0.0000
 0778,-0.00000062,-0.00000324,-0.00000370,-0.00000347,0.00000104,-0.000
 00493,-0.00000317,-0.00000001,-0.00000325,-0.00000134,-0.00000059,0.00
 000528,0.00000505,-0.00000034,-0.00000178,-0.00000355,-0.00000428,0.00
 000094,0.00000177,-0.00000244,0.00000368,0.00000137,-0.00000283,-0.000
 00085,0.00000122,-0.00000781,0.00000014,0.00000050,-0.00000112,-0.0000
 0078,-0.00000063,-0.00000248,0.00000287,0.00000094,-0.00000410,0.00000
 274,0.00000080,0.00000464,0.00000078,0.00000010,-0.00000144,0.00000059
 ,0.00000001,-0.00000124,0.00000339,-0.00000003,-0.00000021,-0.00000548
 ,0.00000397,0.00000072,-0.00000144,-0.00000150,0.00000048,-0.00000091,
 -0.00000145,0.00000113,0.00000166,-0.00000234,-0.00000181,-0.00000960,
 -0.00000376,-0.00000535,-0.00000212,-0.00000189,0.00000345,0.00000004,
 -0.00000155,0.00000856,0.00000052,0.00000049,0.00000384,0.00000734,-0.
 00000138,-0.00000173,-0.00000288,0.00000628,0.00000505,-0.00000279,-0.
 00000323,0.00000195,0.00000114,-0.00000138,0.00000375,0.00000570,0.000
 00135,0.00000791,0.00000165,-0.00000008,0.00000227,0.00000042,-0.00000
 078,0.00000469,0.00000026,0.00000161,0.00000400,-0.00000291,0.00000051
 ,0.00000684,-0.00000301,-0.00000086,0.00000085,0.00000023,0.00000424,0
 .00000874,0.00000265,0.00000068,0.00000347,-0.00000298,0.00000164,-0.0
 0000305,0.00001028,-0.00000140,0.00000359,0.00000045,0.00000218,-0.000
 00220,-0.00000847,0.00000112,-0.00000543,0.00000848,0.00000226,-0.0000
 0014,0.00000760,0.00000133,0.00000897,0.00000671,-0.00000369,0.0000065
 1,0.00000312,-0.00000077,-0.00000132,-0.00000125,-0.00000325,-0.000005
 73,-0.00000578,0.00000983,-0.00000040,0.00000178,0.00000066,-0.0000066
 0,-0.00000054,0.00000008,0.00000183,0.00000752,0.00000187,0.00000398,0
 .00000875,0.00000059,0.00000517,0.00000867,-0.00000302,0.00000124,0.00
 000401,0.00000411,-0.00000225,0.00000321,0.00000565,0.00000416,-0.0000
 0325,0.00000685,0.00000277,0.00000136,0.00000266,0.00000153,0.00000150
 ,-0.00000889,0.00000040,0.00000123,-0.00000081,0.00000116,0.00000470,0
 .00000203,-0.00000299,-0.00000175,-0.00000018,-0.00000894,-0.00000015,
 -0.00000060,-0.00000674,-0.00000028,0.00000260,-0.00000754,0.00000227,
 0.00000219,0.00000409\\\@
 The archive entry for this job was punched.


 Other things may change us, but we start and end with family.
 -- Anthony Brandt
 Job cpu time:       2 days  1 hours 28 minutes 25.6 seconds.
 Elapsed time:       0 days  3 hours  8 minutes 59.7 seconds.
 File lengths (MBytes):  RWF=   9700 Int=      0 D2E=      0 Chk=     55 Scr=      1
 Normal termination of Gaussian 16 at Sat Dec  7 22:02:18 2024.
