/mnt/lustre/scratch/nvme/SLURM/9663750/usccqdma.3ezLAvwUiH
OMP_STACKSIZE=0m
GAUSS_PDEF=16
GAUSS_MDEF=65536MB
GAUSS_RDEF=SCF=Direct
 Entering Gaussian System, Link 0=g16.exe
 Initial command:
 /opt/cesga/2020/software/Core/g16/c1/l1.exe "/mnt/lustre/scratch/nvme/SLURM/9663750/usccqdma.3ezLAvwUiH/Gau-180712.inp" -scrdir="/mnt/lustre/scratch/nvme/SLURM/9663750/usccqdma.3ezLAvwUiH/"
 Default is to use a total of  16 processors:
                               16 via shared-memory
                                1 via Linda
 Entering Link 1 = /opt/cesga/2020/software/Core/g16/c1/l1.exe PID=    180738.
  
 Copyright (c) 1988-2019, Gaussian, Inc.  All Rights Reserved.
  
 This is part of the Gaussian(R) 16 program.  It is based on
 the Gaussian(R) 09 system (copyright 2009, Gaussian, Inc.),
 the Gaussian(R) 03 system (copyright 2003, Gaussian, Inc.),
 the Gaussian(R) 98 system (copyright 1998, Gaussian, Inc.),
 the Gaussian(R) 94 system (copyright 1995, Gaussian, Inc.),
 the Gaussian 92(TM) system (copyright 1992, Gaussian, Inc.),
 the Gaussian 90(TM) system (copyright 1990, Gaussian, Inc.),
 the Gaussian 88(TM) system (copyright 1988, Gaussian, Inc.),
 the Gaussian 86(TM) system (copyright 1986, Carnegie Mellon
 University), and the Gaussian 82(TM) system (copyright 1983,
 Carnegie Mellon University). Gaussian is a federally registered
 trademark of Gaussian, Inc.
  
 This software contains proprietary and confidential information,
 including trade secrets, belonging to Gaussian, Inc.
  
 This software is provided under written license and may be
 used, copied, transmitted, or stored only in accord with that
 written license.
  
 The following legend is applicable only to US Government
 contracts under FAR:
  
                    RESTRICTED RIGHTS LEGEND
  
 Use, reproduction and disclosure by the US Government is
 subject to restrictions as set forth in subparagraphs (a)
 and (c) of the Commercial Computer Software - Restricted
 Rights clause in FAR 52.227-19.
  
 Gaussian, Inc.
 340 Quinnipiac St., Bldg. 40, Wallingford CT 06492
  
  
 ---------------------------------------------------------------
 Warning -- This program may not be used in any manner that
 competes with the business of Gaussian, Inc. or will provide
 assistance to any competitor of Gaussian, Inc.  The licensee
 of this program is prohibited from giving any competitor of
 Gaussian, Inc. access to this program.  By using this program,
 the user acknowledges that Gaussian, Inc. is engaged in the
 business of creating and licensing software in the field of
 computational chemistry and represents and warrants to the
 licensee that it is not a competitor of Gaussian, Inc. and that
 it will not use this program in any manner prohibited above.
 ---------------------------------------------------------------
  

 Cite this work as:
 Gaussian 16, Revision C.01,
 M. J. Frisch, G. W. Trucks, H. B. Schlegel, G. E. Scuseria, 
 M. A. Robb, J. R. Cheeseman, G. Scalmani, V. Barone, 
 G. A. Petersson, H. Nakatsuji, X. Li, M. Caricato, A. V. Marenich, 
 J. Bloino, B. G. Janesko, R. Gomperts, B. Mennucci, H. P. Hratchian, 
 J. V. Ortiz, A. F. Izmaylov, J. L. Sonnenberg, D. Williams-Young, 
 F. Ding, F. Lipparini, F. Egidi, J. Goings, B. Peng, A. Petrone, 
 T. Henderson, D. Ranasinghe, V. G. Zakrzewski, J. Gao, N. Rega, 
 G. Zheng, W. Liang, M. Hada, M. Ehara, K. Toyota, R. Fukuda, 
 J. Hasegawa, M. Ishida, T. Nakajima, Y. Honda, O. Kitao, H. Nakai, 
 T. Vreven, K. Throssell, J. A. Montgomery, Jr., J. E. Peralta, 
 F. Ogliaro, M. J. Bearpark, J. J. Heyd, E. N. Brothers, K. N. Kudin, 
 V. N. Staroverov, T. A. Keith, R. Kobayashi, J. Normand, 
 K. Raghavachari, A. P. Rendell, J. C. Burant, S. S. Iyengar, 
 J. Tomasi, M. Cossi, J. M. Millam, M. Klene, C. Adamo, R. Cammi, 
 J. W. Ochterski, R. L. Martin, K. Morokuma, O. Farkas, 
 J. B. Foresman, and D. J. Fox, Gaussian, Inc., Wallingford CT, 2019.
 
 ******************************************
 Gaussian 16:  ES64L-G16RevC.01  3-Jul-2019
                 7-Dec-2024 
 ******************************************
 Default route: SCF=Direct
 ----------------------------------------------------
 # m06/genecp scf=tight int=ultrafine 5d freq=noraman
 ----------------------------------------------------
 1/10=4,30=1,38=1/1,3;
 2/12=2,17=6,18=5,40=1/2;
 3/5=7,8=1,11=2,16=1,17=8,25=1,30=1,71=2,74=-54,75=-5,140=1/1,2,3;
 4//1;
 5/5=2,32=2,38=5,98=1/2;
 8/6=4,10=90,11=11/1;
 11/6=1,8=1,9=11,15=111,16=1/1,2,10;
 10/6=1/2;
 6/7=2,8=2,9=2,10=2,28=1/1;
 7/8=1,10=1,25=1/1,2,3,16;
 1/10=4,30=1/3;
 99//99;
 ------
 OPT-TS
 ------
 Symbolic Z-matrix:
 Charge =  0 Multiplicity = 1
 C                    -0.3352    3.4949   -0.11878 
 C                    -2.0911    2.00021   0.22439 
 C                    -3.03769   3.01567   0.1633 
 C                    -2.59405   4.31221  -0.05479 
 C                    -1.23145   4.5581   -0.18997 
 C                     1.13249   3.6491   -0.20929 
 C                     3.19394   2.58073  -0.13466 
 C                     3.87122   3.78376  -0.27543 
 C                     3.13803   4.95719  -0.39656 
 C                     1.75251   4.88707  -0.35978 
 H                    -2.39606   0.97087   0.40588 
 H                    -3.30057   5.13803  -0.11625 
 H                    -0.8781    5.57352  -0.3496 
 H                     3.71286   1.6301   -0.03494 
 H                     3.63533   5.9179   -0.51289 
 H                     1.16069   5.795    -0.44322 
 N                    -0.78364   2.23408   0.07195 
 N                     1.85586   2.50747  -0.10904 
 Ir                    0.72797   0.65097   0.03765 
 O                     3.28158  -0.23116   1.46377 
 O                     2.06408  -1.93321  -1.04128 
 O                    -4.49051   0.19808   0.37298 
 B                     2.0031   -0.53519  -0.97053 
 B                     1.89961  -0.39318   1.27855 
 B                    -4.29076  -0.80512  -0.63338 
 O                    -5.50334  -1.54274  -0.76847 
 O                     1.39391  -1.27351   2.2261 
 C                     2.49498  -1.88077   2.91041 
 C                     3.62439  -0.82619   2.72467 
 C                    -5.64006  -0.19169   1.1193 
 C                    -6.49028  -0.91697   0.03459 
 C                     2.9339   -2.3      -2.11921 
 C                     3.82658  -1.03395  -2.28139 
 O                     2.95641   0.01338  -1.83566 
 C                     3.57891   0.28576   3.76539 
 H                     4.25685   1.09027   3.45192 
 H                     2.56843   0.70755   3.8457 
 H                     3.89418  -0.06322   4.75783 
 C                     5.02549  -1.39814   2.64291 
 H                     5.74826  -0.58926   2.47166 
 H                     5.29622  -1.90203   3.58198 
 H                     5.12523  -2.11955   1.8233 
 C                     2.1022   -2.14221   4.3511 
 H                     1.73851  -1.23438   4.84448 
 H                     1.29569  -2.88563   4.38223 
 H                     2.95289  -2.53934   4.92408 
 C                     2.78109  -3.19997   2.20458 
 H                     3.02695  -3.03181   1.14773 
 H                     3.59305  -3.76204   2.68623 
 H                     1.87171  -3.81378   2.23537 
 C                     3.67684  -3.56717  -1.74376 
 H                     2.95776  -4.38457  -1.59923 
 H                     4.3766   -3.86351  -2.5386 
 H                     4.24101  -3.44896  -0.81135 
 C                     2.05732  -2.56599  -3.33702 
 H                     1.5153   -1.65842  -3.63598 
 H                     2.63964  -2.92297  -4.19693 
 H                     1.31998  -3.33962  -3.08091 
 C                     5.04009  -1.03323  -1.36032 
 H                     5.51168  -0.0422   -1.4063 
 H                     4.74247  -1.20939  -0.31884 
 H                     5.78747  -1.78053  -1.65994 
 C                     4.26671  -0.74389  -3.70347 
 H                     3.41298  -0.58193  -4.37052 
 H                     4.88162   0.16506  -3.72043 
 H                     4.87356  -1.56977  -4.10246 
 C                    -7.43996  -1.97031   0.57479 
 H                    -7.99644  -2.42598  -0.2548 
 H                    -6.89677  -2.76908   1.09152 
 H                    -8.16898  -1.53      1.27102 
 C                    -7.26174   0.06111  -0.84931 
 H                    -8.11293   0.52114  -0.32771 
 H                    -6.60216   0.85924  -1.21778 
 H                    -7.64637  -0.48668  -1.71908 
 C                    -6.28127   1.04948   1.7121 
 H                    -5.60302   1.49989   2.45042 
 H                    -6.49659   1.80142   0.94281 
 H                    -7.22144   0.80286   2.22625 
 C                    -5.20531  -1.12462   2.2457 
 H                    -4.42526  -0.62474   2.83458 
 H                    -6.03948  -1.37134   2.91722 
 H                    -4.78152  -2.05588   1.85226 
 H                    -0.26331  -0.61564   0.14842 
 C                    -2.2247   -1.93552  -1.01225 
 O                    -3.15003  -1.86514  -0.14641 
 C                    -1.11104  -2.92231  -0.88643 
 H                    -1.35609  -3.75268  -1.57258 
 H                    -0.18194  -2.46979  -1.25469 
 C                    -3.53553  -0.29221  -1.9871 
 H                    -3.22334   0.7642   -1.94447 
 H                    -4.1435   -0.4315   -2.89265 
 N                    -2.34626  -1.13959  -2.0717 
 C                    -1.33415  -0.9462   -3.08481 
 H                    -0.86128  -1.89455  -3.36379 
 H                    -1.81414  -0.52683  -3.97529 
 H                    -0.55391  -0.25028  -2.73025 
 C                    -0.88614  -3.43374   0.52434 
 H                    -0.52997  -2.62262   1.17309 
 H                    -1.80013  -3.85851   0.95438 
 H                     4.95816   3.79098  -0.29039 
 H                    -4.08652   2.75142   0.27491 
 H                    -0.10949  -4.20867   0.5078 
 

 GradGradGradGradGradGradGradGradGradGradGradGradGradGradGradGradGradGrad
 Berny optimization.
 Initialization pass.
 Trust Radius=3.00D-01 FncErr=1.00D-07 GrdErr=1.00D-07 EigMax=2.50D+02 EigMin=1.00D-04
 Number of steps in this run=      2 maximum allowed number of steps=      2.
 GradGradGradGradGradGradGradGradGradGradGradGradGradGradGradGradGradGrad

 Stoichiometry    C33H55B3IrN3O7
 Framework group  C1[X(C33H55B3IrN3O7)]
 Deg. of freedom   300
 Full point group                 C1      NOp   1
 Largest Abelian subgroup         C1      NOp   1
 Largest concise Abelian subgroup C1      NOp   1
                         Standard orientation:                         
 ---------------------------------------------------------------------
 Center     Atomic      Atomic             Coordinates (Angstroms)
 Number     Number       Type             X           Y           Z
 ---------------------------------------------------------------------
      1          6           0       -0.335199    3.494901   -0.118779
      2          6           0       -2.091099    2.000211    0.224391
      3          6           0       -3.037689    3.015672    0.163301
      4          6           0       -2.594049    4.312212   -0.054789
      5          6           0       -1.231449    4.558101   -0.189969
      6          6           0        1.132491    3.649101   -0.209289
      7          6           0        3.193941    2.580730   -0.134659
      8          6           0        3.871221    3.783760   -0.275429
      9          6           0        3.138032    4.957190   -0.396559
     10          6           0        1.752512    4.887071   -0.359779
     11          1           0       -2.396059    0.970872    0.405881
     12          1           0       -3.300568    5.138032   -0.116249
     13          1           0       -0.878098    5.573521   -0.349599
     14          1           0        3.712861    1.630100   -0.034939
     15          1           0        3.635332    5.917900   -0.512889
     16          1           0        1.160692    5.795001   -0.443219
     17          7           0       -0.783639    2.234081    0.071951
     18          7           0        1.855861    2.507471   -0.109039
     19         77           0        0.727971    0.650971    0.037651
     20          8           0        3.281580   -0.231160    1.463771
     21          8           0        2.064080   -1.933210   -1.041279
     22          8           0       -4.490510    0.198082    0.372981
     23          5           0        2.003100   -0.535190   -0.970529
     24          5           0        1.899610   -0.393179    1.278551
     25          5           0       -4.290760   -0.805118   -0.633379
     26          8           0       -5.503340   -1.542738   -0.768469
     27          8           0        1.393910   -1.273509    2.226101
     28          6           0        2.494980   -1.880770    2.910411
     29          6           0        3.624390   -0.826190    2.724671
     30          6           0       -5.640060   -0.191688    1.119301
     31          6           0       -6.490280   -0.916967    0.034591
     32          6           0        2.933900   -2.300000   -2.119209
     33          6           0        3.826580   -1.033950   -2.281389
     34          8           0        2.956410    0.013380   -1.835659
     35          6           0        3.578910    0.285760    3.765391
     36          1           0        4.256851    1.090270    3.451921
     37          1           0        2.568431    0.707550    3.845701
     38          1           0        3.894180   -0.063220    4.757831
     39          6           0        5.025490   -1.398140    2.642911
     40          1           0        5.748260   -0.589260    2.471661
     41          1           0        5.296220   -1.902030    3.581981
     42          1           0        5.125230   -2.119550    1.823301
     43          6           0        2.102200   -2.142210    4.351101
     44          1           0        1.738510   -1.234379    4.844481
     45          1           0        1.295690   -2.885629    4.382231
     46          1           0        2.952890   -2.539340    4.924081
     47          6           0        2.781090   -3.199970    2.204581
     48          1           0        3.026950   -3.031810    1.147731
     49          1           0        3.593049   -3.762040    2.686231
     50          1           0        1.871709   -3.813779    2.235371
     51          6           0        3.676840   -3.567170   -1.743759
     52          1           0        2.957759   -4.384570   -1.599229
     53          1           0        4.376599   -3.863510   -2.538599
     54          1           0        4.241010   -3.448960   -0.811349
     55          6           0        2.057320   -2.565990   -3.337019
     56          1           0        1.515300   -1.658419   -3.635979
     57          1           0        2.639640   -2.922970   -4.196929
     58          1           0        1.319980   -3.339619   -3.080909
     59          6           0        5.040090   -1.033230   -1.360319
     60          1           0        5.511680   -0.042200   -1.406299
     61          1           0        4.742470   -1.209390   -0.318839
     62          1           0        5.787470   -1.780530   -1.659939
     63          6           0        4.266710   -0.743890   -3.703469
     64          1           0        3.412980   -0.581930   -4.370519
     65          1           0        4.881620    0.165060   -3.720429
     66          1           0        4.873560   -1.569770   -4.102459
     67          6           0       -7.439960   -1.970307    0.574791
     68          1           0       -7.996440   -2.425977   -0.254799
     69          1           0       -6.896770   -2.769077    1.091521
     70          1           0       -8.168980   -1.529997    1.271021
     71          6           0       -7.261740    0.061113   -0.849309
     72          1           0       -8.112930    0.521143   -0.327709
     73          1           0       -6.602159    0.859243   -1.217779
     74          1           0       -7.646370   -0.486677   -1.719079
     75          6           0       -6.281269    1.049482    1.712101
     76          1           0       -5.603019    1.499892    2.450421
     77          1           0       -6.496589    1.801423    0.942811
     78          1           0       -7.221439    0.802863    2.226251
     79          6           0       -5.205310   -1.124618    2.245701
     80          1           0       -4.425260   -0.624738    2.834581
     81          1           0       -6.039480   -1.371338    2.917221
     82          1           0       -4.781520   -2.055878    1.852261
     83          1           0       -0.263310   -0.615639    0.148421
     84          6           0       -2.224700   -1.935518   -1.012249
     85          8           0       -3.150030   -1.865138   -0.146409
     86          6           0       -1.111040   -2.922309   -0.886429
     87          1           0       -1.356091   -3.752679   -1.572579
     88          1           0       -0.181940   -2.469789   -1.254689
     89          6           0       -3.535530   -0.292208   -1.987099
     90          1           0       -3.223339    0.764202   -1.944469
     91          1           0       -4.143500   -0.431498   -2.892649
     92          7           0       -2.346260   -1.139588   -2.071699
     93          6           0       -1.334150   -0.946199   -3.084809
     94          1           0       -0.861280   -1.894549   -3.363789
     95          1           0       -1.814140   -0.526829   -3.975289
     96          1           0       -0.553910   -0.250279   -2.730249
     97          6           0       -0.886140   -3.433739    0.524341
     98          1           0       -0.529970   -2.622619    1.173091
     99          1           0       -1.800131   -3.858509    0.954381
    100          1           0        4.958161    3.790980   -0.290389
    101          1           0       -4.086519    2.751422    0.274911
    102          1           0       -0.109491   -4.208669    0.507801
 ---------------------------------------------------------------------
 Rotational constants (GHZ):           0.0881525           0.0461980           0.0409332
 General basis read from cards:  (5D, 7F)
 ======================================================================================================
                                       Pseudopotential Parameters
 ======================================================================================================
  Center     Atomic      Valence      Angular      Power
  Number     Number     Electrons     Momentum     of R      Exponent        Coefficient   SO-Coeffient
 ======================================================================================================
    1          6
                                   No pseudopotential on this center.
    2          6
                                   No pseudopotential on this center.
    3          6
                                   No pseudopotential on this center.
    4          6
                                   No pseudopotential on this center.
    5          6
                                   No pseudopotential on this center.
    6          6
                                   No pseudopotential on this center.
    7          6
                                   No pseudopotential on this center.
    8          6
                                   No pseudopotential on this center.
    9          6
                                   No pseudopotential on this center.
   10          6
                                   No pseudopotential on this center.
   11          1
                                   No pseudopotential on this center.
   12          1
                                   No pseudopotential on this center.
   13          1
                                   No pseudopotential on this center.
   14          1
                                   No pseudopotential on this center.
   15          1
                                   No pseudopotential on this center.
   16          1
                                   No pseudopotential on this center.
   17          7
                                   No pseudopotential on this center.
   18          7
                                   No pseudopotential on this center.
   19         77           17
                                      G and up 
                                                     1      823.5880147       -0.15780140    0.00000000
                                                     2      364.6613336    -1517.52704460    0.00000000
                                                     2       55.7082801     -316.53065290    0.00000000
                                                     2       12.0464544      -91.88809410    0.00000000
                                                     2        3.5120610       -9.22417730    0.00000000
                                      S - G
                                                     0      188.0490770        3.15780140    0.00000000
                                                     1      340.4194712       26.83225770    0.00000000
                                                     2      128.2373673      800.42500070    0.00000000
                                                     2       33.8644961      369.40506830    0.00000000
                                                     2        4.7560005      242.41718990    0.00000000
                                                     2        3.9649974     -118.21732820    0.00000000
                                      P - G
                                                     0      289.7291139        2.15780140    0.00000000
                                                     1       87.4633789       61.96786100    0.00000000
                                                     2       30.4363766      269.05819860    0.00000000
                                                     2        4.0553412      231.16547930    0.00000000
                                                     2        3.5525341     -133.69526670    0.00000000
                                      D - G
                                                     0      136.4017106        3.15780140    0.00000000
                                                     1       95.0776925       45.93498030    0.00000000
                                                     2       49.2258410      359.03446680    0.00000000
                                                     2       15.0874145      176.47401190    0.00000000
                                                     2        4.0405764       54.51552860    0.00000000
                                      F - G
                                                     0      127.3507908        3.95461970    0.00000000
                                                     1       66.2364374       52.97736550    0.00000000
                                                     2       34.4299229      274.86433830    0.00000000
                                                     2       10.1995721      137.20473380    0.00000000
                                                     2        2.5409702       14.86333050    0.00000000
   20          8
                                   No pseudopotential on this center.
   21          8
                                   No pseudopotential on this center.
   22          8
                                   No pseudopotential on this center.
   23          5
                                   No pseudopotential on this center.
   24          5
                                   No pseudopotential on this center.
   25          5
                                   No pseudopotential on this center.
   26          8
                                   No pseudopotential on this center.
   27          8
                                   No pseudopotential on this center.
   28          6
                                   No pseudopotential on this center.
   29          6
                                   No pseudopotential on this center.
   30          6
                                   No pseudopotential on this center.
   31          6
                                   No pseudopotential on this center.
   32          6
                                   No pseudopotential on this center.
   33          6
                                   No pseudopotential on this center.
   34          8
                                   No pseudopotential on this center.
   35          6
                                   No pseudopotential on this center.
   36          1
                                   No pseudopotential on this center.
   37          1
                                   No pseudopotential on this center.
   38          1
                                   No pseudopotential on this center.
   39          6
                                   No pseudopotential on this center.
   40          1
                                   No pseudopotential on this center.
   41          1
                                   No pseudopotential on this center.
   42          1
                                   No pseudopotential on this center.
   43          6
                                   No pseudopotential on this center.
   44          1
                                   No pseudopotential on this center.
   45          1
                                   No pseudopotential on this center.
   46          1
                                   No pseudopotential on this center.
   47          6
                                   No pseudopotential on this center.
   48          1
                                   No pseudopotential on this center.
   49          1
                                   No pseudopotential on this center.
   50          1
                                   No pseudopotential on this center.
   51          6
                                   No pseudopotential on this center.
   52          1
                                   No pseudopotential on this center.
   53          1
                                   No pseudopotential on this center.
   54          1
                                   No pseudopotential on this center.
   55          6
                                   No pseudopotential on this center.
   56          1
                                   No pseudopotential on this center.
   57          1
                                   No pseudopotential on this center.
   58          1
                                   No pseudopotential on this center.
   59          6
                                   No pseudopotential on this center.
   60          1
                                   No pseudopotential on this center.
   61          1
                                   No pseudopotential on this center.
   62          1
                                   No pseudopotential on this center.
   63          6
                                   No pseudopotential on this center.
   64          1
                                   No pseudopotential on this center.
   65          1
                                   No pseudopotential on this center.
   66          1
                                   No pseudopotential on this center.
   67          6
                                   No pseudopotential on this center.
   68          1
                                   No pseudopotential on this center.
   69          1
                                   No pseudopotential on this center.
   70          1
                                   No pseudopotential on this center.
   71          6
                                   No pseudopotential on this center.
   72          1
                                   No pseudopotential on this center.
   73          1
                                   No pseudopotential on this center.
   74          1
                                   No pseudopotential on this center.
   75          6
                                   No pseudopotential on this center.
   76          1
                                   No pseudopotential on this center.
   77          1
                                   No pseudopotential on this center.
   78          1
                                   No pseudopotential on this center.
   79          6
                                   No pseudopotential on this center.
   80          1
                                   No pseudopotential on this center.
   81          1
                                   No pseudopotential on this center.
   82          1
                                   No pseudopotential on this center.
   83          1
                                   No pseudopotential on this center.
   84          6
                                   No pseudopotential on this center.
   85          8
                                   No pseudopotential on this center.
   86          6
                                   No pseudopotential on this center.
   87          1
                                   No pseudopotential on this center.
   88          1
                                   No pseudopotential on this center.
   89          6
                                   No pseudopotential on this center.
   90          1
                                   No pseudopotential on this center.
   91          1
                                   No pseudopotential on this center.
   92          7
                                   No pseudopotential on this center.
   93          6
                                   No pseudopotential on this center.
   94          1
                                   No pseudopotential on this center.
   95          1
                                   No pseudopotential on this center.
   96          1
                                   No pseudopotential on this center.
   97          6
                                   No pseudopotential on this center.
   98          1
                                   No pseudopotential on this center.
   99          1
                                   No pseudopotential on this center.
  100          1
                                   No pseudopotential on this center.
  101          1
                                   No pseudopotential on this center.
  102          1
                                   No pseudopotential on this center.
 ======================================================================================================
 There are   824 symmetry adapted cartesian basis functions of A   symmetry.
 There are   776 symmetry adapted basis functions of A   symmetry.
   776 basis functions,  1551 primitive gaussians,   824 cartesian basis functions
   181 alpha electrons      181 beta electrons
       nuclear repulsion energy      7077.5461044746 Hartrees.
 NAtoms=  102 NActive=  102 NUniq=  102 SFac= 1.00D+00 NAtFMM=   60 NAOKFM=T Big=T
 Integral buffers will be    131072 words long.
 Raffenetti 2 integral format.
 Two-electron integral symmetry is turned on.
 One-electron integrals computed using PRISM.
   1 Symmetry operations used in ECPInt.
 ECPInt:  NShTT=   45753 NPrTT=  276657 LenC2=   33691 LenP2D=  104287.
 LDataN:  DoStor=T MaxTD1= 6 Len=  172
 NBasis=   776 RedAO= T EigKep=  5.55D-04  NBF=   776
 NBsUse=   776 1.00D-06 EigRej= -1.00D+00 NBFU=   776
 Defaulting to unpruned grid for atomic number  77.
 ExpMin= 2.90D-02 ExpMax= 5.48D+03 ExpMxC= 8.25D+02 IAcc=3 IRadAn=         5 AccDes= 0.00D+00
 Harris functional with IExCor= 1009 and IRadAn=       5 diagonalized for initial guess.
 HarFok:  IExCor= 1009 AccDes= 0.00D+00 IRadAn=         5 IDoV= 1 UseB2=F ITyADJ=14
 ICtDFT=  3500011 ScaDFX=  1.000000  1.000000  1.000000  1.000000
 Defaulting to unpruned grid for atomic number  77.
 FoFCou: FMM=F IPFlag=           0 FMFlag=      100000 FMFlg1=        2001
         NFxFlg=           0 DoJE=T BraDBF=F KetDBF=T FulRan=T
         wScrn=  0.000000 ICntrl=       500 IOpCl=  0 I1Cent=   200000004 NGrid=           0
         NMat0=    1 NMatS0=      1 NMatT0=    0 NMatD0=    1 NMtDS0=    0 NMtDT0=    0
 Petite list used in FoFCou.
 Requested convergence on RMS density matrix=1.00D-08 within 128 cycles.
 Requested convergence on MAX density matrix=1.00D-06.
 Requested convergence on             energy=1.00D-06.
 No special actions if energy rises.
 Defaulting to unpruned grid for atomic number  77.
 Defaulting to unpruned grid for atomic number  77.
 Defaulting to unpruned grid for atomic number  77.
 Defaulting to unpruned grid for atomic number  77.
 Defaulting to unpruned grid for atomic number  77.
 Defaulting to unpruned grid for atomic number  77.
 Defaulting to unpruned grid for atomic number  77.
 Defaulting to unpruned grid for atomic number  77.
 Defaulting to unpruned grid for atomic number  77.
 Defaulting to unpruned grid for atomic number  77.
 Defaulting to unpruned grid for atomic number  77.
 Defaulting to unpruned grid for atomic number  77.
 Defaulting to unpruned grid for atomic number  77.
 Defaulting to unpruned grid for atomic number  77.
 Defaulting to unpruned grid for atomic number  77.
 Defaulting to unpruned grid for atomic number  77.
 SCF Done:  E(RM06) =  -2159.70155592     A.U. after   16 cycles
            NFock= 16  Conv=0.43D-08     -V/T= 2.0408
 DoSCS=F DFT=T ScalE2(SS,OS)=  1.000000  1.000000
 Range of M.O.s used for correlation:     1   776
 NBasis=   776 NAE=   181 NBE=   181 NFC=     0 NFV=     0
 NROrb=    776 NOA=   181 NOB=   181 NVA=   595 NVB=   595
   1 Symmetry operations used in ECPInt.
 ECPInt:  NShTT=   45753 NPrTT=  276657 LenC2=   33691 LenP2D=  104287.
 LDataN:  DoStor=T MaxTD1= 7 Len=  274
 Number of processors reduced to   9 by ecpmxn.
 Symmetrizing basis deriv contribution to polar:
 IMax=3 JMax=2 DiffMx= 0.00D+00
 G2DrvN: will do   103 centers at a time, making    1 passes.
 Calling FoFCou, ICntrl=  3107 FMM=T I1Cent=   0 AccDes= 0.00D+00.
 Defaulting to unpruned grid for atomic number  77.
 Defaulting to unpruned grid for atomic number  77.
 Defaulting to unpruned grid for atomic number  77.
 Defaulting to unpruned grid for atomic number  77.
 Defaulting to unpruned grid for atomic number  77.
 Defaulting to unpruned grid for atomic number  77.
 Defaulting to unpruned grid for atomic number  77.
 Defaulting to unpruned grid for atomic number  77.
 Defaulting to unpruned grid for atomic number  77.
 Defaulting to unpruned grid for atomic number  77.
 Defaulting to unpruned grid for atomic number  77.
 Defaulting to unpruned grid for atomic number  77.
 Defaulting to unpruned grid for atomic number  77.
 Defaulting to unpruned grid for atomic number  77.
 Defaulting to unpruned grid for atomic number  77.
 Defaulting to unpruned grid for atomic number  77.
 End of G2Drv F.D. properties file   721 does not exist.
 End of G2Drv F.D. properties file   722 does not exist.
 End of G2Drv F.D. properties file   788 does not exist.
          IDoAtm=11111111111111111111111111111111111111111111111111
          IDoAtm=11111111111111111111111111111111111111111111111111
          IDoAtm=11
          Differentiating once with respect to electric field.
                with respect to dipole field.
          Differentiating once with respect to nuclear coordinates.
 Defaulting to unpruned grid for atomic number  77.
 CalDSu exits because no D1Ps are significant.
 Defaulting to unpruned grid for atomic number  77.
 Defaulting to unpruned grid for atomic number  77.
 Defaulting to unpruned grid for atomic number  77.
 Defaulting to unpruned grid for atomic number  77.
 Defaulting to unpruned grid for atomic number  77.
 Defaulting to unpruned grid for atomic number  77.
 Defaulting to unpruned grid for atomic number  77.
 Defaulting to unpruned grid for atomic number  77.
 Defaulting to unpruned grid for atomic number  77.
 Defaulting to unpruned grid for atomic number  77.
 Defaulting to unpruned grid for atomic number  77.
 Defaulting to unpruned grid for atomic number  77.
 Defaulting to unpruned grid for atomic number  77.
 Defaulting to unpruned grid for atomic number  77.
 Defaulting to unpruned grid for atomic number  77.
 Defaulting to unpruned grid for atomic number  77.
          There are   309 degrees of freedom in the 1st order CPHF.  IDoFFX=6 NUNeed=     3.
    306 vectors produced by pass  0 Test12= 1.08D-13 1.00D-09 XBig12= 4.91D+02 1.02D+01.
 AX will form    72 AO Fock derivatives at one time.
    306 vectors produced by pass  1 Test12= 1.08D-13 1.00D-09 XBig12= 8.47D+01 1.10D+00.
    306 vectors produced by pass  2 Test12= 1.08D-13 1.00D-09 XBig12= 1.12D+00 1.25D-01.
    306 vectors produced by pass  3 Test12= 1.08D-13 1.00D-09 XBig12= 7.57D-03 9.27D-03.
    306 vectors produced by pass  4 Test12= 1.08D-13 1.00D-09 XBig12= 2.49D-05 3.40D-04.
    271 vectors produced by pass  5 Test12= 1.08D-13 1.00D-09 XBig12= 5.13D-08 1.74D-05.
     79 vectors produced by pass  6 Test12= 1.08D-13 1.00D-09 XBig12= 7.31D-11 6.23D-07.
      3 vectors produced by pass  7 Test12= 1.08D-13 1.00D-09 XBig12= 9.82D-14 2.19D-08.
 InvSVY:  IOpt=1 It=  1 EMax= 1.78D-14
 Solved reduced A of dimension  1883 with   309 vectors.
 Isotropic polarizability for W=    0.000000      471.93 Bohr**3.
 End of Minotr F.D. properties file   721 does not exist.
 End of Minotr F.D. properties file   722 does not exist.
 End of Minotr F.D. properties file   788 does not exist.
 Hyperfine terms turned off by default for NAtoms > 100.

 **********************************************************************

            Population analysis using the SCF Density.

 **********************************************************************

 Orbital symmetries:
       Occupied  (A) (A) (A) (A) (A) (A) (A) (A) (A) (A) (A) (A)
                 (A) (A) (A) (A) (A) (A) (A) (A) (A) (A) (A) (A)
                 (A) (A) (A) (A) (A) (A) (A) (A) (A) (A) (A) (A)
                 (A) (A) (A) (A) (A) (A) (A) (A) (A) (A) (A) (A)
                 (A) (A) (A) (A) (A) (A) (A) (A) (A) (A) (A) (A)
                 (A) (A) (A) (A) (A) (A) (A) (A) (A) (A) (A) (A)
                 (A) (A) (A) (A) (A) (A) (A) (A) (A) (A) (A) (A)
                 (A) (A) (A) (A) (A) (A) (A) (A) (A) (A) (A) (A)
                 (A) (A) (A) (A) (A) (A) (A) (A) (A) (A) (A) (A)
                 (A) (A) (A) (A) (A) (A) (A) (A) (A) (A) (A) (A)
                 (A) (A) (A) (A) (A) (A) (A) (A) (A) (A) (A) (A)
                 (A) (A) (A) (A) (A) (A) (A) (A) (A) (A) (A) (A)
                 (A) (A) (A) (A) (A) (A) (A) (A) (A) (A) (A) (A)
                 (A) (A) (A) (A) (A) (A) (A) (A) (A) (A) (A) (A)
                 (A) (A) (A) (A) (A) (A) (A) (A) (A) (A) (A) (A)
                 (A)
       Virtual   (A) (A) (A) (A) (A) (A) (A) (A) (A) (A) (A) (A)
                 (A) (A) (A) (A) (A) (A) (A) (A) (A) (A) (A) (A)
                 (A) (A) (A) (A) (A) (A) (A) (A) (A) (A) (A) (A)
                 (A) (A) (A) (A) (A) (A) (A) (A) (A) (A) (A) (A)
                 (A) (A) (A) (A) (A) (A) (A) (A) (A) (A) (A) (A)
                 (A) (A) (A) (A) (A) (A) (A) (A) (A) (A) (A) (A)
                 (A) (A) (A) (A) (A) (A) (A) (A) (A) (A) (A) (A)
                 (A) (A) (A) (A) (A) (A) (A) (A) (A) (A) (A) (A)
                 (A) (A) (A) (A) (A) (A) (A) (A) (A) (A) (A) (A)
                 (A) (A) (A) (A) (A) (A) (A) (A) (A) (A) (A) (A)
                 (A) (A) (A) (A) (A) (A) (A) (A) (A) (A) (A) (A)
                 (A) (A) (A) (A) (A) (A) (A) (A) (A) (A) (A) (A)
                 (A) (A) (A) (A) (A) (A) (A) (A) (A) (A) (A) (A)
                 (A) (A) (A) (A) (A) (A) (A) (A) (A) (A) (A) (A)
                 (A) (A) (A) (A) (A) (A) (A) (A) (A) (A) (A) (A)
                 (A) (A) (A) (A) (A) (A) (A) (A) (A) (A) (A) (A)
                 (A) (A) (A) (A) (A) (A) (A) (A) (A) (A) (A) (A)
                 (A) (A) (A) (A) (A) (A) (A) (A) (A) (A) (A) (A)
                 (A) (A) (A) (A) (A) (A) (A) (A) (A) (A) (A) (A)
                 (A) (A) (A) (A) (A) (A) (A) (A) (A) (A) (A) (A)
                 (A) (A) (A) (A) (A) (A) (A) (A) (A) (A) (A) (A)
                 (A) (A) (A) (A) (A) (A) (A) (A) (A) (A) (A) (A)
                 (A) (A) (A) (A) (A) (A) (A) (A) (A) (A) (A) (A)
                 (A) (A) (A) (A) (A) (A) (A) (A) (A) (A) (A) (A)
                 (A) (A) (A) (A) (A) (A) (A) (A) (A) (A) (A) (A)
                 (A) (A) (A) (A) (A) (A) (A) (A) (A) (A) (A) (A)
                 (A) (A) (A) (A) (A) (A) (A) (A) (A) (A) (A) (A)
                 (A) (A) (A) (A) (A) (A) (A) (A) (A) (A) (A) (A)
                 (A) (A) (A) (A) (A) (A) (A) (A) (A) (A) (A) (A)
                 (A) (A) (A) (A) (A) (A) (A) (A) (A) (A) (A) (A)
                 (A) (A) (A) (A) (A) (A) (A) (A) (A) (A) (A) (A)
                 (A) (A) (A) (A) (A) (A) (A) (A) (A) (A) (A) (A)
                 (A) (A) (A) (A) (A) (A) (A) (A) (A) (A) (A) (A)
                 (A) (A) (A) (A) (A) (A) (A) (A) (A) (A) (A) (A)
                 (A) (A) (A) (A) (A) (A) (A) (A) (A) (A) (A) (A)
                 (A) (A) (A) (A) (A) (A) (A) (A) (A) (A) (A) (A)
                 (A) (A) (A) (A) (A) (A) (A) (A) (A) (A) (A) (A)
                 (A) (A) (A) (A) (A) (A) (A) (A) (A) (A) (A) (A)
                 (A) (A) (A) (A) (A) (A) (A) (A) (A) (A) (A) (A)
                 (A) (A) (A) (A) (A) (A) (A) (A) (A) (A) (A) (A)
                 (A) (A) (A) (A) (A) (A) (A) (A) (A) (A) (A) (A)
                 (A) (A) (A) (A) (A) (A) (A) (A) (A) (A) (A) (A)
                 (A) (A) (A) (A) (A) (A) (A) (A) (A) (A) (A) (A)
                 (A) (A) (A) (A) (A) (A) (A) (A) (A) (A) (A) (A)
                 (A) (A) (A) (A) (A) (A) (A) (A) (A) (A) (A) (A)
                 (A) (A) (A) (A) (A) (A) (A) (A) (A) (A) (A) (A)
                 (A) (A) (A) (A) (A) (A) (A) (A) (A) (A) (A) (A)
                 (A) (A) (A) (A) (A) (A) (A) (A) (A) (A) (A) (A)
                 (A) (A) (A) (A) (A) (A) (A) (A) (A) (A) (A) (A)
                 (A) (A) (A) (A) (A) (A) (A)
 The electronic state is 1-A.
 Alpha  occ. eigenvalues --  -19.22811 -19.20408 -19.20235 -19.20062 -19.19337
 Alpha  occ. eigenvalues --  -19.17426 -19.16213 -14.45277 -14.45262 -14.43623
 Alpha  occ. eigenvalues --  -10.35958 -10.32726 -10.32158 -10.30352 -10.29997
 Alpha  occ. eigenvalues --  -10.29594 -10.29410 -10.29403 -10.29208 -10.28874
 Alpha  occ. eigenvalues --  -10.28750 -10.28745 -10.28459 -10.27740 -10.27713
 Alpha  occ. eigenvalues --  -10.27401 -10.27384 -10.27189 -10.24147 -10.23240
 Alpha  occ. eigenvalues --  -10.23134 -10.23046 -10.22967 -10.22898 -10.22378
 Alpha  occ. eigenvalues --  -10.22234 -10.22179 -10.21805 -10.21549 -10.21122
 Alpha  occ. eigenvalues --  -10.20946 -10.20896 -10.20348  -6.79766  -6.79686
 Alpha  occ. eigenvalues --   -6.79563  -3.60611  -2.03803  -2.02350  -2.01605
 Alpha  occ. eigenvalues --   -1.08924  -1.06123  -1.05683  -1.03075  -1.00313
 Alpha  occ. eigenvalues --   -0.99213  -0.98825  -0.97672  -0.96402  -0.95283
 Alpha  occ. eigenvalues --   -0.84555  -0.83689  -0.82991  -0.80614  -0.80053
 Alpha  occ. eigenvalues --   -0.78807  -0.77952  -0.77513  -0.75086  -0.74514
 Alpha  occ. eigenvalues --   -0.73027  -0.72762  -0.70703  -0.70103  -0.69551
 Alpha  occ. eigenvalues --   -0.69059  -0.68695  -0.68093  -0.67886  -0.67277
 Alpha  occ. eigenvalues --   -0.66081  -0.64683  -0.63694  -0.62225  -0.61895
 Alpha  occ. eigenvalues --   -0.61092  -0.59760  -0.57758  -0.55742  -0.54811
 Alpha  occ. eigenvalues --   -0.54454  -0.54002  -0.53689  -0.53544  -0.53315
 Alpha  occ. eigenvalues --   -0.52842  -0.52728  -0.50787  -0.50257  -0.49878
 Alpha  occ. eigenvalues --   -0.49230  -0.47907  -0.47655  -0.47049  -0.46697
 Alpha  occ. eigenvalues --   -0.46531  -0.46391  -0.46146  -0.46038  -0.45589
 Alpha  occ. eigenvalues --   -0.44982  -0.44716  -0.44556  -0.44501  -0.44222
 Alpha  occ. eigenvalues --   -0.44097  -0.43663  -0.43511  -0.43164  -0.42672
 Alpha  occ. eigenvalues --   -0.42090  -0.41658  -0.41044  -0.40652  -0.40481
 Alpha  occ. eigenvalues --   -0.40383  -0.40144  -0.39946  -0.39824  -0.39630
 Alpha  occ. eigenvalues --   -0.39366  -0.39269  -0.39044  -0.38822  -0.38703
 Alpha  occ. eigenvalues --   -0.38399  -0.38322  -0.37729  -0.37618  -0.37299
 Alpha  occ. eigenvalues --   -0.36995  -0.36886  -0.36640  -0.36610  -0.36473
 Alpha  occ. eigenvalues --   -0.36155  -0.35978  -0.35648  -0.35643  -0.35495
 Alpha  occ. eigenvalues --   -0.35050  -0.34913  -0.34527  -0.34317  -0.34026
 Alpha  occ. eigenvalues --   -0.33595  -0.33462  -0.32961  -0.32855  -0.32563
 Alpha  occ. eigenvalues --   -0.32148  -0.31511  -0.31405  -0.31314  -0.31232
 Alpha  occ. eigenvalues --   -0.30329  -0.29847  -0.29384  -0.28449  -0.27881
 Alpha  occ. eigenvalues --   -0.27246  -0.26943  -0.26610  -0.26010  -0.25779
 Alpha  occ. eigenvalues --   -0.25583  -0.24617  -0.23150  -0.20997  -0.20202
 Alpha  occ. eigenvalues --   -0.19125
 Alpha virt. eigenvalues --   -0.07843  -0.04292  -0.03102   0.00057   0.01720
 Alpha virt. eigenvalues --    0.02085   0.03118   0.04380   0.05923   0.06930
 Alpha virt. eigenvalues --    0.07675   0.07906   0.09609   0.09730   0.09886
 Alpha virt. eigenvalues --    0.10757   0.11211   0.11480   0.11888   0.12229
 Alpha virt. eigenvalues --    0.12608   0.12802   0.13472   0.13600   0.14034
 Alpha virt. eigenvalues --    0.14196   0.14537   0.14732   0.14999   0.15327
 Alpha virt. eigenvalues --    0.15484   0.15687   0.15874   0.16017   0.16062
 Alpha virt. eigenvalues --    0.16370   0.16461   0.16728   0.16851   0.16983
 Alpha virt. eigenvalues --    0.17138   0.17174   0.17485   0.17687   0.18037
 Alpha virt. eigenvalues --    0.18370   0.18541   0.18786   0.19076   0.19116
 Alpha virt. eigenvalues --    0.19302   0.19785   0.19860   0.19931   0.20074
 Alpha virt. eigenvalues --    0.20321   0.20400   0.20449   0.20523   0.21062
 Alpha virt. eigenvalues --    0.21241   0.21308   0.21542   0.21671   0.22128
 Alpha virt. eigenvalues --    0.22312   0.22619   0.23053   0.23610   0.23944
 Alpha virt. eigenvalues --    0.24234   0.24279   0.24504   0.24717   0.24913
 Alpha virt. eigenvalues --    0.24998   0.25475   0.25933   0.26156   0.26263
 Alpha virt. eigenvalues --    0.26473   0.26785   0.26843   0.26938   0.27210
 Alpha virt. eigenvalues --    0.27438   0.27799   0.28018   0.28553   0.28659
 Alpha virt. eigenvalues --    0.28941   0.28970   0.29339   0.29685   0.30472
 Alpha virt. eigenvalues --    0.30780   0.31345   0.31859   0.32365   0.32539
 Alpha virt. eigenvalues --    0.34149   0.34167   0.34510   0.35135   0.35952
 Alpha virt. eigenvalues --    0.36671   0.37516   0.37711   0.38357   0.39081
 Alpha virt. eigenvalues --    0.39528   0.39912   0.40589   0.41719   0.43079
 Alpha virt. eigenvalues --    0.44696   0.46391   0.46895   0.47950   0.48794
 Alpha virt. eigenvalues --    0.49469   0.50077   0.50202   0.50712   0.50866
 Alpha virt. eigenvalues --    0.51002   0.51120   0.51878   0.52516   0.52604
 Alpha virt. eigenvalues --    0.52856   0.53362   0.53425   0.54159   0.54478
 Alpha virt. eigenvalues --    0.54731   0.55639   0.55958   0.56039   0.56272
 Alpha virt. eigenvalues --    0.56785   0.57447   0.57720   0.57814   0.58027
 Alpha virt. eigenvalues --    0.58211   0.58450   0.58555   0.58675   0.58977
 Alpha virt. eigenvalues --    0.59080   0.59316   0.59594   0.59808   0.60084
 Alpha virt. eigenvalues --    0.60657   0.60781   0.61009   0.61383   0.61552
 Alpha virt. eigenvalues --    0.62123   0.62458   0.62683   0.62719   0.63339
 Alpha virt. eigenvalues --    0.63550   0.63874   0.64521   0.64795   0.64866
 Alpha virt. eigenvalues --    0.65558   0.65745   0.66055   0.66365   0.67001
 Alpha virt. eigenvalues --    0.67349   0.67471   0.67961   0.68166   0.68646
 Alpha virt. eigenvalues --    0.68749   0.68936   0.69582   0.70129   0.70577
 Alpha virt. eigenvalues --    0.71037   0.71354   0.71864   0.71970   0.72251
 Alpha virt. eigenvalues --    0.72603   0.72735   0.73342   0.73430   0.73824
 Alpha virt. eigenvalues --    0.74307   0.74677   0.74862   0.75215   0.75436
 Alpha virt. eigenvalues --    0.75834   0.76386   0.77429   0.77605   0.78094
 Alpha virt. eigenvalues --    0.78427   0.79026   0.79473   0.79652   0.80135
 Alpha virt. eigenvalues --    0.80407   0.81500   0.81884   0.82135   0.82269
 Alpha virt. eigenvalues --    0.82561   0.82892   0.83257   0.83849   0.84036
 Alpha virt. eigenvalues --    0.84425   0.84632   0.84777   0.84978   0.85285
 Alpha virt. eigenvalues --    0.85315   0.85572   0.86101   0.86221   0.86389
 Alpha virt. eigenvalues --    0.86611   0.87267   0.87508   0.87666   0.87735
 Alpha virt. eigenvalues --    0.88176   0.88296   0.88655   0.88699   0.88996
 Alpha virt. eigenvalues --    0.89129   0.89485   0.89738   0.90204   0.90354
 Alpha virt. eigenvalues --    0.90650   0.91081   0.91518   0.91646   0.91961
 Alpha virt. eigenvalues --    0.92056   0.92366   0.92424   0.92834   0.93116
 Alpha virt. eigenvalues --    0.93200   0.93603   0.93857   0.94474   0.94800
 Alpha virt. eigenvalues --    0.95033   0.95588   0.95838   0.96134   0.96275
 Alpha virt. eigenvalues --    0.96345   0.96775   0.97107   0.97563   0.97691
 Alpha virt. eigenvalues --    0.97790   0.97931   0.98741   0.98976   0.99176
 Alpha virt. eigenvalues --    1.00140   1.00173   1.01112   1.01169   1.02295
 Alpha virt. eigenvalues --    1.02947   1.03010   1.03525   1.03954   1.04441
 Alpha virt. eigenvalues --    1.04862   1.05350   1.05543   1.06286   1.06548
 Alpha virt. eigenvalues --    1.07053   1.07763   1.08416   1.09407   1.10479
 Alpha virt. eigenvalues --    1.11103   1.11915   1.13520   1.14185   1.14716
 Alpha virt. eigenvalues --    1.15524   1.15620   1.16065   1.16913   1.17655
 Alpha virt. eigenvalues --    1.18346   1.18424   1.18777   1.19448   1.20588
 Alpha virt. eigenvalues --    1.21458   1.21958   1.22235   1.22736   1.22962
 Alpha virt. eigenvalues --    1.24192   1.24673   1.24954   1.25501   1.26752
 Alpha virt. eigenvalues --    1.27374   1.27980   1.28843   1.29533   1.30558
 Alpha virt. eigenvalues --    1.30638   1.31289   1.31772   1.32262   1.33832
 Alpha virt. eigenvalues --    1.34129   1.34960   1.35617   1.35881   1.37409
 Alpha virt. eigenvalues --    1.39238   1.39554   1.40120   1.40677   1.40857
 Alpha virt. eigenvalues --    1.41876   1.42431   1.42761   1.43325   1.44088
 Alpha virt. eigenvalues --    1.44318   1.44850   1.45054   1.46162   1.46624
 Alpha virt. eigenvalues --    1.47161   1.47504   1.47899   1.48398   1.48796
 Alpha virt. eigenvalues --    1.49021   1.50570   1.51308   1.51720   1.52627
 Alpha virt. eigenvalues --    1.53645   1.54689   1.54861   1.55943   1.56456
 Alpha virt. eigenvalues --    1.57165   1.58073   1.59011   1.60189   1.60867
 Alpha virt. eigenvalues --    1.61718   1.62230   1.63493   1.64438   1.64549
 Alpha virt. eigenvalues --    1.65939   1.66587   1.66858   1.67385   1.67688
 Alpha virt. eigenvalues --    1.67835   1.68722   1.69345   1.69886   1.70222
 Alpha virt. eigenvalues --    1.70606   1.71580   1.73000   1.73850   1.74275
 Alpha virt. eigenvalues --    1.76265   1.76660   1.76858   1.77021   1.77319
 Alpha virt. eigenvalues --    1.78263   1.78808   1.79476   1.80163   1.80921
 Alpha virt. eigenvalues --    1.81048   1.81513   1.81809   1.82432   1.82928
 Alpha virt. eigenvalues --    1.83687   1.84052   1.84648   1.85259   1.85794
 Alpha virt. eigenvalues --    1.86261   1.86546   1.86929   1.87201   1.87746
 Alpha virt. eigenvalues --    1.87957   1.89072   1.89786   1.90127   1.91043
 Alpha virt. eigenvalues --    1.91239   1.91717   1.92059   1.92430   1.92498
 Alpha virt. eigenvalues --    1.92812   1.92909   1.93708   1.93914   1.94166
 Alpha virt. eigenvalues --    1.94590   1.95091   1.95532   1.95710   1.96490
 Alpha virt. eigenvalues --    1.96569   1.97879   1.98149   1.98744   1.99455
 Alpha virt. eigenvalues --    2.00184   2.00459   2.01387   2.01661   2.02645
 Alpha virt. eigenvalues --    2.03074   2.03543   2.03913   2.04850   2.05253
 Alpha virt. eigenvalues --    2.06204   2.06536   2.07173   2.07547   2.07809
 Alpha virt. eigenvalues --    2.07867   2.08149   2.08746   2.08896   2.09571
 Alpha virt. eigenvalues --    2.10207   2.11229   2.11590   2.12005   2.12113
 Alpha virt. eigenvalues --    2.12482   2.13698   2.14486   2.14714   2.15147
 Alpha virt. eigenvalues --    2.15317   2.15825   2.16004   2.16537   2.16622
 Alpha virt. eigenvalues --    2.17252   2.17442   2.17542   2.17961   2.18122
 Alpha virt. eigenvalues --    2.18999   2.19650   2.20191   2.20355   2.21215
 Alpha virt. eigenvalues --    2.21523   2.21663   2.21791   2.22687   2.23365
 Alpha virt. eigenvalues --    2.23672   2.23934   2.24399   2.24970   2.25272
 Alpha virt. eigenvalues --    2.26312   2.26386   2.26422   2.26808   2.27261
 Alpha virt. eigenvalues --    2.27441   2.28294   2.28567   2.29232   2.29836
 Alpha virt. eigenvalues --    2.29975   2.30452   2.31083   2.31165   2.31827
 Alpha virt. eigenvalues --    2.32589   2.33176   2.33584   2.34590   2.35363
 Alpha virt. eigenvalues --    2.36455   2.37539   2.38276   2.38657   2.38769
 Alpha virt. eigenvalues --    2.39783   2.41036   2.42252   2.44063   2.45498
 Alpha virt. eigenvalues --    2.45940   2.46784   2.47042   2.47206   2.47996
 Alpha virt. eigenvalues --    2.48888   2.49178   2.49787   2.51917   2.52153
 Alpha virt. eigenvalues --    2.52325   2.54635   2.56656   2.57600   2.59133
 Alpha virt. eigenvalues --    2.59676   2.60265   2.60563   2.61040   2.61306
 Alpha virt. eigenvalues --    2.62059   2.62565   2.64486   2.65490   2.66358
 Alpha virt. eigenvalues --    2.66758   2.68027   2.68263   2.68412   2.71103
 Alpha virt. eigenvalues --    2.71482   2.73947   2.75359   2.76432   2.77589
 Alpha virt. eigenvalues --    2.78150   2.78317   2.78997   2.79487   2.80214
 Alpha virt. eigenvalues --    2.80509   2.80932   2.81646   2.82156   2.82835
 Alpha virt. eigenvalues --    2.83730   2.84020   2.86701   2.87492   2.89196
 Alpha virt. eigenvalues --    2.91521   2.92835   2.93246   2.93895   2.95241
 Alpha virt. eigenvalues --    2.96294   2.96869   2.98741   3.01489   3.04952
 Alpha virt. eigenvalues --    3.06864   3.10421   3.10891   3.12509   3.14121
 Alpha virt. eigenvalues --    3.21255   3.24241   3.28933   3.43661   8.73992
          Condensed to atoms (all electrons):
 Mulliken charges:
               1
     1  C    0.323111
     2  C    0.056949
     3  C   -0.158814
     4  C   -0.136955
     5  C   -0.192434
     6  C    0.303479
     7  C    0.090143
     8  C   -0.179360
     9  C   -0.137708
    10  C   -0.186002
    11  H    0.236709
    12  H    0.186395
    13  H    0.172214
    14  H    0.214922
    15  H    0.181052
    16  H    0.168494
    17  N   -0.583671
    18  N   -0.558688
    19  Ir   0.021897
    20  O   -0.545546
    21  O   -0.531618
    22  O   -0.600798
    23  B    0.442614
    24  B    0.442559
    25  B    0.802524
    26  O   -0.570817
    27  O   -0.493720
    28  C    0.295193
    29  C    0.298092
    30  C    0.315268
    31  C    0.330572
    32  C    0.296052
    33  C    0.297474
    34  O   -0.513251
    35  C   -0.513171
    36  H    0.163522
    37  H    0.182658
    38  H    0.151147
    39  C   -0.504960
    40  H    0.163429
    41  H    0.153811
    42  H    0.161794
    43  C   -0.510309
    44  H    0.170691
    45  H    0.173638
    46  H    0.145379
    47  C   -0.499725
    48  H    0.171022
    49  H    0.142283
    50  H    0.167149
    51  C   -0.500945
    52  H    0.168470
    53  H    0.150895
    54  H    0.163307
    55  C   -0.506576
    56  H    0.160958
    57  H    0.156142
    58  H    0.158901
    59  C   -0.505492
    60  H    0.154693
    61  H    0.178598
    62  H    0.146545
    63  C   -0.508876
    64  H    0.168468
    65  H    0.166619
    66  H    0.148682
    67  C   -0.511439
    68  H    0.161345
    69  H    0.168779
    70  H    0.139201
    71  C   -0.502914
    72  H    0.139995
    73  H    0.149843
    74  H    0.162368
    75  C   -0.517145
    76  H    0.156780
    77  H    0.151360
    78  H    0.150918
    79  C   -0.514735
    80  H    0.164030
    81  H    0.139376
    82  H    0.188625
    83  H   -0.018669
    84  C    0.635458
    85  O   -0.516502
    86  C   -0.420543
    87  H    0.181535
    88  H    0.221904
    89  C   -0.389083
    90  H    0.146821
    91  H    0.165028
    92  N   -0.375035
    93  C   -0.375615
    94  H    0.177249
    95  H    0.186593
    96  H    0.211618
    97  C   -0.500539
    98  H    0.231840
    99  H    0.174019
   100  H    0.181297
   101  H    0.197535
   102  H    0.153622
 Sum of Mulliken charges =  -0.00000
 Mulliken charges with hydrogens summed into heavy atoms:
               1
     1  C    0.323111
     2  C    0.293658
     3  C    0.038721
     4  C    0.049440
     5  C   -0.020221
     6  C    0.303479
     7  C    0.305065
     8  C    0.001937
     9  C    0.043343
    10  C   -0.017508
    17  N   -0.583671
    18  N   -0.558688
    19  Ir   0.003227
    20  O   -0.545546
    21  O   -0.531618
    22  O   -0.600798
    23  B    0.442614
    24  B    0.442559
    25  B    0.802524
    26  O   -0.570817
    27  O   -0.493720
    28  C    0.295193
    29  C    0.298092
    30  C    0.315268
    31  C    0.330572
    32  C    0.296052
    33  C    0.297474
    34  O   -0.513251
    35  C   -0.015844
    39  C   -0.025926
    43  C   -0.020600
    47  C   -0.019271
    51  C   -0.018273
    55  C   -0.030574
    59  C   -0.025656
    63  C   -0.025107
    67  C   -0.042113
    71  C   -0.050708
    75  C   -0.058086
    79  C   -0.022704
    84  C    0.635458
    85  O   -0.516502
    86  C   -0.017104
    89  C   -0.077234
    92  N   -0.375035
    93  C    0.199845
    97  C    0.058943
 APT charges:
               1
     1  C    0.234685
     2  C    0.077416
     3  C   -0.097109
     4  C    0.186295
     5  C   -0.227041
     6  C    0.117038
     7  C    0.016666
     8  C   -0.004830
     9  C    0.048485
    10  C   -0.148156
    11  H    0.150575
    12  H    0.031534
    13  H    0.039144
    14  H    0.099683
    15  H    0.027690
    16  H    0.038935
    17  N   -0.318539
    18  N    0.023680
    19  Ir  -0.504876
    20  O   -1.015033
    21  O   -1.024149
    22  O   -1.027993
    23  B    1.259479
    24  B    1.294045
    25  B    1.428949
    26  O   -1.016913
    27  O   -1.001019
    28  C    0.505140
    29  C    0.515130
    30  C    0.539695
    31  C    0.530443
    32  C    0.489270
    33  C    0.510853
    34  O   -0.956464
    35  C   -0.038678
    36  H   -0.001058
    37  H    0.006354
    38  H   -0.020246
    39  C   -0.013466
    40  H   -0.000576
    41  H   -0.017636
    42  H    0.000625
    43  C   -0.008445
    44  H    0.000686
    45  H    0.001646
    46  H   -0.020315
    47  C   -0.027928
    48  H    0.011961
    49  H   -0.030334
    50  H    0.004126
    51  C   -0.003445
    52  H    0.002151
    53  H   -0.021490
    54  H    0.000739
    55  C   -0.036134
    56  H    0.002152
    57  H   -0.023735
    58  H    0.000422
    59  C   -0.040052
    60  H   -0.006813
    61  H    0.028408
    62  H   -0.024356
    63  C   -0.009982
    64  H   -0.001914
    65  H   -0.002375
    66  H   -0.016669
    67  C   -0.008340
    68  H   -0.018117
    69  H    0.002631
    70  H   -0.021258
    71  C   -0.029476
    72  H   -0.028295
    73  H   -0.008099
    74  H   -0.011792
    75  C   -0.011330
    76  H   -0.011620
    77  H   -0.000713
    78  H   -0.020188
    79  C   -0.043636
    80  H   -0.008954
    81  H   -0.031338
    82  H    0.030426
    83  H   -0.130909
    84  C    1.029776
    85  O   -0.974860
    86  C   -0.041441
    87  H   -0.032106
    88  H    0.064076
    89  C    0.022153
    90  H   -0.032933
    91  H   -0.026486
    92  N   -0.629186
    93  C    0.275142
    94  H   -0.001281
    95  H   -0.004636
    96  H   -0.005750
    97  C    0.036789
    98  H    0.058411
    99  H   -0.003199
   100  H    0.038336
   101  H    0.080125
   102  H   -0.018252
 Sum of APT charges =  -0.00000
 APT charges with hydrogens summed into heavy atoms:
               1
     1  C    0.234685
     2  C    0.227990
     3  C   -0.016984
     4  C    0.217829
     5  C   -0.187897
     6  C    0.117038
     7  C    0.116349
     8  C    0.033506
     9  C    0.076175
    10  C   -0.109221
    17  N   -0.318539
    18  N    0.023680
    19  Ir  -0.635785
    20  O   -1.015033
    21  O   -1.024149
    22  O   -1.027993
    23  B    1.259479
    24  B    1.294045
    25  B    1.428949
    26  O   -1.016913
    27  O   -1.001019
    28  C    0.505140
    29  C    0.515130
    30  C    0.539695
    31  C    0.530443
    32  C    0.489270
    33  C    0.510853
    34  O   -0.956464
    35  C   -0.053628
    39  C   -0.031053
    43  C   -0.026428
    47  C   -0.042176
    51  C   -0.022045
    55  C   -0.057295
    59  C   -0.042813
    63  C   -0.030940
    67  C   -0.045084
    71  C   -0.077662
    75  C   -0.043851
    79  C   -0.053502
    84  C    1.029776
    85  O   -0.974860
    86  C   -0.009471
    89  C   -0.037266
    92  N   -0.629186
    93  C    0.263475
    97  C    0.073749
 Electronic spatial extent (au):  <R**2>=          29375.0733
 Charge=             -0.0000 electrons
 Dipole moment (field-independent basis, Debye):
    X=              4.4634    Y=              6.5637    Z=             -2.0752  Tot=              8.2043
 Quadrupole moment (field-independent basis, Debye-Ang):
   XX=           -296.4062   YY=           -256.8334   ZZ=           -291.0010
   XY=             -9.2498   XZ=             -0.5472   YZ=              1.2457
 Traceless Quadrupole moment (field-independent basis, Debye-Ang):
   XX=            -14.9927   YY=             24.5802   ZZ=             -9.5875
   XY=             -9.2498   XZ=             -0.5472   YZ=              1.2457
 Octapole moment (field-independent basis, Debye-Ang**2):
  XXX=            232.5010  YYY=            259.0685  ZZZ=             -8.3632  XYY=             73.5645
  XXY=            113.8280  XXZ=             31.0559  XZZ=             41.8928  YZZ=            -21.2160
  YYZ=            -23.7583  XYZ=              3.5801
 Hexadecapole moment (field-independent basis, Debye-Ang**3):
 XXXX=         -23607.9399 YYYY=          -8504.4653 ZZZZ=          -6229.8509 XXXY=            -33.7457
 XXXZ=           -226.9465 YYYX=            171.1398 YYYZ=            -77.9756 ZZZX=            115.4293
 ZZZY=             33.9995 XXYY=          -5277.7290 XXZZ=          -4915.0088 YYZZ=          -2709.6687
 XXYZ=            -50.5885 YYXZ=            -39.3495 ZZXY=            -53.3310
 N-N= 7.077546104475D+03 E-N=-1.916012756733D+04  KE= 2.075024746062D+03
  Exact polarizability:     549.243      -6.824     495.645     -11.619     -12.619     370.889
 Approx polarizability:     749.808       4.013     720.807     -21.991     -28.136     544.730
   1 Symmetry operations used in ECPInt.
 ECPInt:  NShTT=   45753 NPrTT=  276657 LenC2=   33691 LenP2D=  104287.
 LDataN:  DoStor=T MaxTD1= 8 Len=  415
 Calling FoFJK, ICntrl=    100127 FMM=F ISym2X=0 I1Cent= 0 IOpClX= 0 NMat=1 NMatS=1 NMatT=0.
 Defaulting to unpruned grid for atomic number  77.
 Defaulting to unpruned grid for atomic number  77.
 Defaulting to unpruned grid for atomic number  77.
 Defaulting to unpruned grid for atomic number  77.
 Defaulting to unpruned grid for atomic number  77.
 Defaulting to unpruned grid for atomic number  77.
 Defaulting to unpruned grid for atomic number  77.
 Defaulting to unpruned grid for atomic number  77.
 Defaulting to unpruned grid for atomic number  77.
 Defaulting to unpruned grid for atomic number  77.
 Defaulting to unpruned grid for atomic number  77.
 Defaulting to unpruned grid for atomic number  77.
 Defaulting to unpruned grid for atomic number  77.
 Defaulting to unpruned grid for atomic number  77.
 Defaulting to unpruned grid for atomic number  77.
 Defaulting to unpruned grid for atomic number  77.
 Full mass-weighted force constant matrix:
 Low frequencies ---   -0.7961   -0.0006   -0.0005    0.0004    4.4119    5.9305
 Low frequencies ---   16.9438   21.7599   23.2985
 Diagonal vibrational polarizability:
      121.7422598      75.8086282     168.8677940
 Harmonic frequencies (cm**-1), IR intensities (KM/Mole), Raman scattering
 activities (A**4/AMU), depolarization ratios for plane and unpolarized
 incident light, reduced masses (AMU), force constants (mDyne/A),
 and normal coordinates:
                      1                      2                      3
                      A                      A                      A
 Frequencies --     16.7584                21.7138                23.2612
 Red. masses --      4.3520                 4.0434                 5.4610
 Frc consts  --      0.0007                 0.0011                 0.0017
 IR Inten    --      0.3288                 0.2417                 1.3212
  Atom AN      X      Y      Z        X      Y      Z        X      Y      Z
     1   6     0.00   0.00  -0.07    -0.02  -0.02  -0.01    -0.01  -0.02  -0.09
     2   6    -0.00   0.01  -0.07    -0.00  -0.02   0.06    -0.01  -0.01  -0.05
     3   6    -0.00   0.01  -0.11    -0.01  -0.02   0.07    -0.01  -0.02  -0.13
     4   6     0.00   0.00  -0.13    -0.02  -0.02   0.04    -0.02  -0.03  -0.20
     5   6     0.00   0.00  -0.11    -0.02  -0.02  -0.00    -0.01  -0.03  -0.18
     6   6     0.00   0.00  -0.04    -0.02  -0.01  -0.06    -0.01  -0.02  -0.07
     7   6     0.00   0.00   0.03    -0.01   0.00  -0.06    -0.00   0.00   0.04
     8   6     0.01   0.00   0.02    -0.02  -0.00  -0.12    -0.01  -0.00  -0.02
     9   6     0.01  -0.00  -0.02    -0.03  -0.01  -0.15    -0.01  -0.02  -0.11
    10   6     0.01  -0.00  -0.05    -0.03  -0.02  -0.12    -0.01  -0.02  -0.13
    11   1    -0.00   0.01  -0.05     0.01  -0.01   0.08    -0.01   0.00   0.00
    12   1     0.00   0.00  -0.16    -0.02  -0.02   0.05    -0.02  -0.04  -0.26
    13   1     0.00  -0.00  -0.13    -0.03  -0.02  -0.03    -0.02  -0.04  -0.23
    14   1    -0.00   0.00   0.06    -0.01   0.01  -0.03    -0.00   0.01   0.11
    15   1     0.01  -0.00  -0.03    -0.04  -0.01  -0.20    -0.02  -0.02  -0.16
    16   1     0.01  -0.00  -0.08    -0.04  -0.02  -0.15    -0.02  -0.03  -0.20
    17   7     0.00   0.01  -0.05    -0.01  -0.01   0.02    -0.01  -0.01  -0.03
    18   7     0.00   0.00  -0.00    -0.01  -0.00  -0.03    -0.00  -0.00   0.02
    19  77    -0.00   0.01  -0.01    -0.00  -0.01   0.01     0.00  -0.00   0.07
    20   8    -0.04  -0.01   0.04     0.01   0.01   0.01     0.03  -0.02   0.02
    21   8     0.01   0.01  -0.01     0.01  -0.01   0.03     0.01   0.03  -0.00
    22   8     0.06  -0.04   0.03     0.02  -0.05   0.06    -0.03   0.02  -0.01
    23   5     0.01   0.01   0.01    -0.00  -0.01   0.01    -0.00   0.03   0.03
    24   5    -0.03  -0.01   0.01     0.01   0.00   0.01     0.03  -0.03   0.03
    25   5    -0.00  -0.03   0.01     0.00   0.01  -0.00    -0.02  -0.00   0.01
    26   8    -0.02   0.00   0.04    -0.02   0.05  -0.06    -0.01  -0.01   0.01
    27   8    -0.05  -0.02  -0.02     0.01   0.00   0.02     0.05  -0.06   0.02
    28   6    -0.07  -0.03   0.00     0.02   0.01   0.01     0.06  -0.07  -0.02
    29   6    -0.07  -0.02   0.05     0.02   0.01   0.01     0.05  -0.07  -0.00
    30   6     0.08  -0.03   0.07    -0.01  -0.06   0.02    -0.04   0.04  -0.02
    31   6     0.02   0.01   0.10    -0.01   0.05  -0.05    -0.02   0.01  -0.02
    32   6     0.02   0.02  -0.00     0.01  -0.02   0.03    -0.00   0.06  -0.02
    33   6     0.03   0.02   0.03    -0.01  -0.01   0.01    -0.02   0.08  -0.00
    34   8     0.03   0.02   0.03    -0.01  -0.01  -0.00    -0.02   0.06   0.04
    35   6    -0.10  -0.03   0.06     0.02   0.01   0.01     0.07  -0.10   0.03
    36   1    -0.09  -0.03   0.09     0.01   0.01   0.01     0.07  -0.09   0.05
    37   1    -0.10  -0.04   0.04     0.02   0.01   0.01     0.08  -0.10   0.06
    38   1    -0.13  -0.05   0.06     0.02   0.01   0.01     0.09  -0.13   0.02
    39   6    -0.06  -0.01   0.08     0.02   0.02   0.00     0.05  -0.06  -0.05
    40   1    -0.06  -0.00   0.11     0.01   0.02  -0.00     0.05  -0.06  -0.04
    41   1    -0.08  -0.02   0.08     0.02   0.02   0.00     0.07  -0.09  -0.07
    42   1    -0.03   0.00   0.07     0.02   0.02   0.00     0.04  -0.04  -0.07
    43   6    -0.10  -0.05  -0.01     0.03   0.01   0.02     0.08  -0.12  -0.02
    44   1    -0.12  -0.06  -0.01     0.02   0.01   0.01     0.09  -0.13   0.02
    45   1    -0.10  -0.05  -0.04     0.03   0.01   0.02     0.09  -0.12  -0.03
    46   1    -0.12  -0.05   0.01     0.03   0.02   0.02     0.09  -0.13  -0.04
    47   6    -0.04  -0.02  -0.01     0.02   0.01   0.02     0.05  -0.05  -0.06
    48   1    -0.02  -0.00   0.00     0.02   0.00   0.02     0.04  -0.02  -0.06
    49   1    -0.05  -0.02   0.01     0.02   0.01   0.02     0.06  -0.07  -0.09
    50   1    -0.04  -0.02  -0.03     0.02   0.00   0.02     0.05  -0.05  -0.07
    51   6     0.00   0.01  -0.01     0.03  -0.00   0.04     0.01   0.06  -0.06
    52   1    -0.01   0.01  -0.04     0.04  -0.01   0.06     0.02   0.05  -0.07
    53   1     0.01   0.02  -0.01     0.03  -0.00   0.04     0.00   0.09  -0.08
    54   1    -0.01  -0.01  -0.00     0.03   0.02   0.04     0.03   0.05  -0.07
    55   6     0.03   0.05  -0.02     0.01  -0.04   0.03    -0.02   0.09  -0.02
    56   1     0.04   0.06  -0.00     0.00  -0.05   0.02    -0.03   0.09   0.01
    57   1     0.04   0.07  -0.02     0.01  -0.05   0.04    -0.02   0.11  -0.03
    58   1     0.02   0.05  -0.04     0.02  -0.05   0.05    -0.01   0.08  -0.03
    59   6     0.01  -0.01   0.06    -0.00   0.02   0.00    -0.00   0.07  -0.02
    60   1     0.02  -0.01   0.08    -0.01   0.02  -0.01    -0.01   0.07  -0.00
    61   1    -0.01  -0.02   0.05     0.01   0.03   0.01     0.01   0.03  -0.02
    62   1     0.01  -0.01   0.06     0.01   0.02   0.01    -0.00   0.08  -0.06
    63   6     0.06   0.03   0.05    -0.01  -0.02   0.00    -0.04   0.12  -0.00
    64   1     0.07   0.05   0.03    -0.02  -0.04   0.00    -0.05   0.13   0.01
    65   1     0.07   0.03   0.07    -0.02  -0.01  -0.01    -0.05   0.13   0.01
    66   1     0.06   0.03   0.05    -0.01  -0.02   0.01    -0.04   0.14  -0.04
    67   6     0.02   0.02   0.12    -0.07   0.05  -0.13    -0.04   0.03  -0.01
    68   1    -0.02   0.04   0.13    -0.07   0.13  -0.17    -0.03   0.01  -0.01
    69   1     0.03  -0.00   0.08    -0.11  -0.00  -0.17    -0.05   0.04   0.02
    70   1     0.06   0.02   0.15    -0.07   0.04  -0.12    -0.05   0.05  -0.03
    71   6     0.01   0.04   0.15     0.05   0.14  -0.00    -0.01  -0.01  -0.06
    72   1     0.04   0.05   0.19     0.05   0.14   0.01    -0.01   0.01  -0.08
    73   1     0.01   0.03   0.13     0.09   0.13   0.07     0.00  -0.02  -0.06
    74   1    -0.05   0.06   0.15     0.05   0.21  -0.05     0.01  -0.02  -0.05
    75   6     0.13  -0.03   0.12     0.03  -0.07   0.09    -0.04   0.05  -0.06
    76   1     0.18  -0.05   0.09     0.03  -0.14   0.12    -0.05   0.07  -0.06
    77   1     0.10  -0.01   0.14     0.05  -0.02   0.14    -0.03   0.03  -0.08
    78   1     0.15  -0.02   0.17     0.01  -0.08   0.07    -0.05   0.06  -0.07
    79   6     0.11  -0.06   0.04    -0.06  -0.15  -0.04    -0.06   0.06   0.00
    80   1     0.15  -0.08   0.01    -0.05  -0.22   0.01    -0.07   0.07   0.01
    81   1     0.14  -0.05   0.07    -0.08  -0.16  -0.07    -0.07   0.07  -0.00
    82   1     0.07  -0.06   0.00    -0.08  -0.14  -0.10    -0.05   0.05   0.03
    83   1    -0.01   0.01  -0.02     0.01  -0.01   0.04     0.01  -0.01   0.08
    84   6    -0.00  -0.01  -0.05     0.00   0.02  -0.02    -0.01   0.01   0.03
    85   8    -0.00  -0.05  -0.05    -0.03  -0.04  -0.05    -0.01   0.01   0.03
    86   6     0.02   0.01  -0.08     0.00   0.02  -0.04    -0.00   0.01   0.05
    87   1     0.04   0.03  -0.11     0.00   0.03  -0.05     0.01   0.01   0.04
    88   1     0.01   0.05  -0.07     0.00   0.02  -0.03    -0.00   0.01   0.05
    89   6    -0.04  -0.01  -0.01     0.02   0.07   0.04    -0.02  -0.02  -0.00
    90   1    -0.07  -0.00  -0.02     0.01   0.07   0.08    -0.03  -0.01  -0.02
    91   1    -0.05  -0.03  -0.00     0.04   0.10   0.02    -0.01  -0.04  -0.00
    92   7    -0.02   0.02  -0.03     0.04   0.09   0.03    -0.01  -0.01   0.02
    93   6    -0.02   0.07  -0.03     0.07   0.16   0.07    -0.00  -0.02   0.02
    94   1    -0.02   0.08  -0.07     0.07   0.18   0.02     0.00  -0.02   0.04
    95   1    -0.03   0.10  -0.01     0.10   0.23   0.09    -0.01  -0.04   0.01
    96   1    -0.02   0.06  -0.00     0.06   0.13   0.15    -0.01  -0.00   0.01
    97   6     0.03  -0.03  -0.10     0.00  -0.01  -0.04    -0.02   0.01   0.05
    98   1     0.00  -0.04  -0.07     0.00  -0.02  -0.03    -0.01   0.01   0.05
    99   1     0.04  -0.07  -0.12     0.00  -0.01  -0.05    -0.02   0.02   0.04
   100   1     0.01  -0.00   0.05    -0.02   0.00  -0.14    -0.01   0.00   0.00
   101   1    -0.00   0.01  -0.12    -0.00  -0.02   0.10    -0.01  -0.02  -0.14
   102   1     0.05  -0.01  -0.12     0.00  -0.01  -0.06    -0.02   0.00   0.05
                      4                      5                      6
                      A                      A                      A
 Frequencies --     28.4494                33.7926                37.1209
 Red. masses --      4.5372                 3.9954                 3.8161
 Frc consts  --      0.0022                 0.0027                 0.0031
 IR Inten    --      0.2845                 0.1149                 0.0701
  Atom AN      X      Y      Z        X      Y      Z        X      Y      Z
     1   6    -0.01  -0.01  -0.01     0.00   0.00  -0.01     0.01  -0.01   0.01
     2   6    -0.01  -0.03  -0.07    -0.00   0.01  -0.03    -0.00   0.01  -0.01
     3   6    -0.02  -0.04  -0.13    -0.00   0.01  -0.04     0.00   0.01  -0.03
     4   6    -0.02  -0.04  -0.14     0.00   0.01  -0.04     0.02   0.01  -0.03
     5   6    -0.02  -0.03  -0.08     0.00   0.00  -0.02     0.02  -0.00  -0.01
     6   6    -0.01  -0.00   0.06     0.00   0.00   0.00     0.01  -0.02   0.02
     7   6    -0.00   0.01   0.06     0.00  -0.00   0.01     0.00  -0.04   0.02
     8   6    -0.01   0.02   0.16     0.00  -0.00   0.01     0.01  -0.04   0.03
     9   6    -0.01   0.02   0.22     0.00  -0.00   0.01     0.03  -0.03   0.04
    10   6    -0.01   0.01   0.17     0.00  -0.00  -0.00     0.02  -0.02   0.04
    11   1    -0.01  -0.03  -0.06    -0.01   0.01  -0.03    -0.01   0.01  -0.01
    12   1    -0.03  -0.05  -0.19     0.00   0.01  -0.04     0.02   0.01  -0.04
    13   1    -0.02  -0.03  -0.09     0.00   0.00  -0.02     0.03  -0.01  -0.01
    14   1    -0.00   0.00   0.01    -0.00  -0.00   0.02    -0.00  -0.04   0.02
    15   1    -0.01   0.04   0.31     0.01  -0.00   0.00     0.03  -0.04   0.05
    16   1    -0.01   0.02   0.22     0.01  -0.00  -0.01     0.03  -0.02   0.05
    17   7    -0.01  -0.02  -0.01    -0.00   0.00  -0.01     0.00  -0.00   0.01
    18   7    -0.01  -0.00   0.02    -0.00   0.00   0.01     0.00  -0.03   0.01
    19  77     0.00  -0.01  -0.01    -0.00   0.00   0.03    -0.01  -0.02   0.02
    20   8     0.03   0.00  -0.04     0.02  -0.04  -0.03    -0.01   0.05   0.03
    21   8    -0.00  -0.01  -0.01    -0.02  -0.01   0.04     0.03  -0.02   0.06
    22   8     0.02  -0.05   0.02    -0.03   0.01  -0.05     0.00   0.03  -0.03
    23   5     0.00  -0.01  -0.01    -0.01  -0.01   0.03    -0.03  -0.02   0.01
    24   5     0.02   0.01  -0.01     0.01   0.01   0.03    -0.00  -0.02   0.00
    25   5    -0.03  -0.05  -0.00    -0.02   0.02  -0.05    -0.00   0.03  -0.03
    26   8    -0.07   0.01  -0.00    -0.00  -0.00  -0.04    -0.00   0.02  -0.01
    27   8     0.04   0.03   0.02     0.01   0.07   0.08     0.03  -0.06  -0.02
    28   6     0.05   0.04   0.01     0.01   0.03   0.05     0.05  -0.01  -0.01
    29   6     0.05   0.03  -0.04     0.05  -0.03  -0.03    -0.00   0.06   0.03
    30   6     0.00  -0.01   0.01     0.01  -0.03  -0.01     0.02   0.02  -0.01
    31   6    -0.04   0.06  -0.00    -0.00  -0.06   0.01     0.01   0.01   0.01
    32   6    -0.00  -0.01  -0.01    -0.03  -0.02   0.04     0.01  -0.03   0.04
    33   6    -0.00  -0.01  -0.02    -0.02  -0.03   0.02    -0.05   0.01  -0.04
    34   8     0.00  -0.01  -0.01    -0.01  -0.02   0.02    -0.08  -0.01  -0.05
    35   6     0.07   0.06  -0.07     0.17  -0.00  -0.06    -0.09   0.04   0.04
    36   1     0.07   0.05  -0.10     0.20  -0.05  -0.11    -0.13   0.09   0.06
    37   1     0.08   0.06  -0.05     0.19   0.06  -0.02    -0.12  -0.02   0.02
    38   1     0.10   0.09  -0.06     0.20   0.00  -0.06    -0.09   0.05   0.04
    39   6     0.04   0.03  -0.05     0.02  -0.11  -0.09     0.03   0.14   0.05
    40   1     0.04   0.02  -0.09     0.05  -0.15  -0.15    -0.01   0.19   0.09
    41   1     0.06   0.05  -0.04     0.04  -0.09  -0.09     0.04   0.13   0.04
    42   1     0.02   0.00  -0.03    -0.06  -0.14  -0.07     0.09   0.17   0.03
    43   6     0.08   0.08   0.02     0.06   0.09   0.07     0.04  -0.05  -0.02
    44   1     0.09   0.09   0.01     0.13   0.13   0.06    -0.03  -0.08  -0.02
    45   1     0.08   0.08   0.06     0.02   0.14   0.13     0.09  -0.11  -0.05
    46   1     0.09   0.09   0.01     0.07   0.07   0.04     0.05  -0.01  -0.01
    47   6     0.03   0.03   0.03    -0.09   0.00   0.07     0.14   0.01  -0.02
    48   1     0.00   0.00   0.02    -0.14  -0.04   0.05     0.17   0.04  -0.01
    49   1     0.03   0.03   0.02    -0.09  -0.03   0.04     0.16   0.05  -0.00
    50   1     0.02   0.03   0.06    -0.12   0.04   0.13     0.17  -0.03  -0.06
    51   6    -0.00  -0.01  -0.00    -0.03  -0.02   0.05     0.09   0.03   0.07
    52   1    -0.00  -0.01  -0.00    -0.03  -0.02   0.05     0.14  -0.00   0.14
    53   1    -0.00  -0.01  -0.00    -0.03  -0.03   0.05     0.08   0.03   0.06
    54   1    -0.00  -0.01  -0.00    -0.03  -0.01   0.05     0.13   0.10   0.04
    55   6    -0.01  -0.02  -0.01    -0.04  -0.03   0.04    -0.01  -0.13   0.09
    56   1    -0.00  -0.02  -0.01    -0.04  -0.04   0.04    -0.07  -0.17   0.06
    57   1    -0.01  -0.02  -0.00    -0.04  -0.04   0.04    -0.02  -0.14   0.08
    58   1    -0.01  -0.01  -0.00    -0.03  -0.03   0.05     0.04  -0.16   0.14
    59   6     0.00  -0.01  -0.02    -0.02  -0.03   0.00    -0.02   0.11  -0.09
    60   1     0.00  -0.01  -0.03    -0.01  -0.03  -0.00    -0.06   0.13  -0.15
    61   1     0.01  -0.02  -0.02    -0.01  -0.03   0.01     0.03   0.14  -0.07
    62   1     0.00  -0.01  -0.03    -0.02  -0.03  -0.00     0.01   0.13  -0.08
    63   6    -0.01  -0.01  -0.02    -0.04  -0.04   0.01    -0.12  -0.03  -0.07
    64   1    -0.02  -0.01  -0.01    -0.04  -0.04   0.02    -0.15  -0.10  -0.04
    65   1    -0.01  -0.02  -0.02    -0.03  -0.05  -0.00    -0.17   0.00  -0.13
    66   1    -0.02  -0.02  -0.02    -0.05  -0.05   0.01    -0.10  -0.02  -0.06
    67   6    -0.10   0.11  -0.02     0.07  -0.10   0.03     0.03   0.00   0.03
    68   1    -0.13   0.15  -0.03     0.06  -0.12   0.05     0.02  -0.01   0.04
    69   1    -0.16   0.07  -0.03     0.12  -0.08   0.01     0.05   0.01   0.02
    70   1    -0.08   0.14  -0.02     0.07  -0.14   0.06     0.04  -0.01   0.04
    71   6     0.03   0.12   0.01    -0.08  -0.08   0.04    -0.02  -0.00   0.02
    72   1     0.05   0.16   0.01    -0.07  -0.12   0.08    -0.02  -0.01   0.04
    73   1     0.08   0.09   0.03    -0.12  -0.06   0.02    -0.04   0.00   0.00
    74   1     0.01   0.16  -0.01    -0.09  -0.10   0.06    -0.04  -0.01   0.03
    75   6     0.07   0.01   0.04    -0.02  -0.05   0.00     0.02   0.02  -0.01
    76   1     0.10  -0.03   0.03    -0.02  -0.03  -0.01     0.03   0.03  -0.02
    77   1     0.09   0.03   0.05    -0.06  -0.05   0.01     0.00   0.02  -0.01
[...]
 ,-0.00000472,-0.00000132,0.00000084,-0.00000457,0.00000506,0.00000079,
 0.00000648,-0.00000351,-0.00000092,0.00000663,-0.00000791,-0.00000013,
 -0.00000141,0.00000360,-0.00000152,-0.00000337,-0.00000022,0.00000020,
 0.00000468,-0.00000242,-0.00000523,0.00004460,0.00002844,0.00010497,0.
 00004400,0.00004467,0.00001216,-0.00001096,-0.00000483,-0.00001170,0.0
 0000732,-0.00001006,-0.00002103,-0.00001016,-0.00006102,0.00009132,0.0
 0005058,0.00000874,-0.00002658,-0.00001896,0.00012015,-0.00011026,0.00
 004685,0.00003552,0.00002001,-0.00007148,-0.00014012,-0.00007635,-0.00
 005908,0.00006224,0.00010693,-0.00032669,-0.00002592,0.00021819,0.0000
 8806,-0.00001884,-0.00003041,0.00024173,0.00002623,-0.00012566,-0.0000
 1359,-0.00003298,0.00003220,0.00002666,0.00008316,-0.00012965,0.000008
 26,-0.00000749,0.00003071,-0.00012407,-0.00003278,0.00000281,0.0004657
 9,0.00009668,-0.00043096,-0.00073102,0.00053284,0.00032481,-0.00006038
 ,-0.00000877,0.00002562,-0.00001356,0.00000208,-0.00000903,0.00000765,
 0.00003351,0.00001057,-0.00011162,0.00006147,0.00013126,0.00007305,0.0
 0003822,-0.00013657,-0.00000766,0.00002886,0.00004816,-0.00013208,-0.0
 0007289,0.00030479,0.00008287,0.00006944,-0.00011648,-0.00003538,0.000
 00293,0.00002233,-0.00000150,-0.00000379,0.00000696,-0.00004035,-0.000
 01347,0.00004290,-0.00000358,0.00000860,0.00002375,0.00002512,0.000007
 97,-0.00001167,-0.00000073,-0.00002775,0.00000317,0.00000203,0.0000075
 5,0.00000376,0.06946254,0.06848017,-0.00015674,0.00033102,-0.00041622,
 -0.00121596,-0.00109279,0.00194041,0.02959430,0.01006675,-0.04069756,0
 .00427085,0.00043965,0.00223217,0.00057986,0.00182290,0.00733833,-0.00
 010624,-0.00019088,-0.00136325,0.00000417,-0.00000092,0.00001433,0.000
 00432,-0.00000949,-0.00000712,-0.00001793,-0.00001070,-0.00004964,0.00
 001434,0.00003887,0.00005266,-0.00029497,-0.00042947,-0.00295068,-0.00
 039378,-0.00072189,-0.00381387,0.00024787,0.00000836,0.00014363,0.0000
 0153,0.00000175,0.00000565,-0.00000137,-0.00000130,-0.00000590,0.00000
 085,-0.00000394,0.00008847,0.00007448,0.00106231,0.00758953,0.00002109
 ,-0.00002526,-0.00004135,-0.00011859,-0.00004050,0.00003864,-0.0000194
 5,0.00000961,-0.00002449,-0.00003606,0.00001216,0.00002235,0.00043107,
 0.00013009,-0.00095662,0.00009323,0.00005849,-0.00001531,-0.00000559,-
 0.00004510,0.00000015,-0.00022074,-0.00040320,0.00028467,0.00009968,-0
 .00003664,-0.00023627,0.00000177,0.00000628,-0.00002318,0.00000455,0.0
 0000426,0.00002028,0.00000182,-0.00000419,0.00001718,-0.00053360,0.000
 37122,0.00030473,0.00009806,0.00000940,0.00014412,0.00000304,0.0000040
 8,-0.00000848,0.00000538,0.00000297,0.00000332,-0.00001350,-0.00000665
 ,-0.00000049,-0.00000239,-0.00000066,-0.00000242,0.00000038,0.00000002
 ,0.00000060,0.00000169,-0.00000002,0.00000284,-0.00000120,0.00000048,-
 0.00000237,-0.00000034,0.00000028,-0.00000252,-0.00000004,-0.00000003,
 0.00000078,-0.00000113,0.00000102,-0.00000119,0.00000104,-0.00000158,-
 0.00000047,0.00000155,0.00000152,0.00000087,-0.00000111,-0.00000305,-0
 .00000138,0.00000005,0.00000205,0.00000094,0.00000005,-0.00000005,-0.0
 0000086,-0.00000339,0.00000121,-0.00000336,0.00000253,-0.00000085,-0.0
 0000107,-0.00000154,0.00000129,-0.00000032,0.00000049,-0.00000092,0.00
 000197,-0.00000283,0.00000012,0.00000273,0.00000090,-0.00000078,0.0000
 0046,-0.00000118,0.00000152,0.00000011,-0.00000160,0.00000017,-0.00000
 151,-0.00000045,-0.00000166,-0.00000066,0.00000174,0.00000424,-0.00000
 141,-0.00000199,0.00000056,0.00000044,0.00000077,-0.00000375,0.0000003
 2,-0.00000070,-0.00000156,-0.00000036,-0.00000076,-0.00000131,0.000000
 11,0.00000041,0.00000074,0.00000011,-0.00000040,0.00000061,0.00000016,
 0.00000012,-0.00000079,0.00000049,-0.00000052,0.00000043,-0.00000144,-
 0.00000052,-0.00000117,0.00000029,-0.00000009,0.00000070,0.00000004,-0
 .00004663,0.00003432,-0.00003127,-0.00001068,-0.00001802,-0.00000698,0
 .00001025,0.00001909,-0.00001084,0.00002465,0.00000445,-0.00000413,-0.
 00015855,-0.00018898,0.00005531,0.00006211,0.00002777,-0.00000943,0.00
 007484,0.00014463,-0.00007166,0.00002591,0.00002323,-0.00003874,0.0002
 5994,0.00005348,0.00027290,0.00009907,0.00025599,-0.00064523,0.0002782
 4,0.00014230,0.00018124,-0.00006377,-0.00020467,-0.00008560,0.00015203
 ,-0.00003190,-0.00006672,-0.00004316,0.00001501,-0.00003146,-0.0000024
 9,0.00002941,-0.00005241,0.00000207,-0.00004988,0.00002201,0.00002036,
 -0.00001793,-0.00001153,-0.00005782,-0.00005842,0.00023811,0.00005274,
 0.00003313,-0.00013873,0.00000118,0.00000807,-0.00001522,-0.00000514,0
 .00000240,-0.00000414,0.00000346,0.00000299,-0.00000207,-0.00005561,-0
 .00023536,-0.00003768,0.00022393,0.00012536,-0.00009681,0.00000173,0.0
 0002586,-0.00000910,-0.00009082,0.00021778,-0.00010086,0.00001589,0.00
 002089,-0.00001951,-0.00001154,0.00000284,0.00000363,0.00000185,-0.000
 00632,-0.00001075,-0.00000496,0.00000050,0.00001647,-0.00000970,0.0000
 0189,0.00000989,0.00000009,-0.00000121,-0.00000041,0.00000329,0.000002
 00,0.00000060,0.00000041,0.00000214,0.00003300,-0.03315742,-0.01174317
 ,0.03105212,-0.00001438,0.00001158,-0.00000602,0.00000514,-0.00004853,
 0.00000238,-0.00000500,0.00004080,-0.00000146,-0.00001403,-0.00002350,
 0.00000546,0.00002577,-0.00000439,-0.00000186,-0.00001929,0.00000013,0
 .00000242,0.00000848,0.00001195,0.00000110,0.00000114,-0.00001155,0.00
 000410,-0.00000857,0.00000351,-0.00000056,0.00001561,0.00000269,0.0000
 0127,-0.00002455,-0.00002294,-0.00000681,-0.00000122,0.00000113,-0.000
 00064,0.00000202,0.00000267,-0.00000078,-0.00000270,-0.00000030,-0.000
 00114,0.00000090,0.00000187,-0.00000063,-0.00000274,-0.00000210,0.0000
 0026,0.00000285,0.00000518,0.00000758,-0.00000975,-0.00001992,-0.00001
 986,0.00003234,-0.00002903,0.00006578,0.00006417,-0.00002887,0.0000431
 7,0.00031151,0.00016059,-0.00019411,-0.00013767,0.00015054,0.00013111,
 -0.00004426,-0.00013014,0.00000115,-0.00007732,0.00002916,-0.00002292,
 0.00069630,-0.00044433,-0.00003460,-0.00028227,0.00001259,0.00003676,0
 .00015731,0.00014387,0.00016416,-0.00003591,0.00002152,-0.00004790,-0.
 00001003,0.00001574,-0.00001449,0.00008475,0.00000616,-0.00000963,0.00
 011524,-0.00004888,-0.00007447,-0.00010009,0.00011799,0.00010326,-0.00
 001379,0.00003088,-0.00000852,0.00007809,0.00000044,-0.00005983,0.0000
 0334,-0.00000058,-0.00000072,-0.00000211,0.00000107,0.00000118,0.00000
 193,-0.00000059,-0.00000347,0.00000342,-0.00000040,0.00000600,0.000000
 22,0.00000022,0.00000198,0.00000048,-0.00000023,-0.00000109,0.00000314
 ,-0.00000147,0.00000468,-0.00000212,0.,-0.00000229,0.00001807,0.000024
 17,0.00000131,-0.00000954,-0.00000862,0.00000339,-0.00001343,0.0000043
 0,0.00000412,0.00000471,-0.00000193,0.00000460,-0.00039580,-0.00009044
 ,-0.00024891,-0.00000272,-0.00003190,0.00016865,0.00001517,0.00001593,
 0.00002669,0.00005164,0.00020574,-0.00026961,0.00018262,0.00022193,-0.
 00001868,-0.00024415,-0.00013144,0.00010899,-0.00002088,-0.00004182,-0
 .00000827,-0.00002703,-0.00001945,0.00000589,0.00000608,-0.00001321,-0
 .00002120,-0.00000611,-0.00002173,0.00001556,0.00001169,0.00000090,-0.
 00001063,0.00000744,0.00006577,-0.00005460,0.00000060,-0.00000065,0.00
 000010,0.00000060,-0.00000281,0.00000144,-0.00000647,0.00000123,0.0000
 0316,0.00001050,-0.00000426,-0.00000277,0.00000303,0.00000733,0.000000
 27,-0.00000011,0.00000017,0.00000291,0.00000020,0.00000109,-0.00000277
 ,0.00000475,-0.00000371,-0.00000420,-0.00000845,-0.00000198,0.00000830
 ,-0.00000585,-0.00000187,-0.00001034,0.00001251,0.00000847,-0.00000213
 ,-0.00001059,0.00000217,0.00000710,-0.00001643,0.00001007,0.00000620,-
 0.00001498,0.00001082,0.00000312,0.00000592,-0.00000690,0.00000278,0.0
 0000092,-0.00000346,-0.00000569,-0.00000868,0.00000505,-0.00000885,0.0
 0000564,0.00000065,0.00000340,-0.00000368,0.00000982,-0.00000521,-0.00
 000872,0.00000123,0.00000634,-0.00001087,-0.00005290,-0.00002176,0.000
 00506,-0.00000537,-0.00000887,-0.00002832,0.00001643,0.00001734,0.0000
 5440,0.00002243,-0.00000697,-0.00000753,0.00001727,-0.00002220,0.00022
 198,-0.00054100,0.00025908,-0.00018215,0.00081408,-0.00091684,-0.00313
 992,0.00217182,0.00078264,-0.00012700,-0.00007539,0.00001916,0.0001791
 3,-0.00018640,-0.00022137,0.00005070,0.00008621,-0.00015577,-0.0000260
 5,0.00006437,-0.00003586,-0.00002309,0.00004834,-0.00003982,-0.0002582
 8,0.00036977,-0.00018988,-0.00014979,0.00000796,0.00012965,0.00001512,
 -0.00000457,0.00000737,0.00000183,0.00002018,-0.00002774,0.00003845,0.
 00001008,-0.00003919,-0.18068981,0.13265111,0.00411029,0.00798901,-0.0
 0805994,0.00066994,-0.01618315,0.01966148,-0.00052650,0.00000210,-0.00
 000014,-0.00000070,0.00000268,-0.00001628,-0.00000301,0.19192069,0.000
 00484,-0.00002376,0.00000477,0.00001934,0.00009422,-0.00000949,-0.0000
 0643,-0.00005851,0.00000269,0.00002222,0.00002794,-0.00000655,-0.00003
 285,0.00000853,0.00000031,-0.00003035,0.00000137,0.00000172,0.00002784
 ,-0.00008494,0.00000823,-0.00001786,0.00004094,-0.00000044,0.00001985,
 -0.00001806,0.00000135,-0.00001870,-0.00001567,0.00000467,0.00000441,0
 .00004137,0.00000026,0.00000095,-0.00000236,0.00000155,-0.00000254,-0.
 00000214,0.00000051,-0.00000571,-0.00001477,0.00000413,-0.00000121,-0.
 00000174,-0.00000022,-0.00000049,-0.00000365,0.00000159,-0.00004612,0.
 00004993,0.00000862,-0.00006365,-0.00019441,-0.00001771,-0.00014704,0.
 00044553,-0.00000070,-0.00012789,0.00020414,-0.00016972,-0.00006006,0.
 00069784,-0.00029941,0.00016407,-0.00011717,-0.00013500,0.00038127,-0.
 00080115,-0.00016428,0.00030370,-0.00062820,0.00040143,-0.00050536,0.0
 0028493,0.00003811,0.00025977,0.00000628,-0.00006491,-0.00021401,0.000
 63918,-0.00019768,0.00014481,-0.00042617,-0.00011118,-0.00008055,-0.00
 004797,0.00012035,-0.00009758,-0.00001953,0.00006076,-0.00008951,0.000
 04161,0.00007324,-0.00008539,0.00001953,0.00023959,0.00000838,-0.00009
 139,-0.00003058,-0.00004660,0.00027905,0.00001170,0.00003886,0.0000414
 8,-0.00003565,0.00001378,0.00002466,0.00001112,-0.00000806,-0.00000408
 ,0.00000876,-0.00000440,-0.00000455,-0.00000360,0.00000671,0.00001177,
 -0.00003156,0.00001341,0.00002367,0.00000658,-0.00001441,-0.00000158,-
 0.00000714,-0.00003061,-0.00000160,0.00002607,-0.00004756,0.00006015,0
 .00000533,0.00000211,0.00003364,0.00005135,0.00003210,-0.00001032,-0.0
 0004554,0.00000481,0.00000379,-0.00000732,0.00016579,0.00006756,0.0001
 9044,-0.00018524,-0.00008047,-0.00007152,0.00011104,0.00006941,0.00008
 013,-0.00047056,0.00000638,-0.00051070,-0.00019056,-0.00026697,0.00001
 259,-0.00001141,0.00020751,0.00012870,0.00005674,0.00006422,-0.0000387
 5,-0.00003807,0.00000551,-0.00000674,-0.00002240,-0.00001367,-0.000008
 90,0.00000494,0.00003848,-0.00002907,-0.00000183,0.00000520,-0.0000198
 4,0.00003249,-0.00002593,0.00006484,-0.00000949,0.00001573,0.00001258,
 0.00001203,0.00001772,-0.00000714,-0.00000616,-0.00001671,-0.00001210,
 -0.00001529,0.00000106,0.00000166,0.00000920,0.00003267,0.00001109,-0.
 00000597,-0.00000234,-0.00000850,0.00001106,0.00001030,-0.00001112,-0.
 00000698,-0.00000154,0.00000912,0.00001021,-0.00000507,-0.00000085,0.0
 0000159,0.00000341,0.00000489,-0.00000424,-0.00000124,0.00000011,0.000
 00857,0.00000008,-0.00000736,0.00001384,-0.00001091,-0.00000750,0.0000
 1352,-0.00000875,-0.00000317,-0.00000578,0.00000824,-0.00000205,-0.000
 00287,0.00000288,0.00000265,0.00000876,0.00000470,-0.00000872,-0.00000
 535,-0.00000217,-0.00000269,0.00000004,-0.00000104,0.00000456,0.000009
 48,-0.00000296,-0.00000587,0.00001016,0.00000383,-0.00002062,-0.000009
 46,0.00001100,0.00001541,0.00001972,0.00000056,-0.00000934,-0.00001176
 ,-0.00002524,0.00001176,-0.00023823,-0.00030340,0.00003335,-0.00115543
 ,0.00099137,0.00169424,0.00019392,-0.00005362,0.00016247,0.00663537,-0
 .00760352,-0.00106327,-0.00021666,0.00066209,0.00000867,0.00014832,-0.
 00013820,-0.00017727,-0.00014257,-0.00012894,0.00010649,0.00007246,-0.
 00007109,0.00002455,0.00004140,-0.00003930,0.00002379,0.00074318,-0.00
 052742,0.00010211,0.00019679,0.00002008,-0.00019315,0.00001593,0.00003
 577,-0.00001180,-0.00001342,-0.00001946,0.00003321,-0.00002642,-0.0000
 3044,0.00003150,0.13414295,-0.18060250,-0.00372858,0.01756268,-0.01491
 039,0.00110127,-0.00994631,0.01039387,-0.00051065,-0.00000864,-0.00000
 869,0.00000080,-0.00000459,0.00001638,0.00000427,-0.14718476,0.1916981
 7,-0.00001651,0.00000896,-0.00000857,0.00001105,-0.00000259,-0.0000049
 8,-0.00000165,0.00001280,0.00000250,-0.00001021,-0.00001567,0.00000412
 ,0.00002038,-0.00000714,-0.00000278,-0.00002004,-0.00000494,0.00000284
 ,0.00000026,-0.00002057,0.00000153,-0.00000055,0.00001131,0.00000131,0
 .00000275,-0.00001236,0.00000186,0.00000135,-0.00000488,0.00000450,-0.
 00002000,0.00001219,-0.00003316,0.00000046,-0.00000170,-0.00000032,-0.
 00000027,-0.00000036,-0.00000018,-0.00000055,-0.00000107,0.00000897,-0
 .00000002,-0.00000094,-0.00000035,-0.00000090,-0.00000459,0.00000076,-
 0.00000033,-0.00000470,0.00003124,-0.00001631,-0.00004948,-0.00003387,
 0.00002782,0.00005322,0.00000202,-0.00006321,0.00007838,-0.00012400,-0
 .00004247,-0.00036336,0.00004513,-0.00010578,0.00005537,0.00019486,-0.
 00004362,0.00017759,0.00006648,0.00014285,-0.00013488,0.00023424,0.000
 27385,-0.00001970,-0.00025604,-0.00015499,-0.00002343,0.00009774,-0.00
 013892,0.00032391,-0.00017409,0.00017684,-0.00024866,-0.00002566,-0.00
 005800,-0.00002131,0.00010268,0.00005599,0.00005279,-0.00009228,0.0000
 5059,-0.00004149,-0.00005917,0.00003685,0.00001546,-0.00001483,0.00002
 810,0.00002612,0.00000277,-0.00003505,-0.00007989,0.00001682,0.0000299
 4,0.00002795,-0.00002682,0.00000594,0.00001643,0.00000766,-0.00000337,
 -0.00000169,0.00000540,-0.00000513,-0.00000342,-0.00000588,-0.00000017
 ,0.00001262,-0.00001083,0.00000660,0.00001511,0.00000540,-0.00000860,-
 0.00000229,-0.00000945,-0.00001475,-0.00000608,0.00001688,-0.00004866,
 -0.00000300,-0.00000133,0.00001219,0.00002758,0.00002306,0.00003374,-0
 .00001229,-0.00004025,0.00000109,0.00000626,-0.00000711,-0.00024820,-0
 .00012023,0.00007344,-0.00004436,0.00002064,-0.00002066,0.00006377,0.0
 0005997,0.00001630,-0.00035444,0.00000249,-0.00032879,0.00008541,0.000
 08325,-0.00000380,0.00017845,-0.00006002,-0.00012765,-0.00002445,-0.00
 001578,0.00000051,-0.00003366,-0.00001946,-0.00000045,0.00007158,0.000
 09023,-0.00001361,-0.00002334,-0.00003585,0.00001515,-0.00001098,-0.00
 001997,0.00000834,-0.00005518,-0.00003660,-0.00001207,-0.00001273,-0.0
 0001722,0.00001754,-0.00000517,-0.00000682,-0.00000482,0.00000130,0.00
 000392,0.00000222,0.00000319,0.00000202,-0.00000293,-0.00001266,-0.000
 01121,-0.00000702,-0.00000030,0.00000588,-0.00000432,-0.00000606,-0.00
 000723,0.00000303,0.00000460,0.00000182,-0.00000040,-0.00000855,0.0000
 1235,0.00000328,0.00000281,-0.00000084,0.00000185,-0.00000171,-0.00000
 789,0.00000196,-0.00000684,-0.00000375,0.00000386,-0.00000317,0.000015
 83,0.00001235,-0.00000805,0.00000262,0.00000186,0.00000295,-0.00001055
 ,-0.00000156,0.00000640,-0.00000081,0.00000299,-0.00000592,-0.00001508
 ,0.00002287,0.00000104,0.00000783,0.00000364,0.00000555,-0.00001191,0.
 00000022,-0.00000483,0.00000495,0.00000362,-0.00000901,0.00000747,0.00
 002804,-0.00000496,0.00002794,0.00002125,0.00001648,-0.00001352,0.0000
 0816,-0.00004154,-0.00001373,-0.00003036,-0.00010916,-0.00012964,-0.00
 000082,0.00151032,0.00122439,-0.00751077,0.00018678,-0.00031166,0.0009
 7781,-0.02401237,0.02327993,-0.00109350,-0.00010389,-0.00071433,0.0016
 7077,0.00024091,-0.00026578,0.00130970,0.00021183,0.00023141,-0.000226
 76,-0.00013521,0.00013285,-0.00003206,-0.00008319,0.00007837,-0.000020
 90,-0.00183556,0.00137683,0.00033836,-0.00030629,-0.00006506,0.0003192
 2,0.00001897,-0.00005212,-0.00001066,0.00002836,0.00000813,-0.00005069
 ,0.00003370,0.00002557,-0.00004017,0.00637235,-0.00586494,-0.04586614,
 0.01481550,-0.01161279,0.00004560,0.00709981,-0.00994001,-0.00105195,-
 0.00000259,-0.00000217,0.00000108,0.00000316,-0.00000518,-0.00000613,-
 0.00355945,0.00284389,0.05160514\\-0.00000549,-0.00000568,0.00000157,0
 .00000107,-0.00000143,0.00000129,0.00000035,0.00000176,-0.00000123,-0.
 00000053,0.00000027,0.00000121,-0.00000076,0.00000129,0.00000071,0.000
 00263,-0.00001421,0.00000207,0.00000041,-0.00001226,0.00000145,0.00000
 068,0.00000799,0.00000037,-0.00000349,-0.00000739,0.00000162,0.0000022
 8,0.00000741,0.00000128,-0.00000004,0.00000273,0.00000035,0.00000104,-
 0.00000142,0.00000126,0.00000102,-0.00000076,0.00000016,-0.00000155,0.
 00000068,0.00000075,0.00000204,0.00000296,0.00000221,0.00000243,-0.000
 00012,0.00000281,0.00000533,0.00000477,0.00000085,0.00000275,0.0000212
 2,0.00000436,0.00000140,-0.00000488,0.00000318,0.00001908,0.00000676,0
 .00000227,-0.00000385,0.00000873,-0.00000212,-0.00001184,0.00000067,0.
 00000170,-0.00000266,-0.00000605,-0.00000641,-0.00003578,-0.00001644,0
 .00000925,-0.00000312,-0.00000278,0.00001417,0.00000143,0.00001020,-0.
 00000125,0.00001147,0.00000603,-0.00000520,-0.00000271,-0.00000388,0.0
 0000825,0.00000109,0.00000203,-0.00000639,0.00001133,-0.00000743,-0.00
 000809,-0.00000462,-0.00000478,-0.00000225,0.00000588,-0.00000581,0.00
 000184,-0.00000091,0.00000176,-0.00000197,0.00000052,-0.00000004,0.000
 00403,0.00000187,-0.00000673,0.00000789,-0.00000007,0.00000002,-0.0000
 0102,-0.00000129,0.00000043,0.00000023,-0.00000175,0.00000074,-0.00000
 351,-0.00000239,-0.00000249,0.00000583,0.00000111,0.00000008,0.0000002
 6,-0.00000090,-0.00000002,-0.00000227,0.00000014,-0.00000148,-0.000000
 12,0.00000520,0.00000451,-0.00000281,0.00000050,-0.00000494,-0.0000015
 2,-0.00000356,-0.00000415,-0.00000030,-0.00000201,-0.00000110,-0.00000
 045,-0.00000356,0.00000532,-0.00001173,0.00000109,-0.00000391,0.000006
 50,0.00000147,-0.00000257,0.00000098,-0.00000317,-0.00000080,-0.000000
 45,-0.00000736,-0.00000162,-0.00000132,-0.00000065,0.00000237,-0.00000
 031,0.00000081,-0.00000109,-0.00000110,0.00000120,-0.00000015,0.000000
 24,0.00000149,-0.00000369,0.00000136,-0.00001327,-0.00001141,-0.000001
 45,0.00000113,0.00000336,-0.00000068,0.00000117,0.00000506,-0.00000092
 ,0.00000592,0.00000291,0.00000143,0.00000030,0.00000067,0.00000066,0.0
 0000014,0.00000112,-0.00000004,-0.00000210,0.00000228,0.00000067,-0.00
 000402,0.00000190,0.00000367,0.00000255,0.00000172,0.00000002,0.000000
 60,0.00000174,0.00000046,0.00000235,-0.00000138,-0.00000035,-0.0000039
 6,0.00000600,-0.00000224,0.00000086,0.00000132,-0.00000022,0.00000143,
 -0.00000296,0.00000050,0.00000262,-0.00000088,-0.00000345,0.00000044,0
 .00000044,0.00000136,-0.00000033,0.00000018,-0.00000208,0.00000123,0.0
 0000112,-0.00000137,-0.00000020,0.00000070,-0.00000031,0.00000034,0.00
 000622,0.00000306,-0.00000274,-0.00000203,-0.00000313,0.00000124,0.000
 00027,0.00000082,-0.00000245,-0.00000047,0.00000182,-0.00000308,-0.000
 00482,-0.00000100,0.00000232,0.00000112,0.00000226,0.00000113,0.000000
 94,-0.00000176,-0.00000069,0.00000310,-0.00000143,0.00001083,-0.000006
 05,-0.00000718,-0.00000878,-0.00000291,-0.00000652,0.00000434,0.000000
 14,-0.00000951,0.00000148,0.00002501,0.00002265,-0.00000267,-0.0000052
 8,-0.00000948,0.00000363,-0.00001544,-0.00001144,0.00000221,-0.0000012
 4,-0.00000730,0.00000027,0.00000048,-0.00000135,0.00000108,0.00000192,
 0.00000314,0.00000089,0.00000864,0.00000951,-0.00001080,-0.00001104,-0
 .00000406,0.00001769,0.00001652,0.00000006,0.00000182,-0.00000253,-0.0
 0000077,-0.00000014,0.00000222,0.00000257,0.00000500,-0.00000361,-0.00
 000997,-0.00000159,0.00000532,0.00000211,0.00000077,-0.00000032,-0.000
 00170,0.00000011,-0.00000109,0.00000164,0.00000190,0.00000114,-0.00000
 004,-0.00000600,-0.00000076,0.00000085\\\@
 The archive entry for this job was punched.


 There are more things in heaven and earth, Horatio,
 than are dreamt of in your philosophy.
                   -- Hamlet, Act I, Scene 5
 Job cpu time:       1 days  7 hours 50 minutes 38.5 seconds.
 Elapsed time:       0 days  2 hours  1 minutes 51.2 seconds.
 File lengths (MBytes):  RWF=   6947 Int=      0 D2E=      0 Chk=     43 Scr=      1
 Normal termination of Gaussian 16 at Sun Dec  8 00:00:43 2024.
