/mnt/lustre/scratch/nvme/SLURM/9663796/usccqdma.19ctfW0mIX
OMP_STACKSIZE=0m
GAUSS_PDEF=16
GAUSS_MDEF=65536MB
GAUSS_RDEF=SCF=Direct
 Entering Gaussian System, Link 0=g16.exe
 Initial command:
 /opt/cesga/2020/software/Core/g16/c1/l1.exe "/mnt/lustre/scratch/nvme/SLURM/9663796/usccqdma.19ctfW0mIX/Gau-3459037.inp" -scrdir="/mnt/lustre/scratch/nvme/SLURM/9663796/usccqdma.19ctfW0mIX/"
 Default is to use a total of  16 processors:
                               16 via shared-memory
                                1 via Linda
 Entering Link 1 = /opt/cesga/2020/software/Core/g16/c1/l1.exe PID=   3459063.
  
 Copyright (c) 1988-2019, Gaussian, Inc.  All Rights Reserved.
  
 This is part of the Gaussian(R) 16 program.  It is based on
 the Gaussian(R) 09 system (copyright 2009, Gaussian, Inc.),
 the Gaussian(R) 03 system (copyright 2003, Gaussian, Inc.),
 the Gaussian(R) 98 system (copyright 1998, Gaussian, Inc.),
 the Gaussian(R) 94 system (copyright 1995, Gaussian, Inc.),
 the Gaussian 92(TM) system (copyright 1992, Gaussian, Inc.),
 the Gaussian 90(TM) system (copyright 1990, Gaussian, Inc.),
 the Gaussian 88(TM) system (copyright 1988, Gaussian, Inc.),
 the Gaussian 86(TM) system (copyright 1986, Carnegie Mellon
 University), and the Gaussian 82(TM) system (copyright 1983,
 Carnegie Mellon University). Gaussian is a federally registered
 trademark of Gaussian, Inc.
  
 This software contains proprietary and confidential information,
 including trade secrets, belonging to Gaussian, Inc.
  
 This software is provided under written license and may be
 used, copied, transmitted, or stored only in accord with that
 written license.
  
 The following legend is applicable only to US Government
 contracts under FAR:
  
                    RESTRICTED RIGHTS LEGEND
  
 Use, reproduction and disclosure by the US Government is
 subject to restrictions as set forth in subparagraphs (a)
 and (c) of the Commercial Computer Software - Restricted
 Rights clause in FAR 52.227-19.
  
 Gaussian, Inc.
 340 Quinnipiac St., Bldg. 40, Wallingford CT 06492
  
  
 ---------------------------------------------------------------
 Warning -- This program may not be used in any manner that
 competes with the business of Gaussian, Inc. or will provide
 assistance to any competitor of Gaussian, Inc.  The licensee
 of this program is prohibited from giving any competitor of
 Gaussian, Inc. access to this program.  By using this program,
 the user acknowledges that Gaussian, Inc. is engaged in the
 business of creating and licensing software in the field of
 computational chemistry and represents and warrants to the
 licensee that it is not a competitor of Gaussian, Inc. and that
 it will not use this program in any manner prohibited above.
 ---------------------------------------------------------------
  

 Cite this work as:
 Gaussian 16, Revision C.01,
 M. J. Frisch, G. W. Trucks, H. B. Schlegel, G. E. Scuseria, 
 M. A. Robb, J. R. Cheeseman, G. Scalmani, V. Barone, 
 G. A. Petersson, H. Nakatsuji, X. Li, M. Caricato, A. V. Marenich, 
 J. Bloino, B. G. Janesko, R. Gomperts, B. Mennucci, H. P. Hratchian, 
 J. V. Ortiz, A. F. Izmaylov, J. L. Sonnenberg, D. Williams-Young, 
 F. Ding, F. Lipparini, F. Egidi, J. Goings, B. Peng, A. Petrone, 
 T. Henderson, D. Ranasinghe, V. G. Zakrzewski, J. Gao, N. Rega, 
 G. Zheng, W. Liang, M. Hada, M. Ehara, K. Toyota, R. Fukuda, 
 J. Hasegawa, M. Ishida, T. Nakajima, Y. Honda, O. Kitao, H. Nakai, 
 T. Vreven, K. Throssell, J. A. Montgomery, Jr., J. E. Peralta, 
 F. Ogliaro, M. J. Bearpark, J. J. Heyd, E. N. Brothers, K. N. Kudin, 
 V. N. Staroverov, T. A. Keith, R. Kobayashi, J. Normand, 
 K. Raghavachari, A. P. Rendell, J. C. Burant, S. S. Iyengar, 
 J. Tomasi, M. Cossi, J. M. Millam, M. Klene, C. Adamo, R. Cammi, 
 J. W. Ochterski, R. L. Martin, K. Morokuma, O. Farkas, 
 J. B. Foresman, and D. J. Fox, Gaussian, Inc., Wallingford CT, 2019.
 
 ******************************************
 Gaussian 16:  ES64L-G16RevC.01  3-Jul-2019
                 7-Dec-2024 
 ******************************************
 Default route: SCF=Direct
 ----------------------------------------------------
 # m06/genecp scf=tight int=ultrafine 5d freq=noraman
 ----------------------------------------------------
 1/10=4,30=1,38=1/1,3;
 2/12=2,17=6,18=5,40=1/2;
 3/5=7,8=1,11=2,16=1,17=8,25=1,30=1,71=2,74=-54,75=-5,140=1/1,2,3;
 4//1;
 5/5=2,32=2,38=5,98=1/2;
 8/6=4,10=90,11=11/1;
 11/6=1,8=1,9=11,15=111,16=1/1,2,10;
 10/6=1/2;
 6/7=2,8=2,9=2,10=2,28=1/1;
 7/8=1,10=1,25=1/1,2,3,16;
 1/10=4,30=1/3;
 99//99;
 ------
 OPT-TS
 ------
 Symbolic Z-matrix:
 Charge =  0 Multiplicity = 1
 C                    -2.59454  -1.22889   1.33977 
 C                    -1.34227  -2.8204    0.19842 
 C                    -2.13922  -3.85561   0.66009 
 C                    -3.20504  -3.54941   1.49899 
 C                    -3.4252   -2.22768   1.85108 
 C                    -2.774     0.20096   1.65822 
 C                    -1.92866   2.34736   1.44112 
 C                    -2.98027   2.89046   2.1651 
 C                    -3.96355   2.03783   2.64912 
 C                    -3.85293   0.67818   2.40468 
 H                    -0.46616  -3.00185  -0.42529 
 H                    -3.85201  -4.33344   1.88715 
 H                    -4.24009  -1.97618   2.5245 
 H                    -1.10682   2.95688   1.06449 
 H                    -4.80987   2.4248    3.21246 
 H                    -4.61367  -0.00139   2.78037 
 N                    -1.577    -1.53857   0.50857 
 N                    -1.83253   1.03969   1.17909 
 Ir                   -0.26581   0.09168  -0.18851 
 O                     1.69208  -2.09541  -0.97976 
 O                     2.35877  -0.21979   1.51702 
 O                     2.32906   1.60511  -0.97966 
 B                     1.01398  -0.52319   1.3481 
 B                     1.0108   -0.93456  -1.36618 
 B                     1.18961   1.54982  -0.19596 
 O                     1.08115   2.70713   0.57723 
 O                     1.27076  -0.65695  -2.70111 
 C                     2.04593  -1.73071  -3.24415 
 C                     2.70027  -2.33982  -1.9732 
 C                     3.11015   2.73592  -0.57502 
 C                     2.03635   3.65662   0.07627 
 C                     2.77073  -0.71278   2.79874 
 C                     1.75945  -1.86555   3.04029 
 O                     0.59065  -1.38202   2.35987 
 C                     2.98292  -3.82598  -2.04278 
 H                     3.69144  -4.05263  -2.85258 
 H                     3.43128  -4.16269  -1.09844 
 H                     2.06801  -4.40688  -2.2077 
 C                     3.94557  -1.58275  -1.52664 
 H                     4.79701  -1.75774  -2.19861 
 H                     3.74372  -0.50453  -1.46304 
 H                     4.22159  -1.92528  -0.51994 
 C                     1.0728   -2.68356  -3.92748 
 H                     0.36615  -3.11122  -3.20198 
 H                     0.49184  -2.11972  -4.66839 
 H                     1.58699  -3.50554  -4.44406 
 C                     3.02497  -1.16767  -4.2547 
 H                     3.60466  -0.34363  -3.82388 
 H                     3.71786  -1.94434  -4.61009 
 H                     2.47925  -0.77628  -5.12292 
 C                     4.22315  -1.13748   2.72202 
 H                     4.38906  -1.85973   1.91477 
 H                     4.85733  -0.26262   2.52607 
 H                     4.55089  -1.58913   3.66981 
 C                     2.61042   0.43323   3.79164 
 H                     2.96544   0.16337   4.7956 
 H                     3.19682   1.29381   3.44261 
 H                     1.56163   0.751     3.85972 
 C                     2.16082  -3.16704   2.35624 
 H                     2.38921  -2.99786   1.29466 
 H                     3.02181  -3.64303   2.84546 
 H                     1.31124  -3.86156   2.40741 
 C                     1.41885  -2.12388   4.49389 
 H                     2.31588  -2.41362   5.06043 
 H                     0.97395  -1.24279   4.96938 
 H                     0.69502  -2.9462    4.56407 
 C                     2.53523   4.50923   1.22487 
 H                     3.33551   5.18595   0.89227 
 H                     1.71444   5.12394   1.61714 
 H                     2.916     3.8916    2.04603 
 C                     1.3038    4.52549  -0.93898 
 H                     0.93853   3.92449  -1.78353 
 H                     0.43426   4.98593  -0.45004 
 H                     1.94019   5.32958  -1.33215 
 C                     3.79341   3.31246  -1.79985 
 H                     4.51511   2.58201  -2.18932 
 H                     3.07849   3.53312  -2.5999 
 H                     4.34219   4.23223  -1.55021 
 C                     4.15914   2.24912   0.41499 
 H                     4.85496   3.05113   0.69716 
 H                     3.68575   1.83792   1.31259 
 H                     4.73364   1.43626  -0.04976 
 H                    -0.32141   1.14843  -1.44003 
 C                    -4.00782   1.01458  -1.41272 
 O                    -4.79702   1.88633  -1.06181 
 C                    -4.45507  -0.44587  -1.46952 
 C                    -4.76501  -0.79776  -2.92604 
 H                    -3.65613  -1.11115  -1.10891 
 C                    -1.66129   0.38293  -2.05709 
 H                    -2.01094  -0.65178  -2.09086 
 H                    -1.17293   0.57256  -3.02204 
 N                    -2.74857   1.31381  -1.86849 
 C                    -2.37725   2.70653  -1.99117 
 H                    -1.98015   2.90066  -2.99841 
 H                    -3.25825   3.3259   -1.81093 
 H                    -1.59052   2.96472  -1.26327 
 C                    -5.68577  -0.65358  -0.60225 
 H                    -3.0226    3.96239   2.33952 
 H                    -1.91812  -4.87996   0.3716 
 H                    -5.98524  -1.71065  -0.61446 
 H                    -6.52038  -0.04353  -0.96722 
 H                    -5.50151  -0.35389   0.43772 
 H                    -5.14886  -1.82376  -3.00351 
 H                    -3.8828   -0.71154  -3.57262 
 H                    -5.53678  -0.11868  -3.31528 
 

 GradGradGradGradGradGradGradGradGradGradGradGradGradGradGradGradGradGrad
 Berny optimization.
 Initialization pass.
 Trust Radius=3.00D-01 FncErr=1.00D-07 GrdErr=1.00D-07 EigMax=2.50D+02 EigMin=1.00D-04
 Number of steps in this run=      2 maximum allowed number of steps=      2.
 GradGradGradGradGradGradGradGradGradGradGradGradGradGradGradGradGradGrad

 Stoichiometry    C34H57B3IrN3O7
 Framework group  C1[X(C34H57B3IrN3O7)]
 Deg. of freedom   309
 Full point group                 C1      NOp   1
 Largest Abelian subgroup         C1      NOp   1
 Largest concise Abelian subgroup C1      NOp   1
                         Standard orientation:                         
 ---------------------------------------------------------------------
 Center     Atomic      Atomic             Coordinates (Angstroms)
 Number     Number       Type             X           Y           Z
 ---------------------------------------------------------------------
      1          6           0       -2.594540   -1.228889    1.339769
      2          6           0       -1.342271   -2.820400    0.198419
      3          6           0       -2.139222   -3.855609    0.660089
      4          6           0       -3.205042   -3.549408    1.498989
      5          6           0       -3.425201   -2.227678    1.851079
      6          6           0       -2.773999    0.200961    1.658219
      7          6           0       -1.928658    2.347361    1.441119
      8          6           0       -2.980268    2.890462    2.165099
      9          6           0       -3.963548    2.037832    2.649119
     10          6           0       -3.852929    0.678182    2.404679
     11          1           0       -0.466161   -3.001850   -0.425291
     12          1           0       -3.852012   -4.333438    1.887149
     13          1           0       -4.240091   -1.976178    2.524499
     14          1           0       -1.106818    2.956880    1.064489
     15          1           0       -4.809868    2.424803    3.212459
     16          1           0       -4.613670   -0.001387    2.780369
     17          7           0       -1.577001   -1.538569    0.508569
     18          7           0       -1.832529    1.039691    1.179089
     19         77           0       -0.265810    0.091680   -0.188511
     20          8           0        1.692079   -2.095411   -0.979761
     21          8           0        2.358770   -0.219792    1.517019
     22          8           0        2.329061    1.605108   -0.979661
     23          5           0        1.013980   -0.523191    1.348099
     24          5           0        1.010800   -0.934561   -1.366181
     25          5           0        1.189611    1.549819   -0.195961
     26          8           0        1.081152    2.707129    0.577229
     27          8           0        1.270760   -0.656951   -2.701111
     28          6           0        2.045929   -1.730712   -3.244151
     29          6           0        2.700269   -2.339822   -1.973201
     30          6           0        3.110152    2.735918   -0.575021
     31          6           0        2.036353    3.656618    0.076269
     32          6           0        2.770730   -0.712782    2.798739
     33          6           0        1.759449   -1.865551    3.040289
     34          8           0        0.590650   -1.382021    2.359869
     35          6           0        2.982918   -3.825982   -2.042781
     36          1           0        3.691438   -4.052633   -2.852581
     37          1           0        3.431278   -4.162693   -1.098441
     38          1           0        2.068008   -4.406882   -2.207701
     39          6           0        3.945569   -1.582753   -1.526641
     40          1           0        4.797009   -1.757743   -2.198611
     41          1           0        3.743720   -0.504533   -1.463041
     42          1           0        4.221589   -1.925283   -0.519941
     43          6           0        1.072799   -2.683561   -3.927481
     44          1           0        0.366148   -3.111221   -3.201981
     45          1           0        0.491839   -2.119721   -4.668391
     46          1           0        1.586988   -3.505541   -4.444061
     47          6           0        3.024970   -1.167672   -4.254701
     48          1           0        3.604660   -0.343633   -3.823881
     49          1           0        3.717859   -1.944343   -4.610091
     50          1           0        2.479250   -0.776282   -5.122921
     51          6           0        4.223150   -1.137483    2.722019
     52          1           0        4.389059   -1.859733    1.914769
     53          1           0        4.857330   -0.262623    2.526069
     54          1           0        4.550889   -1.589133    3.669809
     55          6           0        2.610421    0.433228    3.791639
     56          1           0        2.965441    0.163368    4.795599
     57          1           0        3.196821    1.293808    3.442609
     58          1           0        1.561631    0.750999    3.859719
     59          6           0        2.160818   -3.167042    2.356239
     60          1           0        2.389209   -2.997862    1.294659
     61          1           0        3.021808   -3.643032    2.845459
     62          1           0        1.311238   -3.861561    2.407409
     63          6           0        1.418849   -2.123881    4.493889
     64          1           0        2.315879   -2.413622    5.060429
     65          1           0        0.973950   -1.242791    4.969379
     66          1           0        0.695019   -2.946201    4.564069
     67          6           0        2.535233    4.509228    1.224869
     68          1           0        3.335514    5.185948    0.892269
     69          1           0        1.714444    5.123939    1.617139
     70          1           0        2.916003    3.891598    2.046029
     71          6           0        1.303803    4.525489   -0.938981
     72          1           0        0.938533    3.924489   -1.783531
     73          1           0        0.434264    4.985929   -0.450041
     74          1           0        1.940194    5.329578   -1.332151
     75          6           0        3.793413    3.312457   -1.799851
     76          1           0        4.515112    2.582007   -2.189321
     77          1           0        3.078493    3.533118   -2.599901
     78          1           0        4.342193    4.232227   -1.550211
     79          6           0        4.159142    2.249117    0.414989
     80          1           0        4.854962    3.051127    0.697159
     81          1           0        3.685752    1.837917    1.312589
     82          1           0        4.733641    1.436257   -0.049761
     83          1           0       -0.321409    1.148430   -1.440031
     84          6           0       -4.007819    1.014582   -1.412721
     85          8           0       -4.797018    1.886333   -1.061811
     86          6           0       -4.455070   -0.445868   -1.469521
     87          6           0       -4.765010   -0.797757   -2.926041
     88          1           0       -3.656130   -1.111148   -1.108911
     89          6           0       -1.661289    0.382931   -2.057091
     90          1           0       -2.010940   -0.651779   -2.090861
     91          1           0       -1.172929    0.572560   -3.022041
     92          7           0       -2.748569    1.313811   -1.868491
     93          6           0       -2.377248    2.706531   -1.991171
     94          1           0       -1.980148    2.900661   -2.998411
     95          1           0       -3.258247    3.325902   -1.810931
     96          1           0       -1.590518    2.964721   -1.263271
     97          6           0       -5.685770   -0.653577   -0.602251
     98          1           0       -3.022597    3.962392    2.339519
     99          1           0       -1.918123   -4.879959    0.371599
    100          1           0       -5.985241   -1.710647   -0.614461
    101          1           0       -6.520380   -0.043526   -0.967221
    102          1           0       -5.501510   -0.353887    0.437719
    103          1           0       -5.148861   -1.823757   -3.003511
    104          1           0       -3.882800   -0.711538   -3.572621
    105          1           0       -5.536780   -0.118677   -3.315281
 ---------------------------------------------------------------------
 Rotational constants (GHZ):           0.0802806           0.0598253           0.0573346
 General basis read from cards:  (5D, 7F)
 ======================================================================================================
                                       Pseudopotential Parameters
 ======================================================================================================
  Center     Atomic      Valence      Angular      Power
  Number     Number     Electrons     Momentum     of R      Exponent        Coefficient   SO-Coeffient
 ======================================================================================================
    1          6
                                   No pseudopotential on this center.
    2          6
                                   No pseudopotential on this center.
    3          6
                                   No pseudopotential on this center.
    4          6
                                   No pseudopotential on this center.
    5          6
                                   No pseudopotential on this center.
    6          6
                                   No pseudopotential on this center.
    7          6
                                   No pseudopotential on this center.
    8          6
                                   No pseudopotential on this center.
    9          6
                                   No pseudopotential on this center.
   10          6
                                   No pseudopotential on this center.
   11          1
                                   No pseudopotential on this center.
   12          1
                                   No pseudopotential on this center.
   13          1
                                   No pseudopotential on this center.
   14          1
                                   No pseudopotential on this center.
   15          1
                                   No pseudopotential on this center.
   16          1
                                   No pseudopotential on this center.
   17          7
                                   No pseudopotential on this center.
   18          7
                                   No pseudopotential on this center.
   19         77           17
                                      G and up 
                                                     1      823.5880147       -0.15780140    0.00000000
                                                     2      364.6613336    -1517.52704460    0.00000000
                                                     2       55.7082801     -316.53065290    0.00000000
                                                     2       12.0464544      -91.88809410    0.00000000
                                                     2        3.5120610       -9.22417730    0.00000000
                                      S - G
                                                     0      188.0490770        3.15780140    0.00000000
                                                     1      340.4194712       26.83225770    0.00000000
                                                     2      128.2373673      800.42500070    0.00000000
                                                     2       33.8644961      369.40506830    0.00000000
                                                     2        4.7560005      242.41718990    0.00000000
                                                     2        3.9649974     -118.21732820    0.00000000
                                      P - G
                                                     0      289.7291139        2.15780140    0.00000000
                                                     1       87.4633789       61.96786100    0.00000000
                                                     2       30.4363766      269.05819860    0.00000000
                                                     2        4.0553412      231.16547930    0.00000000
                                                     2        3.5525341     -133.69526670    0.00000000
                                      D - G
                                                     0      136.4017106        3.15780140    0.00000000
                                                     1       95.0776925       45.93498030    0.00000000
                                                     2       49.2258410      359.03446680    0.00000000
                                                     2       15.0874145      176.47401190    0.00000000
                                                     2        4.0405764       54.51552860    0.00000000
                                      F - G
                                                     0      127.3507908        3.95461970    0.00000000
                                                     1       66.2364374       52.97736550    0.00000000
                                                     2       34.4299229      274.86433830    0.00000000
                                                     2       10.1995721      137.20473380    0.00000000
                                                     2        2.5409702       14.86333050    0.00000000
   20          8
                                   No pseudopotential on this center.
   21          8
                                   No pseudopotential on this center.
   22          8
                                   No pseudopotential on this center.
   23          5
                                   No pseudopotential on this center.
   24          5
                                   No pseudopotential on this center.
   25          5
                                   No pseudopotential on this center.
   26          8
                                   No pseudopotential on this center.
   27          8
                                   No pseudopotential on this center.
   28          6
                                   No pseudopotential on this center.
   29          6
                                   No pseudopotential on this center.
   30          6
                                   No pseudopotential on this center.
   31          6
                                   No pseudopotential on this center.
   32          6
                                   No pseudopotential on this center.
   33          6
                                   No pseudopotential on this center.
   34          8
                                   No pseudopotential on this center.
   35          6
                                   No pseudopotential on this center.
   36          1
                                   No pseudopotential on this center.
   37          1
                                   No pseudopotential on this center.
   38          1
                                   No pseudopotential on this center.
   39          6
                                   No pseudopotential on this center.
   40          1
                                   No pseudopotential on this center.
   41          1
                                   No pseudopotential on this center.
   42          1
                                   No pseudopotential on this center.
   43          6
                                   No pseudopotential on this center.
   44          1
                                   No pseudopotential on this center.
   45          1
                                   No pseudopotential on this center.
   46          1
                                   No pseudopotential on this center.
   47          6
                                   No pseudopotential on this center.
   48          1
                                   No pseudopotential on this center.
   49          1
                                   No pseudopotential on this center.
   50          1
                                   No pseudopotential on this center.
   51          6
                                   No pseudopotential on this center.
   52          1
                                   No pseudopotential on this center.
   53          1
                                   No pseudopotential on this center.
   54          1
                                   No pseudopotential on this center.
   55          6
                                   No pseudopotential on this center.
   56          1
                                   No pseudopotential on this center.
   57          1
                                   No pseudopotential on this center.
   58          1
                                   No pseudopotential on this center.
   59          6
                                   No pseudopotential on this center.
   60          1
                                   No pseudopotential on this center.
   61          1
                                   No pseudopotential on this center.
   62          1
                                   No pseudopotential on this center.
   63          6
                                   No pseudopotential on this center.
   64          1
                                   No pseudopotential on this center.
   65          1
                                   No pseudopotential on this center.
   66          1
                                   No pseudopotential on this center.
   67          6
                                   No pseudopotential on this center.
   68          1
                                   No pseudopotential on this center.
   69          1
                                   No pseudopotential on this center.
   70          1
                                   No pseudopotential on this center.
   71          6
                                   No pseudopotential on this center.
   72          1
                                   No pseudopotential on this center.
   73          1
                                   No pseudopotential on this center.
   74          1
                                   No pseudopotential on this center.
   75          6
                                   No pseudopotential on this center.
   76          1
                                   No pseudopotential on this center.
   77          1
                                   No pseudopotential on this center.
   78          1
                                   No pseudopotential on this center.
   79          6
                                   No pseudopotential on this center.
   80          1
                                   No pseudopotential on this center.
   81          1
                                   No pseudopotential on this center.
   82          1
                                   No pseudopotential on this center.
   83          1
                                   No pseudopotential on this center.
   84          6
                                   No pseudopotential on this center.
   85          8
                                   No pseudopotential on this center.
   86          6
                                   No pseudopotential on this center.
   87          6
                                   No pseudopotential on this center.
   88          1
                                   No pseudopotential on this center.
   89          6
                                   No pseudopotential on this center.
   90          1
                                   No pseudopotential on this center.
   91          1
                                   No pseudopotential on this center.
   92          7
                                   No pseudopotential on this center.
   93          6
                                   No pseudopotential on this center.
   94          1
                                   No pseudopotential on this center.
   95          1
                                   No pseudopotential on this center.
   96          1
                                   No pseudopotential on this center.
   97          6
                                   No pseudopotential on this center.
   98          1
                                   No pseudopotential on this center.
   99          1
                                   No pseudopotential on this center.
  100          1
                                   No pseudopotential on this center.
  101          1
                                   No pseudopotential on this center.
  102          1
                                   No pseudopotential on this center.
  103          1
                                   No pseudopotential on this center.
  104          1
                                   No pseudopotential on this center.
  105          1
                                   No pseudopotential on this center.
 ======================================================================================================
 There are   843 symmetry adapted cartesian basis functions of A   symmetry.
 There are   794 symmetry adapted basis functions of A   symmetry.
   794 basis functions,  1587 primitive gaussians,   843 cartesian basis functions
   185 alpha electrons      185 beta electrons
       nuclear repulsion energy      7750.5869160101 Hartrees.
 NAtoms=  105 NActive=  105 NUniq=  105 SFac= 1.00D+00 NAtFMM=   60 NAOKFM=T Big=T
 Integral buffers will be    131072 words long.
 Raffenetti 2 integral format.
 Two-electron integral symmetry is turned on.
 One-electron integrals computed using PRISM.
   1 Symmetry operations used in ECPInt.
 ECPInt:  NShTT=   48205 NPrTT=  290969 LenC2=   38376 LenP2D=  119343.
 LDataN:  DoStor=T MaxTD1= 6 Len=  172
 NBasis=   794 RedAO= T EigKep=  5.26D-04  NBF=   794
 NBsUse=   794 1.00D-06 EigRej= -1.00D+00 NBFU=   794
 Defaulting to unpruned grid for atomic number  77.
 ExpMin= 2.90D-02 ExpMax= 5.48D+03 ExpMxC= 8.25D+02 IAcc=3 IRadAn=         5 AccDes= 0.00D+00
 Harris functional with IExCor= 1009 and IRadAn=       5 diagonalized for initial guess.
 HarFok:  IExCor= 1009 AccDes= 0.00D+00 IRadAn=         5 IDoV= 1 UseB2=F ITyADJ=14
 ICtDFT=  3500011 ScaDFX=  1.000000  1.000000  1.000000  1.000000
 Defaulting to unpruned grid for atomic number  77.
 FoFCou: FMM=F IPFlag=           0 FMFlag=      100000 FMFlg1=        2001
         NFxFlg=           0 DoJE=T BraDBF=F KetDBF=T FulRan=T
         wScrn=  0.000000 ICntrl=       500 IOpCl=  0 I1Cent=   200000004 NGrid=           0
         NMat0=    1 NMatS0=      1 NMatT0=    0 NMatD0=    1 NMtDS0=    0 NMtDT0=    0
 Petite list used in FoFCou.
 Requested convergence on RMS density matrix=1.00D-08 within 128 cycles.
 Requested convergence on MAX density matrix=1.00D-06.
 Requested convergence on             energy=1.00D-06.
 No special actions if energy rises.
 Defaulting to unpruned grid for atomic number  77.
 Defaulting to unpruned grid for atomic number  77.
 Defaulting to unpruned grid for atomic number  77.
 Defaulting to unpruned grid for atomic number  77.
 Defaulting to unpruned grid for atomic number  77.
 Defaulting to unpruned grid for atomic number  77.
 Defaulting to unpruned grid for atomic number  77.
 Defaulting to unpruned grid for atomic number  77.
 Defaulting to unpruned grid for atomic number  77.
 Defaulting to unpruned grid for atomic number  77.
 Defaulting to unpruned grid for atomic number  77.
 Defaulting to unpruned grid for atomic number  77.
 Defaulting to unpruned grid for atomic number  77.
 Defaulting to unpruned grid for atomic number  77.
 Defaulting to unpruned grid for atomic number  77.
 Defaulting to unpruned grid for atomic number  77.
 SCF Done:  E(RM06) =  -2198.94450035     A.U. after   15 cycles
            NFock= 15  Conv=0.63D-08     -V/T= 2.0403
 DoSCS=F DFT=T ScalE2(SS,OS)=  1.000000  1.000000
 Range of M.O.s used for correlation:     1   794
 NBasis=   794 NAE=   185 NBE=   185 NFC=     0 NFV=     0
 NROrb=    794 NOA=   185 NOB=   185 NVA=   609 NVB=   609

 **** Warning!!: The largest alpha MO coefficient is  0.13798856D+02

   1 Symmetry operations used in ECPInt.
 ECPInt:  NShTT=   48205 NPrTT=  290969 LenC2=   38376 LenP2D=  119343.
 LDataN:  DoStor=T MaxTD1= 7 Len=  274
 Number of processors reduced to   8 by ecpmxn.
 Symmetrizing basis deriv contribution to polar:
 IMax=3 JMax=2 DiffMx= 0.00D+00
 G2DrvN: will do   106 centers at a time, making    1 passes.
 Calling FoFCou, ICntrl=  3107 FMM=T I1Cent=   0 AccDes= 0.00D+00.
 Defaulting to unpruned grid for atomic number  77.
 Defaulting to unpruned grid for atomic number  77.
 Defaulting to unpruned grid for atomic number  77.
 Defaulting to unpruned grid for atomic number  77.
 Defaulting to unpruned grid for atomic number  77.
 Defaulting to unpruned grid for atomic number  77.
 Defaulting to unpruned grid for atomic number  77.
 Defaulting to unpruned grid for atomic number  77.
 Defaulting to unpruned grid for atomic number  77.
 Defaulting to unpruned grid for atomic number  77.
 Defaulting to unpruned grid for atomic number  77.
 Defaulting to unpruned grid for atomic number  77.
 Defaulting to unpruned grid for atomic number  77.
 Defaulting to unpruned grid for atomic number  77.
 Defaulting to unpruned grid for atomic number  77.
 Defaulting to unpruned grid for atomic number  77.
 End of G2Drv F.D. properties file   721 does not exist.
 End of G2Drv F.D. properties file   722 does not exist.
 End of G2Drv F.D. properties file   788 does not exist.
          IDoAtm=11111111111111111111111111111111111111111111111111
          IDoAtm=11111111111111111111111111111111111111111111111111
          IDoAtm=11111
          Differentiating once with respect to electric field.
                with respect to dipole field.
          Differentiating once with respect to nuclear coordinates.
 Defaulting to unpruned grid for atomic number  77.
 CalDSu exits because no D1Ps are significant.
 Defaulting to unpruned grid for atomic number  77.
 Defaulting to unpruned grid for atomic number  77.
 Defaulting to unpruned grid for atomic number  77.
 Defaulting to unpruned grid for atomic number  77.
 Defaulting to unpruned grid for atomic number  77.
 Defaulting to unpruned grid for atomic number  77.
 Defaulting to unpruned grid for atomic number  77.
 Defaulting to unpruned grid for atomic number  77.
 Defaulting to unpruned grid for atomic number  77.
 Defaulting to unpruned grid for atomic number  77.
 Defaulting to unpruned grid for atomic number  77.
 Defaulting to unpruned grid for atomic number  77.
 Defaulting to unpruned grid for atomic number  77.
 Defaulting to unpruned grid for atomic number  77.
 Defaulting to unpruned grid for atomic number  77.
 Defaulting to unpruned grid for atomic number  77.
          There are   318 degrees of freedom in the 1st order CPHF.  IDoFFX=6 NUNeed=     3.
    315 vectors produced by pass  0 Test12= 1.13D-13 1.00D-09 XBig12= 4.84D+02 9.60D+00.
 AX will form    72 AO Fock derivatives at one time.
    315 vectors produced by pass  1 Test12= 1.13D-13 1.00D-09 XBig12= 6.50D+01 9.29D-01.
    315 vectors produced by pass  2 Test12= 1.13D-13 1.00D-09 XBig12= 7.15D-01 8.52D-02.
    315 vectors produced by pass  3 Test12= 1.13D-13 1.00D-09 XBig12= 4.27D-03 5.21D-03.
    315 vectors produced by pass  4 Test12= 1.13D-13 1.00D-09 XBig12= 1.29D-05 3.58D-04.
    275 vectors produced by pass  5 Test12= 1.13D-13 1.00D-09 XBig12= 2.14D-08 1.20D-05.
     68 vectors produced by pass  6 Test12= 1.13D-13 1.00D-09 XBig12= 2.96D-11 3.63D-07.
      3 vectors produced by pass  7 Test12= 1.13D-13 1.00D-09 XBig12= 4.09D-14 1.32D-08.
 InvSVY:  IOpt=1 It=  1 EMax= 7.11D-15
 Solved reduced A of dimension  1921 with   318 vectors.
 Isotropic polarizability for W=    0.000000      471.79 Bohr**3.
 End of Minotr F.D. properties file   721 does not exist.
 End of Minotr F.D. properties file   722 does not exist.
 End of Minotr F.D. properties file   788 does not exist.
 Hyperfine terms turned off by default for NAtoms > 100.

 **********************************************************************

            Population analysis using the SCF Density.

 **********************************************************************

 Orbital symmetries:
       Occupied  (A) (A) (A) (A) (A) (A) (A) (A) (A) (A) (A) (A)
                 (A) (A) (A) (A) (A) (A) (A) (A) (A) (A) (A) (A)
                 (A) (A) (A) (A) (A) (A) (A) (A) (A) (A) (A) (A)
                 (A) (A) (A) (A) (A) (A) (A) (A) (A) (A) (A) (A)
                 (A) (A) (A) (A) (A) (A) (A) (A) (A) (A) (A) (A)
                 (A) (A) (A) (A) (A) (A) (A) (A) (A) (A) (A) (A)
                 (A) (A) (A) (A) (A) (A) (A) (A) (A) (A) (A) (A)
                 (A) (A) (A) (A) (A) (A) (A) (A) (A) (A) (A) (A)
                 (A) (A) (A) (A) (A) (A) (A) (A) (A) (A) (A) (A)
                 (A) (A) (A) (A) (A) (A) (A) (A) (A) (A) (A) (A)
                 (A) (A) (A) (A) (A) (A) (A) (A) (A) (A) (A) (A)
                 (A) (A) (A) (A) (A) (A) (A) (A) (A) (A) (A) (A)
                 (A) (A) (A) (A) (A) (A) (A) (A) (A) (A) (A) (A)
                 (A) (A) (A) (A) (A) (A) (A) (A) (A) (A) (A) (A)
                 (A) (A) (A) (A) (A) (A) (A) (A) (A) (A) (A) (A)
                 (A) (A) (A) (A) (A)
       Virtual   (A) (A) (A) (A) (A) (A) (A) (A) (A) (A) (A) (A)
                 (A) (A) (A) (A) (A) (A) (A) (A) (A) (A) (A) (A)
                 (A) (A) (A) (A) (A) (A) (A) (A) (A) (A) (A) (A)
                 (A) (A) (A) (A) (A) (A) (A) (A) (A) (A) (A) (A)
                 (A) (A) (A) (A) (A) (A) (A) (A) (A) (A) (A) (A)
                 (A) (A) (A) (A) (A) (A) (A) (A) (A) (A) (A) (A)
                 (A) (A) (A) (A) (A) (A) (A) (A) (A) (A) (A) (A)
                 (A) (A) (A) (A) (A) (A) (A) (A) (A) (A) (A) (A)
                 (A) (A) (A) (A) (A) (A) (A) (A) (A) (A) (A) (A)
                 (A) (A) (A) (A) (A) (A) (A) (A) (A) (A) (A) (A)
                 (A) (A) (A) (A) (A) (A) (A) (A) (A) (A) (A) (A)
                 (A) (A) (A) (A) (A) (A) (A) (A) (A) (A) (A) (A)
                 (A) (A) (A) (A) (A) (A) (A) (A) (A) (A) (A) (A)
                 (A) (A) (A) (A) (A) (A) (A) (A) (A) (A) (A) (A)
                 (A) (A) (A) (A) (A) (A) (A) (A) (A) (A) (A) (A)
                 (A) (A) (A) (A) (A) (A) (A) (A) (A) (A) (A) (A)
                 (A) (A) (A) (A) (A) (A) (A) (A) (A) (A) (A) (A)
                 (A) (A) (A) (A) (A) (A) (A) (A) (A) (A) (A) (A)
                 (A) (A) (A) (A) (A) (A) (A) (A) (A) (A) (A) (A)
                 (A) (A) (A) (A) (A) (A) (A) (A) (A) (A) (A) (A)
                 (A) (A) (A) (A) (A) (A) (A) (A) (A) (A) (A) (A)
                 (A) (A) (A) (A) (A) (A) (A) (A) (A) (A) (A) (A)
                 (A) (A) (A) (A) (A) (A) (A) (A) (A) (A) (A) (A)
                 (A) (A) (A) (A) (A) (A) (A) (A) (A) (A) (A) (A)
                 (A) (A) (A) (A) (A) (A) (A) (A) (A) (A) (A) (A)
                 (A) (A) (A) (A) (A) (A) (A) (A) (A) (A) (A) (A)
                 (A) (A) (A) (A) (A) (A) (A) (A) (A) (A) (A) (A)
                 (A) (A) (A) (A) (A) (A) (A) (A) (A) (A) (A) (A)
                 (A) (A) (A) (A) (A) (A) (A) (A) (A) (A) (A) (A)
                 (A) (A) (A) (A) (A) (A) (A) (A) (A) (A) (A) (A)
                 (A) (A) (A) (A) (A) (A) (A) (A) (A) (A) (A) (A)
                 (A) (A) (A) (A) (A) (A) (A) (A) (A) (A) (A) (A)
                 (A) (A) (A) (A) (A) (A) (A) (A) (A) (A) (A) (A)
                 (A) (A) (A) (A) (A) (A) (A) (A) (A) (A) (A) (A)
                 (A) (A) (A) (A) (A) (A) (A) (A) (A) (A) (A) (A)
                 (A) (A) (A) (A) (A) (A) (A) (A) (A) (A) (A) (A)
                 (A) (A) (A) (A) (A) (A) (A) (A) (A) (A) (A) (A)
                 (A) (A) (A) (A) (A) (A) (A) (A) (A) (A) (A) (A)
                 (A) (A) (A) (A) (A) (A) (A) (A) (A) (A) (A) (A)
                 (A) (A) (A) (A) (A) (A) (A) (A) (A) (A) (A) (A)
                 (A) (A) (A) (A) (A) (A) (A) (A) (A) (A) (A) (A)
                 (A) (A) (A) (A) (A) (A) (A) (A) (A) (A) (A) (A)
                 (A) (A) (A) (A) (A) (A) (A) (A) (A) (A) (A) (A)
                 (A) (A) (A) (A) (A) (A) (A) (A) (A) (A) (A) (A)
                 (A) (A) (A) (A) (A) (A) (A) (A) (A) (A) (A) (A)
                 (A) (A) (A) (A) (A) (A) (A) (A) (A) (A) (A) (A)
                 (A) (A) (A) (A) (A) (A) (A) (A) (A) (A) (A) (A)
                 (A) (A) (A) (A) (A) (A) (A) (A) (A) (A) (A) (A)
                 (A) (A) (A) (A) (A) (A) (A) (A) (A) (A) (A) (A)
                 (A) (A) (A) (A) (A) (A) (A) (A) (A) (A) (A) (A)
                 (A) (A) (A) (A) (A) (A) (A) (A) (A)
 The electronic state is 1-A.
 Alpha  occ. eigenvalues --  -19.20265 -19.19936 -19.19845 -19.19738 -19.19733
 Alpha  occ. eigenvalues --  -19.19408 -19.17158 -14.45103 -14.44051 -14.41164
 Alpha  occ. eigenvalues --  -10.32713 -10.31993 -10.31528 -10.30384 -10.29503
 Alpha  occ. eigenvalues --  -10.29348 -10.28985 -10.28950 -10.28913 -10.28892
 Alpha  occ. eigenvalues --  -10.28872 -10.28824 -10.28234 -10.28203 -10.27766
 Alpha  occ. eigenvalues --  -10.27765 -10.27077 -10.26362 -10.25155 -10.24678
 Alpha  occ. eigenvalues --  -10.23138 -10.22794 -10.22738 -10.22704 -10.22659
 Alpha  occ. eigenvalues --  -10.22553 -10.22436 -10.22406 -10.22402 -10.22277
 Alpha  occ. eigenvalues --  -10.22219 -10.21789 -10.21498 -10.21394  -6.80432
 Alpha  occ. eigenvalues --   -6.79164  -6.78780  -3.63215  -2.05830  -2.05168
 Alpha  occ. eigenvalues --   -2.04384  -1.06065  -1.05780  -1.05661  -1.03042
 Alpha  occ. eigenvalues --   -0.99772  -0.99089  -0.98792  -0.98697  -0.97137
 Alpha  occ. eigenvalues --   -0.92604  -0.84153  -0.83090  -0.82540  -0.80258
 Alpha  occ. eigenvalues --   -0.80106  -0.80061  -0.79919  -0.77096  -0.74681
 Alpha  occ. eigenvalues --   -0.74559  -0.74429  -0.70407  -0.70237  -0.70116
 Alpha  occ. eigenvalues --   -0.69997  -0.68692  -0.68536  -0.67742  -0.67602
 Alpha  occ. eigenvalues --   -0.67422  -0.67376  -0.67273  -0.64235  -0.63249
 Alpha  occ. eigenvalues --   -0.61718  -0.61100  -0.61000  -0.60277  -0.57375
 Alpha  occ. eigenvalues --   -0.54561  -0.54395  -0.54103  -0.53583  -0.53110
 Alpha  occ. eigenvalues --   -0.52976  -0.52874  -0.52744  -0.51964  -0.50643
 Alpha  occ. eigenvalues --   -0.50387  -0.49445  -0.47794  -0.47466  -0.47053
 Alpha  occ. eigenvalues --   -0.46903  -0.46577  -0.46306  -0.46027  -0.45891
 Alpha  occ. eigenvalues --   -0.45846  -0.45680  -0.45296  -0.44988  -0.44305
 Alpha  occ. eigenvalues --   -0.44112  -0.43996  -0.43868  -0.43644  -0.43420
 Alpha  occ. eigenvalues --   -0.43106  -0.43058  -0.42156  -0.41806  -0.41732
 Alpha  occ. eigenvalues --   -0.40542  -0.40242  -0.40065  -0.39949  -0.39866
 Alpha  occ. eigenvalues --   -0.39790  -0.39754  -0.39573  -0.39425  -0.39255
 Alpha  occ. eigenvalues --   -0.39065  -0.39013  -0.38802  -0.38609  -0.38468
 Alpha  occ. eigenvalues --   -0.38305  -0.37542  -0.37392  -0.37247  -0.37123
 Alpha  occ. eigenvalues --   -0.37051  -0.36493  -0.36307  -0.36186  -0.36113
 Alpha  occ. eigenvalues --   -0.35890  -0.35649  -0.35573  -0.35499  -0.35175
 Alpha  occ. eigenvalues --   -0.34924  -0.34656  -0.34520  -0.34476  -0.34007
 Alpha  occ. eigenvalues --   -0.33494  -0.33048  -0.32585  -0.32527  -0.31977
 Alpha  occ. eigenvalues --   -0.31653  -0.31377  -0.31264  -0.31167  -0.30659
 Alpha  occ. eigenvalues --   -0.30037  -0.29739  -0.29593  -0.27749  -0.27042
 Alpha  occ. eigenvalues --   -0.26484  -0.26385  -0.26207  -0.25804  -0.25561
 Alpha  occ. eigenvalues --   -0.24829  -0.24042  -0.22779  -0.22319  -0.18557
 Alpha virt. eigenvalues --   -0.06738  -0.03712  -0.02601   0.01879   0.02410
 Alpha virt. eigenvalues --    0.03518   0.04722   0.05701   0.06915   0.07187
 Alpha virt. eigenvalues --    0.07976   0.08923   0.09717   0.09846   0.10279
 Alpha virt. eigenvalues --    0.10988   0.11052   0.11510   0.11699   0.12004
 Alpha virt. eigenvalues --    0.12360   0.12692   0.13083   0.13513   0.13646
 Alpha virt. eigenvalues --    0.13694   0.14191   0.14233   0.14893   0.15041
 Alpha virt. eigenvalues --    0.15370   0.15606   0.15646   0.15813   0.15931
 Alpha virt. eigenvalues --    0.16087   0.16240   0.16344   0.16547   0.16702
 Alpha virt. eigenvalues --    0.16747   0.17039   0.17314   0.17714   0.17942
 Alpha virt. eigenvalues --    0.18038   0.18216   0.18323   0.18613   0.18861
 Alpha virt. eigenvalues --    0.19056   0.19208   0.19450   0.19619   0.19689
 Alpha virt. eigenvalues --    0.19799   0.20119   0.20444   0.20611   0.20632
 Alpha virt. eigenvalues --    0.20828   0.21089   0.21253   0.21364   0.21892
 Alpha virt. eigenvalues --    0.22070   0.22273   0.22549   0.22754   0.23013
 Alpha virt. eigenvalues --    0.23147   0.23259   0.23409   0.24009   0.24446
 Alpha virt. eigenvalues --    0.24519   0.24654   0.24791   0.24865   0.25270
 Alpha virt. eigenvalues --    0.25620   0.25919   0.26105   0.26164   0.26494
 Alpha virt. eigenvalues --    0.27036   0.27163   0.27296   0.27496   0.27831
 Alpha virt. eigenvalues --    0.28292   0.28575   0.28703   0.29275   0.29548
 Alpha virt. eigenvalues --    0.29755   0.30055   0.30653   0.31242   0.31335
 Alpha virt. eigenvalues --    0.31844   0.32039   0.32728   0.33073   0.33738
 Alpha virt. eigenvalues --    0.34623   0.35555   0.36326   0.36981   0.37534
 Alpha virt. eigenvalues --    0.38534   0.38753   0.38784   0.40107   0.41175
 Alpha virt. eigenvalues --    0.42808   0.43641   0.44930   0.45192   0.47026
 Alpha virt. eigenvalues --    0.47188   0.48126   0.48952   0.49379   0.49936
 Alpha virt. eigenvalues --    0.50272   0.50716   0.51302   0.51450   0.51603
 Alpha virt. eigenvalues --    0.51817   0.52065   0.52555   0.53414   0.53744
 Alpha virt. eigenvalues --    0.54379   0.54640   0.54838   0.55585   0.55886
 Alpha virt. eigenvalues --    0.56405   0.56624   0.56938   0.57103   0.57424
 Alpha virt. eigenvalues --    0.57894   0.58286   0.58379   0.58610   0.58621
 Alpha virt. eigenvalues --    0.58708   0.58845   0.59354   0.59442   0.59734
 Alpha virt. eigenvalues --    0.60122   0.60274   0.60369   0.60613   0.60896
 Alpha virt. eigenvalues --    0.61267   0.61467   0.61993   0.62306   0.62502
 Alpha virt. eigenvalues --    0.63070   0.63533   0.63652   0.64270   0.64680
 Alpha virt. eigenvalues --    0.65152   0.65658   0.66010   0.66121   0.66584
 Alpha virt. eigenvalues --    0.67133   0.67374   0.67825   0.68248   0.68489
 Alpha virt. eigenvalues --    0.68726   0.69269   0.69856   0.69957   0.70435
 Alpha virt. eigenvalues --    0.70778   0.71395   0.71496   0.71788   0.72283
 Alpha virt. eigenvalues --    0.72569   0.72713   0.73165   0.73526   0.73575
 Alpha virt. eigenvalues --    0.73843   0.74483   0.74517   0.74624   0.74960
 Alpha virt. eigenvalues --    0.75720   0.75880   0.76310   0.77019   0.77593
 Alpha virt. eigenvalues --    0.77854   0.78046   0.78223   0.78764   0.79242
 Alpha virt. eigenvalues --    0.80141   0.80210   0.80551   0.80914   0.81340
 Alpha virt. eigenvalues --    0.81630   0.81813   0.82242   0.82949   0.83105
 Alpha virt. eigenvalues --    0.83517   0.83632   0.83841   0.84243   0.84301
 Alpha virt. eigenvalues --    0.84571   0.84902   0.85161   0.85575   0.85779
 Alpha virt. eigenvalues --    0.86032   0.86187   0.86270   0.86683   0.87018
 Alpha virt. eigenvalues --    0.87184   0.87361   0.87814   0.88085   0.88294
 Alpha virt. eigenvalues --    0.88369   0.88577   0.88968   0.89183   0.89620
 Alpha virt. eigenvalues --    0.89856   0.89886   0.89968   0.90124   0.90721
 Alpha virt. eigenvalues --    0.91226   0.91329   0.91434   0.91606   0.91729
 Alpha virt. eigenvalues --    0.91862   0.92624   0.92903   0.93199   0.93317
 Alpha virt. eigenvalues --    0.93722   0.93826   0.93992   0.94284   0.94725
 Alpha virt. eigenvalues --    0.95071   0.95245   0.95489   0.95746   0.96203
 Alpha virt. eigenvalues --    0.96475   0.96913   0.97354   0.97797   0.97973
 Alpha virt. eigenvalues --    0.98232   0.98569   0.98842   0.99352   0.99682
 Alpha virt. eigenvalues --    1.00285   1.00393   1.00758   1.01080   1.02117
 Alpha virt. eigenvalues --    1.02362   1.02572   1.03515   1.03940   1.04198
 Alpha virt. eigenvalues --    1.05020   1.05425   1.05785   1.06309   1.06593
 Alpha virt. eigenvalues --    1.07491   1.08252   1.08821   1.09484   1.10080
 Alpha virt. eigenvalues --    1.10631   1.11630   1.12400   1.13259   1.13961
 Alpha virt. eigenvalues --    1.14803   1.15712   1.16204   1.16292   1.17008
 Alpha virt. eigenvalues --    1.17452   1.17809   1.18679   1.18972   1.19467
 Alpha virt. eigenvalues --    1.20175   1.20445   1.20852   1.21592   1.22116
 Alpha virt. eigenvalues --    1.22393   1.23439   1.23975   1.24342   1.25352
 Alpha virt. eigenvalues --    1.26220   1.26834   1.27200   1.28254   1.28559
 Alpha virt. eigenvalues --    1.29103   1.29715   1.30458   1.31655   1.32645
 Alpha virt. eigenvalues --    1.33178   1.33425   1.34519   1.34605   1.36176
 Alpha virt. eigenvalues --    1.36647   1.37881   1.38307   1.39368   1.39659
 Alpha virt. eigenvalues --    1.40573   1.40877   1.41494   1.41896   1.42770
 Alpha virt. eigenvalues --    1.43167   1.43750   1.44404   1.44872   1.45361
 Alpha virt. eigenvalues --    1.45557   1.46293   1.46456   1.46902   1.47016
 Alpha virt. eigenvalues --    1.47810   1.48314   1.49011   1.49220   1.49553
 Alpha virt. eigenvalues --    1.51628   1.51859   1.52584   1.53156   1.53539
 Alpha virt. eigenvalues --    1.53757   1.55429   1.56518   1.56846   1.58490
 Alpha virt. eigenvalues --    1.59634   1.59991   1.60920   1.61802   1.62081
 Alpha virt. eigenvalues --    1.63457   1.64025   1.64346   1.65622   1.65960
 Alpha virt. eigenvalues --    1.66382   1.67624   1.68517   1.69090   1.69352
 Alpha virt. eigenvalues --    1.69900   1.70197   1.70619   1.71387   1.72737
 Alpha virt. eigenvalues --    1.72897   1.74153   1.75009   1.76186   1.76423
 Alpha virt. eigenvalues --    1.76776   1.77460   1.78310   1.78457   1.79285
 Alpha virt. eigenvalues --    1.79737   1.80596   1.80885   1.81416   1.81728
 Alpha virt. eigenvalues --    1.82499   1.82814   1.83946   1.84558   1.85071
 Alpha virt. eigenvalues --    1.85357   1.85771   1.85932   1.86380   1.86708
 Alpha virt. eigenvalues --    1.86845   1.87634   1.88013   1.88158   1.88544
 Alpha virt. eigenvalues --    1.90472   1.90596   1.91296   1.91339   1.91811
 Alpha virt. eigenvalues --    1.91970   1.92096   1.92267   1.92407   1.93039
 Alpha virt. eigenvalues --    1.93118   1.93402   1.93780   1.94136   1.94491
 Alpha virt. eigenvalues --    1.95190   1.95398   1.95657   1.96108   1.97011
 Alpha virt. eigenvalues --    1.97459   1.98104   1.98926   1.99411   2.00252
 Alpha virt. eigenvalues --    2.00545   2.01574   2.01951   2.02695   2.03038
 Alpha virt. eigenvalues --    2.03311   2.03685   2.04540   2.05177   2.05369
 Alpha virt. eigenvalues --    2.06196   2.06779   2.07026   2.07290   2.07524
 Alpha virt. eigenvalues --    2.07698   2.08126   2.08145   2.08703   2.09603
 Alpha virt. eigenvalues --    2.09706   2.10231   2.10770   2.11114   2.11968
 Alpha virt. eigenvalues --    2.12473   2.13004   2.13418   2.13727   2.13872
 Alpha virt. eigenvalues --    2.14468   2.14722   2.15140   2.15262   2.16093
 Alpha virt. eigenvalues --    2.16359   2.17049   2.17578   2.18064   2.18078
 Alpha virt. eigenvalues --    2.18659   2.18941   2.19232   2.19397   2.19646
 Alpha virt. eigenvalues --    2.19784   2.20439   2.20694   2.20866   2.21377
 Alpha virt. eigenvalues --    2.22250   2.22384   2.22771   2.23016   2.23150
 Alpha virt. eigenvalues --    2.23857   2.24505   2.25069   2.25559   2.25835
 Alpha virt. eigenvalues --    2.25897   2.26272   2.26882   2.27592   2.27862
 Alpha virt. eigenvalues --    2.28245   2.28480   2.28719   2.29585   2.31504
 Alpha virt. eigenvalues --    2.32095   2.32373   2.32705   2.33248   2.33643
 Alpha virt. eigenvalues --    2.33957   2.34634   2.35445   2.35590   2.36345
 Alpha virt. eigenvalues --    2.37974   2.39413   2.39494   2.39678   2.40467
 Alpha virt. eigenvalues --    2.41219   2.41666   2.44996   2.45267   2.46711
 Alpha virt. eigenvalues --    2.47226   2.47715   2.48822   2.49052   2.49147
 Alpha virt. eigenvalues --    2.49295   2.49905   2.51350   2.52323   2.53041
 Alpha virt. eigenvalues --    2.53651   2.55053   2.56989   2.59766   2.60094
 Alpha virt. eigenvalues --    2.60340   2.60813   2.61173   2.62115   2.63842
 Alpha virt. eigenvalues --    2.64649   2.65056   2.65477   2.66091   2.67050
 Alpha virt. eigenvalues --    2.67939   2.68916   2.70218   2.71909   2.72409
 Alpha virt. eigenvalues --    2.73507   2.77993   2.78508   2.78798   2.78914
 Alpha virt. eigenvalues --    2.80005   2.80215   2.80805   2.81003   2.81350
 Alpha virt. eigenvalues --    2.81900   2.82332   2.82614   2.83772   2.84616
 Alpha virt. eigenvalues --    2.85755   2.86849   2.88403   2.90791   2.92866
 Alpha virt. eigenvalues --    2.94292   2.95609   2.96667   2.97853   2.98864
 Alpha virt. eigenvalues --    2.99104   3.02169   3.04975   3.06126   3.07415
 Alpha virt. eigenvalues --    3.07591   3.11743   3.12639   3.14250   3.20936
 Alpha virt. eigenvalues --    3.25342   3.30844   3.44686  13.96303
          Condensed to atoms (all electrons):
 Mulliken charges:
               1
     1  C    0.314889
     2  C    0.055436
     3  C   -0.169957
     4  C   -0.144295
     5  C   -0.171050
     6  C    0.274302
     7  C    0.042004
     8  C   -0.153010
     9  C   -0.132624
    10  C   -0.172014
    11  H    0.210111
    12  H    0.182405
    13  H    0.172160
    14  H    0.203267
    15  H    0.182761
    16  H    0.167753
    17  N   -0.502598
    18  N   -0.462767
    19  Ir  -0.281316
    20  O   -0.537630
    21  O   -0.525274
    22  O   -0.504669
    23  B    0.530444
    24  B    0.483482
    25  B    0.543433
    26  O   -0.529865
    27  O   -0.514063
    28  C    0.303716
    29  C    0.288577
    30  C    0.290690
    31  C    0.294904
    32  C    0.298477
    33  C    0.294051
    34  O   -0.525551
    35  C   -0.512066
    36  H    0.152400
    37  H    0.165948
    38  H    0.161018
    39  C   -0.500173
    40  H    0.142833
    41  H    0.194759
    42  H    0.153668
    43  C   -0.504737
    44  H    0.156437
    45  H    0.171980
    46  H    0.149767
    47  C   -0.508175
    48  H    0.177211
    49  H    0.145291
    50  H    0.166928
    51  C   -0.509217
    52  H    0.170629
    53  H    0.166504
    54  H    0.148830
    55  C   -0.509822
    56  H    0.149102
    57  H    0.161405
    58  H    0.181832
    59  C   -0.510748
    60  H    0.187906
    61  H    0.144358
    62  H    0.157345
    63  C   -0.512307
    64  H    0.149039
    65  H    0.169697
    66  H    0.164995
    67  C   -0.506310
    68  H    0.150885
    69  H    0.163055
    70  H    0.171464
    71  C   -0.507226
    72  H    0.173439
    73  H    0.158769
    74  H    0.155024
    75  C   -0.506665
    76  H    0.166323
    77  H    0.172193
    78  H    0.146576
    79  C   -0.490836
    80  H    0.140878
    81  H    0.175822
    82  H    0.161652
    83  H    0.189399
    84  C    0.571533
    85  O   -0.522056
    86  C   -0.187391
    87  C   -0.499533
    88  H    0.136186
    89  C   -0.325310
    90  H    0.179496
    91  H    0.205261
    92  N   -0.349044
    93  C   -0.370888
    94  H    0.171968
    95  H    0.212731
    96  H    0.161746
    97  C   -0.460364
    98  H    0.181504
    99  H    0.183025
   100  H    0.141117
   101  H    0.179339
   102  H    0.134369
   103  H    0.162912
   104  H    0.176063
   105  H    0.174078
 Sum of Mulliken charges =  -0.00000
 Mulliken charges with hydrogens summed into heavy atoms:
               1
     1  C    0.314889
     2  C    0.265547
     3  C    0.013068
     4  C    0.038110
     5  C    0.001110
     6  C    0.274302
     7  C    0.245271
     8  C    0.028494
     9  C    0.050137
    10  C   -0.004261
    17  N   -0.502598
    18  N   -0.462767
    19  Ir  -0.091917
    20  O   -0.537630
    21  O   -0.525274
    22  O   -0.504669
    23  B    0.530444
    24  B    0.483482
    25  B    0.543433
    26  O   -0.529865
    27  O   -0.514063
    28  C    0.303716
    29  C    0.288577
    30  C    0.290690
    31  C    0.294904
    32  C    0.298477
    33  C    0.294051
    34  O   -0.525551
    35  C   -0.032700
    39  C   -0.008913
    43  C   -0.026553
    47  C   -0.018745
    51  C   -0.023254
    55  C   -0.017483
    59  C   -0.021139
    63  C   -0.028577
    67  C   -0.020906
    71  C   -0.019994
    75  C   -0.021573
    79  C   -0.012484
    84  C    0.571533
    85  O   -0.522056
    86  C   -0.051205
    87  C    0.013520
    89  C    0.059448
    92  N   -0.349044
    93  C    0.175557
    97  C   -0.005539
 APT charges:
               1
     1  C    0.177832
     2  C    0.053957
     3  C   -0.045964
     4  C    0.095696
     5  C   -0.162198
     6  C    0.140399
     7  C    0.038096
     8  C   -0.027893
     9  C    0.106262
    10  C   -0.156781
    11  H    0.096621
    12  H    0.032182
    13  H    0.042849
    14  H    0.108898
    15  H    0.031870
    16  H    0.042245
    17  N   -0.088085
    18  N   -0.167437
    19  Ir  -1.112647
    20  O   -0.992708
    21  O   -0.959857
    22  O   -0.975193
    23  B    1.252696
    24  B    1.257264
    25  B    1.333519
    26  O   -1.003026
    27  O   -0.978137
    28  C    0.493253
    29  C    0.491857
    30  C    0.493464
    31  C    0.507166
    32  C    0.463285
    33  C    0.470022
    34  O   -0.935816
    35  C   -0.006765
    36  H   -0.017127
    37  H   -0.004182
    38  H   -0.003725
    39  C   -0.025852
    40  H   -0.032827
    41  H    0.031865
    42  H   -0.010207
    43  C   -0.023296
    44  H   -0.011105
    45  H    0.001003
    46  H   -0.025221
    47  C   -0.007102
    48  H    0.005445
    49  H   -0.021010
    50  H   -0.005361
    51  C   -0.000412
    52  H    0.001466
    53  H    0.000951
    54  H   -0.021826
    55  C   -0.022639
    56  H   -0.026766
    57  H   -0.003082
    58  H    0.003425
    59  C   -0.036546
    60  H    0.032940
    61  H   -0.025163
    62  H   -0.011031
    63  C   -0.011340
    64  H   -0.016220
    65  H    0.001005
    66  H   -0.004203
    67  C   -0.008995
    68  H   -0.016687
    69  H   -0.004949
    70  H    0.002426
    71  C   -0.037783
    72  H    0.009643
    73  H   -0.002519
    74  H   -0.020957
    75  C   -0.008205
    76  H    0.001062
    77  H    0.003381
    78  H   -0.019499
    79  C   -0.041092
    80  H   -0.030548
    81  H    0.035410
    82  H   -0.000015
    83  H    0.283092
    84  C    0.834975
    85  O   -0.732195
    86  C    0.023693
    87  C    0.048894
    88  H   -0.045290
    89  C    0.411672
    90  H   -0.033879
    91  H   -0.039954
    92  N   -0.768993
    93  C    0.247104
    94  H   -0.020044
    95  H    0.059358
    96  H   -0.033757
    97  C    0.037461
    98  H    0.036064
    99  H    0.040875
   100  H   -0.018449
   101  H    0.014333
   102  H   -0.018938
   103  H   -0.022049
   104  H    0.010828
   105  H   -0.004253
 Sum of APT charges =  -0.00000
 APT charges with hydrogens summed into heavy atoms:
               1
     1  C    0.177832
     2  C    0.150577
     3  C   -0.005090
     4  C    0.127878
     5  C   -0.119350
     6  C    0.140399
     7  C    0.146994
     8  C    0.008171
     9  C    0.138132
    10  C   -0.114536
    17  N   -0.088085
    18  N   -0.167437
    19  Ir  -0.829555
    20  O   -0.992708
    21  O   -0.959857
    22  O   -0.975193
    23  B    1.252696
    24  B    1.257264
    25  B    1.333519
    26  O   -1.003026
    27  O   -0.978137
    28  C    0.493253
    29  C    0.491857
    30  C    0.493464
    31  C    0.507166
    32  C    0.463285
    33  C    0.470022
    34  O   -0.935816
    35  C   -0.031799
    39  C   -0.037021
    43  C   -0.058619
    47  C   -0.028028
    51  C   -0.019822
    55  C   -0.049063
    59  C   -0.039800
    63  C   -0.030759
    67  C   -0.028204
    71  C   -0.051617
    75  C   -0.023261
    79  C   -0.036245
    84  C    0.834975
    85  O   -0.732195
    86  C   -0.021596
    87  C    0.033420
    89  C    0.337839
    92  N   -0.768993
    93  C    0.252661
    97  C    0.014407
 Electronic spatial extent (au):  <R**2>=          24399.9295
 Charge=             -0.0000 electrons
 Dipole moment (field-independent basis, Debye):
    X=             -1.0779    Y=             -2.5593    Z=              3.0345  Tot=              4.1135
 Quadrupole moment (field-independent basis, Debye-Ang):
   XX=           -299.1523   YY=           -279.1675   ZZ=           -293.7540
   XY=             14.3419   XZ=            -15.7807   YZ=              3.6925
 Traceless Quadrupole moment (field-independent basis, Debye-Ang):
   XX=             -8.4610   YY=             11.5238   ZZ=             -3.0628
   XY=             14.3419   XZ=            -15.7807   YZ=              3.6925
 Octapole moment (field-independent basis, Debye-Ang**2):
  XXX=             40.1697  YYY=              8.2319  ZZZ=            -14.7600  XYY=            -22.9993
  XXY=            -61.1285  XXZ=             77.5760  XZZ=            -28.0978  YZZ=              0.4911
  YYZ=             11.1034  XYZ=            -11.5310
 Hexadecapole moment (field-independent basis, Debye-Ang**3):
 XXXX=         -15349.0214 YYYY=          -8907.9644 ZZZZ=          -8369.5272 XXXY=            312.1549
 XXXZ=           -390.7456 YYYX=            164.8394 YYYZ=             -6.5545 ZZZX=            -28.6476
 ZZZY=              5.8163 XXYY=          -3918.2831 XXZZ=          -3641.5976 YYZZ=          -2896.8561
 XXYZ=             75.9222 YYXZ=           -169.9953 ZZXY=           -116.7386
 N-N= 7.750586916010D+03 E-N=-2.059688587789D+04  KE= 2.113839980547D+03
  Exact polarizability:     504.523       2.862     489.619     -35.104       3.347     421.236
 Approx polarizability:     699.754      -5.258     751.607     -78.352       7.384     620.350
   1 Symmetry operations used in ECPInt.
 ECPInt:  NShTT=   48205 NPrTT=  290969 LenC2=   38376 LenP2D=  119343.
 LDataN:  DoStor=T MaxTD1= 8 Len=  415
 Calling FoFJK, ICntrl=    100127 FMM=F ISym2X=0 I1Cent= 0 IOpClX= 0 NMat=1 NMatS=1 NMatT=0.
 Defaulting to unpruned grid for atomic number  77.
 Defaulting to unpruned grid for atomic number  77.
 Defaulting to unpruned grid for atomic number  77.
 Defaulting to unpruned grid for atomic number  77.
 Defaulting to unpruned grid for atomic number  77.
 Defaulting to unpruned grid for atomic number  77.
 Defaulting to unpruned grid for atomic number  77.
 Defaulting to unpruned grid for atomic number  77.
 Defaulting to unpruned grid for atomic number  77.
 Defaulting to unpruned grid for atomic number  77.
 Defaulting to unpruned grid for atomic number  77.
 Defaulting to unpruned grid for atomic number  77.
 Defaulting to unpruned grid for atomic number  77.
 Defaulting to unpruned grid for atomic number  77.
 Defaulting to unpruned grid for atomic number  77.
 Defaulting to unpruned grid for atomic number  77.
 Full mass-weighted force constant matrix:
 Low frequencies --- -810.8876  -10.3710   -7.5557   -0.0008   -0.0006   -0.0005
 Low frequencies ---    4.2973   15.6168   25.7600
 ******    1 imaginary frequencies (negative Signs) ****** 
 Diagonal vibrational polarizability:
       96.2669025      57.9141948      85.9358424
 Harmonic frequencies (cm**-1), IR intensities (KM/Mole), Raman scattering
 activities (A**4/AMU), depolarization ratios for plane and unpolarized
 incident light, reduced masses (AMU), force constants (mDyne/A),
 and normal coordinates:
                      1                      2                      3
                      A                      A                      A
 Frequencies --   -810.8875                15.1015                25.6424
 Red. masses --      1.1124                 4.4681                 4.8261
 Frc consts  --      0.4309                 0.0006                 0.0019
 IR Inten    --    393.2564                 0.0287                 0.7361
  Atom AN      X      Y      Z        X      Y      Z        X      Y      Z
     1   6     0.00   0.00  -0.00    -0.00   0.03   0.02    -0.05  -0.00  -0.04
     2   6     0.00   0.00  -0.00     0.00   0.02   0.05     0.01  -0.01   0.04
     3   6     0.00   0.00  -0.00     0.01   0.02   0.08    -0.04  -0.00  -0.03
     4   6     0.00   0.00  -0.00     0.02   0.03   0.08    -0.10   0.00  -0.11
     5   6     0.00   0.00  -0.00     0.01   0.04   0.05    -0.11   0.00  -0.12
     6   6     0.00  -0.00  -0.00    -0.02   0.04  -0.02    -0.05  -0.00  -0.04
     7   6    -0.00   0.00  -0.00    -0.03   0.04  -0.07    -0.00  -0.02   0.04
     8   6     0.00  -0.00  -0.00    -0.06   0.06  -0.11    -0.04  -0.01  -0.01
     9   6    -0.00  -0.00  -0.00    -0.06   0.06  -0.11    -0.08   0.00  -0.08
    10   6    -0.00   0.00   0.00    -0.04   0.05  -0.06    -0.09   0.00  -0.09
    11   1     0.00  -0.00   0.00     0.00   0.01   0.05     0.06  -0.02   0.11
    12   1     0.00   0.00   0.00     0.03   0.04   0.11    -0.15   0.01  -0.18
    13   1     0.00   0.01  -0.01     0.01   0.05   0.06    -0.16   0.01  -0.18
    14   1    -0.01   0.00  -0.00    -0.03   0.04  -0.07     0.03  -0.02   0.09
    15   1    -0.00  -0.00  -0.00    -0.08   0.07  -0.14    -0.11   0.01  -0.13
    16   1    -0.00   0.00  -0.00    -0.04   0.06  -0.05    -0.12   0.01  -0.14
    17   7     0.02   0.01   0.01    -0.00   0.02   0.03     0.01  -0.01   0.03
    18   7     0.00   0.00  -0.00    -0.01   0.03  -0.02    -0.01  -0.01   0.03
    19  77    -0.01   0.00  -0.01    -0.00   0.02   0.01     0.01  -0.01   0.05
    20   8    -0.00   0.00   0.00    -0.01   0.01  -0.01     0.01  -0.01   0.03
    21   8     0.00  -0.00   0.00     0.02  -0.02  -0.02     0.04   0.01   0.01
    22   8    -0.00  -0.00   0.00    -0.01   0.03  -0.00    -0.01   0.00   0.01
    23   5     0.01   0.00   0.01     0.01   0.00   0.00     0.04  -0.01   0.03
    24   5    -0.00  -0.01  -0.01    -0.01   0.02   0.01     0.00  -0.01   0.04
    25   5     0.02   0.00   0.02     0.01   0.00   0.04    -0.00   0.00   0.02
    26   8    -0.00  -0.00   0.00     0.05  -0.03   0.09    -0.01   0.02  -0.00
    27   8     0.00   0.00   0.00    -0.02   0.02   0.00    -0.03  -0.01   0.03
    28   6     0.00  -0.00  -0.00    -0.05   0.01  -0.01    -0.05  -0.02   0.02
    29   6     0.00  -0.00  -0.00    -0.03   0.01  -0.03    -0.01  -0.01   0.00
    30   6     0.00  -0.00   0.00     0.01   0.01   0.02    -0.03   0.02  -0.03
    31   6     0.00   0.00  -0.00     0.04  -0.02   0.10    -0.03   0.02  -0.04
    32   6     0.00  -0.00   0.00     0.03  -0.03  -0.03     0.07  -0.00  -0.01
    33   6     0.00  -0.00   0.00     0.02  -0.01  -0.01     0.10  -0.02  -0.01
    34   8     0.00   0.00   0.00     0.01   0.01   0.01     0.08  -0.04   0.02
    35   6    -0.00  -0.00   0.00    -0.04   0.01  -0.03    -0.01  -0.01   0.00
    36   1    -0.00   0.00   0.00    -0.05   0.00  -0.05    -0.04  -0.01  -0.02
    37   1     0.00  -0.00   0.00    -0.02   0.00  -0.04     0.01  -0.01  -0.01
    38   1     0.00   0.00  -0.00    -0.04   0.01  -0.02    -0.02  -0.01   0.03
    39   6    -0.00  -0.00   0.00    -0.02   0.00  -0.05    -0.01  -0.01  -0.03
    40   1    -0.00  -0.00   0.00    -0.03  -0.00  -0.06    -0.02  -0.01  -0.05
    41   1     0.00  -0.00  -0.00    -0.01   0.00  -0.05    -0.01  -0.01  -0.04
    42   1     0.00   0.00   0.00    -0.00   0.00  -0.05     0.02   0.00  -0.04
    43   6    -0.00   0.00   0.00    -0.07   0.02   0.01    -0.07  -0.02   0.06
    44   1    -0.00   0.00  -0.00    -0.06   0.03   0.02    -0.05  -0.01   0.08
    45   1    -0.00   0.00   0.00    -0.08   0.03   0.02    -0.09  -0.02   0.07
    46   1     0.00   0.00   0.00    -0.09   0.02  -0.00    -0.09  -0.03   0.05
    47   6     0.00   0.00   0.00    -0.06   0.00  -0.03    -0.08  -0.03  -0.02
    48   1     0.00   0.00  -0.00    -0.05  -0.00  -0.05    -0.06  -0.03  -0.04
    49   1    -0.00  -0.00  -0.00    -0.08  -0.01  -0.05    -0.09  -0.04  -0.03
    50   1    -0.00  -0.00   0.00    -0.08   0.01  -0.02    -0.10  -0.04  -0.00
    51   6     0.00  -0.00   0.00     0.02  -0.06  -0.06     0.08   0.03  -0.05
    52   1     0.00  -0.00   0.00    -0.01  -0.07  -0.06     0.08   0.04  -0.06
    53   1     0.00  -0.00   0.00     0.04  -0.08  -0.07     0.06   0.04  -0.05
    54   1     0.00  -0.00   0.00     0.03  -0.07  -0.07     0.11   0.02  -0.06
    55   6     0.00  -0.00   0.00     0.08  -0.03  -0.03     0.07  -0.02   0.01
    56   1    -0.00   0.00   0.00     0.09  -0.04  -0.04     0.10  -0.03   0.00
    57   1     0.00  -0.00   0.00     0.09  -0.04  -0.04     0.05  -0.00   0.01
    58   1     0.00  -0.00  -0.00     0.09  -0.01  -0.01     0.07  -0.04   0.04
    59   6     0.00  -0.00   0.00    -0.02  -0.02  -0.02     0.11  -0.01  -0.03
    60   1     0.00  -0.00   0.00    -0.04  -0.03  -0.02     0.09   0.01  -0.03
    61   1    -0.00  -0.00  -0.00    -0.02  -0.04  -0.04     0.12  -0.00  -0.05
    62   1     0.00   0.00  -0.00    -0.03  -0.01   0.00     0.12  -0.02  -0.04
    63   6     0.00  -0.00   0.00     0.04  -0.01  -0.01     0.13  -0.05  -0.00
    64   1    -0.00  -0.00   0.00     0.04  -0.02  -0.02     0.15  -0.03  -0.03
    65   1    -0.00  -0.00  -0.00     0.07   0.00   0.00     0.12  -0.07   0.02
    66   1    -0.00   0.00  -0.00     0.02   0.01   0.01     0.16  -0.07   0.00
    67   6    -0.00  -0.00   0.00     0.08  -0.07   0.12    -0.03   0.06  -0.06
    68   1    -0.00  -0.00  -0.00     0.07  -0.06   0.12    -0.05   0.06  -0.09
    69   1    -0.00  -0.00  -0.00     0.10  -0.09   0.18    -0.04   0.06  -0.07
    70   1    -0.00  -0.00   0.00     0.11  -0.11   0.08    -0.02   0.09  -0.05
    71   6    -0.00  -0.00   0.00     0.00   0.03   0.16    -0.06  -0.01  -0.05
    72   1    -0.00   0.00  -0.00    -0.03   0.07   0.15    -0.06  -0.04  -0.03
    73   1    -0.00   0.00  -0.00     0.03   0.02   0.21    -0.06  -0.01  -0.05
    74   1     0.00  -0.00   0.00    -0.00   0.04   0.17    -0.07  -0.01  -0.08
    75   6    -0.00  -0.00  -0.00    -0.03   0.06   0.02    -0.05   0.00  -0.05
    76   1     0.00   0.00   0.00    -0.06   0.07  -0.04    -0.04   0.00  -0.04
    77   1    -0.00  -0.00   0.00    -0.06   0.10   0.06    -0.06  -0.03  -0.05
    78   1    -0.00  -0.00   0.00    -0.01   0.04   0.04    -0.06   0.02  -0.08
    79   6     0.00  -0.00   0.00     0.04  -0.04  -0.04    -0.01   0.07  -0.03
    80   1    -0.00   0.00  -0.00     0.05  -0.06  -0.03    -0.01   0.08  -0.06
    81   1     0.00  -0.00   0.00     0.07  -0.08  -0.04     0.01   0.09  -0.01
    82   1     0.00   0.00   0.00     0.02  -0.03  -0.09    -0.00   0.06  -0.01
    83   1     0.75   0.38   0.43    -0.01   0.02   0.02     0.02  -0.01   0.06
    84   6     0.00   0.00  -0.00    -0.00  -0.06  -0.05     0.00   0.03  -0.03
    85   8    -0.00   0.00   0.00    -0.04  -0.07  -0.09     0.00   0.05  -0.07
    86   6    -0.00   0.00   0.00     0.04  -0.07  -0.01    -0.02   0.04  -0.06
    87   6    -0.00  -0.00   0.00     0.09  -0.14  -0.01     0.04   0.06  -0.08
    88   1    -0.00   0.00   0.00     0.06  -0.03   0.03    -0.04   0.02  -0.03
    89   6    -0.02  -0.06   0.05     0.02  -0.01  -0.01     0.02  -0.01   0.05
    90   1    -0.13  -0.02  -0.16     0.04  -0.02  -0.00     0.00  -0.00   0.06
    91   1     0.15   0.06   0.16     0.04  -0.01   0.00     0.03  -0.03   0.05
    92   7     0.00  -0.01   0.00    -0.01  -0.03  -0.04     0.03   0.01   0.03
    93   6     0.00  -0.01   0.00    -0.04  -0.03  -0.08     0.06   0.01   0.04
    94   1     0.01  -0.01   0.00    -0.05  -0.04  -0.08     0.11   0.00   0.06
    95   1     0.00  -0.01  -0.00    -0.06  -0.05  -0.09     0.06   0.02   0.00
    96   1     0.00  -0.01   0.00    -0.05   0.01  -0.08     0.03  -0.01   0.08
    97   6    -0.00   0.00  -0.00     0.03  -0.08  -0.04    -0.06   0.06  -0.11
    98   1    -0.00  -0.00  -0.00    -0.07   0.06  -0.16    -0.03  -0.01  -0.00
    99   1     0.00   0.00  -0.00     0.02   0.02   0.10    -0.03  -0.00  -0.02
   100   1    -0.00   0.00  -0.00     0.07  -0.09  -0.00    -0.08   0.07  -0.14
   101   1    -0.00   0.00   0.00     0.02  -0.12  -0.08    -0.03   0.08  -0.14
   102   1    -0.00   0.00   0.00    -0.01  -0.04  -0.04    -0.09   0.04  -0.10
   103   1    -0.00  -0.00  -0.00     0.12  -0.15   0.02     0.03   0.06  -0.10
   104   1     0.00   0.00   0.00     0.10  -0.13   0.01     0.07   0.04  -0.04
   105   1    -0.00   0.00   0.00     0.08  -0.17  -0.05     0.07   0.07  -0.11
                      4                      5                      6
                      A                      A                      A
 Frequencies --     28.4152                36.6834                43.2942
 Red. masses --      3.7930                 4.5229                 3.6293
 Frc consts  --      0.0018                 0.0036                 0.0040
 IR Inten    --      0.0691                 0.3075                 0.1515
  Atom AN      X      Y      Z        X      Y      Z        X      Y      Z
     1   6    -0.01  -0.02  -0.03     0.01   0.00   0.03     0.01  -0.02  -0.01
     2   6     0.00  -0.02  -0.03     0.00  -0.02   0.06     0.03  -0.01  -0.01
     3   6    -0.01  -0.02  -0.06     0.03  -0.02   0.13     0.05  -0.01   0.00
     4   6    -0.03  -0.02  -0.08     0.05  -0.00   0.14     0.05  -0.03   0.01
     5   6    -0.03  -0.03  -0.07     0.03   0.01   0.09     0.03  -0.03   0.01
     6   6    -0.00  -0.03  -0.01    -0.00   0.01  -0.01     0.00  -0.02  -0.01
     7   6     0.01  -0.03   0.03    -0.02   0.01  -0.07    -0.00  -0.02   0.02
     8   6     0.02  -0.04   0.04    -0.02   0.02  -0.08    -0.00  -0.03   0.02
     9   6     0.02  -0.04   0.03    -0.01   0.03  -0.06    -0.01  -0.03   0.01
    10   6     0.01  -0.04   0.00    -0.00   0.02  -0.02    -0.00  -0.03  -0.01
    11   1     0.01  -0.01  -0.02    -0.01  -0.03   0.05     0.02   0.00  -0.02
    12   1    -0.05  -0.02  -0.11     0.07   0.00   0.19     0.07  -0.03   0.03
    13   1    -0.04  -0.03  -0.08     0.04   0.02   0.10     0.04  -0.03   0.01
    14   1     0.01  -0.03   0.03    -0.02   0.00  -0.08    -0.00  -0.01   0.03
    15   1     0.02  -0.04   0.04    -0.02   0.04  -0.07    -0.01  -0.04   0.01
    16   1     0.01  -0.04  -0.00     0.00   0.03   0.00    -0.00  -0.04  -0.02
    17   7     0.00  -0.02  -0.02    -0.01  -0.02   0.02     0.01  -0.01  -0.02
    18   7     0.00  -0.02  -0.00    -0.01   0.00  -0.03     0.00  -0.01   0.00
    19  77    -0.00  -0.01  -0.01    -0.01  -0.03  -0.01     0.00   0.01  -0.01
    20   8     0.03   0.00   0.02     0.04  -0.01   0.00    -0.04  -0.02  -0.01
    21   8     0.01  -0.01  -0.04    -0.01   0.01  -0.00    -0.01   0.06   0.01
    22   8    -0.04   0.03  -0.05    -0.03   0.01  -0.01     0.00   0.00   0.00
    23   5     0.00   0.02  -0.00     0.00  -0.03  -0.02     0.00   0.00  -0.02
    24   5     0.00  -0.02  -0.00     0.00  -0.03  -0.00    -0.01   0.00  -0.01
    25   5    -0.00  -0.01  -0.00    -0.02  -0.02  -0.01     0.01  -0.00   0.01
    26   8     0.03  -0.05   0.06    -0.03  -0.04   0.02     0.03  -0.02   0.04
    27   8    -0.01  -0.05  -0.01    -0.01  -0.03  -0.01    -0.01  -0.01  -0.01
    28   6     0.01  -0.04   0.01     0.04  -0.01   0.00    -0.05  -0.05  -0.01
    29   6     0.03  -0.00   0.02     0.05   0.02   0.01    -0.06  -0.05  -0.01
    30   6    -0.02   0.02  -0.04    -0.04   0.01   0.01     0.02  -0.01   0.01
    31   6     0.00  -0.02   0.06    -0.04  -0.01   0.04     0.03  -0.02   0.05
    32   6     0.02   0.03  -0.02    -0.00  -0.00  -0.01    -0.03   0.09   0.03
    33   6    -0.01   0.07   0.04     0.04  -0.04  -0.04     0.04   0.02  -0.02
    34   8    -0.01   0.07   0.04     0.02  -0.07  -0.04     0.03  -0.04  -0.04
    35   6     0.05   0.00   0.06     0.10   0.03   0.02    -0.10  -0.06   0.00
    36   1     0.06  -0.01   0.06     0.11   0.05   0.02    -0.11  -0.09  -0.00
    37   1     0.06   0.03   0.07     0.11   0.05   0.02    -0.10  -0.07   0.00
    38   1     0.06  -0.02   0.08     0.12  -0.00   0.02    -0.12  -0.04   0.02
    39   6     0.01   0.03  -0.00     0.02   0.06   0.01    -0.04  -0.08  -0.02
    40   1     0.01   0.03  -0.01     0.03   0.09   0.01    -0.04  -0.11  -0.01
    41   1    -0.01   0.03  -0.02    -0.01   0.05   0.01    -0.01  -0.07  -0.04
    42   1     0.03   0.06   0.00     0.04   0.07   0.01    -0.05  -0.06  -0.01
    43   6     0.03  -0.08   0.04     0.08  -0.05   0.00    -0.09  -0.02   0.01
    44   1     0.04  -0.08   0.05     0.09  -0.07  -0.00    -0.10   0.01   0.03
    45   1     0.01  -0.11   0.03     0.06  -0.07  -0.01    -0.08  -0.01   0.01
    46   1     0.04  -0.08   0.05     0.11  -0.03   0.01    -0.13  -0.05   0.02
    47   6    -0.00  -0.05  -0.01     0.02   0.02   0.01    -0.04  -0.10  -0.03
    48   1    -0.02  -0.02  -0.03    -0.01   0.05   0.01    -0.00  -0.11  -0.05
    49   1     0.01  -0.04   0.01     0.06   0.05   0.02    -0.07  -0.13  -0.02
    50   1    -0.02  -0.08  -0.01     0.01  -0.00   0.00    -0.03  -0.09  -0.03
    51   6     0.00  -0.02  -0.03     0.01   0.05   0.00    -0.00   0.18   0.10
    52   1    -0.03  -0.06   0.01     0.05   0.07  -0.01     0.09   0.23   0.08
    53   1     0.03  -0.05  -0.08    -0.01   0.08   0.03    -0.03   0.23   0.18
    54   1     0.01   0.02  -0.01     0.01   0.04  -0.00    -0.04   0.16   0.10
    55   6     0.07   0.08  -0.07    -0.06  -0.02   0.01    -0.16   0.08   0.02
    56   1     0.07   0.11  -0.06    -0.05  -0.02   0.01    -0.16   0.13   0.03
    57   1     0.09   0.04  -0.12    -0.10   0.01   0.02    -0.23   0.14   0.02
    58   1     0.08   0.12  -0.07    -0.07  -0.07   0.01    -0.19  -0.01  -0.01
[...]
 11,-0.00000071,0.00000042,0.00000245,-0.00000010,-0.00000016,-0.000000
 16,-0.00000081,-0.00000152,0.00000041,0.00000034,-0.00000027,0.0000000
 6,-0.00000066,0.00000039,0.00000009,0.00000240,-0.00000167,-0.00000043
 ,-0.00005856,0.00000065,-0.00003835,0.00158415,0.00032618,-0.00064267,
 -0.00032590,-0.00012119,-0.00005230,0.00653039,-0.00105532,-0.00340407
 ,-0.01793518,-0.04936916,0.01297899,-0.00026797,0.00015572,0.00040647,
 -0.00057294,0.00035646,-0.00037545,-0.00002948,0.00003240,0.00002431,-
 0.00008257,-0.00003924,0.00006044,-0.00016369,-0.00044927,0.00019603,-
 0.00000508,-0.00016078,-0.00005931,-0.00004528,-0.00002105,0.00000250,
 0.00000933,-0.00000846,-0.00001963,0.00003994,0.00003859,0.00003323,-0
 .00054022,-0.00014215,-0.00115728,-0.00000051,-0.00000205,-0.00000311,
 0.00000080,-0.00000989,0.00000718,0.00026299,0.00035009,-0.00023637,-0
 .00037003,0.00000054,0.00011270,0.00019474,0.00055326,-0.00035600,-0.0
 2419279,-0.00060034,0.01783536,0.01990291,0.04818539,0.00001160,0.0000
 1319,0.00003552,0.00000700,-0.00003718,0.00001087,0.00004017,0.0000117
 3,-0.00000127,-0.00005382,-0.00002991,0.00001791,-0.00001174,-0.000028
 86,-0.00001229,0.00004571,-0.00006595,-0.00003434,-0.00001778,0.000022
 46,0.00002472,0.00003147,0.00002052,-0.00001176,-0.00005524,-0.0000125
 5,0.00001410,-0.00002050,0.00008237,-0.00002305,-0.00001556,0.00001328
 ,-0.00001333,0.00000176,-0.00001007,0.00000845,0.00000214,-0.00001568,
 0.00006054,0.00001094,-0.00000596,-0.00000738,-0.00000116,0.00000886,0
 .00001179,-0.00000976,-0.00002903,0.00007477,-0.00000875,0.00012365,-0
 .00013513,0.00006250,-0.00007441,-0.00002065,0.00040307,0.00017391,0.0
 0047127,0.00006705,-0.00007280,-0.00000307,0.00007477,-0.00001994,0.00
 008021,0.00008316,0.00006436,-0.00000216,-0.00010148,-0.00004552,-0.00
 014324,-0.00013438,0.00009420,-0.00001390,-0.00016810,-0.00017365,-0.0
 0004791,0.00003925,0.00009894,0.00003789,0.00009214,-0.00003987,-0.000
 01271,-0.00004661,0.00003732,0.00001759,-0.00003182,0.00000655,0.00001
 141,-0.00002924,-0.00003485,-0.00001432,-0.00002365,-0.00001933,0.0000
 0774,-0.00001257,0.00000680,-0.00003848,-0.00002899,0.00001697,-0.0000
 0744,0.00005023,-0.00006720,0.00012423,0.00000369,-0.00000226,0.000002
 16,0.00000234,-0.00000176,-0.00000308,0.00000245,-0.00000193,0.0000047
 7,-0.00000178,0.00000370,-0.00000184,0.00000295,-0.00000108,0.00000052
 ,0.00000547,-0.00000061,-0.00000317,-0.00000427,-0.00000127,-0.0000004
 1,0.00000101,-0.00000015,0.00000365,-0.00000141,-0.00002173,0.00001120
 ,-0.00000623,0.00002559,-0.00002274,-0.00001145,0.00000046,0.00002280,
 0.00001842,-0.00000649,-0.00000546,0.00000750,0.00000035,0.00000421,0.
 00000149,0.00000340,-0.00000019,0.00000545,-0.00000392,-0.00000349,-0.
 00000389,0.00000152,0.00000135,0.00000083,-0.00000048,0.00000509,-0.00
 000178,0.00000153,-0.00000140,0.00000064,0.00000126,-0.00000209,0.0000
 0357,-0.00000231,0.00000421,0.00000298,-0.00000183,0.00000693,0.000002
 09,0.00000036,0.00000690,-0.00000097,0.00000048,-0.00000214,-0.0000008
 0,-0.00000046,-0.00000380,0.00000727,0.00000169,0.00000203,-0.00000430
 ,0.00000341,-0.00000157,0.00000406,-0.00000466,0.00000168,-0.00000344,
 -0.00000111,-0.00000058,0.00000871,-0.00000353,0.00000131,0.00000173,-
 0.00000194,0.00000631,-0.00000020,0.00000294,0.,-0.00000264,-0.0000032
 4,-0.00000016,0.00000320,0.00000094,-0.00000122,0.00000293,0.00000330,
 0.00000066,-0.00000304,0.00000227,0.00000119,0.00000066,-0.00000179,0.
 00000070,0.00000576,-0.00000009,-0.00000941,-0.00000466,-0.00000235,0.
 00000696,-0.00000261,-0.00000123,0.00000001,0.00000426,0.00000550,-0.0
 0000053,0.00000303,0.00000459,0.00000058,-0.00000060,-0.00000242,-0.00
 000065,-0.00000172,-0.00000248,0.00000133,0.00000358,0.00000478,0.,0.0
 0000398,0.00000515,0.00000176,0.00000526,0.00000377,0.00000267,-0.0000
 0276,-0.00000239,-0.00000203,-0.00000189,-0.00000162,-0.00000036,-0.00
 040942,-0.00007238,-0.00032475,0.00222368,0.00149528,-0.00041819,-0.00
 054411,-0.00033335,0.00022405,0.02537437,0.00272374,-0.01593398,0.1257
 1068,0.01233312,-0.13659917,0.00008312,0.00058619,0.00139722,-0.000440
 05,0.00019717,0.00017772,-0.00027623,0.00019851,-0.00047130,-0.0001193
 7,-0.00005936,-0.00006219,-0.00006081,-0.00059392,0.00082104,-0.000266
 81,-0.00018562,0.00013985,-0.00000477,-0.00001098,-0.00003112,0.000036
 08,0.00009032,-0.00002596,0.00002844,0.00004994,-0.00000502,-0.0031961
 5,-0.00231569,-0.00588042,-0.00000301,-0.00000195,0.00000191,-0.000006
 39,0.00000284,-0.00000477,-0.00024948,0.00013417,0.00022594,-0.0000850
 3,-0.00010689,0.00020574,0.00175555,0.00027101,-0.00128462,-0.00293300
 ,-0.00009501,0.00115097,-0.13695068,-0.01250676,0.14916186,-0.00002256
 ,0.00005177,0.00009697,0.00001605,-0.00007886,-0.00000931,0.00001685,-
 0.00000847,-0.00000908,-0.00001658,-0.00001343,0.00001427,-0.00000686,
 -0.00002433,-0.00000519,-0.00000343,0.00003651,0.00003525,0.00002064,-
 0.00001008,-0.00001203,-0.00001829,-0.00001488,0.00001008,0.00000340,0
 .00002482,-0.00000444,0.00000592,-0.00002117,-0.00001016,0.00001495,-0
 .00000057,0.00000016,0.00000318,0.00000244,-0.00000261,0.00000211,0.00
 000126,-0.00000265,-0.00000435,-0.00000067,-0.00000433,0.00000281,-0.0
 0000066,-0.00000366,-0.00000364,0.00000106,0.00001054,-0.00002564,0.00
 002561,-0.00005589,0.00000561,0.00001110,0.00000363,-0.00014390,-0.000
 07742,-0.00012928,-0.00005044,0.00002273,0.00001852,-0.00005428,-0.000
 00083,-0.00003475,-0.00006129,-0.00005456,0.00001190,0.00009535,0.0000
 1922,0.00006353,0.00007086,-0.00002158,-0.00002057,0.00010244,0.000114
 20,0.00000652,-0.00004152,-0.00008585,-0.00000322,-0.00005151,0.000004
 42,0.00002491,0.00002836,-0.00000393,-0.00000476,0.00002506,-0.0000081
 4,-0.00001560,0.00001775,0.00002806,0.00000763,0.00001691,0.00003492,-
 0.00002193,0.00000869,-0.00000079,0.00001962,0.00002619,-0.00001232,0.
 00001419,-0.00004762,0.00001767,-0.00005328,-0.00000072,0.00000262,0.0
 0000024,-0.00000256,0.00000102,0.00000288,-0.00000040,0.00000029,-0.00
 000271,0.00000008,-0.00000402,-0.00000029,-0.00000331,0.00000115,-0.00
 000056,-0.00000503,0.00000050,0.00000254,0.00000244,0.00000054,-0.0000
 0034,-0.00000022,-0.00000037,-0.00000167,0.00000022,0.00000861,-0.0000
 0718,0.00000179,-0.00001740,0.00001896,0.00001104,0.00000482,-0.000017
 14,-0.00001296,0.00000390,0.00000226,-0.00000565,-0.00000284,-0.000005
 96,-0.00000381,-0.00000277,-0.00000079,-0.00000267,0.00000174,0.000002
 15,0.00000386,0.00000072,0.00000185,-0.00000102,-0.00000061,-0.0000017
 2,0.00000156,-0.00000020,0.00000044,-0.00000190,-0.00000197,0.00000095
 ,-0.00000135,0.00000145,-0.00000219,0.00000021,0.00000032,-0.00000313,
 -0.00000108,0.00000007,-0.00000360,-0.00000134,-0.00000178,0.00000125,
 -0.00000028,0.00000194,0.00000170,-0.00000213,0.00000276,-0.00000161,0
 .00000330,-0.00000093,0.00000037,-0.00000436,0.00000205,-0.00000241,0.
 00000033,-0.00000330,0.00000244,-0.00000299,0.00000230,-0.00000221,-0.
 00000306,0.00000123,-0.00000321,0.00000148,-0.00000059,0.00000067,0.00
 000132,-0.00000128,0.00000148,-0.00000132,-0.00000586,0.00000352,-0.00
 000350,-0.00000273,-0.00000051,0.00000189,0.,-0.00000246,0.00000202,0.
 00000087,0.00000248,0.00000036,-0.00000746,0.00000376,-0.00000427,0.00
 000626,-0.00000003,0.00000150,-0.00000050,-0.00000499,-0.00000206,-0.0
 0000424,0.00000263,-0.00000465,-0.00000186,-0.00000187,0.00000114,0.00
 000118,0.00000073,0.00000176,0.00000121,0.00000156,-0.00000275,-0.0000
 0350,0.00000023,-0.00000256,-0.00000561,-0.00000117,-0.00000362,-0.000
 00282,-0.00000187,0.00000213,0.00000287,0.00000246,0.00000262,0.000000
 87,-0.00000020,0.00012545,0.00002990,0.00008492,-0.00092726,0.00202175
 ,-0.00038800,0.00064817,-0.00101570,0.00016684,-0.00630612,0.00342341,
 -0.00327756,-0.17742441,0.11527122,-0.06287910,0.00057519,-0.00077145,
 -0.00124939,-0.00022018,0.00014831,-0.00010909,0.00021488,-0.00011758,
 0.00005862,0.00004315,-0.00000538,-0.00001217,0.00001195,-0.00026384,0
 .00020439,-0.00000551,-0.00002389,-0.00010627,-0.00006403,-0.00001185,
 0.00001296,-0.00000064,-0.00006085,-0.00004347,0.00002698,-0.00002531,
 0.00003486,0.00086390,-0.00074038,0.00095307,-0.00000166,-0.00000561,-
 0.00000440,0.00000014,0.00000282,0.00000217,0.00002453,-0.00005725,0.0
 0000690,0.00039590,0.00024447,-0.00013641,0.00002181,-0.00012643,-0.00
 002693,0.00897491,-0.00808013,0.00500687,-0.01607275,0.01599641,-0.009
 97328,0.18920494,-0.00003417,0.00000934,0.00002737,-0.00000375,-0.0000
 2862,-0.00000114,0.00001292,0.00001180,0.00003140,0.00001609,-0.000014
 91,-0.00001067,-0.00001070,0.00000403,-0.00002571,-0.00000295,-0.00001
 313,-0.00001616,-0.00000610,-0.00001163,-0.00000139,0.00000266,-0.0000
 1102,-0.00000347,0.00000679,0.00000116,-0.00000847,-0.00001521,0.00001
 751,-0.00000219,-0.00001753,0.00000189,-0.00000450,-0.00000047,0.00000
 082,-0.00000584,-0.00000055,0.00000221,0.00000470,-0.00000648,-0.00000
 291,-0.00000603,-0.00000172,0.00000170,0.00000121,0.00000050,-0.000005
 07,0.00000388,-0.00002186,0.00001840,-0.00006419,0.00001197,0.00001882
 ,-0.00000283,0.00009237,-0.00001722,0.00006730,0.00003644,-0.00001985,
 -0.00000806,0.00004000,-0.00000794,0.00003291,0.00004271,0.00002491,-0
 .00000482,-0.00005245,0.00001135,-0.00003742,-0.00004526,0.00002237,0.
 00000513,-0.00006863,-0.00004243,-0.00000346,0.00003257,0.00003317,0.0
 0000952,0.00003263,-0.00001129,-0.00001365,-0.00001813,0.00000510,0.00
 000090,-0.00001674,0.00000461,0.00000894,-0.00001697,-0.00001522,-0.00
 000425,-0.00001736,-0.00001175,0.00000147,-0.00000774,0.00000254,-0.00
 001826,-0.00001625,0.00000666,-0.00001103,0.00002711,-0.00002073,0.000
 03995,-0.00000146,-0.00000294,-0.00000019,0.00000199,-0.00000025,-0.00
 000230,0.00000091,-0.00000024,0.00000263,-0.00000002,0.00000293,-0.000
 00007,0.00000161,0.00000028,0.00000050,0.00000339,-0.00000045,-0.00000
 215,-0.00000184,-0.00000015,-0.00000014,0.00000044,-0.00000031,0.00000
 181,-0.00000030,-0.00000459,0.00001302,-0.00000336,0.00000815,-0.00001
 383,-0.00000443,-0.00000239,0.00000763,0.00000592,-0.00000258,-0.00000
 231,0.00000418,0.00000349,0.00000367,0.00000188,0.00000235,-0.00000014
 ,0.00000214,-0.00000255,-0.00000113,-0.00000240,0.00000039,0.00000014,
 0.00000120,-0.00000011,0.00000142,-0.00000106,0.00000034,-0.00000060,0
 .00000053,0.00000133,-0.00000111,0.00000127,-0.00000141,0.00000243,0.0
 0000011,0.00000041,0.00000251,0.00000125,-0.00000065,0.00000352,-0.000
 00033,0.00000077,-0.00000135,0.00000033,-0.00000069,-0.00000215,0.0000
 0158,-0.00000134,0.00000158,-0.00000252,0.00000096,-0.00000029,0.00000
 336,-0.00000184,0.00000171,-0.00000040,0.00000146,-0.00000174,0.000001
 44,-0.00000130,0.00000131,0.00000239,-0.00000085,0.00000238,-0.0000008
 0,0.00000101,-0.00000048,-0.00000137,-0.00000017,-0.00000095,0.0000014
 9,0.00000016,0.00000112,0.00000233,0.00000201,-0.00000054,-0.00000162,
 -0.00000042,-0.00000007,0.00000025,-0.00000096,0.00000118,0.00000203,0
 .00000025,-0.00000409,-0.00000606,0.00000051,0.00000625,-0.00000120,-0
 .00000433,-0.00000276,0.00000472,0.00000336,0.00000014,0.00000179,0.00
 000083,-0.00000101,0.00000058,-0.00000198,-0.00000061,-0.00000135,-0.0
 0000079,0.00000151,0.00000144,0.00000272,0.00000056,0.00000252,0.00000
 100,0.00000014,0.00000259,0.00000259,0.00000143,-0.00000149,-0.0000007
 9,-0.00000103,-0.00000036,-0.00000145,-0.00000027,-0.00003569,0.000009
 01,-0.00003635,-0.00192356,0.00073270,-0.00036103,0.00056349,0.0004752
 4,0.00063658,-0.00599303,0.00491355,-0.00312751,0.11574567,-0.15088330
 ,0.05729802,-0.00063632,0.00054588,-0.00197340,-0.00024389,0.00016330,
 -0.00007046,0.00006062,-0.00005456,0.00000425,0.00004637,-0.00001522,0
 .00000009,0.00055921,0.00016028,0.00007714,-0.00001719,-0.00013694,-0.
 00003622,0.00001318,0.00003077,-0.00002305,-0.00002461,-0.00002966,0.0
 0001051,0.00003390,0.00001929,0.00001069,-0.00017097,-0.00003180,0.000
 22263,-0.00000049,0.00000039,-0.00000216,-0.00000843,0.00000993,-0.000
 00935,0.00011110,-0.00001949,0.00004000,0.00000615,0.00011030,0.000401
 49,-0.00026758,0.00004745,0.00002324,0.02167446,-0.01640533,0.00994699
 ,-0.00372086,0.00201654,-0.00181463,-0.12576855,0.15837531,-0.00013439
 ,0.00012558,0.00010267,0.00004090,-0.00018657,-0.00003857,0.00006540,0
 .00000925,-0.00000581,-0.00003731,-0.00002033,0.00004132,-0.00009687,-
 0.00007438,-0.00001232,-0.00003444,0.00006129,0.00004655,0.00000650,0.
 00000956,-0.00000248,0.00000336,-0.00002547,-0.00000502,-0.00000366,-0
 .00000122,0.00000711,-0.00002038,-0.00000345,0.00001195,-0.00000170,0.
 00000698,-0.00000839,-0.00000027,0.00000836,-0.00000398,-0.00000119,0.
 00000419,-0.00000961,-0.00000070,-0.00000455,-0.00000239,0.00000169,-0
 .00000642,-0.00000840,-0.00000763,0.00001144,-0.00000867,-0.00001192,0
 .00013743,-0.00026446,0.00004299,0.00000028,-0.00003133,0.00013302,0.0
 0005441,0.00012986,-0.00001333,-0.00000382,0.00002165,-0.00001010,-0.0
 0000400,0.00000255,-0.00000840,-0.00000497,0.00000354,0.00001691,-0.00
 001461,-0.00000460,0.00001343,0.00000205,-0.00005366,0.00000851,0.0000
 0047,-0.00000631,-0.00000891,-0.00001025,0.00000266,0.00000278,0.00000
 863,0.00003795,-0.00000760,-0.00001611,-0.00001132,0.00000780,-0.00000
 001,-0.00001379,-0.00000061,0.00000159,0.00000025,0.00000240,0.0000060
 6,-0.00000457,0.00000013,0.00000073,0.00000127,0.00000892,-0.00000534,
 0.00001044,-0.00001497,-0.00001542,0.00001001,-0.00000118,-0.00000015,
 0.00000261,-0.00000153,0.00000044,0.00000057,0.00000220,-0.00000039,0.
 00000142,0.00000060,0.00000140,-0.00000264,-0.00000149,-0.00000069,0.0
 0000435,-0.00000113,-0.00000014,0.00000007,0.00000026,0.00000001,-0.00
 000092,0.00000196,-0.00000011,0.00000133,0.00000286,0.00000536,0.00000
 007,-0.00000522,0.00000702,-0.00001432,-0.00000830,-0.00000756,0.00001
 460,0.00000656,-0.00000063,0.00000166,0.00000274,0.00000387,0.00000410
 ,0.00000261,0.00000176,-0.00000066,-0.00000023,-0.00000047,0.00000011,
 -0.00000141,-0.00000174,0.00000169,-0.00000062,-0.00000155,0.00000011,
 0.00000032,0.00000051,-0.00000028,-0.00000082,-0.00000049,-0.00000004,
 0.00000009,0.00000026,0.00000011,0.00000004,-0.00000077,0.00000064,0.0
 0000004,0.00000026,-0.00000008,-0.00000057,-0.00000065,0.00000007,-0.0
 0000022,0.00000096,0.00000021,0.00000175,0.00000383,-0.00000117,0.0000
 0064,0.00000016,-0.00000079,-0.00000187,-0.00000056,-0.00000088,-0.000
 00046,-0.00000308,0.00000189,0.00000129,0.00000127,-0.00000075,-0.0000
 0137,-0.00000017,0.00000007,0.00000058,0.00000017,0.00000045,0.0000001
 9,-0.00000168,0.00000125,-0.00000081,-0.00000089,0.00000075,-0.0000004
 2,-0.00000044,-0.00000011,0.00000026,0.00000012,-0.00000027,0.00000048
 ,0.00000015,0.00000038,-0.00000051,-0.00000071,0.00000010,-0.00000114,
 0.00000025,0.00000085,0.00000006,-0.00000031,-0.00000104,0.00000045,-0
 .00000026,0.00000081,0.00000014,0.,-0.00000032,-0.00000025,-0.00000014
 ,0.00000010,0.00000002,-0.00000012,0.00000044,-0.00000022,-0.00000010,
 0.00000028,0.00000039,-0.00000095,-0.00000062,-0.00000045,-0.00000011,
 -0.00000004,0.00000038,0.00000069,0.00000026,0.,0.00000006,-0.00000008
 ,-0.00009723,-0.00000481,-0.00006380,-0.00161684,0.00320718,0.00085451
 ,0.00147354,-0.00078471,0.00037337,-0.02313325,0.01864997,-0.01353877,
 -0.06226740,0.05679494,-0.07650704,-0.00085111,-0.00208446,-0.00587085
 ,0.00016191,0.00015912,0.00015567,0.00008550,0.00001135,-0.00022111,-0
 .00003587,-0.00013167,0.00002336,0.00021879,-0.00026261,-0.00003708,-0
 .00008063,-0.00003357,-0.00003962,0.00000678,0.00000113,-0.00000714,-0
 .00002622,-0.00003688,0.00000823,0.00001520,-0.00002381,0.00000352,-0.
 00142506,0.00078046,0.00185678,-0.00000168,-0.00000298,-0.00000313,-0.
 00000274,0.00000844,-0.00000539,0.00007692,-0.00000907,-0.00007784,0.0
 0095663,-0.00027690,-0.00036866,0.00019600,-0.00033295,0.00040121,0.00
 202071,-0.00154639,-0.00006962,0.01263722,-0.01292098,0.00703395,0.071
 75178,-0.06121586,0.08614903\\-0.00000476,-0.00000211,0.00000529,0.000
 00189,0.00000395,-0.00000160,0.00000325,0.00000063,-0.00000436,-0.0000
 0779,-0.00000457,0.00000450,0.00000327,0.00000060,-0.00000322,-0.00000
 384,-0.00000171,0.00000102,0.00000107,-0.00000590,0.00000309,-0.000000
 71,0.00000370,0.00000184,-0.00000141,-0.00000197,0.00000272,0.00000269
 ,0.00000284,-0.00000280,0.00000138,-0.00000048,-0.00000121,0.00000337,
 0.00000173,-0.00000311,-0.00000023,-0.00000123,-0.00000075,0.00000062,
 0.00000164,-0.00000023,0.00000113,-0.00000299,-0.00000095,-0.00000039,
 -0.00000315,0.00000010,0.00000345,-0.00000479,-0.00000230,-0.00000070,
 0.00000080,-0.00000227,0.00000143,-0.00000008,0.00000411,0.00000024,0.
 00000013,0.00000032,0.00000095,0.00000333,-0.00000603,-0.00000529,0.00
 000331,0.00000309,-0.00000353,-0.00000175,0.00000131,0.00000265,0.0000
 0129,-0.00000026,0.00000457,0.00000156,-0.00000211,0.00000136,0.000001
 70,-0.00000036,-0.00000396,0.00000281,0.00000059,0.00000484,0.00000108
 ,-0.00000676,-0.00000144,-0.00000311,-0.00000131,0.00000494,0.00000217
 ,-0.00000341,-0.00000818,-0.00000232,0.00000111,-0.00000129,-0.0000033
 4,0.00000760,0.00000099,0.00000017,-0.00000221,0.00000319,0.00000085,-
 0.00000362,-0.00000381,-0.00000351,0.00000219,0.00000213,0.00000144,-0
 .00000270,-0.00000056,0.00000276,-0.00000425,0.00000410,0.00000342,-0.
 00000086,0.00000531,0.00000693,0.00000460,-0.00000103,0.00000064,-0.00
 000017,0.00000104,-0.00000178,0.00000030,-0.00000116,0.00000169,-0.000
 00348,-0.00000325,0.00000513,-0.00000169,-0.00000042,-0.00000043,-0.00
 000030,0.00000262,-0.00000020,0.00000126,0.00000165,-0.00000044,-0.000
 00208,0.00000268,0.00000800,0.00000236,-0.00000254,-0.00000255,-0.0000
 0175,0.00000098,0.00000073,-0.00000033,-0.00000038,0.00000103,0.000000
 27,0.00000306,0.00000401,-0.00000495,-0.00000032,0.00000012,0.00000122
 ,-0.00000273,-0.00000433,0.00000066,0.00000009,-0.00000024,0.00000077,
 -0.00000482,-0.00000118,-0.00000416,0.00000060,-0.00000159,0.00000294,
 0.00000100,0.00000091,0.00000050,0.00000277,-0.00000224,0.00000076,-0.
 00000576,-0.00000452,0.00000515,0.00000221,0.00000234,-0.00000372,0.00
 000089,-0.00000011,-0.00000175,0.00000375,0.00000160,-0.00000168,0.000
 00303,0.00000340,0.00000365,-0.00000127,-0.00000086,-0.00000196,0.0000
 0131,-0.00000378,-0.00000236,-0.00000175,-0.00000406,-0.00000125,0.000
 00930,-0.00000132,0.00000258,-0.00000419,-0.00000222,0.00000250,-0.000
 00473,0.00000228,0.00000260,-0.00000169,0.00000087,0.00000011,-0.00000
 096,0.00000466,0.00000338,-0.00000178,-0.00000146,-0.00000162,0.000000
 22,-0.00000087,0.00000132,-0.00000046,-0.00000014,0.00000172,-0.000001
 18,-0.00000265,0.00000781,-0.00000077,0.00000239,0.00000043,-0.0000015
 5,0.00000162,-0.00000112,-0.00000005,0.00000218,0.00000104,0.00000372,
 -0.00000218,0.00000122,-0.00000285,-0.00000151,0.00000050,0.00000064,-
 0.00000214,0.00000398,-0.00000233,0.00000207,0.00000081,-0.00000032,-0
 .00000216,0.00000082,-0.00000206,0.00000325,0.00000210,0.00000258,-0.0
 0000307,-0.00000128,0.00000405,0.00000274,-0.00000087,0.00000369,0.000
 00168,-0.00000311,-0.00000165,-0.00000063,-0.00000176,-0.00000333,0.00
 000600,-0.00000064,-0.00000003,-0.00000058,-0.00000010,-0.00000038,-0.
 00000001,-0.00000046,-0.00000077,-0.00000350,-0.00000227,-0.00000059,-
 0.00000218,0.00000143,0.00000054,0.00000130,0.00000063,-0.00000049,0.0
 0000068,0.00000045,-0.00000039,0.00000123,0.00000172,-0.00000566,-0.00
 000365,-0.00000147,-0.00000126,-0.00000441,0.00000068,0.00000045,-0.00
 000242,-0.00000114,0.00000110,0.00000145,0.00000021,0.00000213,-0.0000
 0123,0.00000102,0.00000018,-0.00000165,0.00000138,-0.00000162,-0.00000
 341,-0.00000032,0.00000069,0.00000127,0.00000038,-0.00000137,0.0000006
 4,0.00000031\\\@
 The archive entry for this job was punched.


 WE DON'T KNOW ONE MILLIONTH OF ONE PERCENT ABOUT
 ANYTHING.
                                     T. A. EDISON.
 Job cpu time:       1 days 18 hours 57 minutes 43.7 seconds.
 Elapsed time:       0 days  2 hours 43 minutes 57.5 seconds.
 File lengths (MBytes):  RWF=   7470 Int=      0 D2E=      0 Chk=     45 Scr=      1
 Normal termination of Gaussian 16 at Sun Dec  8 00:50:28 2024.
