/mnt/lustre/scratch/nvme/SLURM/9663636/usccqdma.6RFHNR0Ybx
OMP_STACKSIZE=0m
GAUSS_PDEF=16
GAUSS_MDEF=65536MB
GAUSS_RDEF=SCF=Direct
 Entering Gaussian System, Link 0=g16.exe
 Initial command:
 /opt/cesga/2020/software/Core/g16/c1/l1.exe "/mnt/lustre/scratch/nvme/SLURM/9663636/usccqdma.6RFHNR0Ybx/Gau-339629.inp" -scrdir="/mnt/lustre/scratch/nvme/SLURM/9663636/usccqdma.6RFHNR0Ybx/"
 Default is to use a total of  16 processors:
                               16 via shared-memory
                                1 via Linda
 Entering Link 1 = /opt/cesga/2020/software/Core/g16/c1/l1.exe PID=    339655.
  
 Copyright (c) 1988-2019, Gaussian, Inc.  All Rights Reserved.
  
 This is part of the Gaussian(R) 16 program.  It is based on
 the Gaussian(R) 09 system (copyright 2009, Gaussian, Inc.),
 the Gaussian(R) 03 system (copyright 2003, Gaussian, Inc.),
 the Gaussian(R) 98 system (copyright 1998, Gaussian, Inc.),
 the Gaussian(R) 94 system (copyright 1995, Gaussian, Inc.),
 the Gaussian 92(TM) system (copyright 1992, Gaussian, Inc.),
 the Gaussian 90(TM) system (copyright 1990, Gaussian, Inc.),
 the Gaussian 88(TM) system (copyright 1988, Gaussian, Inc.),
 the Gaussian 86(TM) system (copyright 1986, Carnegie Mellon
 University), and the Gaussian 82(TM) system (copyright 1983,
 Carnegie Mellon University). Gaussian is a federally registered
 trademark of Gaussian, Inc.
  
 This software contains proprietary and confidential information,
 including trade secrets, belonging to Gaussian, Inc.
  
 This software is provided under written license and may be
 used, copied, transmitted, or stored only in accord with that
 written license.
  
 The following legend is applicable only to US Government
 contracts under FAR:
  
                    RESTRICTED RIGHTS LEGEND
  
 Use, reproduction and disclosure by the US Government is
 subject to restrictions as set forth in subparagraphs (a)
 and (c) of the Commercial Computer Software - Restricted
 Rights clause in FAR 52.227-19.
  
 Gaussian, Inc.
 340 Quinnipiac St., Bldg. 40, Wallingford CT 06492
  
  
 ---------------------------------------------------------------
 Warning -- This program may not be used in any manner that
 competes with the business of Gaussian, Inc. or will provide
 assistance to any competitor of Gaussian, Inc.  The licensee
 of this program is prohibited from giving any competitor of
 Gaussian, Inc. access to this program.  By using this program,
 the user acknowledges that Gaussian, Inc. is engaged in the
 business of creating and licensing software in the field of
 computational chemistry and represents and warrants to the
 licensee that it is not a competitor of Gaussian, Inc. and that
 it will not use this program in any manner prohibited above.
 ---------------------------------------------------------------
  

 Cite this work as:
 Gaussian 16, Revision C.01,
 M. J. Frisch, G. W. Trucks, H. B. Schlegel, G. E. Scuseria, 
 M. A. Robb, J. R. Cheeseman, G. Scalmani, V. Barone, 
 G. A. Petersson, H. Nakatsuji, X. Li, M. Caricato, A. V. Marenich, 
 J. Bloino, B. G. Janesko, R. Gomperts, B. Mennucci, H. P. Hratchian, 
 J. V. Ortiz, A. F. Izmaylov, J. L. Sonnenberg, D. Williams-Young, 
 F. Ding, F. Lipparini, F. Egidi, J. Goings, B. Peng, A. Petrone, 
 T. Henderson, D. Ranasinghe, V. G. Zakrzewski, J. Gao, N. Rega, 
 G. Zheng, W. Liang, M. Hada, M. Ehara, K. Toyota, R. Fukuda, 
 J. Hasegawa, M. Ishida, T. Nakajima, Y. Honda, O. Kitao, H. Nakai, 
 T. Vreven, K. Throssell, J. A. Montgomery, Jr., J. E. Peralta, 
 F. Ogliaro, M. J. Bearpark, J. J. Heyd, E. N. Brothers, K. N. Kudin, 
 V. N. Staroverov, T. A. Keith, R. Kobayashi, J. Normand, 
 K. Raghavachari, A. P. Rendell, J. C. Burant, S. S. Iyengar, 
 J. Tomasi, M. Cossi, J. M. Millam, M. Klene, C. Adamo, R. Cammi, 
 J. W. Ochterski, R. L. Martin, K. Morokuma, O. Farkas, 
 J. B. Foresman, and D. J. Fox, Gaussian, Inc., Wallingford CT, 2019.
 
 ******************************************
 Gaussian 16:  ES64L-G16RevC.01  3-Jul-2019
                 7-Dec-2024 
 ******************************************
 Default route: SCF=Direct
 ----------------------------------------------------
 # m06/genecp scf=tight int=ultrafine 5d freq=noraman
 ----------------------------------------------------
 1/10=4,30=1,38=1/1,3;
 2/12=2,17=6,18=5,40=1/2;
 3/5=7,8=1,11=2,16=1,17=8,25=1,30=1,71=2,74=-54,75=-5,140=1/1,2,3;
 4//1;
 5/5=2,32=2,38=5,98=1/2;
 8/6=4,10=90,11=11/1;
 11/6=1,8=1,9=11,15=111,16=1/1,2,10;
 10/6=1/2;
 6/7=2,8=2,9=2,10=2,28=1/1;
 7/8=1,10=1,25=1/1,2,3,16;
 1/10=4,30=1/3;
 99//99;
 ------
 OPT-TS
 ------
 Symbolic Z-matrix:
 Charge =  0 Multiplicity = 1
 C                    -1.27866   0.17897   2.47273 
 C                     0.98649  -0.31711   2.35511 
 C                     1.14061  -0.13965   3.72168 
 C                     0.0322    0.20999   4.48572 
 C                    -1.19062   0.35642   3.85467 
 C                    -2.53923   0.31415   1.72211 
 C                    -3.55888   0.21677  -0.3587 
 C                    -4.80438   0.50627   0.17736 
 C                    -4.90234   0.70193   1.54977 
 C                    -3.76034   0.60317   2.32816 
 H                     1.81602  -0.62086   1.71895 
 H                     0.12556   0.35155   5.55992 
 H                    -2.07069   0.61086   4.43815 
 H                    -3.41604   0.05344  -1.42658 
 H                    -5.86142   0.92471   2.0125 
 H                    -3.82616   0.73889   3.404 
 N                    -0.18686  -0.14125   1.74512 
 N                    -2.45731   0.13277   0.39048 
 O                     2.1068    0.8164   -1.88856 
 O                    -0.56642   2.46068  -2.0852 
 O                     2.16947  -1.87235  -0.31563 
 B                    -0.6283    1.79646  -0.87636 
 B                     1.28009   0.80948  -0.77205 
 B                     1.08106  -1.49812  -1.09931 
 O                     1.05639  -2.22005  -2.27477 
 O                     1.86848   1.54285   0.26076 
 C                     3.227     1.83579  -0.10276 
 C                     3.17754   1.74688  -1.65816 
 C                     2.79966  -3.01805  -0.91782 
 C                     2.27371  -2.96756  -2.39039 
 C                    -1.38412   3.63922  -1.98176 
 C                    -1.38997   3.91598  -0.44887 
 O                    -1.19816   2.60315   0.0972 
 C                     2.77859   3.05446  -2.32683 
 H                     2.55912   2.8559   -3.38339 
 H                     1.86454   3.45946  -1.87882 
 H                     3.57644   3.80684  -2.26586 
 C                     4.44922   1.22567  -2.29758 
 H                     4.31695   1.15834  -3.3853 
 H                     5.28863   1.90756  -2.09852 
 H                     4.71964   0.23059  -1.92501 
 C                     3.59997   3.19674   0.45163 
 H                     4.61866   3.47623   0.14631 
 H                     2.91053   3.98143   0.12117 
 H                     3.57189   3.1629    1.54866 
 C                     4.10712   0.7717    0.54005 
 H                     5.17326   0.94958   0.34459 
 H                     3.95693   0.79925   1.62785 
 H                     3.83794  -0.23086   0.1849 
 C                    -0.78564   4.74055  -2.83324 
 H                    -1.37082   5.66662  -2.73728 
 H                     0.25269   4.95631  -2.55923 
 H                    -0.79812   4.43776  -3.88788 
 C                    -2.75669   3.26294  -2.52488 
 H                    -3.43722   4.12421  -2.55973 
 H                    -2.6366    2.87169  -3.54257 
 H                    -3.22085   2.47687  -1.91328 
 C                    -0.22292   4.77248   0.01887 
 H                    -0.32303   5.81741  -0.30432 
 H                    -0.18525   4.74841   1.115 
 H                     0.73122   4.37584  -0.35042 
 C                    -2.68961   4.47995   0.09301 
 H                    -3.5269    3.79031  -0.06782 
 H                    -2.59603   4.64654   1.17394 
 H                    -2.93038   5.44372  -0.37847 
 C                     3.1747   -2.18833  -3.33648 
 H                     2.65809  -2.08116  -4.29834 
 H                     3.35757  -1.17859  -2.95126 
 H                     4.13312  -2.69558  -3.51148 
 C                     1.95021  -4.32367  -2.988 
 H                     2.84708  -4.95796  -3.03709 
 H                     1.18012  -4.84886  -2.41028 
 H                     1.57237  -4.19128  -4.00976 
 C                     2.33725  -4.24132  -0.13758 
 H                     1.25053  -4.37941  -0.19871 
 H                     2.82384  -5.15941  -0.49281 
 H                     2.59527  -4.10206   0.91994 
 C                     4.30414  -2.88391  -0.77885 
 H                     4.57831  -2.88068   0.28453 
 H                     4.81613  -3.73006  -1.25928 
 H                     4.67763  -1.95603  -1.22793 
 H                    -0.8091   -0.43146  -1.98486 
 C                    -3.55491  -2.80633  -0.02415 
 O                    -3.62803  -2.60009   1.18618 
 C                    -4.80099  -3.15755  -0.82746 
 H                    -4.88611  -2.48023  -1.69311 
 H                    -4.68169  -4.16267  -1.26237 
 C                    -1.15017  -2.37069  -0.03738 
 H                    -1.34782  -2.45478   1.03642 
 H                    -0.41207  -3.14262  -0.29299 
 N                    -2.38585  -2.7325   -0.721 
 C                    -2.30589  -2.9539   -2.15069 
 H                    -1.2522   -3.07012  -2.42571 
 H                    -2.8501   -3.85813  -2.45141 
 H                    -2.69574  -2.10243  -2.73249 
 C                    -6.05469  -3.10068   0.02329 
 H                    -5.98213  -3.79153   0.87008 
 H                    -6.1951   -2.09804   0.44659 
 C                     2.50618  -0.25167   4.32187 
 F                     2.45142  -0.50449   5.63321 
 F                     3.2231   -1.21802   3.7439 
 F                     3.19168   0.89088   4.16742 
 H                    -5.67488   0.56879  -0.47157 
 Ir                   -0.46606  -0.30127  -0.42703 
 H                    -6.94227  -3.35899  -0.56729 
 

 GradGradGradGradGradGradGradGradGradGradGradGradGradGradGradGradGradGrad
 Berny optimization.
 Initialization pass.
 Trust Radius=3.00D-01 FncErr=1.00D-07 GrdErr=1.00D-07 EigMax=2.50D+02 EigMin=1.00D-04
 Number of steps in this run=      2 maximum allowed number of steps=      2.
 GradGradGradGradGradGradGradGradGradGradGradGradGradGradGradGradGradGrad

 Stoichiometry    C34H54B3F3IrN3O7
 Framework group  C1[X(C34H54B3F3IrN3O7)]
 Deg. of freedom   309
 Full point group                 C1      NOp   1
 Largest Abelian subgroup         C1      NOp   1
 Largest concise Abelian subgroup C1      NOp   1
                         Standard orientation:                         
 ---------------------------------------------------------------------
 Center     Atomic      Atomic             Coordinates (Angstroms)
 Number     Number       Type             X           Y           Z
 ---------------------------------------------------------------------
      1          6           0       -1.278660    0.178969    2.472730
      2          6           0        0.986490   -0.317111    2.355110
      3          6           0        1.140610   -0.139651    3.721680
      4          6           0        0.032200    0.209989    4.485720
      5          6           0       -1.190620    0.356419    3.854670
      6          6           0       -2.539230    0.314150    1.722110
      7          6           0       -3.558880    0.216770   -0.358700
      8          6           0       -4.804380    0.506270    0.177360
      9          6           0       -4.902340    0.701930    1.549770
     10          6           0       -3.760340    0.603170    2.328160
     11          1           0        1.816020   -0.620861    1.718950
     12          1           0        0.125560    0.351549    5.559920
     13          1           0       -2.070690    0.610860    4.438150
     14          1           0       -3.416040    0.053440   -1.426580
     15          1           0       -5.861420    0.924711    2.012500
     16          1           0       -3.826160    0.738890    3.404000
     17          7           0       -0.186860   -0.141251    1.745120
     18          7           0       -2.457310    0.132770    0.390480
     19          8           0        2.106800    0.816399   -1.888560
     20          8           0       -0.566420    2.460679   -2.085200
     21          8           0        2.169469   -1.872351   -0.315630
     22          5           0       -0.628300    1.796459   -0.876360
     23          5           0        1.280090    0.809479   -0.772050
     24          5           0        1.081059   -1.498121   -1.099310
     25          8           0        1.056389   -2.220051   -2.274770
     26          8           0        1.868480    1.542849    0.260760
     27          6           0        3.227000    1.835788   -0.102760
     28          6           0        3.177540    1.746878   -1.658160
     29          6           0        2.799659   -3.018051   -0.917820
     30          6           0        2.273709   -2.967561   -2.390390
     31          6           0       -1.384119    3.639219   -1.981760
     32          6           0       -1.389969    3.915979   -0.448870
     33          8           0       -1.198160    2.603149    0.097200
     34          6           0        2.778590    3.054459   -2.326830
     35          1           0        2.559120    2.855899   -3.383390
     36          1           0        1.864540    3.459459   -1.878820
     37          1           0        3.576441    3.806838   -2.265860
     38          6           0        4.449220    1.225668   -2.297580
     39          1           0        4.316950    1.158338   -3.385300
     40          1           0        5.288630    1.907558   -2.098520
     41          1           0        4.719640    0.230588   -1.925010
     42          6           0        3.599970    3.196738    0.451630
     43          1           0        4.618660    3.476228    0.146310
     44          1           0        2.910531    3.981429    0.121170
     45          1           0        3.571890    3.162898    1.548660
     46          6           0        4.107120    0.771698    0.540050
     47          1           0        5.173260    0.949578    0.344590
     48          1           0        3.956930    0.799248    1.627850
     49          1           0        3.837940   -0.230862    0.184900
     50          6           0       -0.785639    4.740549   -2.833240
     51          1           0       -1.370819    5.666619   -2.737280
     52          1           0        0.252691    4.956309   -2.559230
     53          1           0       -0.798119    4.437759   -3.887880
     54          6           0       -2.756690    3.262940   -2.524880
     55          1           0       -3.437219    4.124210   -2.559730
     56          1           0       -2.636600    2.871690   -3.542570
     57          1           0       -3.220850    2.476870   -1.913280
     58          6           0       -0.222919    4.772479    0.018870
     59          1           0       -0.323029    5.817409   -0.304320
     60          1           0       -0.185249    4.748409    1.115000
     61          1           0        0.731221    4.375839   -0.350420
     62          6           0       -2.689609    4.479950    0.093010
     63          1           0       -3.526899    3.790310   -0.067820
     64          1           0       -2.596029    4.646540    1.173940
     65          1           0       -2.930379    5.443720   -0.378470
     66          6           0        3.174699   -2.188332   -3.336480
     67          1           0        2.658089   -2.081161   -4.298340
     68          1           0        3.357569   -1.178592   -2.951260
     69          1           0        4.133119   -2.695582   -3.511480
     70          6           0        1.950209   -4.323671   -2.988000
     71          1           0        2.847079   -4.957961   -3.037090
     72          1           0        1.180119   -4.848861   -2.410280
     73          1           0        1.572369   -4.191281   -4.009760
     74          6           0        2.337249   -4.241321   -0.137580
     75          1           0        1.250529   -4.379411   -0.198710
     76          1           0        2.823839   -5.159411   -0.492810
     77          1           0        2.595269   -4.102061    0.919940
     78          6           0        4.304139   -2.883912   -0.778850
     79          1           0        4.578309   -2.880682    0.284530
     80          1           0        4.816129   -3.730062   -1.259280
     81          1           0        4.677629   -1.956032   -1.227930
     82          1           0       -0.809100   -0.431461   -1.984860
     83          6           0       -3.554911   -2.806330   -0.024150
     84          8           0       -3.628031   -2.600090    1.186180
     85          6           0       -4.800991   -3.157550   -0.827460
     86          1           0       -4.886111   -2.480230   -1.693110
     87          1           0       -4.681691   -4.162670   -1.262370
     88          6           0       -1.150171   -2.370691   -0.037380
     89          1           0       -1.347821   -2.454781    1.036420
     90          1           0       -0.412071   -3.142621   -0.292990
     91          7           0       -2.385851   -2.732500   -0.721000
     92          6           0       -2.305891   -2.953900   -2.150690
     93          1           0       -1.252201   -3.070121   -2.425710
     94          1           0       -2.850101   -3.858130   -2.451410
     95          1           0       -2.695741   -2.102430   -2.732490
     96          6           0       -6.054691   -3.100679    0.023290
     97          1           0       -5.982131   -3.791529    0.870080
     98          1           0       -6.195101   -2.098039    0.446590
     99          6           0        2.506180   -0.251671    4.321870
    100          9           0        2.451420   -0.504491    5.633210
    101          9           0        3.223099   -1.218022    3.743900
    102          9           0        3.191680    0.890878    4.167420
    103          1           0       -5.674880    0.568790   -0.471570
    104         77           0       -0.466060   -0.301271   -0.427030
    105          1           0       -6.942271   -3.358989   -0.567290
 ---------------------------------------------------------------------
 Rotational constants (GHZ):           0.0636283           0.0537836           0.0506571
 General basis read from cards:  (5D, 7F)
 ======================================================================================================
                                       Pseudopotential Parameters
 ======================================================================================================
  Center     Atomic      Valence      Angular      Power
  Number     Number     Electrons     Momentum     of R      Exponent        Coefficient   SO-Coeffient
 ======================================================================================================
    1          6
                                   No pseudopotential on this center.
    2          6
                                   No pseudopotential on this center.
    3          6
                                   No pseudopotential on this center.
    4          6
                                   No pseudopotential on this center.
    5          6
                                   No pseudopotential on this center.
    6          6
                                   No pseudopotential on this center.
    7          6
                                   No pseudopotential on this center.
    8          6
                                   No pseudopotential on this center.
    9          6
                                   No pseudopotential on this center.
   10          6
                                   No pseudopotential on this center.
   11          1
                                   No pseudopotential on this center.
   12          1
                                   No pseudopotential on this center.
   13          1
                                   No pseudopotential on this center.
   14          1
                                   No pseudopotential on this center.
   15          1
                                   No pseudopotential on this center.
   16          1
                                   No pseudopotential on this center.
   17          7
                                   No pseudopotential on this center.
   18          7
                                   No pseudopotential on this center.
   19          8
                                   No pseudopotential on this center.
   20          8
                                   No pseudopotential on this center.
   21          8
                                   No pseudopotential on this center.
   22          5
                                   No pseudopotential on this center.
   23          5
                                   No pseudopotential on this center.
   24          5
                                   No pseudopotential on this center.
   25          8
                                   No pseudopotential on this center.
   26          8
                                   No pseudopotential on this center.
   27          6
                                   No pseudopotential on this center.
   28          6
                                   No pseudopotential on this center.
   29          6
                                   No pseudopotential on this center.
   30          6
                                   No pseudopotential on this center.
   31          6
                                   No pseudopotential on this center.
   32          6
                                   No pseudopotential on this center.
   33          8
                                   No pseudopotential on this center.
   34          6
                                   No pseudopotential on this center.
   35          1
                                   No pseudopotential on this center.
   36          1
                                   No pseudopotential on this center.
   37          1
                                   No pseudopotential on this center.
   38          6
                                   No pseudopotential on this center.
   39          1
                                   No pseudopotential on this center.
   40          1
                                   No pseudopotential on this center.
   41          1
                                   No pseudopotential on this center.
   42          6
                                   No pseudopotential on this center.
   43          1
                                   No pseudopotential on this center.
   44          1
                                   No pseudopotential on this center.
   45          1
                                   No pseudopotential on this center.
   46          6
                                   No pseudopotential on this center.
   47          1
                                   No pseudopotential on this center.
   48          1
                                   No pseudopotential on this center.
   49          1
                                   No pseudopotential on this center.
   50          6
                                   No pseudopotential on this center.
   51          1
                                   No pseudopotential on this center.
   52          1
                                   No pseudopotential on this center.
   53          1
                                   No pseudopotential on this center.
   54          6
                                   No pseudopotential on this center.
   55          1
                                   No pseudopotential on this center.
   56          1
                                   No pseudopotential on this center.
   57          1
                                   No pseudopotential on this center.
   58          6
                                   No pseudopotential on this center.
   59          1
                                   No pseudopotential on this center.
   60          1
                                   No pseudopotential on this center.
   61          1
                                   No pseudopotential on this center.
   62          6
                                   No pseudopotential on this center.
   63          1
                                   No pseudopotential on this center.
   64          1
                                   No pseudopotential on this center.
   65          1
                                   No pseudopotential on this center.
   66          6
                                   No pseudopotential on this center.
   67          1
                                   No pseudopotential on this center.
   68          1
                                   No pseudopotential on this center.
   69          1
                                   No pseudopotential on this center.
   70          6
                                   No pseudopotential on this center.
   71          1
                                   No pseudopotential on this center.
   72          1
                                   No pseudopotential on this center.
   73          1
                                   No pseudopotential on this center.
   74          6
                                   No pseudopotential on this center.
   75          1
                                   No pseudopotential on this center.
   76          1
                                   No pseudopotential on this center.
   77          1
                                   No pseudopotential on this center.
   78          6
                                   No pseudopotential on this center.
   79          1
                                   No pseudopotential on this center.
   80          1
                                   No pseudopotential on this center.
   81          1
                                   No pseudopotential on this center.
   82          1
                                   No pseudopotential on this center.
   83          6
                                   No pseudopotential on this center.
   84          8
                                   No pseudopotential on this center.
   85          6
                                   No pseudopotential on this center.
   86          1
                                   No pseudopotential on this center.
   87          1
                                   No pseudopotential on this center.
   88          6
                                   No pseudopotential on this center.
   89          1
                                   No pseudopotential on this center.
   90          1
                                   No pseudopotential on this center.
   91          7
                                   No pseudopotential on this center.
   92          6
                                   No pseudopotential on this center.
   93          1
                                   No pseudopotential on this center.
   94          1
                                   No pseudopotential on this center.
   95          1
                                   No pseudopotential on this center.
   96          6
                                   No pseudopotential on this center.
   97          1
                                   No pseudopotential on this center.
   98          1
                                   No pseudopotential on this center.
   99          6
                                   No pseudopotential on this center.
  100          9
                                   No pseudopotential on this center.
  101          9
                                   No pseudopotential on this center.
  102          9
                                   No pseudopotential on this center.
  103          1
                                   No pseudopotential on this center.
  104         77           17
                                      G and up 
                                                     1      823.5880147       -0.15780140    0.00000000
                                                     2      364.6613336    -1517.52704460    0.00000000
                                                     2       55.7082801     -316.53065290    0.00000000
                                                     2       12.0464544      -91.88809410    0.00000000
                                                     2        3.5120610       -9.22417730    0.00000000
                                      S - G
                                                     0      188.0490770        3.15780140    0.00000000
                                                     1      340.4194712       26.83225770    0.00000000
                                                     2      128.2373673      800.42500070    0.00000000
                                                     2       33.8644961      369.40506830    0.00000000
                                                     2        4.7560005      242.41718990    0.00000000
                                                     2        3.9649974     -118.21732820    0.00000000
                                      P - G
                                                     0      289.7291139        2.15780140    0.00000000
                                                     1       87.4633789       61.96786100    0.00000000
                                                     2       30.4363766      269.05819860    0.00000000
                                                     2        4.0553412      231.16547930    0.00000000
                                                     2        3.5525341     -133.69526670    0.00000000
                                      D - G
                                                     0      136.4017106        3.15780140    0.00000000
                                                     1       95.0776925       45.93498030    0.00000000
                                                     2       49.2258410      359.03446680    0.00000000
                                                     2       15.0874145      176.47401190    0.00000000
                                                     2        4.0405764       54.51552860    0.00000000
                                      F - G
                                                     0      127.3507908        3.95461970    0.00000000
                                                     1       66.2364374       52.97736550    0.00000000
                                                     2       34.4299229      274.86433830    0.00000000
                                                     2       10.1995721      137.20473380    0.00000000
                                                     2        2.5409702       14.86333050    0.00000000
  105          1
                                   No pseudopotential on this center.
 ======================================================================================================
 There are   882 symmetry adapted cartesian basis functions of A   symmetry.
 There are   830 symmetry adapted basis functions of A   symmetry.
   830 basis functions,  1659 primitive gaussians,   882 cartesian basis functions
   197 alpha electrons      197 beta electrons
       nuclear repulsion energy      8601.4433405801 Hartrees.
 NAtoms=  105 NActive=  105 NUniq=  105 SFac= 1.00D+00 NAtFMM=   60 NAOKFM=T Big=T
 Integral buffers will be    131072 words long.
 Raffenetti 2 integral format.
 Two-electron integral symmetry is turned on.
 One-electron integrals computed using PRISM.
   1 Symmetry operations used in ECPInt.
 ECPInt:  NShTT=   50086 NPrTT=  307226 LenC2=   38728 LenP2D=  120553.
 LDataN:  DoStor=T MaxTD1= 6 Len=  172
 NBasis=   830 RedAO= T EigKep=  4.80D-04  NBF=   830
 NBsUse=   830 1.00D-06 EigRej= -1.00D+00 NBFU=   830
 Defaulting to unpruned grid for atomic number  77.
 ExpMin= 2.90D-02 ExpMax= 7.00D+03 ExpMxC= 1.05D+03 IAcc=3 IRadAn=         5 AccDes= 0.00D+00
 Harris functional with IExCor= 1009 and IRadAn=       5 diagonalized for initial guess.
 HarFok:  IExCor= 1009 AccDes= 0.00D+00 IRadAn=         5 IDoV= 1 UseB2=F ITyADJ=14
 ICtDFT=  3500011 ScaDFX=  1.000000  1.000000  1.000000  1.000000
 Defaulting to unpruned grid for atomic number  77.
 FoFCou: FMM=F IPFlag=           0 FMFlag=      100000 FMFlg1=        2001
         NFxFlg=           0 DoJE=T BraDBF=F KetDBF=T FulRan=T
         wScrn=  0.000000 ICntrl=       500 IOpCl=  0 I1Cent=   200000004 NGrid=           0
         NMat0=    1 NMatS0=      1 NMatT0=    0 NMatD0=    1 NMtDS0=    0 NMtDT0=    0
 Petite list used in FoFCou.
 Requested convergence on RMS density matrix=1.00D-08 within 128 cycles.
 Requested convergence on MAX density matrix=1.00D-06.
 Requested convergence on             energy=1.00D-06.
 No special actions if energy rises.
 Defaulting to unpruned grid for atomic number  77.
 Defaulting to unpruned grid for atomic number  77.
 Defaulting to unpruned grid for atomic number  77.
 Defaulting to unpruned grid for atomic number  77.
 Defaulting to unpruned grid for atomic number  77.
 Defaulting to unpruned grid for atomic number  77.
 Defaulting to unpruned grid for atomic number  77.
 Defaulting to unpruned grid for atomic number  77.
 Defaulting to unpruned grid for atomic number  77.
 Defaulting to unpruned grid for atomic number  77.
 Defaulting to unpruned grid for atomic number  77.
 Defaulting to unpruned grid for atomic number  77.
 Defaulting to unpruned grid for atomic number  77.
 Defaulting to unpruned grid for atomic number  77.
 Defaulting to unpruned grid for atomic number  77.
 Defaulting to unpruned grid for atomic number  77.
 SCF Done:  E(RM06) =  -2496.61554130     A.U. after   15 cycles
            NFock= 15  Conv=0.43D-08     -V/T= 2.0359
 DoSCS=F DFT=T ScalE2(SS,OS)=  1.000000  1.000000
 Range of M.O.s used for correlation:     1   830
 NBasis=   830 NAE=   197 NBE=   197 NFC=     0 NFV=     0
 NROrb=    830 NOA=   197 NOB=   197 NVA=   633 NVB=   633
   1 Symmetry operations used in ECPInt.
 ECPInt:  NShTT=   50086 NPrTT=  307226 LenC2=   38728 LenP2D=  120553.
 LDataN:  DoStor=T MaxTD1= 7 Len=  274
 Number of processors reduced to   8 by ecpmxn.
 Symmetrizing basis deriv contribution to polar:
 IMax=3 JMax=2 DiffMx= 0.00D+00
 G2DrvN: will do   106 centers at a time, making    1 passes.
 Calling FoFCou, ICntrl=  3107 FMM=T I1Cent=   0 AccDes= 0.00D+00.
 Defaulting to unpruned grid for atomic number  77.
 Defaulting to unpruned grid for atomic number  77.
 Defaulting to unpruned grid for atomic number  77.
 Defaulting to unpruned grid for atomic number  77.
 Defaulting to unpruned grid for atomic number  77.
 Defaulting to unpruned grid for atomic number  77.
 Defaulting to unpruned grid for atomic number  77.
 Defaulting to unpruned grid for atomic number  77.
 Defaulting to unpruned grid for atomic number  77.
 Defaulting to unpruned grid for atomic number  77.
 Defaulting to unpruned grid for atomic number  77.
 Defaulting to unpruned grid for atomic number  77.
 Defaulting to unpruned grid for atomic number  77.
 Defaulting to unpruned grid for atomic number  77.
 Defaulting to unpruned grid for atomic number  77.
 Defaulting to unpruned grid for atomic number  77.
 End of G2Drv F.D. properties file   721 does not exist.
 End of G2Drv F.D. properties file   722 does not exist.
 End of G2Drv F.D. properties file   788 does not exist.
          IDoAtm=11111111111111111111111111111111111111111111111111
          IDoAtm=11111111111111111111111111111111111111111111111111
          IDoAtm=11111
          Differentiating once with respect to electric field.
                with respect to dipole field.
          Differentiating once with respect to nuclear coordinates.
 Defaulting to unpruned grid for atomic number  77.
 CalDSu exits because no D1Ps are significant.
 Defaulting to unpruned grid for atomic number  77.
 Defaulting to unpruned grid for atomic number  77.
 Defaulting to unpruned grid for atomic number  77.
 Defaulting to unpruned grid for atomic number  77.
 Defaulting to unpruned grid for atomic number  77.
 Defaulting to unpruned grid for atomic number  77.
 Defaulting to unpruned grid for atomic number  77.
 Defaulting to unpruned grid for atomic number  77.
 Defaulting to unpruned grid for atomic number  77.
 Defaulting to unpruned grid for atomic number  77.
 Defaulting to unpruned grid for atomic number  77.
 Defaulting to unpruned grid for atomic number  77.
 Defaulting to unpruned grid for atomic number  77.
 Defaulting to unpruned grid for atomic number  77.
 Defaulting to unpruned grid for atomic number  77.
 Defaulting to unpruned grid for atomic number  77.
          There are   318 degrees of freedom in the 1st order CPHF.  IDoFFX=6 NUNeed=     3.
    315 vectors produced by pass  0 Test12= 1.25D-13 1.00D-09 XBig12= 4.88D+02 6.36D+00.
 AX will form    72 AO Fock derivatives at one time.
    315 vectors produced by pass  1 Test12= 1.25D-13 1.00D-09 XBig12= 9.02D+01 8.76D-01.
    315 vectors produced by pass  2 Test12= 1.25D-13 1.00D-09 XBig12= 1.06D+00 9.05D-02.
    315 vectors produced by pass  3 Test12= 1.25D-13 1.00D-09 XBig12= 6.07D-03 7.53D-03.
    315 vectors produced by pass  4 Test12= 1.25D-13 1.00D-09 XBig12= 2.25D-05 2.96D-04.
    285 vectors produced by pass  5 Test12= 1.25D-13 1.00D-09 XBig12= 4.46D-08 1.08D-05.
     75 vectors produced by pass  6 Test12= 1.25D-13 1.00D-09 XBig12= 6.94D-11 4.10D-07.
      3 vectors produced by pass  7 Test12= 1.25D-13 1.00D-09 XBig12= 9.01D-14 1.53D-08.
 InvSVY:  IOpt=1 It=  1 EMax= 1.78D-14
 Solved reduced A of dimension  1938 with   318 vectors.
 Isotropic polarizability for W=    0.000000      475.62 Bohr**3.
 End of Minotr F.D. properties file   721 does not exist.
 End of Minotr F.D. properties file   722 does not exist.
 End of Minotr F.D. properties file   788 does not exist.
 Hyperfine terms turned off by default for NAtoms > 100.

 **********************************************************************

            Population analysis using the SCF Density.

 **********************************************************************

 Orbital symmetries:
       Occupied  (A) (A) (A) (A) (A) (A) (A) (A) (A) (A) (A) (A)
                 (A) (A) (A) (A) (A) (A) (A) (A) (A) (A) (A) (A)
                 (A) (A) (A) (A) (A) (A) (A) (A) (A) (A) (A) (A)
                 (A) (A) (A) (A) (A) (A) (A) (A) (A) (A) (A) (A)
                 (A) (A) (A) (A) (A) (A) (A) (A) (A) (A) (A) (A)
                 (A) (A) (A) (A) (A) (A) (A) (A) (A) (A) (A) (A)
                 (A) (A) (A) (A) (A) (A) (A) (A) (A) (A) (A) (A)
                 (A) (A) (A) (A) (A) (A) (A) (A) (A) (A) (A) (A)
                 (A) (A) (A) (A) (A) (A) (A) (A) (A) (A) (A) (A)
                 (A) (A) (A) (A) (A) (A) (A) (A) (A) (A) (A) (A)
                 (A) (A) (A) (A) (A) (A) (A) (A) (A) (A) (A) (A)
                 (A) (A) (A) (A) (A) (A) (A) (A) (A) (A) (A) (A)
                 (A) (A) (A) (A) (A) (A) (A) (A) (A) (A) (A) (A)
                 (A) (A) (A) (A) (A) (A) (A) (A) (A) (A) (A) (A)
                 (A) (A) (A) (A) (A) (A) (A) (A) (A) (A) (A) (A)
                 (A) (A) (A) (A) (A) (A) (A) (A) (A) (A) (A) (A)
                 (A) (A) (A) (A) (A)
       Virtual   (A) (A) (A) (A) (A) (A) (A) (A) (A) (A) (A) (A)
                 (A) (A) (A) (A) (A) (A) (A) (A) (A) (A) (A) (A)
                 (A) (A) (A) (A) (A) (A) (A) (A) (A) (A) (A) (A)
                 (A) (A) (A) (A) (A) (A) (A) (A) (A) (A) (A) (A)
                 (A) (A) (A) (A) (A) (A) (A) (A) (A) (A) (A) (A)
                 (A) (A) (A) (A) (A) (A) (A) (A) (A) (A) (A) (A)
                 (A) (A) (A) (A) (A) (A) (A) (A) (A) (A) (A) (A)
                 (A) (A) (A) (A) (A) (A) (A) (A) (A) (A) (A) (A)
                 (A) (A) (A) (A) (A) (A) (A) (A) (A) (A) (A) (A)
                 (A) (A) (A) (A) (A) (A) (A) (A) (A) (A) (A) (A)
                 (A) (A) (A) (A) (A) (A) (A) (A) (A) (A) (A) (A)
                 (A) (A) (A) (A) (A) (A) (A) (A) (A) (A) (A) (A)
                 (A) (A) (A) (A) (A) (A) (A) (A) (A) (A) (A) (A)
                 (A) (A) (A) (A) (A) (A) (A) (A) (A) (A) (A) (A)
                 (A) (A) (A) (A) (A) (A) (A) (A) (A) (A) (A) (A)
                 (A) (A) (A) (A) (A) (A) (A) (A) (A) (A) (A) (A)
                 (A) (A) (A) (A) (A) (A) (A) (A) (A) (A) (A) (A)
                 (A) (A) (A) (A) (A) (A) (A) (A) (A) (A) (A) (A)
                 (A) (A) (A) (A) (A) (A) (A) (A) (A) (A) (A) (A)
                 (A) (A) (A) (A) (A) (A) (A) (A) (A) (A) (A) (A)
                 (A) (A) (A) (A) (A) (A) (A) (A) (A) (A) (A) (A)
                 (A) (A) (A) (A) (A) (A) (A) (A) (A) (A) (A) (A)
                 (A) (A) (A) (A) (A) (A) (A) (A) (A) (A) (A) (A)
                 (A) (A) (A) (A) (A) (A) (A) (A) (A) (A) (A) (A)
                 (A) (A) (A) (A) (A) (A) (A) (A) (A) (A) (A) (A)
                 (A) (A) (A) (A) (A) (A) (A) (A) (A) (A) (A) (A)
                 (A) (A) (A) (A) (A) (A) (A) (A) (A) (A) (A) (A)
                 (A) (A) (A) (A) (A) (A) (A) (A) (A) (A) (A) (A)
                 (A) (A) (A) (A) (A) (A) (A) (A) (A) (A) (A) (A)
                 (A) (A) (A) (A) (A) (A) (A) (A) (A) (A) (A) (A)
                 (A) (A) (A) (A) (A) (A) (A) (A) (A) (A) (A) (A)
                 (A) (A) (A) (A) (A) (A) (A) (A) (A) (A) (A) (A)
                 (A) (A) (A) (A) (A) (A) (A) (A) (A) (A) (A) (A)
                 (A) (A) (A) (A) (A) (A) (A) (A) (A) (A) (A) (A)
                 (A) (A) (A) (A) (A) (A) (A) (A) (A) (A) (A) (A)
                 (A) (A) (A) (A) (A) (A) (A) (A) (A) (A) (A) (A)
                 (A) (A) (A) (A) (A) (A) (A) (A) (A) (A) (A) (A)
                 (A) (A) (A) (A) (A) (A) (A) (A) (A) (A) (A) (A)
                 (A) (A) (A) (A) (A) (A) (A) (A) (A) (A) (A) (A)
                 (A) (A) (A) (A) (A) (A) (A) (A) (A) (A) (A) (A)
                 (A) (A) (A) (A) (A) (A) (A) (A) (A) (A) (A) (A)
                 (A) (A) (A) (A) (A) (A) (A) (A) (A) (A) (A) (A)
                 (A) (A) (A) (A) (A) (A) (A) (A) (A) (A) (A) (A)
                 (A) (A) (A) (A) (A) (A) (A) (A) (A) (A) (A) (A)
                 (A) (A) (A) (A) (A) (A) (A) (A) (A) (A) (A) (A)
                 (A) (A) (A) (A) (A) (A) (A) (A) (A) (A) (A) (A)
                 (A) (A) (A) (A) (A) (A) (A) (A) (A) (A) (A) (A)
                 (A) (A) (A) (A) (A) (A) (A) (A) (A) (A) (A) (A)
                 (A) (A) (A) (A) (A) (A) (A) (A) (A) (A) (A) (A)
                 (A) (A) (A) (A) (A) (A) (A) (A) (A) (A) (A) (A)
                 (A) (A) (A) (A) (A) (A) (A) (A) (A) (A) (A) (A)
                 (A) (A) (A) (A) (A) (A) (A) (A) (A) (A) (A) (A)
                 (A) (A) (A) (A) (A) (A) (A) (A) (A)
 The electronic state is 1-A.
 Alpha  occ. eigenvalues --  -24.83016 -24.82743 -24.82357 -19.21180 -19.21089
 Alpha  occ. eigenvalues --  -19.20953 -19.20709 -19.20432 -19.20119 -19.16236
 Alpha  occ. eigenvalues --  -14.45544 -14.45385 -14.40263 -10.51222 -10.32658
 Alpha  occ. eigenvalues --  -10.32210 -10.31951 -10.31047 -10.30904 -10.30158
 Alpha  occ. eigenvalues --  -10.30110 -10.29741 -10.29627 -10.29465 -10.29425
 Alpha  occ. eigenvalues --  -10.29310 -10.29105 -10.28953 -10.28702 -10.28352
 Alpha  occ. eigenvalues --  -10.28105 -10.25323 -10.24003 -10.23619 -10.23331
 Alpha  occ. eigenvalues --  -10.23271 -10.23058 -10.22983 -10.22909 -10.22804
 Alpha  occ. eigenvalues --  -10.22791 -10.22688 -10.22556 -10.22342 -10.22119
 Alpha  occ. eigenvalues --  -10.21971 -10.21672  -6.81493  -6.81275  -6.81033
 Alpha  occ. eigenvalues --   -3.64801  -2.07208  -2.06466  -2.05947  -1.35583
 Alpha  occ. eigenvalues --   -1.27115  -1.26527  -1.07136  -1.06545  -1.06238
 Alpha  occ. eigenvalues --   -1.02093  -1.00650  -1.00113  -0.99649  -0.99504
 Alpha  occ. eigenvalues --   -0.98102  -0.91659  -0.86115  -0.84110  -0.83542
 Alpha  occ. eigenvalues --   -0.81250  -0.80660  -0.80467  -0.79231  -0.77236
 Alpha  occ. eigenvalues --   -0.75665  -0.74949  -0.74919  -0.73762  -0.71202
 Alpha  occ. eigenvalues --   -0.70593  -0.70211  -0.69467  -0.68816  -0.68764
 Alpha  occ. eigenvalues --   -0.68356  -0.67639  -0.67441  -0.67363  -0.65526
 Alpha  occ. eigenvalues --   -0.64520  -0.62595  -0.61965  -0.61577  -0.61458
 Alpha  occ. eigenvalues --   -0.61367  -0.60890  -0.60333  -0.57518  -0.55590
 Alpha  occ. eigenvalues --   -0.55133  -0.55000  -0.54790  -0.54003  -0.53843
 Alpha  occ. eigenvalues --   -0.53342  -0.52480  -0.51279  -0.50556  -0.49168
 Alpha  occ. eigenvalues --   -0.49147  -0.48995  -0.48752  -0.48704  -0.47876
 Alpha  occ. eigenvalues --   -0.47786  -0.47357  -0.47096  -0.46813  -0.46685
 Alpha  occ. eigenvalues --   -0.46330  -0.46179  -0.46113  -0.45517  -0.45110
 Alpha  occ. eigenvalues --   -0.45078  -0.44834  -0.44599  -0.44464  -0.44356
 Alpha  occ. eigenvalues --   -0.44210  -0.43967  -0.43459  -0.43252  -0.42884
 Alpha  occ. eigenvalues --   -0.42805  -0.42642  -0.41829  -0.40842  -0.40729
 Alpha  occ. eigenvalues --   -0.40417  -0.40334  -0.40230  -0.40117  -0.40064
 Alpha  occ. eigenvalues --   -0.39958  -0.39774  -0.39682  -0.39542  -0.39302
 Alpha  occ. eigenvalues --   -0.39195  -0.39072  -0.38352  -0.38194  -0.37907
 Alpha  occ. eigenvalues --   -0.37817  -0.37431  -0.37312  -0.37291  -0.37111
 Alpha  occ. eigenvalues --   -0.36944  -0.36624  -0.36384  -0.36370  -0.36283
 Alpha  occ. eigenvalues --   -0.35987  -0.35836  -0.35360  -0.35084  -0.34913
 Alpha  occ. eigenvalues --   -0.34660  -0.34504  -0.33928  -0.33576  -0.33274
 Alpha  occ. eigenvalues --   -0.32968  -0.32553  -0.32513  -0.32115  -0.31763
 Alpha  occ. eigenvalues --   -0.31471  -0.31050  -0.30955  -0.30483  -0.30030
 Alpha  occ. eigenvalues --   -0.28381  -0.28236  -0.27308  -0.27221  -0.26998
 Alpha  occ. eigenvalues --   -0.26329  -0.26048  -0.25902  -0.23771  -0.23554
 Alpha  occ. eigenvalues --   -0.22195  -0.18754
 Alpha virt. eigenvalues --   -0.07584  -0.04131  -0.03397   0.00754   0.01954
 Alpha virt. eigenvalues --    0.03592   0.05152   0.06064   0.06595   0.06637
 Alpha virt. eigenvalues --    0.07359   0.08195   0.09307   0.09476   0.10311
 Alpha virt. eigenvalues --    0.10695   0.11044   0.11320   0.11467   0.11636
 Alpha virt. eigenvalues --    0.12229   0.12586   0.12902   0.13273   0.13402
 Alpha virt. eigenvalues --    0.13585   0.13899   0.14356   0.14569   0.14880
 Alpha virt. eigenvalues --    0.14972   0.15128   0.15238   0.15461   0.15759
 Alpha virt. eigenvalues --    0.15937   0.16121   0.16284   0.16418   0.16661
 Alpha virt. eigenvalues --    0.16850   0.16973   0.17070   0.17181   0.17343
 Alpha virt. eigenvalues --    0.17648   0.18260   0.18331   0.18431   0.18642
 Alpha virt. eigenvalues --    0.19008   0.19100   0.19273   0.19382   0.19596
 Alpha virt. eigenvalues --    0.19729   0.20287   0.20362   0.20618   0.20762
 Alpha virt. eigenvalues --    0.20858   0.21223   0.21652   0.21746   0.22035
 Alpha virt. eigenvalues --    0.22112   0.22489   0.22655   0.22948   0.23139
 Alpha virt. eigenvalues --    0.23386   0.23476   0.23587   0.23922   0.24066
 Alpha virt. eigenvalues --    0.24180   0.24615   0.24816   0.25001   0.25319
 Alpha virt. eigenvalues --    0.25506   0.25754   0.26002   0.26329   0.26610
 Alpha virt. eigenvalues --    0.26681   0.26956   0.27299   0.27590   0.27889
 Alpha virt. eigenvalues --    0.28087   0.28202   0.28888   0.29603   0.30302
 Alpha virt. eigenvalues --    0.30539   0.30793   0.31435   0.31808   0.32050
 Alpha virt. eigenvalues --    0.32597   0.32798   0.34212   0.34730   0.35251
 Alpha virt. eigenvalues --    0.35730   0.36597   0.36814   0.37310   0.37743
 Alpha virt. eigenvalues --    0.37912   0.38739   0.39038   0.39623   0.41131
 Alpha virt. eigenvalues --    0.41648   0.42822   0.43179   0.44738   0.45945
 Alpha virt. eigenvalues --    0.46979   0.47753   0.48346   0.48692   0.48992
 Alpha virt. eigenvalues --    0.49428   0.49962   0.50422   0.51116   0.51255
 Alpha virt. eigenvalues --    0.51324   0.51367   0.51821   0.52270   0.52798
 Alpha virt. eigenvalues --    0.53106   0.53305   0.54063   0.54565   0.55201
 Alpha virt. eigenvalues --    0.55739   0.55886   0.56156   0.56570   0.56817
 Alpha virt. eigenvalues --    0.57023   0.57321   0.57356   0.57617   0.57928
 Alpha virt. eigenvalues --    0.58140   0.58684   0.58766   0.58936   0.59247
 Alpha virt. eigenvalues --    0.59547   0.59841   0.60090   0.60134   0.60454
 Alpha virt. eigenvalues --    0.60868   0.61346   0.61939   0.62253   0.62401
 Alpha virt. eigenvalues --    0.62642   0.62832   0.63310   0.63623   0.63645
 Alpha virt. eigenvalues --    0.63972   0.64713   0.65345   0.65698   0.65969
 Alpha virt. eigenvalues --    0.66050   0.66860   0.67005   0.67307   0.67538
 Alpha virt. eigenvalues --    0.67863   0.68426   0.68657   0.68765   0.69218
 Alpha virt. eigenvalues --    0.70057   0.70668   0.70769   0.70984   0.71360
 Alpha virt. eigenvalues --    0.71714   0.71994   0.72364   0.72723   0.73079
 Alpha virt. eigenvalues --    0.73470   0.73701   0.74590   0.74768   0.75202
 Alpha virt. eigenvalues --    0.75525   0.75754   0.76028   0.76169   0.76307
 Alpha virt. eigenvalues --    0.77030   0.77785   0.78137   0.78500   0.78631
 Alpha virt. eigenvalues --    0.79121   0.79783   0.80243   0.80510   0.80892
 Alpha virt. eigenvalues --    0.80938   0.81586   0.82139   0.82564   0.82861
 Alpha virt. eigenvalues --    0.82933   0.83565   0.83861   0.84185   0.84520
 Alpha virt. eigenvalues --    0.84553   0.84995   0.85115   0.85737   0.85896
 Alpha virt. eigenvalues --    0.86150   0.86175   0.86496   0.86841   0.87212
 Alpha virt. eigenvalues --    0.87512   0.87672   0.87887   0.87958   0.88595
 Alpha virt. eigenvalues --    0.88777   0.88943   0.89060   0.89211   0.89361
 Alpha virt. eigenvalues --    0.89934   0.90051   0.90371   0.90666   0.90751
 Alpha virt. eigenvalues --    0.90869   0.91074   0.91674   0.91753   0.92005
 Alpha virt. eigenvalues --    0.92436   0.92653   0.92819   0.93345   0.94058
 Alpha virt. eigenvalues --    0.94185   0.94448   0.95043   0.95182   0.95355
 Alpha virt. eigenvalues --    0.95584   0.95950   0.96216   0.96523   0.96878
 Alpha virt. eigenvalues --    0.97239   0.97694   0.98347   0.98763   0.98810
 Alpha virt. eigenvalues --    0.99214   0.99819   1.00322   1.00598   1.00830
 Alpha virt. eigenvalues --    1.01462   1.02193   1.02224   1.02436   1.03825
 Alpha virt. eigenvalues --    1.03988   1.05223   1.05750   1.05973   1.06768
 Alpha virt. eigenvalues --    1.07348   1.07749   1.08528   1.09348   1.09937
 Alpha virt. eigenvalues --    1.10314   1.10643   1.11092   1.11536   1.12269
 Alpha virt. eigenvalues --    1.12617   1.13906   1.14071   1.14523   1.14683
 Alpha virt. eigenvalues --    1.15534   1.16401   1.16573   1.16773   1.17023
 Alpha virt. eigenvalues --    1.17912   1.18253   1.18360   1.18962   1.19463
 Alpha virt. eigenvalues --    1.20187   1.21074   1.21342   1.21622   1.22026
 Alpha virt. eigenvalues --    1.22583   1.23141   1.23453   1.24401   1.24911
 Alpha virt. eigenvalues --    1.25113   1.25970   1.26649   1.27001   1.27782
 Alpha virt. eigenvalues --    1.28469   1.28987   1.29808   1.30865   1.31268
 Alpha virt. eigenvalues --    1.32373   1.33554   1.34086   1.34311   1.34981
 Alpha virt. eigenvalues --    1.35174   1.35789   1.36160   1.37135   1.37591
 Alpha virt. eigenvalues --    1.37915   1.38570   1.39053   1.39324   1.39986
 Alpha virt. eigenvalues --    1.40326   1.40904   1.41315   1.42257   1.42537
 Alpha virt. eigenvalues --    1.42952   1.43442   1.43784   1.44529   1.44915
 Alpha virt. eigenvalues --    1.45165   1.45902   1.46289   1.46382   1.46524
 Alpha virt. eigenvalues --    1.47267   1.47477   1.48045   1.48177   1.48747
 Alpha virt. eigenvalues --    1.49602   1.50525   1.51335   1.52330   1.54156
 Alpha virt. eigenvalues --    1.54684   1.54920   1.55970   1.56760   1.56925
 Alpha virt. eigenvalues --    1.57963   1.60472   1.61337   1.62085   1.62695
 Alpha virt. eigenvalues --    1.63555   1.64199   1.64481   1.64669   1.65151
 Alpha virt. eigenvalues --    1.65927   1.66243   1.67221   1.67422   1.68191
 Alpha virt. eigenvalues --    1.68794   1.69320   1.69384   1.70397   1.71030
 Alpha virt. eigenvalues --    1.71733   1.72840   1.73124   1.74261   1.74927
 Alpha virt. eigenvalues --    1.75410   1.75732   1.75838   1.76125   1.77336
 Alpha virt. eigenvalues --    1.77907   1.78095   1.78632   1.78975   1.79281
 Alpha virt. eigenvalues --    1.79614   1.80238   1.80774   1.81614   1.81932
 Alpha virt. eigenvalues --    1.82128   1.82644   1.83100   1.83859   1.84326
 Alpha virt. eigenvalues --    1.84584   1.85051   1.85280   1.85785   1.86048
 Alpha virt. eigenvalues --    1.86668   1.87173   1.87764   1.88431   1.88850
 Alpha virt. eigenvalues --    1.89091   1.89181   1.89597   1.90021   1.90716
 Alpha virt. eigenvalues --    1.91064   1.91281   1.91368   1.91799   1.91995
 Alpha virt. eigenvalues --    1.92277   1.92641   1.93340   1.93548   1.93756
 Alpha virt. eigenvalues --    1.94220   1.94505   1.95184   1.95382   1.95992
 Alpha virt. eigenvalues --    1.96241   1.96818   1.97132   1.97760   1.98700
 Alpha virt. eigenvalues --    1.99007   1.99389   1.99713   2.00489   2.00979
 Alpha virt. eigenvalues --    2.01853   2.02301   2.02761   2.03233   2.03657
 Alpha virt. eigenvalues --    2.03714   2.04171   2.04426   2.05321   2.05709
 Alpha virt. eigenvalues --    2.06029   2.07023   2.07053   2.07789   2.08025
 Alpha virt. eigenvalues --    2.08142   2.08522   2.08944   2.09329   2.09691
 Alpha virt. eigenvalues --    2.09984   2.10323   2.10933   2.11340   2.11827
 Alpha virt. eigenvalues --    2.11872   2.12327   2.13098   2.13299   2.13757
 Alpha virt. eigenvalues --    2.13992   2.14787   2.14990   2.15304   2.16065
 Alpha virt. eigenvalues --    2.16235   2.16648   2.17172   2.17282   2.17440
 Alpha virt. eigenvalues --    2.18124   2.19003   2.19107   2.19323   2.19995
 Alpha virt. eigenvalues --    2.20228   2.20407   2.20532   2.21240   2.21870
 Alpha virt. eigenvalues --    2.22352   2.22852   2.23503   2.23738   2.23881
 Alpha virt. eigenvalues --    2.24235   2.24444   2.24876   2.25145   2.25599
 Alpha virt. eigenvalues --    2.26070   2.26453   2.26824   2.27055   2.27253
 Alpha virt. eigenvalues --    2.27785   2.27999   2.28596   2.29201   2.29279
 Alpha virt. eigenvalues --    2.29792   2.30909   2.31805   2.32063   2.33124
 Alpha virt. eigenvalues --    2.33384   2.33827   2.34142   2.34492   2.35031
 Alpha virt. eigenvalues --    2.36371   2.36707   2.38177   2.38913   2.39129
 Alpha virt. eigenvalues --    2.39977   2.40348   2.41246   2.41714   2.43780
 Alpha virt. eigenvalues --    2.44960   2.45773   2.46716   2.47210   2.47427
 Alpha virt. eigenvalues --    2.47736   2.48098   2.49107   2.49957   2.50204
 Alpha virt. eigenvalues --    2.51567   2.52040   2.53053   2.54235   2.54791
 Alpha virt. eigenvalues --    2.57263   2.58297   2.60416   2.61191   2.61724
 Alpha virt. eigenvalues --    2.61879   2.62918   2.63670   2.64210   2.64733
 Alpha virt. eigenvalues --    2.65264   2.65971   2.66590   2.67207   2.68658
 Alpha virt. eigenvalues --    2.69565   2.70382   2.71969   2.73010   2.76225
 Alpha virt. eigenvalues --    2.76459   2.77022   2.77503   2.77809   2.78092
 Alpha virt. eigenvalues --    2.78379   2.79249   2.79879   2.80574   2.80922
 Alpha virt. eigenvalues --    2.81225   2.81872   2.82424   2.82777   2.84058
 Alpha virt. eigenvalues --    2.85265   2.89737   2.90141   2.91329   2.92499
 Alpha virt. eigenvalues --    2.93821   2.94483   2.94947   2.95819   2.96388
 Alpha virt. eigenvalues --    2.97184   3.00230   3.03627   3.04579   3.06682
 Alpha virt. eigenvalues --    3.06944   3.07822   3.08468   3.09791   3.11657
 Alpha virt. eigenvalues --    3.12956   3.14331   3.15442   3.22080   3.26431
 Alpha virt. eigenvalues --    3.31619   3.45353  13.14526
          Condensed to atoms (all electrons):
 Mulliken charges:
               1
     1  C    0.331149
     2  C    0.083289
     3  C   -0.087623
     4  C   -0.151271
     5  C   -0.190347
     6  C    0.361657
     7  C    0.035969
     8  C   -0.152878
     9  C   -0.136139
    10  C   -0.156347
    11  H    0.225622
    12  H    0.198553
    13  H    0.177999
    14  H    0.204361
    15  H    0.184412
    16  H    0.172980
    17  N   -0.533681
    18  N   -0.497958
    19  O   -0.514953
    20  O   -0.503313
    21  O   -0.529891
    22  B    0.538611
    23  B    0.420977
    24  B    0.469544
    25  O   -0.497118
    26  O   -0.514062
    27  C    0.295712
    28  C    0.285439
    29  C    0.289470
    30  C    0.279989
    31  C    0.288812
    32  C    0.292198
    33  O   -0.498288
    34  C   -0.494388
    35  H    0.179076
    36  H    0.157018
    37  H    0.144961
    38  C   -0.508737
    39  H    0.174082
    40  H    0.152996
    41  H    0.160019
    42  C   -0.504544
    43  H    0.150782
    44  H    0.164720
    45  H    0.172283
    46  C   -0.521057
    47  H    0.149724
    48  H    0.155625
    49  H    0.184862
    50  C   -0.509918
    51  H    0.150533
    52  H    0.170271
    53  H    0.177156
    54  C   -0.500172
    55  H    0.151788
    56  H    0.183403
    57  H    0.147785
    58  C   -0.500474
    59  H    0.151176
    60  H    0.176158
    61  H    0.163920
    62  C   -0.504123
    63  H    0.160476
    64  H    0.168704
    65  H    0.152344
    66  C   -0.502252
    67  H    0.174069
    68  H    0.179040
    69  H    0.142043
    70  C   -0.503605
    71  H    0.149642
    72  H    0.161178
    73  H    0.172185
    74  C   -0.510010
    75  H    0.177683
    76  H    0.152689
    77  H    0.174365
    78  C   -0.504848
    79  H    0.170018
    80  H    0.154506
    81  H    0.162781
    82  H    0.166876
    83  C    0.573282
    84  O   -0.536148
    85  C   -0.398580
    86  H    0.151601
    87  H    0.175608
    88  C   -0.337156
    89  H    0.183549
    90  H    0.134523
    91  N   -0.359909
    92  C   -0.362475
    93  H    0.214159
    94  H    0.157963
    95  H    0.166255
    96  C   -0.472863
    97  H    0.182888
    98  H    0.150422
    99  C    0.968171
   100  F   -0.317382
   101  F   -0.310285
   102  F   -0.305546
   103  H    0.183082
   104  Ir  -0.136363
   105  H    0.149522
 Sum of Mulliken charges =  -0.00000
 Mulliken charges with hydrogens summed into heavy atoms:
               1
     1  C    0.331149
     2  C    0.308911
     3  C   -0.087623
     4  C    0.047281
     5  C   -0.012348
     6  C    0.361657
     7  C    0.240330
     8  C    0.030204
     9  C    0.048273
    10  C    0.016633
    17  N   -0.533681
    18  N   -0.497958
    19  O   -0.514953
    20  O   -0.503313
    21  O   -0.529891
    22  B    0.538611
    23  B    0.420977
    24  B    0.469544
    25  O   -0.497118
    26  O   -0.514062
    27  C    0.295712
    28  C    0.285439
    29  C    0.289470
    30  C    0.279989
    31  C    0.288812
    32  C    0.292198
    33  O   -0.498288
    34  C   -0.013332
    38  C   -0.021640
    42  C   -0.016759
    46  C   -0.030846
    50  C   -0.011959
    54  C   -0.017196
    58  C   -0.009220
    62  C   -0.022599
    66  C   -0.007100
    70  C   -0.020600
    74  C   -0.005273
    78  C   -0.017544
    83  C    0.573282
    84  O   -0.536148
    85  C   -0.071371
    88  C   -0.019084
    91  N   -0.359909
    92  C    0.175902
    96  C    0.009969
    99  C    0.968171
   100  F   -0.317382
   101  F   -0.310285
   102  F   -0.305546
   104  Ir   0.030512
 APT charges:
               1
     1  C    0.256434
     2  C    0.076129
     3  C   -0.205336
     4  C    0.102388
     5  C   -0.198286
     6  C    0.157161
     7  C    0.045014
     8  C   -0.056137
     9  C    0.114381
    10  C   -0.132507
    11  H    0.117968
    12  H    0.062913
    13  H    0.045076
    14  H    0.063439
    15  H    0.036054
    16  H    0.041586
    17  N   -0.081347
    18  N   -0.148032
    19  O   -0.994378
    20  O   -0.928541
    21  O   -1.010944
    22  B    1.158312
    23  B    1.305582
    24  B    1.364416
    25  O   -0.974240
    26  O   -0.944472
    27  C    0.495230
    28  C    0.490875
    29  C    0.501615
    30  C    0.499080
    31  C    0.460586
    32  C    0.470400
    33  O   -0.886350
    34  C   -0.027584
    35  H    0.007418
    36  H    0.005116
    37  H   -0.026327
    38  C   -0.006183
    39  H    0.004879
    40  H   -0.018467
    41  H   -0.007771
    42  C   -0.004686
    43  H   -0.016352
    44  H   -0.001576
    45  H    0.003009
    46  C   -0.059671
    47  H   -0.020083
    48  H    0.000470
    49  H    0.040959
    50  C   -0.000718
    51  H   -0.018502
    52  H    0.005587
    53  H    0.003573
    54  C   -0.019347
    55  H   -0.019451
    56  H    0.008193
    57  H   -0.017506
    58  C   -0.024968
    59  H   -0.022629
    60  H    0.002991
    61  H    0.000319
    62  C   -0.006977
    63  H   -0.011581
    64  H    0.000584
    65  H   -0.011965
    66  C   -0.033083
    67  H    0.001880
    68  H    0.026126
    69  H   -0.026513
    70  C   -0.006348
    71  H   -0.016784
    72  H   -0.000859
    73  H    0.000851
    74  C   -0.044650
    75  H    0.013104
    76  H   -0.022715
    77  H    0.005533
    78  C   -0.007796
    79  H    0.004466
    80  H   -0.019719
    81  H   -0.001518
    82  H   -0.004390
    83  C    0.885605
    84  O   -0.715975
    85  C    0.012475
    86  H   -0.029165
    87  H   -0.027085
    88  C    0.355319
    89  H   -0.027231
    90  H   -0.091248
    91  N   -0.790800
    92  C    0.264934
    93  H    0.061736
    94  H   -0.036487
    95  H   -0.035320
    96  C    0.074424
    97  H    0.010888
    98  H   -0.010414
    99  C    1.789219
   100  F   -0.594297
   101  F   -0.524976
   102  F   -0.585637
   103  H    0.042243
   104  Ir  -0.899668
   105  H   -0.040948
 Sum of APT charges =  -0.00000
 APT charges with hydrogens summed into heavy atoms:
               1
     1  C    0.256434
     2  C    0.194097
     3  C   -0.205336
     4  C    0.165301
     5  C   -0.153210
     6  C    0.157161
     7  C    0.108453
     8  C   -0.013894
     9  C    0.150435
    10  C   -0.090922
    17  N   -0.081347
    18  N   -0.148032
    19  O   -0.994378
    20  O   -0.928541
    21  O   -1.010944
    22  B    1.158312
    23  B    1.305582
    24  B    1.364416
    25  O   -0.974240
    26  O   -0.944472
    27  C    0.495230
    28  C    0.490875
    29  C    0.501615
    30  C    0.499080
    31  C    0.460586
    32  C    0.470400
    33  O   -0.886350
    34  C   -0.041378
    38  C   -0.027542
    42  C   -0.019606
    46  C   -0.038325
    50  C   -0.010060
    54  C   -0.048111
    58  C   -0.044286
    62  C   -0.029939
    66  C   -0.031590
    70  C   -0.023140
    74  C   -0.048727
    78  C   -0.024567
    83  C    0.885605
    84  O   -0.715975
    85  C   -0.043775
    88  C    0.236840
    91  N   -0.790800
    92  C    0.254862
    96  C    0.033949
    99  C    1.789219
   100  F   -0.594297
   101  F   -0.524976
   102  F   -0.585637
   104  Ir  -0.904058
 Electronic spatial extent (au):  <R**2>=          27473.2681
 Charge=             -0.0000 electrons
 Dipole moment (field-independent basis, Debye):
    X=             -2.7846    Y=              3.1180    Z=              1.1914  Tot=              4.3469
 Quadrupole moment (field-independent basis, Debye-Ang):
   XX=           -291.4790   YY=           -307.3968   ZZ=           -308.9322
   XY=            -14.5601   XZ=             -6.2187   YZ=              9.1970
 Traceless Quadrupole moment (field-independent basis, Debye-Ang):
   XX=             11.1237   YY=             -4.7941   ZZ=             -6.3295
   XY=            -14.5601   XZ=             -6.2187   YZ=              9.1970
 Octapole moment (field-independent basis, Debye-Ang**2):
  XXX=            -74.6890  YYY=            -18.9856  ZZZ=             92.4131  XYY=             25.4321
  XXY=             31.1501  XXZ=            -38.6149  XZZ=            -58.8452  YZZ=              6.7478
  YYZ=            -52.7287  XYZ=            -26.9757
 Hexadecapole moment (field-independent basis, Debye-Ang**3):
 XXXX=         -14465.1249 YYYY=         -11544.8742 ZZZZ=          -8513.3205 XXXY=           -153.1496
 XXXZ=            142.4050 YYYX=           -116.5736 YYYZ=             10.6798 ZZZX=             11.1478
 ZZZY=             88.0988 XXYY=          -4416.3048 XXZZ=          -3961.7936 YYZZ=          -3438.7238
 XXYZ=            142.0447 YYXZ=            151.9282 ZZXY=            -71.5551
 N-N= 8.601443340580D+03 E-N=-2.300815539398D+04  KE= 2.410142415792D+03
  Exact polarizability:     540.881      -7.193     425.929      -6.843      12.241     460.051
 Approx polarizability:     761.812     -23.602     579.287       3.657      23.014     740.599
   1 Symmetry operations used in ECPInt.
 ECPInt:  NShTT=   50086 NPrTT=  307226 LenC2=   38728 LenP2D=  120553.
 LDataN:  DoStor=T MaxTD1= 8 Len=  415
 Calling FoFJK, ICntrl=    100127 FMM=F ISym2X=0 I1Cent= 0 IOpClX= 0 NMat=1 NMatS=1 NMatT=0.
 Defaulting to unpruned grid for atomic number  77.
 Defaulting to unpruned grid for atomic number  77.
 Defaulting to unpruned grid for atomic number  77.
 Defaulting to unpruned grid for atomic number  77.
 Defaulting to unpruned grid for atomic number  77.
 Defaulting to unpruned grid for atomic number  77.
 Defaulting to unpruned grid for atomic number  77.
 Defaulting to unpruned grid for atomic number  77.
 Defaulting to unpruned grid for atomic number  77.
 Defaulting to unpruned grid for atomic number  77.
 Defaulting to unpruned grid for atomic number  77.
 Defaulting to unpruned grid for atomic number  77.
 Defaulting to unpruned grid for atomic number  77.
 Defaulting to unpruned grid for atomic number  77.
 Defaulting to unpruned grid for atomic number  77.
 Defaulting to unpruned grid for atomic number  77.
 Full mass-weighted force constant matrix:
 Low frequencies ---   -5.3047   -0.0006   -0.0003    0.0003    1.5657    6.7991
 Low frequencies ---    9.0008   19.6591   28.1728
 Diagonal vibrational polarizability:
      120.4416475     127.7930897      58.0169280
 Harmonic frequencies (cm**-1), IR intensities (KM/Mole), Raman scattering
 activities (A**4/AMU), depolarization ratios for plane and unpolarized
 incident light, reduced masses (AMU), force constants (mDyne/A),
 and normal coordinates:
                      1                      2                      3
                      A                      A                      A
 Frequencies --      4.5665                19.4068                28.1234
 Red. masses --      7.4966                 4.7049                 4.9130
 Frc consts  --      0.0001                 0.0010                 0.0023
 IR Inten    --      0.0279                 0.5454                 0.6565
  Atom AN      X      Y      Z        X      Y      Z        X      Y      Z
     1   6    -0.02   0.00  -0.00    -0.02   0.01  -0.01    -0.03  -0.02  -0.05
     2   6    -0.01   0.03   0.03    -0.02  -0.01   0.01    -0.03   0.01  -0.03
     3   6    -0.02   0.10   0.02    -0.03  -0.01   0.01    -0.04  -0.01  -0.03
     4   6    -0.03   0.12   0.00    -0.04   0.00  -0.00    -0.06  -0.04  -0.03
     5   6    -0.03   0.06  -0.01    -0.03   0.01  -0.01    -0.05  -0.05  -0.04
     6   6    -0.02  -0.02  -0.01    -0.01   0.01  -0.03    -0.02  -0.02  -0.06
     7   6     0.01  -0.03  -0.02     0.01  -0.01  -0.03     0.00  -0.01  -0.08
     8   6    -0.00  -0.04  -0.04     0.00   0.01  -0.04    -0.00  -0.00  -0.09
     9   6    -0.02  -0.05  -0.03    -0.00   0.03  -0.05    -0.02  -0.00  -0.09
    10   6    -0.03  -0.04  -0.02    -0.01   0.04  -0.04    -0.03  -0.01  -0.08
    11   1    -0.00   0.02   0.05    -0.02  -0.02   0.02    -0.01   0.03  -0.02
    12   1    -0.03   0.17  -0.01    -0.05   0.00   0.00    -0.07  -0.06  -0.03
    13   1    -0.03   0.08  -0.02    -0.04   0.01  -0.02    -0.06  -0.07  -0.05
    14   1     0.02  -0.02  -0.02     0.01  -0.02  -0.03     0.01  -0.00  -0.07
    15   1    -0.03  -0.07  -0.04    -0.00   0.05  -0.06    -0.02   0.00  -0.10
    16   1    -0.04  -0.05  -0.02    -0.02   0.06  -0.04    -0.04  -0.01  -0.08
    17   7    -0.01  -0.01   0.02    -0.01   0.00  -0.00    -0.02   0.00  -0.04
    18   7    -0.00  -0.02  -0.01    -0.00  -0.00  -0.02    -0.01  -0.01  -0.06
    19   8    -0.00  -0.01   0.00     0.02   0.02   0.03     0.01  -0.01  -0.04
    20   8     0.02   0.01   0.05     0.03  -0.01  -0.03    -0.02   0.06   0.04
    21   8    -0.00  -0.05  -0.04     0.01  -0.02  -0.05     0.01   0.02   0.02
    22   5     0.02  -0.01   0.04     0.00  -0.01  -0.02     0.00   0.01   0.02
    23   5     0.02  -0.04   0.01     0.01   0.00   0.02     0.00  -0.00  -0.04
    24   5    -0.01  -0.03  -0.02     0.00   0.00  -0.03     0.02  -0.00  -0.01
    25   8    -0.03   0.00  -0.04    -0.01   0.03  -0.05     0.04  -0.03   0.01
    26   8     0.04  -0.07   0.02    -0.00  -0.02   0.04     0.00   0.01  -0.05
    27   6     0.04  -0.07   0.01     0.00  -0.01   0.06     0.00   0.01  -0.05
    28   6     0.01  -0.02   0.01     0.02   0.02   0.06     0.00  -0.01  -0.05
    29   6    -0.02  -0.05  -0.08     0.01   0.00  -0.09     0.02   0.00   0.05
    30   6    -0.04  -0.00  -0.07    -0.00   0.04  -0.08     0.03  -0.03   0.05
    31   6     0.03   0.01   0.08     0.02  -0.02  -0.05    -0.00   0.06   0.09
    32   6     0.03  -0.01   0.08    -0.01  -0.01  -0.05     0.03   0.01   0.10
    33   8     0.03  -0.02   0.06    -0.02  -0.00  -0.04     0.03  -0.01   0.05
    34   6     0.01   0.00   0.06     0.03   0.03   0.08    -0.00  -0.02  -0.06
    35   1    -0.02   0.03   0.05     0.03   0.05   0.07     0.01  -0.03  -0.06
    36   1     0.02  -0.00   0.09     0.03   0.03   0.08    -0.01  -0.02  -0.07
    37   1     0.01  -0.01   0.06     0.03   0.02   0.09    -0.01  -0.01  -0.06
    38   6    -0.01  -0.01  -0.03     0.02   0.03   0.06     0.01  -0.01  -0.04
    39   1    -0.03   0.02  -0.03     0.03   0.05   0.05     0.01  -0.03  -0.04
    40   1     0.00  -0.02  -0.03     0.02   0.02   0.08     0.00  -0.00  -0.05
    41   1    -0.00  -0.02  -0.06     0.01   0.02   0.04     0.01  -0.00  -0.03
    42   6     0.05  -0.09   0.05    -0.00  -0.03   0.09     0.00   0.01  -0.06
    43   1     0.05  -0.08   0.05    -0.00  -0.02   0.10     0.00   0.00  -0.06
    44   1     0.05  -0.07   0.09    -0.01  -0.02   0.10     0.01   0.01  -0.08
    45   1     0.06  -0.13   0.05    -0.01  -0.05   0.09    -0.01   0.03  -0.06
    46   6     0.04  -0.09  -0.04    -0.01  -0.03   0.04     0.00   0.02  -0.03
    47   1     0.04  -0.10  -0.06    -0.00  -0.02   0.06     0.00   0.02  -0.03
    48   1     0.07  -0.12  -0.04    -0.01  -0.05   0.04    -0.01   0.02  -0.03
    49   1     0.02  -0.08  -0.06    -0.00  -0.02   0.02     0.01   0.01  -0.02
    50   6     0.03   0.02   0.10     0.04  -0.02  -0.04    -0.01   0.09   0.12
    51   1     0.04   0.02   0.11     0.03  -0.02  -0.06    -0.00   0.09   0.16
    52   1     0.03   0.01   0.10     0.03  -0.02  -0.02    -0.00   0.07   0.11
    53   1     0.03   0.04   0.09     0.06  -0.02  -0.04    -0.03   0.12   0.11
    54   6     0.02   0.03   0.07     0.03  -0.02  -0.07    -0.02   0.09   0.11
    55   1     0.03   0.03   0.09     0.03  -0.03  -0.09    -0.01   0.10   0.15
    56   1     0.02   0.05   0.07     0.05  -0.03  -0.07    -0.04   0.13   0.09
    57   1     0.02   0.02   0.06     0.02  -0.02  -0.08    -0.01   0.08   0.09
    58   6     0.04  -0.02   0.10    -0.02  -0.00  -0.03     0.05  -0.02   0.11
    59   1     0.04  -0.02   0.11    -0.01  -0.01  -0.04     0.04  -0.00   0.16
    60   1     0.03  -0.04   0.09    -0.05   0.01  -0.03     0.09  -0.08   0.11
    61   1     0.04  -0.03   0.09    -0.01  -0.01   0.00     0.03  -0.00   0.05
    62   6     0.04  -0.02   0.10    -0.02  -0.01  -0.08     0.05  -0.00   0.15
    63   1     0.03  -0.02   0.09    -0.02  -0.01  -0.09     0.04   0.01   0.14
    64   1     0.04  -0.04   0.10    -0.04  -0.00  -0.08     0.07  -0.04   0.16
    65   1     0.04  -0.01   0.11    -0.01  -0.01  -0.09     0.05   0.02   0.19
    66   6    -0.05   0.01  -0.07    -0.02   0.08  -0.07     0.05  -0.06   0.04
    67   1    -0.07   0.04  -0.06    -0.03   0.10  -0.06     0.06  -0.08   0.03
    68   1    -0.04   0.00  -0.04    -0.02   0.07  -0.04     0.05  -0.05   0.02
    69   1    -0.06   0.01  -0.10    -0.02   0.09  -0.09     0.05  -0.07   0.06
    70   6    -0.06   0.01  -0.10     0.00   0.06  -0.12     0.04  -0.05   0.08
    71   1    -0.07   0.01  -0.13     0.01   0.07  -0.15     0.04  -0.05   0.11
    72   1    -0.06   0.00  -0.11     0.01   0.04  -0.13     0.03  -0.03   0.08
    73   1    -0.08   0.04  -0.09    -0.01   0.09  -0.11     0.05  -0.07   0.07
    74   6    -0.02  -0.06  -0.11     0.02  -0.02  -0.12     0.01   0.02   0.08
    75   1    -0.02  -0.05  -0.10     0.02  -0.03  -0.12     0.01   0.02   0.08
    76   1    -0.03  -0.06  -0.14     0.02  -0.01  -0.15     0.01   0.01   0.11
    77   1    -0.01  -0.09  -0.11     0.02  -0.05  -0.12     0.00   0.05   0.08
    78   6    -0.02  -0.07  -0.11     0.01   0.01  -0.10     0.01   0.01   0.07
    79   1     0.01  -0.10  -0.11     0.02  -0.03  -0.10    -0.00   0.04   0.07
    80   1    -0.04  -0.06  -0.14     0.01   0.03  -0.13     0.02  -0.01   0.10
    81   1    -0.02  -0.06  -0.09    -0.00   0.02  -0.07     0.02  -0.01   0.05
    82   1     0.01   0.00   0.01     0.01  -0.01  -0.01     0.02  -0.00  -0.04
    83   6    -0.01  -0.02  -0.04     0.03   0.01   0.12     0.02   0.00   0.07
    84   8    -0.02  -0.04  -0.04     0.08   0.05   0.11     0.07   0.03   0.07
    85   6     0.00  -0.02  -0.05    -0.00  -0.02   0.18    -0.00  -0.02   0.13
    86   1     0.00  -0.01  -0.05    -0.04  -0.05   0.16    -0.04  -0.05   0.11
    87   1     0.01  -0.01  -0.07    -0.02  -0.04   0.21    -0.02  -0.03   0.15
    88   6    -0.01  -0.02  -0.01     0.03  -0.01   0.01     0.03  -0.01  -0.03
    89   1    -0.02  -0.02  -0.02     0.09  -0.02   0.02     0.07  -0.01  -0.02
    90   1    -0.01  -0.02  -0.01     0.02  -0.00  -0.03     0.01  -0.01  -0.06
    91   7    -0.00  -0.01  -0.03     0.00  -0.01   0.07    -0.00  -0.01   0.02
    92   6     0.01   0.00  -0.03    -0.06  -0.04   0.07    -0.05  -0.03   0.02
    93   1     0.01   0.04  -0.03    -0.07  -0.04   0.03    -0.06  -0.05  -0.01
    94   1     0.03  -0.01  -0.04    -0.06  -0.05   0.11    -0.07  -0.02   0.05
    95   1    -0.02  -0.01  -0.03    -0.09  -0.05   0.07    -0.06  -0.03   0.03
    96   6    -0.01  -0.03  -0.06     0.03   0.01   0.23     0.03   0.00   0.17
    97   1    -0.01  -0.04  -0.07     0.07   0.04   0.25     0.06   0.03   0.19
    98   1    -0.02  -0.04  -0.05     0.05   0.03   0.20     0.04   0.02   0.14
    99   6    -0.02   0.18   0.03    -0.04  -0.02   0.03    -0.04   0.00  -0.02
   100   9    -0.01   0.32   0.06    -0.06  -0.01   0.03    -0.05  -0.00  -0.02
   101   9    -0.01   0.12   0.13    -0.04  -0.03   0.04    -0.03   0.01  -0.02
   102   9    -0.03   0.17  -0.10    -0.03  -0.03   0.04    -0.06   0.01  -0.02
   103   1     0.01  -0.04  -0.04     0.01   0.00  -0.05     0.00   0.00  -0.10
   104  77     0.01  -0.02   0.01     0.01  -0.00  -0.01     0.00  -0.00  -0.04
   105   1    -0.00  -0.03  -0.07     0.01  -0.01   0.28     0.01  -0.02   0.21
                      4                      5                      6
                      A                      A                      A
 Frequencies --     42.2317                45.9797                48.6918
 Red. masses --      3.7426                 5.1462                 4.8169
 Frc consts  --      0.0039                 0.0064                 0.0067
 IR Inten    --      0.2337                 1.1866                 0.0701
  Atom AN      X      Y      Z        X      Y      Z        X      Y      Z
     1   6     0.02  -0.03  -0.01     0.03   0.12  -0.03    -0.01  -0.07   0.02
     2   6     0.02  -0.03  -0.02     0.00  -0.02  -0.02    -0.00  -0.02   0.02
     3   6     0.03  -0.00  -0.02     0.03   0.06  -0.04    -0.02  -0.04   0.03
     4   6     0.04   0.01  -0.02     0.06   0.21  -0.05    -0.03  -0.12   0.03
     5   6     0.03  -0.01  -0.01     0.06   0.24  -0.05    -0.03  -0.13   0.03
     6   6     0.01  -0.03   0.00     0.02   0.10  -0.02     0.00  -0.01   0.00
     7   6    -0.00  -0.00   0.01    -0.01  -0.01  -0.00     0.02   0.04  -0.01
     8   6     0.00  -0.01   0.02     0.01   0.06  -0.01     0.03   0.13  -0.02
     9   6     0.01  -0.03   0.02     0.03   0.15  -0.02     0.03   0.15  -0.03
    10   6     0.02  -0.04   0.01     0.04   0.17  -0.03     0.01   0.08  -0.01
    11   1     0.01  -0.04  -0.02    -0.03  -0.11  -0.01     0.01   0.02   0.02
    12   1     0.05   0.03  -0.02     0.08   0.28  -0.07    -0.05  -0.15   0.04
    13   1     0.04   0.00  -0.01     0.09   0.35  -0.06    -0.05  -0.18   0.03
    14   1    -0.01   0.01   0.01    -0.03  -0.09   0.01     0.02   0.03  -0.00
    15   1     0.01  -0.03   0.03     0.04   0.21  -0.02     0.04   0.23  -0.04
    16   1     0.02  -0.06   0.02     0.06   0.24  -0.03     0.01   0.10  -0.02
    17   7     0.01  -0.04  -0.01     0.00   0.01  -0.02    -0.00  -0.04   0.02
    18   7     0.00  -0.01  -0.00    -0.00   0.00  -0.01     0.00  -0.02   0.01
    19   8    -0.00   0.03   0.01    -0.01   0.01   0.00    -0.02  -0.02  -0.00
    20   8     0.02  -0.01  -0.00    -0.04  -0.01   0.01    -0.04  -0.05   0.00
    21   8    -0.01  -0.00   0.03     0.00  -0.01   0.00     0.05   0.02  -0.02
    22   5    -0.00  -0.02  -0.00    -0.02  -0.02   0.00    -0.02  -0.04   0.01
    23   5    -0.00  -0.00   0.01    -0.02  -0.02  -0.00    -0.01  -0.02   0.00
    24   5     0.01  -0.00  -0.01    -0.00  -0.03  -0.00     0.02  -0.02   0.00
    25   8     0.05   0.00  -0.01     0.02  -0.03  -0.00     0.01  -0.03   0.01
    26   8    -0.00  -0.03   0.03    -0.03  -0.03   0.02    -0.02   0.00  -0.01
    27   6    -0.01  -0.01   0.03    -0.03  -0.01   0.03    -0.02   0.02  -0.02
    28   6    -0.01   0.04   0.03    -0.02   0.02   0.03    -0.02  -0.01  -0.02
    29   6    -0.00  -0.01   0.05     0.02  -0.00   0.01     0.07   0.03  -0.04
    30   6     0.05   0.00   0.03     0.04   0.00   0.00     0.03   0.01  -0.02
    31   6     0.00  -0.02  -0.01    -0.04  -0.01   0.04    -0.03  -0.04   0.01
    32   6    -0.03  -0.03  -0.01    -0.02  -0.03   0.05    -0.00  -0.03   0.01
    33   8    -0.03  -0.02  -0.01    -0.01  -0.04   0.02    -0.01  -0.03   0.01
    34   6    -0.02   0.05   0.07    -0.04   0.03   0.06    -0.03  -0.02  -0.04
    35   1    -0.04   0.08   0.07    -0.03   0.06   0.05    -0.03  -0.04  -0.04
    36   1    -0.02   0.04   0.10    -0.04   0.01   0.06    -0.04  -0.02  -0.05
    37   1    -0.02   0.05   0.09    -0.04   0.04   0.08    -0.04  -0.01  -0.05
    38   6    -0.01   0.07   0.01    -0.02   0.05   0.02    -0.02  -0.00  -0.01
    39   1    -0.02   0.09   0.01    -0.01   0.07   0.02    -0.01  -0.02  -0.01
    40   1    -0.02   0.08   0.02    -0.03   0.06   0.03    -0.02   0.00  -0.01
    41   1     0.01   0.06  -0.01     0.00   0.05   0.00    -0.01   0.00   0.01
    42   6    -0.02  -0.02   0.08    -0.04  -0.02   0.07    -0.04   0.03  -0.04
    43   1    -0.02   0.00   0.09    -0.04  -0.01   0.08    -0.04   0.04  -0.04
    44   1    -0.03  -0.02   0.10    -0.05  -0.02   0.08    -0.04   0.02  -0.06
    45   1    -0.02  -0.06   0.08    -0.05  -0.05   0.07    -0.05   0.05  -0.04
    46   6     0.01  -0.02  -0.01    -0.02  -0.02   0.01    -0.01   0.04   0.00
    47   1     0.00  -0.01  -0.02    -0.02  -0.00   0.01    -0.01   0.06   0.00
    48   1     0.03  -0.04  -0.00    -0.02  -0.05   0.01    -0.01   0.06   0.00
[...]
 1526,0.00006606,0.00000300,0.00019480,0.00056118,-0.00005859,-0.000028
 77,0.00003135,0.00008379,-0.00015265,-0.00347592,-0.03572234,-0.012808
 53,0.00487211,-0.00215476,-0.00299041,-0.00141979,0.00082108,0.0012507
 8,-0.00040931,0.00030230,0.00035610,0.00000862,0.00007909,-0.00011762,
 0.00017016,0.00018149,0.00004272,0.00038877,-0.04186919,0.00467829,-0.
 00302172,-0.00698544,0.00206540,-0.00382526,-0.00728349,0.00293148,-0.
 01431439,-0.00583573,-0.00135351,-0.00022288,-0.00056499,0.00017047,0.
 00004673,0.00039469,0.00012853,-0.00016410,-0.00024106,0.00027750,0.00
 005250,-0.00015337,-0.00032780,-0.00006078,-0.00005908,-0.00012746,0.0
 0002671,0.00001648,0.00002357,-0.00006386,0.00004070,0.00008005,-0.000
 22825,-0.00121320,0.00023933,0.00008847,0.00010257,0.00014878,-0.00015
 216,0.00037521,0.00014484,0.00008581,0.00038947,-0.00015383,-0.0003107
 1,-0.00008223,0.00012662,-0.00128226,0.31636875,0.02523146,-0.00508520
 ,-0.01468657,-0.01984252,0.00273382,-0.01615444,0.00158660,0.00063643,
 0.00949642,0.00464953,-0.00203556,-0.00537138,-0.00512403,0.00071610,0
 .00097400,0.00375457,-0.00229784,-0.01649133,0.00075459,0.00139121,0.0
 0890656,-0.00494719,0.00062418,0.00126435,-0.00049985,-0.00039011,-0.0
 0371222,0.00210765,-0.00071913,-0.00037780,0.00187379,-0.00020856,0.00
 019478,0.00014823,0.00014630,0.00023998,0.00004798,0.00003748,0.000776
 35,-0.00204238,0.00043703,-0.00032364,-0.00005836,0.00009664,-0.000069
 77,0.00021988,-0.00006899,-0.00013614,-0.00180280,0.00089735,-0.008652
 56,-0.00719186,0.00247540,-0.03203456,0.01405700,0.00709959,0.00208413
 ,-0.00339246,0.01408953,-0.00230092,-0.00649982,0.00919877,0.00725242,
 -0.00341832,0.01078707,-0.02977949,0.00594151,0.01016537,-0.04271014,0
 .01266865,-0.01681490,-0.05238906,0.01281890,-0.01469563,-0.00613741,-
 0.01310593,-0.00842741,0.00315087,0.00176188,-0.00101585,-0.00225376,-
 0.00031705,-0.00254763,-0.00210671,-0.00198175,-0.00133065,-0.00129130
 ,-0.00353694,0.00027834,-0.00161754,0.00272225,-0.00084875,-0.00153873
 ,0.00157330,-0.00076182,-0.00082876,0.00329743,-0.00592988,0.00331718,
 0.00031670,0.00018526,0.00024165,-0.00003598,-0.00006961,0.00012438,-0
 .00013070,-0.00000103,-0.00009428,0.00004898,0.00021352,-0.00006023,0.
 00072076,0.00083665,0.00057292,-0.00014300,-0.00001634,0.00011652,0.00
 043135,-0.00002773,-0.00018927,-0.00005423,-0.00005616,-0.00007579,-0.
 00099601,-0.00003616,0.00071015,-0.00024777,-0.00038132,-0.00016303,0.
 00006849,0.00000865,-0.00004676,0.00007431,0.00012308,0.00009234,-0.00
 028228,-0.00007316,0.00032394,-0.00023146,0.00009969,-0.00010676,0.000
 09177,-0.00000315,0.00007969,0.00003717,0.00008781,-0.00009862,-0.0007
 4628,0.00078107,0.00028021,0.00005135,0.00037225,-0.00022103,0.0000073
 1,-0.00007983,-0.00000420,0.00001531,-0.00007261,0.00005354,-0.0001614
 2,0.00021771,0.00005078,-0.00018726,0.00002618,-0.00008557,0.00003287,
 0.00001231,0.00000663,0.00000702,-0.00000990,0.00004940,0.00000807,0.0
 0007870,0.00009325,0.00000222,-0.00003092,0.00000148,-0.00001772,0.000
 04137,0.00007894,-0.00010619,-0.00003046,-0.00009831,0.00005617,-0.000
 41104,0.00045506,-0.00000375,0.00002409,-0.00002337,-0.00007653,0.0000
 5712,0.00007483,0.00018094,-0.00014847,-0.00007224,0.00052812,-0.00033
 289,0.00020481,-0.00006400,-0.00000279,0.00010029,-0.00012172,0.000044
 05,0.00001309,0.00031699,0.00002439,-0.00021519,0.00120472,-0.00053715
 ,0.00031596,0.00004750,-0.00048872,-0.00024933,-0.00009606,0.00007570,
 0.00002971,0.00000975,0.00014705,0.00004402,-0.00010731,-0.00007794,0.
 00018816,0.00009117,0.00013772,-0.00015146,0.00010540,0.00012668,-0.00
 004715,0.00007793,-0.00005542,0.00007847,-0.00015100,0.00086355,0.0007
 0344,0.00013597,-0.00004216,0.00007011,-0.00041713,0.00004723,-0.00004
 396,-0.00000010,-0.00004572,-0.00007582,-0.01934052,-0.01091555,-0.156
 21304,0.00207916,-0.00151488,-0.00352682,-0.00000540,-0.00001403,0.002
 69941,-0.00020018,0.00066826,-0.00006792,-0.00029072,-0.00003769,-0.00
 018243,-0.00002065,0.00002823,0.00003035,0.00921959,0.00936966,-0.0355
 6973,0.00359075,0.01394998,-0.00158315,-0.00144601,-0.00505168,0.00147
 037,-0.00870000,-0.00780526,0.00167485,0.00055389,-0.00096491,0.000853
 86,0.00022499,-0.00015000,0.00009898,-0.00000985,0.00025355,-0.0003426
 8,-0.00053203,0.00023389,-0.00032329,-0.00005164,-0.00001207,-0.000165
 87,0.00003324,0.00001301,0.00000741,-0.00002995,0.00000799,0.00002804,
 0.00027445,0.00005056,0.00074429,0.00002772,-0.00000488,0.00043871,-0.
 00043494,0.00020581,0.00001409,0.00001191,-0.00002535,-0.00015562,-0.0
 0061575,0.00004071,0.00031394,-0.00601195,0.00143698,0.39000725,0.0000
 3511,0.00001347,0.00001502,0.00000086,0.00000273,-0.00001986,-0.000026
 55,0.00001288,0.00001689,0.00003275,-0.00001084,-0.00001259,-0.0000261
 3,-0.00000152,-0.00001752,0.00000903,0.00003941,0.00000633,-0.00002277
 ,0.00005585,0.00001241,-0.00006415,-0.00001755,-0.00003941,0.00000123,
 0.00001614,0.00001848,-0.00000330,-0.00000693,0.00000115,0.00000543,0.
 00000392,0.00000287,0.00000067,0.00000060,-0.00000155,0.00000337,0.000
 00153,-0.00000013,-0.00000953,0.00003045,-0.00001486,0.00000487,-0.000
 01028,-0.00001495,-0.00000049,0.00000127,-0.00000242,0.00001541,0.0000
 0161,0.00005570,-0.00001261,0.00002311,0.00001436,-0.00010734,-0.00004
 943,0.00004481,0.00004476,-0.00013149,0.00006161,-0.00011322,0.0000423
 8,0.00000971,-0.00004032,0.00013940,-0.00002308,0.00017713,0.00006058,
 -0.00002247,0.00022500,0.00004882,-0.00008585,-0.00011694,0.00003887,0
 .00007423,-0.00010788,-0.00006109,-0.00002049,0.00004504,0.00001609,-0
 .00001384,0.00003892,0.00003812,0.00000122,0.00003054,-0.00003415,-0.0
 0002298,0.00006780,-0.00004327,-0.00002130,-0.00003677,0.00004271,-0.0
 0000274,-0.00000373,0.00005242,-0.00001821,0.00003949,-0.00013088,0.00
 000465,-0.00000442,-0.00000642,-0.00000102,0.00000184,0.00000236,0.000
 00115,0.00000153,0.00000428,-0.00000056,-0.00000437,-0.00000630,0.0000
 0044,-0.00000461,-0.00000364,-0.00000031,0.00000149,0.00000205,0.00000
 271,-0.00000542,-0.00000303,-0.00000062,0.00000292,0.00000024,0.,-0.00
 000467,-0.00000077,-0.00000029,-0.00000540,-0.00000302,0.00000093,0.00
 000254,-0.00000062,0.00000046,0.00000207,0.00000103,-0.00000167,-0.000
 00900,-0.00000151,0.00000266,-0.00000803,-0.00000047,0.00000088,0.0000
 0349,0.00000100,0.00000040,0.00000680,-0.00000002,-0.00000044,0.000005
 43,-0.00000384,0.00000039,0.00000166,-0.00000751,0.00000045,-0.0000006
 3,0.00000214,-0.00000055,-0.00000230,0.00000228,0.00000335,0.00001253,
 -0.00000215,-0.00000304,0.00000575,-0.00000935,0.00000055,-0.00000575,
 0.00000264,0.00000226,-0.00000637,0.00000252,-0.00000304,0.00000115,-0
 .00000824,0.00000426,-0.00000144,-0.00000868,0.00000129,-0.00000008,0.
 00000366,-0.00000001,0.00000211,0.00000310,-0.00000134,0.00000219,-0.0
 0000612,0.00000145,-0.00000255,0.00000417,-0.00000259,0.00000044,0.000
 00303,-0.00000174,0.00000190,-0.00000843,0.00000238,-0.00001041,0.0000
 0476,0.00000147,0.00000412,-0.00000087,0.00000128,0.00000357,0.0000002
 3,-0.00000208,-0.00001038,0.00000153,0.00000353,-0.00000012,0.00001132
 ,-0.00000293,-0.00000942,0.00000395,0.00000101,0.00000185,-0.00001087,
 -0.00000030,0.00000442,-0.00000364,0.00000255,0.00001371,0.00001602,0.
 00000651,-0.00000340,-0.00001780,-0.00000436,-0.00001293,0.00000607,0.
 00000366,0.00000039,-0.00000404,-0.00000129,-0.00000196,0.00000079,0.0
 0000197,0.00000052,-0.00000151,-0.00000297,-0.00000465,0.00000455,0.00
 000257,-0.00000173,-0.00000380,0.00000066,0.00001106,0.00003705,-0.000
 00083,-0.00168183,0.00083167,0.00431285,-0.00001504,-0.00013107,0.0004
 2079,-0.02044701,-0.00625634,-0.01603941,0.00093797,-0.00042827,-0.000
 02384,0.00078539,0.00049459,-0.00037359,0.00005188,0.00020944,0.000545
 72,0.00003894,-0.00002386,0.00000802,-0.00019181,-0.00005818,-0.000038
 94,-0.00218323,-0.00064301,-0.00098974,0.00001110,-0.00009971,-0.00053
 449,-0.00001230,0.00002583,0.00006413,0.00004488,0.00005457,0.00001337
 ,0.00002315,-0.00004778,0.00007942,-0.21922856,-0.05038784,-0.11696076
 ,-0.00117772,-0.00011894,0.00021993,0.00425783,0.00103317,0.00342372,0
 .00008642,0.00000610,0.00006123,-0.00001931,0.00000361,-0.00003459,-0.
 00002382,0.00000357,-0.00000936,-0.00003242,-0.00001696,-0.00001160,-0
 .00000448,-0.00002316,0.00000084,-0.00015539,-0.00012974,-0.00007044,0
 .23887425,0.00003754,-0.00000601,0.00003579,0.00000684,-0.00000176,-0.
 00000559,-0.00002222,0.00000837,-0.00000317,0.00001258,-0.00000186,0.0
 0000689,-0.00002113,0.00000065,-0.00001734,-0.00001463,0.00002560,0.00
 006366,0.00013985,-0.00003549,-0.00003811,-0.00012483,-0.00000472,-0.0
 0010885,-0.00004358,-0.00000685,0.00009296,0.00007443,-0.00000829,0.00
 007181,0.00000082,-0.00000011,-0.00000157,-0.00000075,-0.00000008,-0.0
 0000165,0.00000234,0.00000099,0.00000568,-0.00001627,-0.00000076,-0.00
 000058,-0.00001296,0.00003980,-0.00000259,0.00000273,0.00000354,-0.000
 00135,-0.00002019,0.00000351,-0.00001220,-0.00003418,0.00001306,-0.000
 07116,-0.00003151,-0.00001561,0.00001696,0.00001598,-0.00004352,0.0000
 3108,-0.00002368,0.00001932,0.00000590,-0.00000273,0.00005482,-0.00004
 319,0.00004978,0.00002344,-0.00001604,0.00003371,-0.00002058,-0.000022
 10,-0.00001997,0.00001632,0.00001815,-0.00003087,-0.00001837,-0.000000
 25,0.00001520,0.00000543,-0.00000492,0.00001087,0.00001062,-0.00000018
 ,0.00000652,-0.00000948,-0.00000536,0.00001226,-0.00000500,-0.00000386
 ,-0.00001820,0.00001543,-0.00000410,-0.00000177,0.00003009,-0.00001048
 ,0.00000286,-0.00005169,0.00001431,-0.00000141,-0.00000215,-0.00000011
 ,0.00000029,0.00000076,0.00000080,0.00000029,0.00000127,-0.00000064,-0
 .00000119,-0.00000187,0.00000014,-0.00000096,-0.00000128,0.00000024,0.
 00000022,0.00000063,0.00000113,-0.00000150,-0.00000064,-0.00000025,0.0
 0000079,-0.00000015,-0.00000013,-0.00000174,-0.00000024,-0.00000038,-0
 .00000177,-0.00000090,0.00000034,0.00000091,-0.00000027,0.00000006,0.0
 0000084,0.00000049,-0.00000006,-0.00000289,-0.00000095,0.00000011,-0.0
 0000246,-0.00000016,0.00000054,0.00000129,0.00000061,0.00000078,0.0000
 0181,-0.00000029,-0.00000050,0.00000187,-0.00000031,0.00000099,0.00000
 043,-0.00000282,-0.00000036,0.00000047,0.00000084,-0.00000006,-0.00000
 158,0.00000061,0.00000206,0.00001193,0.00000492,-0.00000174,0.00000064
 ,-0.00000723,0.00000088,-0.00000501,-0.00000077,0.00000410,-0.00000608
 ,0.00000074,-0.00000532,0.00000069,-0.00000376,0.00000220,-0.00000084,
 -0.00000372,0.00000048,0.00000029,0.00000199,0.00000087,0.00000063,0.0
 0000101,-0.00000071,0.00000383,-0.00000318,0.00000119,-0.00000310,0.00
 000461,-0.00000392,0.00000062,0.00000262,0.00000074,-0.00000093,-0.000
 00538,0.00000161,-0.00000214,0.,-0.00000035,0.00000088,0.00000015,0.00
 000066,0.00000088,-0.00000016,-0.00000065,-0.00000185,0.00000048,0.000
 00070,-0.00000073,0.00000105,-0.00000106,-0.00000117,0.00000114,0.0000
 0026,0.00000009,-0.00000114,0.00000069,0.00000092,0.00000003,0.0000006
 4,0.,0.00000258,0.00000115,-0.00000015,-0.00000205,-0.00000019,-0.0000
 0109,0.00000165,0.00000051,0.00000023,-0.00000117,-0.00000014,-0.00000
 073,0.00000119,0.00000036,0.00000030,-0.00000056,-0.00000046,-0.000001
 10,0.00000114,0.00000061,-0.00000006,-0.00000090,-0.00000007,0.0000061
 0,0.00000281,0.00000659,0.00050164,0.00047563,-0.00077588,-0.00042736,
 0.00064137,0.00021514,0.00197377,-0.00063321,0.00130060,-0.00022768,-0
 .00009799,-0.00016011,0.00001484,0.00012844,0.00044311,-0.00000130,-0.
 00003903,-0.00001502,0.00000993,0.00000254,0.00001213,-0.00000465,0.00
 000938,0.00000959,0.00001820,0.00018453,0.00013755,0.00000142,0.000002
 79,-0.00002383,0.00000056,-0.00001133,0.00000477,0.00000876,-0.0000024
 9,-0.00001213,-0.00000767,-0.00002219,0.00001678,-0.05066039,-0.063959
 90,-0.03410326,0.01788150,0.00585207,0.01004132,-0.02453606,-0.0050046
 2,-0.01513924,0.00004869,-0.00000129,0.00002512,-0.00000951,0.00000159
 ,-0.00001408,-0.00001450,0.00000497,-0.00000148,-0.00001850,-0.0000083
 0,-0.00000486,-0.00004620,0.00001173,-0.00005357,-0.00000630,-0.000001
 63,0.00000379,0.05551923,0.06243488,0.00003444,0.00000096,0.00002915,0
 .00000852,-0.00000124,-0.00000759,-0.00002332,0.00000877,-0.00000127,0
 .00001531,-0.00000353,0.00001005,-0.00002040,-0.00000382,-0.00001672,0
 .00002376,0.00002703,0.00001473,0.00004711,-0.00004228,-0.00002024,-0.
 00005078,-0.00003501,-0.00005448,-0.00003879,0.00000277,0.00006216,0.0
 0001639,-0.00000904,0.00003871,0.00000164,-0.00000050,-0.00000287,0.00
 000044,0.00000108,-0.00000120,0.00000210,0.00000666,0.00000738,0.00000
 347,0.00000575,-0.00000350,-0.00001389,0.00002840,-0.00000132,0.000000
 90,0.00001184,0.00000234,-0.00001724,0.00000401,-0.00001797,0.00000662
 ,0.00000657,-0.00001853,-0.00003898,-0.00001710,0.00001855,0.00000479,
 -0.00003354,0.00002117,-0.00002402,0.00002721,0.00000389,-0.00000231,0
 .00004158,-0.00003326,0.00005939,0.00002577,-0.00001829,0.00002510,-0.
 00004003,-0.00000326,-0.00003012,0.00001891,0.00001204,-0.00003914,-0.
 00002149,-0.00000009,0.00002065,0.00000678,-0.00000521,0.00001497,0.00
 001183,0.,0.00000726,-0.00000888,-0.00000529,0.00001802,-0.00000930,-0
 .00000605,-0.00000423,0.00001285,-0.00000046,0.,0.00002836,-0.00000698
 ,-0.00000228,-0.00004419,0.00001096,-0.00000117,-0.00000214,-0.0000001
 6,0.00000105,0.00000086,0.00000045,0.00000047,0.00000187,0.00000014,-0
 .00000199,-0.00000239,-0.00000009,-0.00000123,-0.00000083,0.00000059,0
 .00000065,0.00000071,0.00000134,-0.00000195,-0.00000116,-0.00000052,0.
 00000078,0.00000027,-0.00000027,-0.00000178,-0.00000086,-0.00000065,-0
 .00000258,-0.00000101,0.00000074,0.00000122,0.00000013,0.00000005,0.00
 000127,0.00000074,-0.00000028,-0.00000340,-0.00000099,-0.00000059,-0.0
 0000345,-0.00000038,0.00000099,0.00000187,0.00000107,0.00000093,0.0000
 0229,-0.00000038,-0.00000083,-0.00000170,0.00000004,0.00000023,0.00000
 114,-0.00000223,-0.00000045,-0.00000147,-0.00000045,-0.00000019,-0.000
 00026,0.00000109,0.00000136,0.00000469,0.00000431,-0.00000490,0.000000
 77,-0.00000497,0.00000044,-0.00000107,0.00000117,0.00000035,-0.0000040
 8,-0.00000086,0.00000159,-0.00000041,-0.00000235,-0.00000007,-0.000000
 37,-0.00000381,0.00000111,0.00000009,0.00000182,-0.00000008,-0.0000000
 1,0.00000099,-0.00000029,0.00000475,-0.00000090,0.00000081,-0.00000395
 ,0.00000200,-0.00000227,-0.00000012,0.00000240,-0.00000054,-0.00000071
 ,-0.00000452,0.00000233,-0.00000169,-0.00000020,0.00000074,0.00000150,
 -0.00000044,0.00000012,0.00000141,-0.00000027,-0.00000054,-0.00000296,
 0.00000106,0.00000054,0.00000004,0.00000278,0.00000003,-0.00000306,0.0
 0000136,-0.00000020,0.00000051,-0.00000249,0.00000067,0.00000191,-0.00
 000090,0.00000010,0.00000034,0.00000019,0.00000069,-0.00000016,-0.0000
 0140,-0.00000158,-0.00000137,0.00000229,0.00000139,0.00000203,-0.00000
 094,0.00000015,-0.00000116,0.00000008,-0.00000030,0.00000054,-0.000000
 78,-0.00000083,-0.00000113,0.00000173,0.00000118,-0.00000017,-0.000001
 20,0.,0.00000503,-0.00000009,0.00000259,0.00317103,-0.00090574,-0.0056
 2442,-0.00231530,-0.00012555,0.00151684,0.01842690,0.00532493,0.011273
 51,-0.00095990,0.00019823,0.00073142,-0.00100548,-0.00006750,0.0006334
 9,0.00014316,-0.00003687,-0.00022972,0.00001911,-0.00000075,0.00003205
 ,0.00006190,0.00002501,0.00003888,0.00094014,0.00041378,0.00129982,-0.
 00011059,0.00003025,0.00017391,-0.00000601,-0.00000643,-0.00001650,-0.
 00001815,-0.00003916,0.00000810,0.00000362,0.00002193,0.00000548,-0.11
 749396,-0.03397882,-0.12692431,-0.01846667,-0.00836741,-0.01146830,-0.
 00830788,-0.00061110,-0.00653978,0.00006612,0.00000354,0.00003026,-0.0
 0001358,0.00000097,-0.00001670,-0.00001972,0.00000552,-0.00000191,-0.0
 0002520,-0.00001279,-0.00000587,-0.00003046,0.00003267,-0.00002085,0.0
 0001230,0.00000742,0.00002479,0.12593229,0.03809071,0.13506723\\0.0000
 0192,-0.00000992,-0.00000565,-0.00001004,0.00002731,0.00000771,0.00000
 553,0.00000564,-0.00000933,-0.00000502,-0.00001256,0.00000002,-0.00000
 471,0.00000723,0.00000044,-0.00000171,0.00001072,-0.00001497,0.0000177
 4,0.00001757,-0.00001429,0.00000675,-0.00001385,0.00001761,0.00000799,
 -0.00002629,-0.00000318,0.00001175,0.00001352,0.00000730,0.00001912,-0
 .00000818,-0.00001620,0.00000213,0.00000452,-0.00000178,0.00000304,0.0
 0000187,-0.00000045,-0.00000132,0.00000697,-0.00000064,-0.00000069,-0.
 00000009,0.00000091,0.00000053,-0.00000116,0.00000269,-0.00000647,-0.0
 0000280,0.00002910,-0.00001818,-0.00000436,0.00000371,-0.00000455,-0.0
 0001197,-0.00002225,-0.00000153,0.00001859,0.00000169,0.00000830,-0.00
 000896,0.00001407,0.00000323,-0.00002080,-0.00000937,-0.00004660,0.000
 02427,-0.00000771,-0.00000604,-0.00001846,0.00001287,0.00000874,-0.000
 00659,-0.00003811,0.00002059,-0.00001109,0.00002303,0.00002606,0.00001
 901,0.00000350,0.00000424,-0.00000330,0.00000337,0.00000799,-0.0000019
 5,0.00000834,0.00000648,-0.00000975,-0.00000768,-0.00000235,0.00001758
 ,0.00001608,0.00000824,-0.00001363,-0.00002043,-0.00002750,-0.00003184
 ,0.00001171,-0.00001325,0.00000073,-0.00000651,-0.00000142,0.00000414,
 -0.00000173,0.00000065,0.00000109,-0.00000375,0.00000208,-0.00000996,0
 .00000097,0.00001145,0.00001279,-0.00001070,-0.00000259,0.00000344,0.0
 0000335,0.00000260,-0.00000205,-0.00000263,-0.00000481,-0.00001813,-0.
 00000875,0.00001351,-0.00001261,0.00001620,-0.00000038,0.00000722,0.00
 000122,-0.00000544,-0.00000145,-0.00000522,0.00000285,0.00000736,-0.00
 001498,-0.00001376,-0.00001534,0.00001636,0.00000136,0.00000394,-0.000
 00283,-0.00001249,-0.00002507,0.00004454,0.00000187,0.00001236,0.00001
 012,0.00000132,-0.00001101,0.00002013,-0.00000400,0.00000059,0.0000022
 3,0.00000190,0.00000194,0.00001284,0.00000121,0.00000115,0.00000022,-0
 .00001560,0.00001607,0.00001012,-0.00000087,-0.00000018,-0.00000251,0.
 00000094,-0.00000277,-0.00000245,-0.00000658,-0.00000611,0.00000879,-0
 .00001415,0.00005246,-0.00003625,0.00000115,0.00000877,0.00000477,-0.0
 0000156,0.00000086,-0.00000400,0.00000433,-0.00002349,-0.00001341,0.00
 000486,-0.00001777,0.00000749,0.00000371,0.00001519,0.00000641,-0.0000
 0214,0.00000088,-0.00000637,0.00000192,-0.00000024,-0.00000361,-0.0000
 1030,0.00001452,0.00000009,-0.00000262,0.00000180,-0.00000589,0.000004
 89,0.00001816,-0.00000485,-0.00000852,-0.00000076,0.00000405,-0.000008
 87,0.00001067,-0.00001409,0.00000309,0.00000168,-0.00000221,-0.0000031
 3,0.00000550,-0.00000911,0.00000266,0.00000168,-0.00000152,-0.00001794
 ,0.00003639,0.00001180,-0.00000856,0.00001119,0.00000287,0.00000223,0.
 00000698,-0.00000326,0.00000453,-0.00000017,0.00000803,0.00000786,-0.0
 0000662,0.00000531,0.00000331,-0.00000273,0.00000672,0.00000647,0.0000
 0195,0.00000117,0.00000043,0.00000656,0.00000178,-0.00000113,-0.000006
 99,-0.00000364,0.00003756,-0.00008822,0.00002473,-0.00002084,0.0000270
 3,-0.00004668,-0.00000994,0.00007497,-0.00003235,0.00000854,-0.0000208
 2,-0.00002216,0.00004613,-0.00000719,-0.00000348,0.00001797,-0.0000435
 7,0.00004578,0.00000876,-0.00001366,0.00000542,0.00000198,-0.00001674,
 -0.00001536,-0.00000118,0.00001935,-0.00002031,0.00000757,0.00000934,0
 .00000186,0.00000954,0.00001359,0.00001536,0.00000646,-0.00001560,0.00
 000127,-0.00002054,-0.00002202,-0.00000565,-0.00004750,-0.00002162,0.0
 0004289,0.00000040,-0.00002738,0.00002064,-0.00000755,0.00003211,0.000
 00703,0.00000712,-0.00001255,-0.00000621,-0.00000022,0.00000428,-0.000
 00196,-0.00000045,0.00001858,-0.00001417,0.00000379,0.00000261,-0.0000
 1382,-0.00000441,0.00000653,-0.00000641,-0.00001104,0.00002082,-0.0000
 0485,0.00000112,-0.00000174,-0.00000104\\\@
 The archive entry for this job was punched.


 THE MOST BEAUTIFUL EXPERIENCE WE CAN HAVE IS THE MYSTERIOUS.
 IT IS THE FUNDAMENTAL EMOTION WHICH STANDS AT AT THE CRADLE 
 OF TRUE ART AND TRUE SCIENCE.

                                    -- ALBERT EINSTEIN
 Job cpu time:       1 days 19 hours 39 minutes 14.4 seconds.
 Elapsed time:       0 days  2 hours 46 minutes 44.2 seconds.
 File lengths (MBytes):  RWF=   8253 Int=      0 D2E=      0 Chk=     49 Scr=      1
 Normal termination of Gaussian 16 at Sat Dec  7 21:47:18 2024.
