/mnt/lustre/scratch/nvme/SLURM/9663509/usccqdma.NBoQplXODT
OMP_STACKSIZE=0m
GAUSS_PDEF=16
GAUSS_MDEF=65536MB
GAUSS_RDEF=SCF=Direct
 Entering Gaussian System, Link 0=g16.exe
 Initial command:
 /opt/cesga/2020/software/Core/g16/c1/l1.exe "/mnt/lustre/scratch/nvme/SLURM/9663509/usccqdma.NBoQplXODT/Gau-921291.inp" -scrdir="/mnt/lustre/scratch/nvme/SLURM/9663509/usccqdma.NBoQplXODT/"
 Default is to use a total of  16 processors:
                               16 via shared-memory
                                1 via Linda
 Entering Link 1 = /opt/cesga/2020/software/Core/g16/c1/l1.exe PID=    921320.
  
 Copyright (c) 1988-2019, Gaussian, Inc.  All Rights Reserved.
  
 This is part of the Gaussian(R) 16 program.  It is based on
 the Gaussian(R) 09 system (copyright 2009, Gaussian, Inc.),
 the Gaussian(R) 03 system (copyright 2003, Gaussian, Inc.),
 the Gaussian(R) 98 system (copyright 1998, Gaussian, Inc.),
 the Gaussian(R) 94 system (copyright 1995, Gaussian, Inc.),
 the Gaussian 92(TM) system (copyright 1992, Gaussian, Inc.),
 the Gaussian 90(TM) system (copyright 1990, Gaussian, Inc.),
 the Gaussian 88(TM) system (copyright 1988, Gaussian, Inc.),
 the Gaussian 86(TM) system (copyright 1986, Carnegie Mellon
 University), and the Gaussian 82(TM) system (copyright 1983,
 Carnegie Mellon University). Gaussian is a federally registered
 trademark of Gaussian, Inc.
  
 This software contains proprietary and confidential information,
 including trade secrets, belonging to Gaussian, Inc.
  
 This software is provided under written license and may be
 used, copied, transmitted, or stored only in accord with that
 written license.
  
 The following legend is applicable only to US Government
 contracts under FAR:
  
                    RESTRICTED RIGHTS LEGEND
  
 Use, reproduction and disclosure by the US Government is
 subject to restrictions as set forth in subparagraphs (a)
 and (c) of the Commercial Computer Software - Restricted
 Rights clause in FAR 52.227-19.
  
 Gaussian, Inc.
 340 Quinnipiac St., Bldg. 40, Wallingford CT 06492
  
  
 ---------------------------------------------------------------
 Warning -- This program may not be used in any manner that
 competes with the business of Gaussian, Inc. or will provide
 assistance to any competitor of Gaussian, Inc.  The licensee
 of this program is prohibited from giving any competitor of
 Gaussian, Inc. access to this program.  By using this program,
 the user acknowledges that Gaussian, Inc. is engaged in the
 business of creating and licensing software in the field of
 computational chemistry and represents and warrants to the
 licensee that it is not a competitor of Gaussian, Inc. and that
 it will not use this program in any manner prohibited above.
 ---------------------------------------------------------------
  

 Cite this work as:
 Gaussian 16, Revision C.01,
 M. J. Frisch, G. W. Trucks, H. B. Schlegel, G. E. Scuseria, 
 M. A. Robb, J. R. Cheeseman, G. Scalmani, V. Barone, 
 G. A. Petersson, H. Nakatsuji, X. Li, M. Caricato, A. V. Marenich, 
 J. Bloino, B. G. Janesko, R. Gomperts, B. Mennucci, H. P. Hratchian, 
 J. V. Ortiz, A. F. Izmaylov, J. L. Sonnenberg, D. Williams-Young, 
 F. Ding, F. Lipparini, F. Egidi, J. Goings, B. Peng, A. Petrone, 
 T. Henderson, D. Ranasinghe, V. G. Zakrzewski, J. Gao, N. Rega, 
 G. Zheng, W. Liang, M. Hada, M. Ehara, K. Toyota, R. Fukuda, 
 J. Hasegawa, M. Ishida, T. Nakajima, Y. Honda, O. Kitao, H. Nakai, 
 T. Vreven, K. Throssell, J. A. Montgomery, Jr., J. E. Peralta, 
 F. Ogliaro, M. J. Bearpark, J. J. Heyd, E. N. Brothers, K. N. Kudin, 
 V. N. Staroverov, T. A. Keith, R. Kobayashi, J. Normand, 
 K. Raghavachari, A. P. Rendell, J. C. Burant, S. S. Iyengar, 
 J. Tomasi, M. Cossi, J. M. Millam, M. Klene, C. Adamo, R. Cammi, 
 J. W. Ochterski, R. L. Martin, K. Morokuma, O. Farkas, 
 J. B. Foresman, and D. J. Fox, Gaussian, Inc., Wallingford CT, 2019.
 
 ******************************************
 Gaussian 16:  ES64L-G16RevC.01  3-Jul-2019
                 7-Dec-2024 
 ******************************************
 Default route: SCF=Direct
 ----------------------------------------------------
 # m06/genecp scf=tight int=ultrafine 5d freq=noraman
 ----------------------------------------------------
 1/10=4,30=1,38=1/1,3;
 2/12=2,17=6,18=5,40=1/2;
 3/5=7,8=1,11=2,16=1,17=8,25=1,30=1,71=2,74=-54,75=-5,140=1/1,2,3;
 4//1;
 5/5=2,32=2,38=5,98=1/2;
 8/6=4,10=90,11=11/1;
 11/6=1,8=1,9=11,15=111,16=1/1,2,10;
 10/6=1/2;
 6/7=2,8=2,9=2,10=2,28=1/1;
 7/8=1,10=1,25=1/1,2,3,16;
 1/10=4,30=1/3;
 99//99;
 ------
 OPT-TS
 ------
 Symbolic Z-matrix:
 Charge =  0 Multiplicity = 1
 C                    -0.67987  -1.46071  -2.00202 
 C                    -2.26186  -0.02542  -1.13168 
 C                    -3.19983  -0.41685  -2.07374 
 C                    -2.86969  -1.40362  -2.99245 
 C                    -1.59431  -1.93344  -2.94282 
 C                     0.71325  -1.92272  -1.967 
 C                     2.75941  -1.71924  -0.91693 
 C                     3.38494  -2.48818  -1.88829 
 C                     2.62585  -3.0151   -2.92709 
 C                     1.27346  -2.72519  -2.96573 
 H                    -2.499     0.73397  -0.3919 
 H                    -3.59673  -1.75563  -3.72088 
 H                    -1.31398  -2.72571  -3.63018 
 H                     3.31071  -1.28501  -0.08257 
 H                     3.0888   -3.62582  -3.69859 
 H                     0.6672   -3.09829  -3.78591 
 N                    -1.0188   -0.52033  -1.0948 
 N                     1.45072  -1.46168  -0.94157 
 Ir                    0.37846   0.06546   0.51471 
 O                     2.73512   1.7673   -0.52355 
 O                     1.52006  -0.38454   3.41055 
 O                     0.25286   3.10705   1.18362 
 B                     1.76345  -0.25778   2.05539 
 B                     1.41838   1.40475  -0.72318 
 B                    -0.39753   1.93444   0.80286 
 O                    -1.75361   2.19424   0.61779 
 O                     0.97277   1.82784  -1.97232 
 C                     2.12419   2.27006  -2.71381 
 C                     3.11388   2.66287  -1.58064 
 C                    -0.74943   4.10356   1.44564 
 C                    -1.93015   3.61898   0.56105 
 C                     2.76025  -0.72139   4.0578 
 C                     3.58259  -1.32908   2.88772 
 O                     3.07284  -0.58871   1.76063 
 C                     4.57731   2.44475  -1.90737 
 H                     4.79462   1.38812  -2.10241 
 H                     4.87784   3.03605  -2.7846 
 H                     5.19587   2.76094  -1.05795 
 C                     2.89243   4.07661  -1.06226 
 H                     3.46616   4.20443  -0.13595 
 H                     3.21867   4.8379   -1.78385 
 H                     1.83461   4.23865  -0.81663 
 C                     2.60476   1.08159  -3.53874 
 H                     1.76861   0.71668  -4.15019 
 H                     3.43091   1.35318  -4.20953 
 H                     2.94227   0.25677  -2.89428 
 C                     1.71781   3.40285  -3.6339 
 H                     1.22538   4.21359  -3.08513 
 H                     2.59289   3.81629  -4.1559 
 H                     1.01468   3.03304  -4.39138 
 C                     3.35416   0.57263   4.5939 
 H                     3.58243   1.27237   3.77984 
 H                     2.61977   1.04991   5.25436 
 H                     4.27051   0.39124   5.17126 
 C                     2.47075  -1.67919   5.19493 
 H                     3.40482  -2.04564   5.64428 
 H                     1.8979   -1.16467   5.97658 
 H                     1.88094  -2.53872   4.85692 
 C                     5.0803   -1.12409   2.96572 
 H                     5.34357  -0.06162   2.99473 
 H                     5.49442  -1.61637   3.85708 
 H                     5.5575   -1.56613   2.08105 
 C                     3.26749  -2.79764   2.62874 
 H                     3.65638  -3.44642   3.42443 
 H                     2.18501  -2.96625   2.53652 
 H                     3.73915  -3.10296   1.68503 
 C                    -3.31404   3.952     1.07786 
 H                    -4.06901   3.52808   0.40214 
 H                    -3.48531   3.5342    2.07647 
 H                    -3.4664    5.03978   1.11991 
 C                    -1.80135   4.01992  -0.90283 
 H                    -2.5494    3.46399  -1.48536 
 H                    -1.97996   5.09303  -1.05352 
 H                    -0.81135   3.75748  -1.30203 
 C                    -0.20251   5.46826   1.08337 
 H                     0.13065   5.51068   0.04018 
 H                    -0.96523   6.24521   1.23667 
 H                     0.65828   5.70397   1.72218 
 C                    -1.06096   4.04077   2.93514 
 H                    -1.77492   4.81742   3.24029 
 H                    -1.46858   3.05857   3.21239 
 H                    -0.12955   4.18836   3.49558 
 H                     0.80878   0.93936   1.80828 
 C                    -2.85128  -2.19825   0.9165 
 O                    -2.47088  -3.00261   0.06414 
 C                    -4.33382  -1.9066    1.1079 
 H                    -4.63571  -2.22945   2.11761 
 H                    -4.50656  -0.81689   1.08711 
 C                    -0.54887  -1.68786   1.57479 
 H                    -0.14226  -1.87826   2.57658 
 H                    -0.3917   -2.5825    0.96078 
 N                    -1.98942  -1.52408   1.72704 
 C                    -2.41757  -0.52958   2.69064 
 H                    -2.60922   0.4508    2.22342 
 H                    -3.31648  -0.85026   3.22991 
 H                    -1.61219  -0.39447   3.42272 
 C                    -5.19642  -2.58551   0.05655 
 H                    -4.79353  -2.34934  -0.93939 
 H                    -5.09506  -3.67686   0.15479 
 C                    -6.6634   -2.18298   0.12358 
 H                    -6.75438  -1.09101  -0.01207 
 H                    -7.19801  -2.63394  -0.72907 
 C                    -7.37016  -2.58598   1.41124 
 H                    -7.21166  -3.66275   1.58935 
 H                    -6.91205  -2.06799   2.26863 
 C                    -8.8581   -2.27919   1.37281 
 H                    -9.36212  -2.56007   2.30609 
 H                    -9.03349  -1.20652   1.20885 
 H                    -9.35064  -2.8187    0.55164 
 C                    -4.51992   0.28737  -2.12276 
 F                    -4.89471   0.73493  -0.91834 
 F                    -4.4638    1.35214  -2.93373 
 F                    -5.48923  -0.51008  -2.58374 
 C                     4.87221  -2.63524  -1.83232 
 F                     5.29962  -2.86236  -0.58427 
 F                     5.30178  -3.63937  -2.60101 
 F                     5.47658  -1.51753  -2.255 
 

 GradGradGradGradGradGradGradGradGradGradGradGradGradGradGradGradGradGrad
 Berny optimization.
 Initialization pass.
 Trust Radius=3.00D-01 FncErr=1.00D-07 GrdErr=1.00D-07 EigMax=2.50D+02 EigMin=1.00D-04
 Number of steps in this run=      2 maximum allowed number of steps=      2.
 GradGradGradGradGradGradGradGradGradGradGradGradGradGradGradGradGradGrad

 Stoichiometry    C38H59B3F6IrN3O7
 Framework group  C1[X(C38H59B3F6IrN3O7)]
 Deg. of freedom   345
 Full point group                 C1      NOp   1
 Largest Abelian subgroup         C1      NOp   1
 Largest concise Abelian subgroup C1      NOp   1
                         Standard orientation:                         
 ---------------------------------------------------------------------
 Center     Atomic      Atomic             Coordinates (Angstroms)
 Number     Number       Type             X           Y           Z
 ---------------------------------------------------------------------
      1          6           0       -0.679870   -1.460709   -2.002020
      2          6           0       -2.261859   -0.025419   -1.131680
      3          6           0       -3.199830   -0.416849   -2.073740
      4          6           0       -2.869690   -1.403619   -2.992450
      5          6           0       -1.594310   -1.933439   -2.942820
      6          6           0        0.713250   -1.922720   -1.967000
      7          6           0        2.759410   -1.719240   -0.916930
      8          6           0        3.384940   -2.488180   -1.888290
      9          6           0        2.625850   -3.015100   -2.927090
     10          6           0        1.273460   -2.725190   -2.965730
     11          1           0       -2.498999    0.733971   -0.391900
     12          1           0       -3.596730   -1.755629   -3.720880
     13          1           0       -1.313980   -2.725709   -3.630180
     14          1           0        3.310710   -1.285010   -0.082570
     15          1           0        3.088800   -3.625820   -3.698590
     16          1           0        0.667200   -3.098290   -3.785910
     17          7           0       -1.018800   -0.520329   -1.094800
     18          7           0        1.450720   -1.461680   -0.941570
     19         77           0        0.378461    0.065460    0.514710
     20          8           0        2.735121    1.767300   -0.523550
     21          8           0        1.520060   -0.384540    3.410550
     22          8           0        0.252861    3.107050    1.183620
     23          5           0        1.763451   -0.257780    2.055390
     24          5           0        1.418381    1.404750   -0.723180
     25          5           0       -0.397529    1.934440    0.802860
     26          8           0       -1.753609    2.194241    0.617790
     27          8           0        0.972771    1.827840   -1.972320
     28          6           0        2.124191    2.270060   -2.713810
     29          6           0        3.113881    2.662870   -1.580640
     30          6           0       -0.749429    4.103561    1.445640
     31          6           0       -1.930149    3.618981    0.561050
     32          6           0        2.760250   -0.721390    4.057800
     33          6           0        3.582590   -1.329080    2.887720
     34          8           0        3.072840   -0.588710    1.760630
     35          6           0        4.577311    2.444750   -1.907370
     36          1           0        4.794621    1.388119   -2.102410
     37          1           0        4.877841    3.036049   -2.784600
     38          1           0        5.195871    2.760939   -1.057950
     39          6           0        2.892431    4.076610   -1.062260
     40          1           0        3.466161    4.204430   -0.135950
     41          1           0        3.218672    4.837900   -1.783850
     42          1           0        1.834611    4.238650   -0.816630
     43          6           0        2.604761    1.081590   -3.538740
     44          1           0        1.768611    0.716680   -4.150190
     45          1           0        3.430911    1.353180   -4.209530
     46          1           0        2.942271    0.256770   -2.894280
     47          6           0        1.717811    3.402850   -3.633900
     48          1           0        1.225381    4.213590   -3.085130
     49          1           0        2.592891    3.816290   -4.155900
     50          1           0        1.014681    3.033040   -4.391380
     51          6           0        3.354161    0.572630    4.593900
     52          1           0        3.582431    1.272370    3.779840
     53          1           0        2.619771    1.049910    5.254360
     54          1           0        4.270511    0.391240    5.171260
     55          6           0        2.470750   -1.679190    5.194930
     56          1           0        3.404820   -2.045640    5.644280
     57          1           0        1.897900   -1.164670    5.976580
     58          1           0        1.880940   -2.538720    4.856920
     59          6           0        5.080300   -1.124091    2.965720
     60          1           0        5.343571   -0.061621    2.994730
     61          1           0        5.494420   -1.616371    3.857080
     62          1           0        5.557500   -1.566131    2.081050
     63          6           0        3.267490   -2.797640    2.628740
     64          1           0        3.656380   -3.446420    3.424430
     65          1           0        2.185010   -2.966250    2.536520
     66          1           0        3.739150   -3.102960    1.685030
     67          6           0       -3.314039    3.952001    1.077860
     68          1           0       -4.069009    3.528081    0.402140
     69          1           0       -3.485309    3.534201    2.076470
     70          1           0       -3.466398    5.039781    1.119910
     71          6           0       -1.801349    4.019921   -0.902830
     72          1           0       -2.549399    3.463991   -1.485360
     73          1           0       -1.979958    5.093031   -1.053520
     74          1           0       -0.811349    3.757481   -1.302030
     75          6           0       -0.202508    5.468260    1.083370
     76          1           0        0.130652    5.510680    0.040180
     77          1           0       -0.965228    6.245211    1.236670
     78          1           0        0.658282    5.703970    1.722180
     79          6           0       -1.060959    4.040771    2.935140
     80          1           0       -1.774918    4.817421    3.240290
     81          1           0       -1.468579    3.058571    3.212390
     82          1           0       -0.129549    4.188360    3.495580
     83          1           0        0.808781    0.939360    1.808280
     84          6           0       -2.851280   -2.198249    0.916500
     85          8           0       -2.470880   -3.002609    0.064140
     86          6           0       -4.333820   -1.906599    1.107900
     87          1           0       -4.635710   -2.229449    2.117610
     88          1           0       -4.506560   -0.816889    1.087110
     89          6           0       -0.548870   -1.687860    1.574790
     90          1           0       -0.142260   -1.878260    2.576580
     91          1           0       -0.391700   -2.582500    0.960780
     92          7           0       -1.989420   -1.524079    1.727040
     93          6           0       -2.417570   -0.529579    2.690640
     94          1           0       -2.609219    0.450801    2.223420
     95          1           0       -3.316480   -0.850259    3.229910
     96          1           0       -1.612190   -0.394469    3.422720
     97          6           0       -5.196420   -2.585509    0.056550
     98          1           0       -4.793530   -2.349339   -0.939390
     99          1           0       -5.095060   -3.676859    0.154790
    100          6           0       -6.663400   -2.182978    0.123580
    101          1           0       -6.754380   -1.091008   -0.012070
    102          1           0       -7.198010   -2.633938   -0.729070
    103          6           0       -7.370160   -2.585978    1.411240
    104          1           0       -7.211660   -3.662748    1.589350
    105          1           0       -6.912050   -2.067988    2.268630
    106          6           0       -8.858100   -2.279188    1.372810
    107          1           0       -9.362120   -2.560068    2.306090
    108          1           0       -9.033490   -1.206518    1.208850
    109          1           0       -9.350640   -2.818698    0.551640
    110          6           0       -4.519919    0.287371   -2.122760
    111          9           0       -4.894709    0.734931   -0.918340
    112          9           0       -4.463799    1.352141   -2.933730
    113          9           0       -5.489230   -0.510079   -2.583740
    114          6           0        4.872210   -2.635241   -1.832320
    115          9           0        5.299620   -2.862361   -0.584270
    116          9           0        5.301780   -3.639371   -2.601010
    117          9           0        5.476580   -1.517531   -2.255000
 ---------------------------------------------------------------------
 Rotational constants (GHZ):           0.0573267           0.0345142           0.0333598
 General basis read from cards:  (5D, 7F)
 ======================================================================================================
                                       Pseudopotential Parameters
 ======================================================================================================
  Center     Atomic      Valence      Angular      Power
  Number     Number     Electrons     Momentum     of R      Exponent        Coefficient   SO-Coeffient
 ======================================================================================================
    1          6
                                   No pseudopotential on this center.
    2          6
                                   No pseudopotential on this center.
    3          6
                                   No pseudopotential on this center.
    4          6
                                   No pseudopotential on this center.
    5          6
                                   No pseudopotential on this center.
    6          6
                                   No pseudopotential on this center.
    7          6
                                   No pseudopotential on this center.
    8          6
                                   No pseudopotential on this center.
    9          6
                                   No pseudopotential on this center.
   10          6
                                   No pseudopotential on this center.
   11          1
                                   No pseudopotential on this center.
   12          1
                                   No pseudopotential on this center.
   13          1
                                   No pseudopotential on this center.
   14          1
                                   No pseudopotential on this center.
   15          1
                                   No pseudopotential on this center.
   16          1
                                   No pseudopotential on this center.
   17          7
                                   No pseudopotential on this center.
   18          7
                                   No pseudopotential on this center.
   19         77           17
                                      G and up 
                                                     1      823.5880147       -0.15780140    0.00000000
                                                     2      364.6613336    -1517.52704460    0.00000000
                                                     2       55.7082801     -316.53065290    0.00000000
                                                     2       12.0464544      -91.88809410    0.00000000
                                                     2        3.5120610       -9.22417730    0.00000000
                                      S - G
                                                     0      188.0490770        3.15780140    0.00000000
                                                     1      340.4194712       26.83225770    0.00000000
                                                     2      128.2373673      800.42500070    0.00000000
                                                     2       33.8644961      369.40506830    0.00000000
                                                     2        4.7560005      242.41718990    0.00000000
                                                     2        3.9649974     -118.21732820    0.00000000
                                      P - G
                                                     0      289.7291139        2.15780140    0.00000000
                                                     1       87.4633789       61.96786100    0.00000000
                                                     2       30.4363766      269.05819860    0.00000000
                                                     2        4.0553412      231.16547930    0.00000000
                                                     2        3.5525341     -133.69526670    0.00000000
                                      D - G
                                                     0      136.4017106        3.15780140    0.00000000
                                                     1       95.0776925       45.93498030    0.00000000
                                                     2       49.2258410      359.03446680    0.00000000
                                                     2       15.0874145      176.47401190    0.00000000
                                                     2        4.0405764       54.51552860    0.00000000
                                      F - G
                                                     0      127.3507908        3.95461970    0.00000000
                                                     1       66.2364374       52.97736550    0.00000000
                                                     2       34.4299229      274.86433830    0.00000000
                                                     2       10.1995721      137.20473380    0.00000000
                                                     2        2.5409702       14.86333050    0.00000000
   20          8
                                   No pseudopotential on this center.
   21          8
                                   No pseudopotential on this center.
   22          8
                                   No pseudopotential on this center.
   23          5
                                   No pseudopotential on this center.
   24          5
                                   No pseudopotential on this center.
   25          5
                                   No pseudopotential on this center.
   26          8
                                   No pseudopotential on this center.
   27          8
                                   No pseudopotential on this center.
   28          6
                                   No pseudopotential on this center.
   29          6
                                   No pseudopotential on this center.
   30          6
                                   No pseudopotential on this center.
   31          6
                                   No pseudopotential on this center.
   32          6
                                   No pseudopotential on this center.
   33          6
                                   No pseudopotential on this center.
   34          8
                                   No pseudopotential on this center.
   35          6
                                   No pseudopotential on this center.
   36          1
                                   No pseudopotential on this center.
   37          1
                                   No pseudopotential on this center.
   38          1
                                   No pseudopotential on this center.
   39          6
                                   No pseudopotential on this center.
   40          1
                                   No pseudopotential on this center.
   41          1
                                   No pseudopotential on this center.
   42          1
                                   No pseudopotential on this center.
   43          6
                                   No pseudopotential on this center.
   44          1
                                   No pseudopotential on this center.
   45          1
                                   No pseudopotential on this center.
   46          1
                                   No pseudopotential on this center.
   47          6
                                   No pseudopotential on this center.
   48          1
                                   No pseudopotential on this center.
   49          1
                                   No pseudopotential on this center.
   50          1
                                   No pseudopotential on this center.
   51          6
                                   No pseudopotential on this center.
   52          1
                                   No pseudopotential on this center.
   53          1
                                   No pseudopotential on this center.
   54          1
                                   No pseudopotential on this center.
   55          6
                                   No pseudopotential on this center.
   56          1
                                   No pseudopotential on this center.
   57          1
                                   No pseudopotential on this center.
   58          1
                                   No pseudopotential on this center.
   59          6
                                   No pseudopotential on this center.
   60          1
                                   No pseudopotential on this center.
   61          1
                                   No pseudopotential on this center.
   62          1
                                   No pseudopotential on this center.
   63          6
                                   No pseudopotential on this center.
   64          1
                                   No pseudopotential on this center.
   65          1
                                   No pseudopotential on this center.
   66          1
                                   No pseudopotential on this center.
   67          6
                                   No pseudopotential on this center.
   68          1
                                   No pseudopotential on this center.
   69          1
                                   No pseudopotential on this center.
   70          1
                                   No pseudopotential on this center.
   71          6
                                   No pseudopotential on this center.
   72          1
                                   No pseudopotential on this center.
   73          1
                                   No pseudopotential on this center.
   74          1
                                   No pseudopotential on this center.
   75          6
                                   No pseudopotential on this center.
   76          1
                                   No pseudopotential on this center.
   77          1
                                   No pseudopotential on this center.
   78          1
                                   No pseudopotential on this center.
   79          6
                                   No pseudopotential on this center.
   80          1
                                   No pseudopotential on this center.
   81          1
                                   No pseudopotential on this center.
   82          1
                                   No pseudopotential on this center.
   83          1
                                   No pseudopotential on this center.
   84          6
                                   No pseudopotential on this center.
   85          8
                                   No pseudopotential on this center.
   86          6
                                   No pseudopotential on this center.
   87          1
                                   No pseudopotential on this center.
   88          1
                                   No pseudopotential on this center.
   89          6
                                   No pseudopotential on this center.
   90          1
                                   No pseudopotential on this center.
   91          1
                                   No pseudopotential on this center.
   92          7
                                   No pseudopotential on this center.
   93          6
                                   No pseudopotential on this center.
   94          1
                                   No pseudopotential on this center.
   95          1
                                   No pseudopotential on this center.
   96          1
                                   No pseudopotential on this center.
   97          6
                                   No pseudopotential on this center.
   98          1
                                   No pseudopotential on this center.
   99          1
                                   No pseudopotential on this center.
  100          6
                                   No pseudopotential on this center.
  101          1
                                   No pseudopotential on this center.
  102          1
                                   No pseudopotential on this center.
  103          6
                                   No pseudopotential on this center.
  104          1
                                   No pseudopotential on this center.
  105          1
                                   No pseudopotential on this center.
  106          6
                                   No pseudopotential on this center.
  107          1
                                   No pseudopotential on this center.
  108          1
                                   No pseudopotential on this center.
  109          1
                                   No pseudopotential on this center.
  110          6
                                   No pseudopotential on this center.
  111          9
                                   No pseudopotential on this center.
  112          9
                                   No pseudopotential on this center.
  113          9
                                   No pseudopotential on this center.
  114          6
                                   No pseudopotential on this center.
  115          9
                                   No pseudopotential on this center.
  116          9
                                   No pseudopotential on this center.
  117          9
                                   No pseudopotential on this center.
 ======================================================================================================
 There are   997 symmetry adapted cartesian basis functions of A   symmetry.
 There are   938 symmetry adapted basis functions of A   symmetry.
   938 basis functions,  1875 primitive gaussians,   997 cartesian basis functions
   225 alpha electrons      225 beta electrons
       nuclear repulsion energy     10464.6285096146 Hartrees.
 NAtoms=  117 NActive=  117 NUniq=  117 SFac= 1.00D+00 NAtFMM=   60 NAOKFM=T Big=T
 Integral buffers will be    131072 words long.
 Raffenetti 2 integral format.
 Two-electron integral symmetry is turned on.
 One-electron integrals computed using PRISM.
   1 Symmetry operations used in ECPInt.
 ECPInt:  NShTT=   62835 NPrTT=  387974 LenC2=   44819 LenP2D=  136630.
 LDataN:  DoStor=T MaxTD1= 6 Len=  172
 NBasis=   938 RedAO= T EigKep=  4.47D-04  NBF=   938
 NBsUse=   938 1.00D-06 EigRej= -1.00D+00 NBFU=   938
 Defaulting to unpruned grid for atomic number  77.
 ExpMin= 2.90D-02 ExpMax= 7.00D+03 ExpMxC= 1.05D+03 IAcc=3 IRadAn=         5 AccDes= 0.00D+00
 Harris functional with IExCor= 1009 and IRadAn=       5 diagonalized for initial guess.
 HarFok:  IExCor= 1009 AccDes= 0.00D+00 IRadAn=         5 IDoV= 1 UseB2=F ITyADJ=14
 ICtDFT=  3500011 ScaDFX=  1.000000  1.000000  1.000000  1.000000
 Defaulting to unpruned grid for atomic number  77.
 FoFCou: FMM=F IPFlag=           0 FMFlag=      100000 FMFlg1=        2001
         NFxFlg=           0 DoJE=T BraDBF=F KetDBF=T FulRan=T
         wScrn=  0.000000 ICntrl=       500 IOpCl=  0 I1Cent=   200000004 NGrid=           0
         NMat0=    1 NMatS0=      1 NMatT0=    0 NMatD0=    1 NMtDS0=    0 NMtDT0=    0
 Petite list used in FoFCou.
 Requested convergence on RMS density matrix=1.00D-08 within 128 cycles.
 Requested convergence on MAX density matrix=1.00D-06.
 Requested convergence on             energy=1.00D-06.
 No special actions if energy rises.
 Defaulting to unpruned grid for atomic number  77.
 Defaulting to unpruned grid for atomic number  77.
 Defaulting to unpruned grid for atomic number  77.
 Defaulting to unpruned grid for atomic number  77.
 Defaulting to unpruned grid for atomic number  77.
 Defaulting to unpruned grid for atomic number  77.
 Defaulting to unpruned grid for atomic number  77.
 Defaulting to unpruned grid for atomic number  77.
 Defaulting to unpruned grid for atomic number  77.
 Defaulting to unpruned grid for atomic number  77.
 Defaulting to unpruned grid for atomic number  77.
 Defaulting to unpruned grid for atomic number  77.
 Defaulting to unpruned grid for atomic number  77.
 Defaulting to unpruned grid for atomic number  77.
 Defaulting to unpruned grid for atomic number  77.
 Defaulting to unpruned grid for atomic number  77.
 SCF Done:  E(RM06) =  -2951.36785343     A.U. after   16 cycles
            NFock= 16  Conv=0.96D-08     -V/T= 2.0310
 DoSCS=F DFT=T ScalE2(SS,OS)=  1.000000  1.000000
 Range of M.O.s used for correlation:     1   938
 NBasis=   938 NAE=   225 NBE=   225 NFC=     0 NFV=     0
 NROrb=    938 NOA=   225 NOB=   225 NVA=   713 NVB=   713

 **** Warning!!: The smallest alpha delta epsilon is  0.85666302D-01

   1 Symmetry operations used in ECPInt.
 ECPInt:  NShTT=   62835 NPrTT=  387974 LenC2=   44819 LenP2D=  136630.
 LDataN:  DoStor=T MaxTD1= 7 Len=  274
 Number of processors reduced to   6 by ecpmxn.
 Symmetrizing basis deriv contribution to polar:
 IMax=3 JMax=2 DiffMx= 0.00D+00
 G2DrvN: will do   118 centers at a time, making    1 passes.
 Calling FoFCou, ICntrl=  3107 FMM=T I1Cent=   0 AccDes= 0.00D+00.
 Defaulting to unpruned grid for atomic number  77.
 Defaulting to unpruned grid for atomic number  77.
 Defaulting to unpruned grid for atomic number  77.
 Defaulting to unpruned grid for atomic number  77.
 Defaulting to unpruned grid for atomic number  77.
 Defaulting to unpruned grid for atomic number  77.
 Defaulting to unpruned grid for atomic number  77.
 Defaulting to unpruned grid for atomic number  77.
 Defaulting to unpruned grid for atomic number  77.
 Defaulting to unpruned grid for atomic number  77.
 Defaulting to unpruned grid for atomic number  77.
 Defaulting to unpruned grid for atomic number  77.
 Defaulting to unpruned grid for atomic number  77.
 Defaulting to unpruned grid for atomic number  77.
 Defaulting to unpruned grid for atomic number  77.
 Defaulting to unpruned grid for atomic number  77.
 End of G2Drv F.D. properties file   721 does not exist.
 End of G2Drv F.D. properties file   722 does not exist.
 End of G2Drv F.D. properties file   788 does not exist.
          IDoAtm=11111111111111111111111111111111111111111111111111
          IDoAtm=11111111111111111111111111111111111111111111111111
          IDoAtm=11111111111111111
          Differentiating once with respect to electric field.
                with respect to dipole field.
          Differentiating once with respect to nuclear coordinates.
 Defaulting to unpruned grid for atomic number  77.
 CalDSu exits because no D1Ps are significant.
 Defaulting to unpruned grid for atomic number  77.
 Defaulting to unpruned grid for atomic number  77.
 Defaulting to unpruned grid for atomic number  77.
 Defaulting to unpruned grid for atomic number  77.
 Defaulting to unpruned grid for atomic number  77.
 Defaulting to unpruned grid for atomic number  77.
 Defaulting to unpruned grid for atomic number  77.
 Defaulting to unpruned grid for atomic number  77.
 Defaulting to unpruned grid for atomic number  77.
 Defaulting to unpruned grid for atomic number  77.
 Defaulting to unpruned grid for atomic number  77.
 Defaulting to unpruned grid for atomic number  77.
 Defaulting to unpruned grid for atomic number  77.
 Defaulting to unpruned grid for atomic number  77.
 Defaulting to unpruned grid for atomic number  77.
 Defaulting to unpruned grid for atomic number  77.
          There are   354 degrees of freedom in the 1st order CPHF.  IDoFFX=6 NUNeed=     3.
    351 vectors produced by pass  0 Test12= 1.60D-13 1.00D-09 XBig12= 5.34D+02 1.00D+01.
 AX will form    72 AO Fock derivatives at one time.
    351 vectors produced by pass  1 Test12= 1.60D-13 1.00D-09 XBig12= 8.49D+01 9.27D-01.
    351 vectors produced by pass  2 Test12= 1.60D-13 1.00D-09 XBig12= 1.07D+00 8.36D-02.
    351 vectors produced by pass  3 Test12= 1.60D-13 1.00D-09 XBig12= 8.30D-03 4.97D-03.
    351 vectors produced by pass  4 Test12= 1.60D-13 1.00D-09 XBig12= 3.39D-05 2.64D-04.
    317 vectors produced by pass  5 Test12= 1.60D-13 1.00D-09 XBig12= 6.51D-08 1.37D-05.
     86 vectors produced by pass  6 Test12= 1.60D-13 1.00D-09 XBig12= 9.50D-11 4.14D-07.
      3 vectors produced by pass  7 Test12= 1.60D-13 1.00D-09 XBig12= 1.27D-13 1.94D-08.
 InvSVY:  IOpt=1 It=  1 EMax= 1.78D-14
 Solved reduced A of dimension  2161 with   354 vectors.
 Isotropic polarizability for W=    0.000000      526.49 Bohr**3.
 End of Minotr F.D. properties file   721 does not exist.
 End of Minotr F.D. properties file   722 does not exist.
 End of Minotr F.D. properties file   788 does not exist.
 Hyperfine terms turned off by default for NAtoms > 100.

 **********************************************************************

            Population analysis using the SCF Density.

 **********************************************************************

 Orbital symmetries:
       Occupied  (A) (A) (A) (A) (A) (A) (A) (A) (A) (A) (A) (A)
                 (A) (A) (A) (A) (A) (A) (A) (A) (A) (A) (A) (A)
                 (A) (A) (A) (A) (A) (A) (A) (A) (A) (A) (A) (A)
                 (A) (A) (A) (A) (A) (A) (A) (A) (A) (A) (A) (A)
                 (A) (A) (A) (A) (A) (A) (A) (A) (A) (A) (A) (A)
                 (A) (A) (A) (A) (A) (A) (A) (A) (A) (A) (A) (A)
                 (A) (A) (A) (A) (A) (A) (A) (A) (A) (A) (A) (A)
                 (A) (A) (A) (A) (A) (A) (A) (A) (A) (A) (A) (A)
                 (A) (A) (A) (A) (A) (A) (A) (A) (A) (A) (A) (A)
                 (A) (A) (A) (A) (A) (A) (A) (A) (A) (A) (A) (A)
                 (A) (A) (A) (A) (A) (A) (A) (A) (A) (A) (A) (A)
                 (A) (A) (A) (A) (A) (A) (A) (A) (A) (A) (A) (A)
                 (A) (A) (A) (A) (A) (A) (A) (A) (A) (A) (A) (A)
                 (A) (A) (A) (A) (A) (A) (A) (A) (A) (A) (A) (A)
                 (A) (A) (A) (A) (A) (A) (A) (A) (A) (A) (A) (A)
                 (A) (A) (A) (A) (A) (A) (A) (A) (A) (A) (A) (A)
                 (A) (A) (A) (A) (A) (A) (A) (A) (A) (A) (A) (A)
                 (A) (A) (A) (A) (A) (A) (A) (A) (A) (A) (A) (A)
                 (A) (A) (A) (A) (A) (A) (A) (A) (A)
       Virtual   (A) (A) (A) (A) (A) (A) (A) (A) (A) (A) (A) (A)
                 (A) (A) (A) (A) (A) (A) (A) (A) (A) (A) (A) (A)
                 (A) (A) (A) (A) (A) (A) (A) (A) (A) (A) (A) (A)
                 (A) (A) (A) (A) (A) (A) (A) (A) (A) (A) (A) (A)
                 (A) (A) (A) (A) (A) (A) (A) (A) (A) (A) (A) (A)
                 (A) (A) (A) (A) (A) (A) (A) (A) (A) (A) (A) (A)
                 (A) (A) (A) (A) (A) (A) (A) (A) (A) (A) (A) (A)
                 (A) (A) (A) (A) (A) (A) (A) (A) (A) (A) (A) (A)
                 (A) (A) (A) (A) (A) (A) (A) (A) (A) (A) (A) (A)
                 (A) (A) (A) (A) (A) (A) (A) (A) (A) (A) (A) (A)
                 (A) (A) (A) (A) (A) (A) (A) (A) (A) (A) (A) (A)
                 (A) (A) (A) (A) (A) (A) (A) (A) (A) (A) (A) (A)
                 (A) (A) (A) (A) (A) (A) (A) (A) (A) (A) (A) (A)
                 (A) (A) (A) (A) (A) (A) (A) (A) (A) (A) (A) (A)
                 (A) (A) (A) (A) (A) (A) (A) (A) (A) (A) (A) (A)
                 (A) (A) (A) (A) (A) (A) (A) (A) (A) (A) (A) (A)
                 (A) (A) (A) (A) (A) (A) (A) (A) (A) (A) (A) (A)
                 (A) (A) (A) (A) (A) (A) (A) (A) (A) (A) (A) (A)
                 (A) (A) (A) (A) (A) (A) (A) (A) (A) (A) (A) (A)
                 (A) (A) (A) (A) (A) (A) (A) (A) (A) (A) (A) (A)
                 (A) (A) (A) (A) (A) (A) (A) (A) (A) (A) (A) (A)
                 (A) (A) (A) (A) (A) (A) (A) (A) (A) (A) (A) (A)
                 (A) (A) (A) (A) (A) (A) (A) (A) (A) (A) (A) (A)
                 (A) (A) (A) (A) (A) (A) (A) (A) (A) (A) (A) (A)
                 (A) (A) (A) (A) (A) (A) (A) (A) (A) (A) (A) (A)
                 (A) (A) (A) (A) (A) (A) (A) (A) (A) (A) (A) (A)
                 (A) (A) (A) (A) (A) (A) (A) (A) (A) (A) (A) (A)
                 (A) (A) (A) (A) (A) (A) (A) (A) (A) (A) (A) (A)
                 (A) (A) (A) (A) (A) (A) (A) (A) (A) (A) (A) (A)
                 (A) (A) (A) (A) (A) (A) (A) (A) (A) (A) (A) (A)
                 (A) (A) (A) (A) (A) (A) (A) (A) (A) (A) (A) (A)
                 (A) (A) (A) (A) (A) (A) (A) (A) (A) (A) (A) (A)
                 (A) (A) (A) (A) (A) (A) (A) (A) (A) (A) (A) (A)
                 (A) (A) (A) (A) (A) (A) (A) (A) (A) (A) (A) (A)
                 (A) (A) (A) (A) (A) (A) (A) (A) (A) (A) (A) (A)
                 (A) (A) (A) (A) (A) (A) (A) (A) (A) (A) (A) (A)
                 (A) (A) (A) (A) (A) (A) (A) (A) (A) (A) (A) (A)
                 (A) (A) (A) (A) (A) (A) (A) (A) (A) (A) (A) (A)
                 (A) (A) (A) (A) (A) (A) (A) (A) (A) (A) (A) (A)
                 (A) (A) (A) (A) (A) (A) (A) (A) (A) (A) (A) (A)
                 (A) (A) (A) (A) (A) (A) (A) (A) (A) (A) (A) (A)
                 (A) (A) (A) (A) (A) (A) (A) (A) (A) (A) (A) (A)
                 (A) (A) (A) (A) (A) (A) (A) (A) (A) (A) (A) (A)
                 (A) (A) (A) (A) (A) (A) (A) (A) (A) (A) (A) (A)
                 (A) (A) (A) (A) (A) (A) (A) (A) (A) (A) (A) (A)
                 (A) (A) (A) (A) (A) (A) (A) (A) (A) (A) (A) (A)
                 (A) (A) (A) (A) (A) (A) (A) (A) (A) (A) (A) (A)
                 (A) (A) (A) (A) (A) (A) (A) (A) (A) (A) (A) (A)
                 (A) (A) (A) (A) (A) (A) (A) (A) (A) (A) (A) (A)
                 (A) (A) (A) (A) (A) (A) (A) (A) (A) (A) (A) (A)
                 (A) (A) (A) (A) (A) (A) (A) (A) (A) (A) (A) (A)
                 (A) (A) (A) (A) (A) (A) (A) (A) (A) (A) (A) (A)
                 (A) (A) (A) (A) (A) (A) (A) (A) (A) (A) (A) (A)
                 (A) (A) (A) (A) (A) (A) (A) (A) (A) (A) (A) (A)
                 (A) (A) (A) (A) (A) (A) (A) (A) (A) (A) (A) (A)
                 (A) (A) (A) (A) (A) (A) (A) (A) (A) (A) (A) (A)
                 (A) (A) (A) (A) (A) (A) (A) (A) (A) (A) (A) (A)
                 (A) (A) (A) (A) (A) (A) (A) (A) (A) (A) (A) (A)
                 (A) (A) (A) (A) (A) (A) (A) (A) (A) (A) (A) (A)
                 (A) (A) (A) (A) (A)
 The electronic state is 1-A.
 Alpha  occ. eigenvalues --  -24.83709 -24.83447 -24.83266 -24.83219 -24.83005
 Alpha  occ. eigenvalues --  -24.82619 -19.22303 -19.21855 -19.21765 -19.21241
 Alpha  occ. eigenvalues --  -19.20868 -19.20344 -19.15756 -14.46222 -14.45591
 Alpha  occ. eigenvalues --  -14.39914 -10.51887 -10.51484 -10.33209 -10.32829
 Alpha  occ. eigenvalues --  -10.31474 -10.31217 -10.30782 -10.30605 -10.30540
 Alpha  occ. eigenvalues --  -10.30388 -10.30321 -10.30157 -10.29787 -10.29784
 Alpha  occ. eigenvalues --  -10.29673 -10.29436 -10.29423 -10.29253 -10.28817
 Alpha  occ. eigenvalues --  -10.25178 -10.23658 -10.23563 -10.23525 -10.23522
 Alpha  occ. eigenvalues --  -10.23425 -10.23261 -10.23237 -10.23155 -10.23146
 Alpha  occ. eigenvalues --  -10.23023 -10.22978 -10.22913 -10.22826 -10.22593
 Alpha  occ. eigenvalues --  -10.22383 -10.22311 -10.22275 -10.21795  -6.83412
 Alpha  occ. eigenvalues --   -6.82231  -6.80019  -3.65148  -2.08399  -2.07430
 Alpha  occ. eigenvalues --   -2.05132  -1.36231  -1.35831  -1.27764  -1.27335
 Alpha  occ. eigenvalues --   -1.27205  -1.26835  -1.08186  -1.07589  -1.06475
 Alpha  occ. eigenvalues --   -1.01624  -1.01220  -1.01030  -1.00550  -0.99538
 Alpha  occ. eigenvalues --   -0.98589  -0.91207  -0.86953  -0.86020  -0.84386
 Alpha  occ. eigenvalues --   -0.81689  -0.81280  -0.80731  -0.80602  -0.80444
 Alpha  occ. eigenvalues --   -0.76044  -0.75922  -0.75701  -0.75699  -0.75173
 Alpha  occ. eigenvalues --   -0.72669  -0.71373  -0.71079  -0.70747  -0.69752
 Alpha  occ. eigenvalues --   -0.69457  -0.69014  -0.68979  -0.68627  -0.68392
 Alpha  occ. eigenvalues --   -0.67944  -0.66518  -0.65465  -0.64508  -0.63078
 Alpha  occ. eigenvalues --   -0.62654  -0.62304  -0.62229  -0.61837  -0.61792
 Alpha  occ. eigenvalues --   -0.61593  -0.60979  -0.60438  -0.60375  -0.57028
 Alpha  occ. eigenvalues --   -0.56448  -0.55998  -0.55873  -0.55440  -0.54948
 Alpha  occ. eigenvalues --   -0.54657  -0.54580  -0.53531  -0.51654  -0.50911
 Alpha  occ. eigenvalues --   -0.50127  -0.49973  -0.49877  -0.49477  -0.49329
 Alpha  occ. eigenvalues --   -0.49068  -0.48920  -0.48570  -0.47999  -0.47843
 Alpha  occ. eigenvalues --   -0.47742  -0.47472  -0.47354  -0.47114  -0.46956
 Alpha  occ. eigenvalues --   -0.46653  -0.46547  -0.45887  -0.45855  -0.45699
 Alpha  occ. eigenvalues --   -0.45393  -0.45365  -0.45232  -0.45072  -0.44991
 Alpha  occ. eigenvalues --   -0.44901  -0.44459  -0.44411  -0.44144  -0.43906
 Alpha  occ. eigenvalues --   -0.43786  -0.43517  -0.43369  -0.43153  -0.43009
 Alpha  occ. eigenvalues --   -0.42510  -0.41737  -0.41274  -0.40954  -0.40823
 Alpha  occ. eigenvalues --   -0.40762  -0.40508  -0.40385  -0.40295  -0.40229
 Alpha  occ. eigenvalues --   -0.40147  -0.40006  -0.39953  -0.39837  -0.39469
 Alpha  occ. eigenvalues --   -0.39389  -0.39185  -0.38636  -0.38470  -0.38205
 Alpha  occ. eigenvalues --   -0.38013  -0.37756  -0.37594  -0.37293  -0.37173
 Alpha  occ. eigenvalues --   -0.37005  -0.36911  -0.36804  -0.36454  -0.36411
 Alpha  occ. eigenvalues --   -0.36132  -0.35956  -0.35799  -0.35636  -0.35341
 Alpha  occ. eigenvalues --   -0.35052  -0.34871  -0.34299  -0.34102  -0.33619
 Alpha  occ. eigenvalues --   -0.33432  -0.33411  -0.32974  -0.32773  -0.32562
 Alpha  occ. eigenvalues --   -0.32371  -0.32220  -0.31871  -0.31526  -0.31477
 Alpha  occ. eigenvalues --   -0.31325  -0.31184  -0.30873  -0.30498  -0.29556
 Alpha  occ. eigenvalues --   -0.28126  -0.27827  -0.27505  -0.27145  -0.26650
 Alpha  occ. eigenvalues --   -0.25006  -0.23380  -0.23095  -0.21642  -0.17071
 Alpha virt. eigenvalues --   -0.08505  -0.04884  -0.03876  -0.00420   0.01727
 Alpha virt. eigenvalues --    0.02690   0.05360   0.05604   0.05917   0.06740
 Alpha virt. eigenvalues --    0.07299   0.07595   0.07936   0.08743   0.09391
 Alpha virt. eigenvalues --    0.09765   0.10198   0.10973   0.11134   0.11317
 Alpha virt. eigenvalues --    0.11731   0.12367   0.12555   0.12755   0.12940
 Alpha virt. eigenvalues --    0.13205   0.13370   0.13455   0.13645   0.13906
 Alpha virt. eigenvalues --    0.14093   0.14294   0.14473   0.14638   0.14822
 Alpha virt. eigenvalues --    0.15109   0.15249   0.15500   0.15650   0.15903
 Alpha virt. eigenvalues --    0.16048   0.16242   0.16315   0.16405   0.16603
 Alpha virt. eigenvalues --    0.16884   0.17010   0.17063   0.17275   0.17781
 Alpha virt. eigenvalues --    0.18011   0.18126   0.18476   0.18609   0.18769
 Alpha virt. eigenvalues --    0.18961   0.19137   0.19235   0.19491   0.19644
 Alpha virt. eigenvalues --    0.19797   0.19874   0.19987   0.20115   0.20293
 Alpha virt. eigenvalues --    0.20458   0.20540   0.20889   0.21000   0.21099
 Alpha virt. eigenvalues --    0.21571   0.21731   0.21932   0.22236   0.22463
 Alpha virt. eigenvalues --    0.22634   0.22783   0.22914   0.23040   0.23298
 Alpha virt. eigenvalues --    0.23489   0.23625   0.23794   0.24043   0.24094
 Alpha virt. eigenvalues --    0.24317   0.24493   0.24775   0.24964   0.25019
 Alpha virt. eigenvalues --    0.25198   0.25513   0.25911   0.26015   0.26082
 Alpha virt. eigenvalues --    0.26595   0.26774   0.27092   0.27314   0.27449
 Alpha virt. eigenvalues --    0.27780   0.27855   0.28181   0.28435   0.28866
 Alpha virt. eigenvalues --    0.29343   0.29430   0.29937   0.30455   0.30730
 Alpha virt. eigenvalues --    0.31114   0.32056   0.32571   0.33113   0.33770
 Alpha virt. eigenvalues --    0.34183   0.34652   0.35288   0.35631   0.35875
 Alpha virt. eigenvalues --    0.36742   0.36857   0.37854   0.38409   0.38856
 Alpha virt. eigenvalues --    0.39537   0.40670   0.42062   0.42534   0.43338
 Alpha virt. eigenvalues --    0.43673   0.45420   0.45972   0.46377   0.46821
 Alpha virt. eigenvalues --    0.47623   0.47992   0.48335   0.48798   0.49065
 Alpha virt. eigenvalues --    0.49158   0.49814   0.50234   0.50852   0.51164
 Alpha virt. eigenvalues --    0.51365   0.51478   0.51860   0.52130   0.52617
 Alpha virt. eigenvalues --    0.52811   0.53415   0.53929   0.54221   0.54604
 Alpha virt. eigenvalues --    0.54782   0.55120   0.55303   0.55593   0.55926
 Alpha virt. eigenvalues --    0.56251   0.56436   0.56587   0.56691   0.56876
 Alpha virt. eigenvalues --    0.57343   0.57399   0.57631   0.57956   0.58329
 Alpha virt. eigenvalues --    0.58481   0.58578   0.58991   0.59188   0.59414
 Alpha virt. eigenvalues --    0.59894   0.60240   0.61006   0.61154   0.61344
 Alpha virt. eigenvalues --    0.61505   0.61816   0.62699   0.62791   0.63343
 Alpha virt. eigenvalues --    0.63540   0.63727   0.63828   0.64611   0.64915
 Alpha virt. eigenvalues --    0.65197   0.65402   0.65977   0.66070   0.66448
 Alpha virt. eigenvalues --    0.66821   0.66889   0.67290   0.67369   0.68138
 Alpha virt. eigenvalues --    0.68293   0.68488   0.68961   0.69295   0.69894
 Alpha virt. eigenvalues --    0.70045   0.70321   0.70719   0.71097   0.71304
 Alpha virt. eigenvalues --    0.71519   0.71877   0.72002   0.72270   0.72414
 Alpha virt. eigenvalues --    0.72942   0.73111   0.73348   0.73778   0.73964
 Alpha virt. eigenvalues --    0.74235   0.74870   0.75089   0.75608   0.76445
 Alpha virt. eigenvalues --    0.76626   0.77008   0.77434   0.77711   0.78035
 Alpha virt. eigenvalues --    0.78539   0.79057   0.79434   0.79480   0.79995
 Alpha virt. eigenvalues --    0.80459   0.80908   0.81106   0.81735   0.81890
 Alpha virt. eigenvalues --    0.82399   0.82480   0.82618   0.83273   0.83599
 Alpha virt. eigenvalues --    0.83760   0.84045   0.84372   0.84765   0.84796
 Alpha virt. eigenvalues --    0.84873   0.85139   0.85486   0.85530   0.85721
 Alpha virt. eigenvalues --    0.86067   0.86544   0.86630   0.86795   0.86925
 Alpha virt. eigenvalues --    0.87193   0.87286   0.87524   0.87759   0.88192
 Alpha virt. eigenvalues --    0.88388   0.88514   0.88717   0.89112   0.89354
 Alpha virt. eigenvalues --    0.89677   0.89862   0.90048   0.90205   0.90347
 Alpha virt. eigenvalues --    0.90629   0.90801   0.90851   0.91196   0.91313
 Alpha virt. eigenvalues --    0.91548   0.91716   0.92061   0.92517   0.92872
 Alpha virt. eigenvalues --    0.93106   0.93387   0.93831   0.93902   0.94204
 Alpha virt. eigenvalues --    0.94434   0.94923   0.95081   0.95293   0.95412
 Alpha virt. eigenvalues --    0.95466   0.95955   0.96141   0.96568   0.96899
 Alpha virt. eigenvalues --    0.96958   0.97552   0.97701   0.97989   0.98453
 Alpha virt. eigenvalues --    0.99159   0.99499   0.99886   1.00232   1.00537
 Alpha virt. eigenvalues --    1.01093   1.01438   1.01748   1.01982   1.02348
 Alpha virt. eigenvalues --    1.03224   1.03635   1.03959   1.04183   1.04966
 Alpha virt. eigenvalues --    1.05305   1.05933   1.07003   1.07168   1.07803
 Alpha virt. eigenvalues --    1.08652   1.09674   1.10120   1.10510   1.11347
 Alpha virt. eigenvalues --    1.11773   1.12157   1.12643   1.13209   1.14676
 Alpha virt. eigenvalues --    1.14854   1.15345   1.15539   1.15655   1.16400
 Alpha virt. eigenvalues --    1.17239   1.17511   1.17589   1.18199   1.18560
 Alpha virt. eigenvalues --    1.18710   1.19185   1.19400   1.20234   1.20526
 Alpha virt. eigenvalues --    1.20788   1.20840   1.20934   1.21889   1.22405
 Alpha virt. eigenvalues --    1.22547   1.22954   1.23696   1.23900   1.24397
 Alpha virt. eigenvalues --    1.25040   1.25328   1.26456   1.27058   1.27758
 Alpha virt. eigenvalues --    1.27957   1.28765   1.29266   1.29808   1.30794
 Alpha virt. eigenvalues --    1.31098   1.32302   1.33329   1.33530   1.34036
 Alpha virt. eigenvalues --    1.34142   1.35168   1.35368   1.36179   1.36450
 Alpha virt. eigenvalues --    1.37045   1.37383   1.37850   1.38106   1.38465
 Alpha virt. eigenvalues --    1.38999   1.39304   1.39474   1.39813   1.39909
 Alpha virt. eigenvalues --    1.40385   1.40622   1.41109   1.41447   1.41982
 Alpha virt. eigenvalues --    1.42636   1.42947   1.43275   1.43588   1.43944
 Alpha virt. eigenvalues --    1.44106   1.44678   1.44883   1.45600   1.45776
 Alpha virt. eigenvalues --    1.46427   1.46510   1.47044   1.47133   1.47880
 Alpha virt. eigenvalues --    1.48430   1.48997   1.49389   1.50872   1.51283
 Alpha virt. eigenvalues --    1.51948   1.52066   1.52929   1.53661   1.55104
 Alpha virt. eigenvalues --    1.55417   1.56037   1.56763   1.57195   1.58365
 Alpha virt. eigenvalues --    1.58565   1.59283   1.60566   1.61139   1.61951
 Alpha virt. eigenvalues --    1.62793   1.63390   1.63478   1.63772   1.64290
 Alpha virt. eigenvalues --    1.65125   1.65445   1.66264   1.66825   1.67207
 Alpha virt. eigenvalues --    1.67661   1.67822   1.68945   1.69167   1.69496
 Alpha virt. eigenvalues --    1.70253   1.70656   1.71436   1.71679   1.72617
 Alpha virt. eigenvalues --    1.72960   1.73583   1.73766   1.74264   1.75087
 Alpha virt. eigenvalues --    1.75632   1.75839   1.76169   1.76776   1.77241
 Alpha virt. eigenvalues --    1.77458   1.78072   1.78254   1.78889   1.79319
 Alpha virt. eigenvalues --    1.79598   1.80087   1.80793   1.80894   1.81601
 Alpha virt. eigenvalues --    1.81924   1.82330   1.82844   1.82973   1.83991
 Alpha virt. eigenvalues --    1.84431   1.84951   1.85532   1.85741   1.86034
 Alpha virt. eigenvalues --    1.86758   1.86845   1.87046   1.87513   1.87672
 Alpha virt. eigenvalues --    1.87882   1.88575   1.88733   1.88934   1.89062
 Alpha virt. eigenvalues --    1.89615   1.89747   1.90122   1.90249   1.90440
 Alpha virt. eigenvalues --    1.91001   1.91151   1.91515   1.91691   1.91984
 Alpha virt. eigenvalues --    1.92314   1.92334   1.92697   1.92977   1.93465
 Alpha virt. eigenvalues --    1.93778   1.94001   1.94040   1.94380   1.95231
 Alpha virt. eigenvalues --    1.95591   1.96016   1.96921   1.97438   1.97799
 Alpha virt. eigenvalues --    1.98023   1.98786   1.98812   1.99453   2.00228
 Alpha virt. eigenvalues --    2.00499   2.00624   2.01243   2.01425   2.01698
 Alpha virt. eigenvalues --    2.02312   2.02766   2.02959   2.03164   2.03530
 Alpha virt. eigenvalues --    2.03679   2.03861   2.03958   2.04219   2.04626
 Alpha virt. eigenvalues --    2.05311   2.05339   2.05881   2.06355   2.06708
 Alpha virt. eigenvalues --    2.06879   2.06959   2.07650   2.08460   2.08818
 Alpha virt. eigenvalues --    2.09096   2.09176   2.09238   2.09728   2.10160
 Alpha virt. eigenvalues --    2.10696   2.11070   2.11202   2.11441   2.12316
 Alpha virt. eigenvalues --    2.12654   2.13014   2.13320   2.13386   2.13787
 Alpha virt. eigenvalues --    2.14065   2.14477   2.14780   2.14938   2.15180
 Alpha virt. eigenvalues --    2.15824   2.16143   2.16291   2.16800   2.17252
 Alpha virt. eigenvalues --    2.17401   2.17869   2.18102   2.18457   2.18859
 Alpha virt. eigenvalues --    2.19053   2.19388   2.19715   2.20340   2.20671
 Alpha virt. eigenvalues --    2.21211   2.21549   2.21854   2.22252   2.22499
 Alpha virt. eigenvalues --    2.23200   2.23683   2.24195   2.24524   2.24647
 Alpha virt. eigenvalues --    2.25025   2.25274   2.25690   2.25779   2.26092
 Alpha virt. eigenvalues --    2.26434   2.27163   2.27465   2.28134   2.28623
 Alpha virt. eigenvalues --    2.29380   2.30173   2.30728   2.30985   2.31612
 Alpha virt. eigenvalues --    2.32081   2.32331   2.32801   2.33328   2.33777
 Alpha virt. eigenvalues --    2.33841   2.34135   2.35026   2.35329   2.36151
 Alpha virt. eigenvalues --    2.37386   2.37573   2.38170   2.38918   2.39306
 Alpha virt. eigenvalues --    2.39580   2.41169   2.42737   2.43184   2.43637
 Alpha virt. eigenvalues --    2.44114   2.44976   2.46035   2.47184   2.47426
 Alpha virt. eigenvalues --    2.47825   2.48278   2.48494   2.48777   2.49386
 Alpha virt. eigenvalues --    2.50426   2.51837   2.52282   2.53948   2.55464
 Alpha virt. eigenvalues --    2.56036   2.57411   2.57691   2.58199   2.58633
 Alpha virt. eigenvalues --    2.59825   2.60453   2.61064   2.61543   2.63128
 Alpha virt. eigenvalues --    2.63583   2.64336   2.64444   2.65774   2.67056
 Alpha virt. eigenvalues --    2.67995   2.69521   2.69851   2.70876   2.72379
 Alpha virt. eigenvalues --    2.72940   2.75728   2.76672   2.77158   2.77596
 Alpha virt. eigenvalues --    2.77703   2.77991   2.78201   2.78509   2.78721
 Alpha virt. eigenvalues --    2.79573   2.79899   2.80324   2.80817   2.80924
 Alpha virt. eigenvalues --    2.81715   2.82439   2.82728   2.82919   2.86097
 Alpha virt. eigenvalues --    2.87314   2.87953   2.88268   2.90168   2.91788
 Alpha virt. eigenvalues --    2.92059   2.93441   2.94210   2.94845   2.95749
 Alpha virt. eigenvalues --    2.96564   2.98228   3.00608   3.01834   3.04257
 Alpha virt. eigenvalues --    3.05190   3.06458   3.06659   3.07487   3.07801
 Alpha virt. eigenvalues --    3.08541   3.09720   3.10311   3.11149   3.12142
 Alpha virt. eigenvalues --    3.12301   3.14168   3.15958   3.23282   3.27945
 Alpha virt. eigenvalues --    3.32378   3.45433  13.62496
          Condensed to atoms (all electrons):
 Mulliken charges:
               1
     1  C    0.353796
     2  C    0.030521
     3  C   -0.059155
     4  C   -0.144120
     5  C   -0.168395
     6  C    0.286951
     7  C    0.005223
     8  C   -0.067053
     9  C   -0.159462
    10  C   -0.181461
    11  H    0.240259
    12  H    0.201456
    13  H    0.179196
    14  H    0.248139
    15  H    0.201584
    16  H    0.180391
    17  N   -0.514497
    18  N   -0.456017
    19  Ir  -0.140533
    20  O   -0.492306
    21  O   -0.498456
    22  O   -0.522324
    23  B    0.502714
    24  B    0.505773
    25  B    0.378566
    26  O   -0.531543
    27  O   -0.512425
    28  C    0.294354
    29  C    0.288732
    30  C    0.294154
    31  C    0.292911
    32  C    0.296565
    33  C    0.284557
    34  O   -0.498912
    35  C   -0.510698
    36  H    0.168696
    37  H    0.147751
    38  H    0.174016
    39  C   -0.497144
    40  H    0.176805
    41  H    0.145502
    42  H    0.162695
    43  C   -0.491254
    44  H    0.163308
    45  H    0.156183
    46  H    0.142489
    47  C   -0.509633
    48  H    0.167894
    49  H    0.152249
    50  H    0.169838
    51  C   -0.518821
    52  H    0.188483
    53  H    0.176806
    54  H    0.154152
    55  C   -0.512677
    56  H    0.153617
    57  H    0.175405
    58  H    0.176426
    59  C   -0.514002
    60  H    0.180913
    61  H    0.155459
    62  H    0.173519
    63  C   -0.514803
    64  H    0.161218
    65  H    0.190374
    66  H    0.161424
    67  C   -0.513088
    68  H    0.172742
    69  H    0.170929
    70  H    0.155935
    71  C   -0.508926
    72  H    0.163972
    73  H    0.153130
    74  H    0.184586
    75  C   -0.509753
    76  H    0.167090
    77  H    0.153756
    78  H    0.175586
    79  C   -0.511487
    80  H    0.152849
    81  H    0.174171
    82  H    0.178751
    83  H    0.174334
    84  C    0.573836
    85  O   -0.548672
    86  C   -0.409625
    87  H    0.169424
    88  H    0.153452
    89  C   -0.333545
    90  H    0.141868
    91  H    0.181282
    92  N   -0.363860
    93  C   -0.359977
    94  H    0.177761
    95  H    0.161192
    96  H    0.198022
    97  C   -0.260578
    98  H    0.125915
    99  H    0.159944
   100  C   -0.279202
   101  H    0.133077
   102  H    0.140209
   103  C   -0.282181
   104  H    0.146286
   105  H    0.145094
   106  C   -0.496812
   107  H    0.161589
   108  H    0.158664
   109  H    0.157888
   110  C    0.970684
   111  F   -0.307355
   112  F   -0.305485
   113  F   -0.310839
   114  C    0.969531
   115  F   -0.309796
   116  F   -0.315705
   117  F   -0.302032
 Sum of Mulliken charges =  -0.00000
 Mulliken charges with hydrogens summed into heavy atoms:
               1
     1  C    0.353796
     2  C    0.270780
     3  C   -0.059155
     4  C    0.057336
     5  C    0.010801
     6  C    0.286951
     7  C    0.253362
     8  C   -0.067053
     9  C    0.042121
    10  C   -0.001070
    17  N   -0.514497
    18  N   -0.456017
    19  Ir  -0.140533
    20  O   -0.492306
    21  O   -0.498456
    22  O   -0.522324
    23  B    0.677048
    24  B    0.505773
    25  B    0.378566
    26  O   -0.531543
    27  O   -0.512425
    28  C    0.294354
    29  C    0.288732
    30  C    0.294154
    31  C    0.292911
    32  C    0.296565
    33  C    0.284557
    34  O   -0.498912
    35  C   -0.020236
    39  C   -0.012142
    43  C   -0.029274
    47  C   -0.019652
    51  C    0.000620
    55  C   -0.007228
    59  C   -0.004111
    63  C   -0.001787
    67  C   -0.013482
    71  C   -0.007238
    75  C   -0.013321
    79  C   -0.005716
    84  C    0.573836
    85  O   -0.548672
    86  C   -0.086749
    89  C   -0.010395
    92  N   -0.363860
    93  C    0.176997
    97  C    0.025280
   100  C   -0.005916
   103  C    0.009199
   106  C   -0.018671
   110  C    0.970684
   111  F   -0.307355
   112  F   -0.305485
   113  F   -0.310839
   114  C    0.969531
   115  F   -0.309796
   116  F   -0.315705
   117  F   -0.302032
 APT charges:
               1
     1  C    0.118793
     2  C    0.005684
     3  C   -0.182457
     4  C    0.095386
     5  C   -0.153856
     6  C    0.276880
     7  C    0.028909
     8  C   -0.218833
     9  C    0.123358
    10  C   -0.229161
    11  H    0.181923
    12  H    0.065627
    13  H    0.045540
    14  H    0.169900
    15  H    0.066570
    16  H    0.047872
    17  N   -0.048810
    18  N   -0.217669
    19  Ir  -0.909527
    20  O   -0.903750
    21  O   -1.014361
    22  O   -1.030322
    23  B    1.409922
    24  B    1.166729
    25  B    1.302136
    26  O   -1.021718
    27  O   -0.892294
    28  C    0.439125
    29  C    0.463839
    30  C    0.516312
    31  C    0.512025
    32  C    0.534886
    33  C    0.513659
    34  O   -1.019762
    35  C    0.000381
    36  H   -0.009441
    37  H   -0.016921
    38  H    0.001324
    39  C   -0.027979
    40  H    0.006066
    41  H   -0.026240
    42  H    0.011524
    43  C   -0.031001
    44  H    0.000033
    45  H   -0.013368
    46  H   -0.012436
    47  C   -0.000504
    48  H    0.007876
    49  H   -0.016582
    50  H   -0.000608
    51  C   -0.041278
    52  H    0.011852
    53  H    0.006791
    54  H   -0.020471
    55  C   -0.017272
    56  H   -0.012807
    57  H    0.003230
    58  H    0.010731
    59  C   -0.011398
    60  H    0.009562
    61  H   -0.013380
    62  H   -0.001238
    63  C   -0.043299
    64  H   -0.013134
    65  H    0.010098
    66  H    0.008604
    67  C   -0.012170
    68  H    0.007184
    69  H    0.005679
    70  H   -0.014094
    71  C   -0.050490
    72  H    0.000019
    73  H   -0.016886
    74  H    0.023188
    75  C   -0.011826
    76  H    0.004157
    77  H   -0.015736
    78  H    0.004863
    79  C   -0.033365
    80  H   -0.020968
    81  H    0.003318
    82  H    0.006181
    83  H    0.112019
    84  C    0.870862
    85  O   -0.701054
    86  C   -0.034638
    87  H   -0.016771
    88  H   -0.005711
    89  C    0.300280
    90  H   -0.071628
    91  H   -0.028925
    92  N   -0.778773
    93  C    0.272580
    94  H   -0.011101
    95  H   -0.032155
    96  H    0.022078
    97  C    0.111263
    98  H   -0.038567
    99  H   -0.027565
   100  C    0.119252
   101  H   -0.047333
   102  H   -0.064671
   103  C    0.099801
   104  H   -0.050463
   105  H   -0.041634
   106  C    0.072821
   107  H   -0.040794
   108  H   -0.018903
   109  H   -0.025868
   110  C    1.752542
   111  F   -0.516846
   112  F   -0.582821
   113  F   -0.578905
   114  C    1.838162
   115  F   -0.557077
   116  F   -0.603734
   117  F   -0.576050
 Sum of APT charges =  -0.00000
 APT charges with hydrogens summed into heavy atoms:
               1
     1  C    0.118793
     2  C    0.187607
     3  C   -0.182457
     4  C    0.161012
     5  C   -0.108315
     6  C    0.276880
     7  C    0.198809
     8  C   -0.218833
     9  C    0.189928
    10  C   -0.181289
    17  N   -0.048810
    18  N   -0.217669
    19  Ir  -0.909527
    20  O   -0.903750
    21  O   -1.014361
    22  O   -1.030322
    23  B    1.521941
    24  B    1.166729
    25  B    1.302136
    26  O   -1.021718
    27  O   -0.892294
    28  C    0.439125
    29  C    0.463839
    30  C    0.516312
    31  C    0.512025
    32  C    0.534886
    33  C    0.513659
    34  O   -1.019762
    35  C   -0.024657
    39  C   -0.036628
    43  C   -0.056772
    47  C   -0.009818
    51  C   -0.043106
    55  C   -0.016118
    59  C   -0.016454
    63  C   -0.037732
    67  C   -0.013401
    71  C   -0.044169
    75  C   -0.018542
    79  C   -0.044834
    84  C    0.870862
    85  O   -0.701054
    86  C   -0.057119
    89  C    0.199727
    92  N   -0.778773
    93  C    0.251402
    97  C    0.045131
   100  C    0.007249
   103  C    0.007704
   106  C   -0.012744
   110  C    1.752542
   111  F   -0.516846
   112  F   -0.582821
   113  F   -0.578905
   114  C    1.838162
   115  F   -0.557077
   116  F   -0.603734
   117  F   -0.576050
 Electronic spatial extent (au):  <R**2>=          38252.9645
 Charge=              0.0000 electrons
 Dipole moment (field-independent basis, Debye):
    X=              1.6164    Y=              0.6522    Z=             -2.2460  Tot=              2.8430
 Quadrupole moment (field-independent basis, Debye-Ang):
   XX=           -362.5773   YY=           -348.3871   ZZ=           -327.5080
   XY=             -8.9103   XZ=              2.3037   YZ=             11.1507
 Traceless Quadrupole moment (field-independent basis, Debye-Ang):
   XX=            -16.4198   YY=             -2.2297   ZZ=             18.6495
   XY=             -8.9103   XZ=              2.3037   YZ=             11.1507
 Octapole moment (field-independent basis, Debye-Ang**2):
  XXX=            100.3618  YYY=             70.8469  ZZZ=            -18.9257  XYY=             41.0063
  XXY=             13.7494  XXZ=             55.4886  XZZ=             60.1336  YZZ=            -70.4492
  YYZ=            -25.9059  XYZ=            -36.3788
 Hexadecapole moment (field-independent basis, Debye-Ang**3):
 XXXX=         -26371.0968 YYYY=         -12222.1292 ZZZZ=         -10522.4086 XXXY=           -171.9017
 XXXZ=            207.1966 YYYX=           -488.0728 YYYZ=            211.8643 ZZZX=            210.9891
 ZZZY=            234.3790 XXYY=          -6311.3753 XXZZ=          -5854.9235 YYZZ=          -3660.2203
 XXYZ=            -46.0199 YYXZ=            -35.2506 ZZXY=            -85.4286
 N-N= 1.046462850961D+04 E-N=-2.780799357692D+04  KE= 2.862668323371D+03
  Exact polarizability:     601.856     -13.660     480.398       5.724      36.986     497.230
 Approx polarizability:     822.962     -36.828     705.199      23.808      80.925     749.691
   1 Symmetry operations used in ECPInt.
 ECPInt:  NShTT=   62835 NPrTT=  387974 LenC2=   44819 LenP2D=  136630.
 LDataN:  DoStor=T MaxTD1= 8 Len=  415
 Calling FoFJK, ICntrl=    100127 FMM=F ISym2X=0 I1Cent= 0 IOpClX= 0 NMat=1 NMatS=1 NMatT=0.
 Defaulting to unpruned grid for atomic number  77.
 Defaulting to unpruned grid for atomic number  77.
 Defaulting to unpruned grid for atomic number  77.
 Defaulting to unpruned grid for atomic number  77.
 Defaulting to unpruned grid for atomic number  77.
 Defaulting to unpruned grid for atomic number  77.
 Defaulting to unpruned grid for atomic number  77.
 Defaulting to unpruned grid for atomic number  77.
 Defaulting to unpruned grid for atomic number  77.
 Defaulting to unpruned grid for atomic number  77.
 Defaulting to unpruned grid for atomic number  77.
 Defaulting to unpruned grid for atomic number  77.
 Defaulting to unpruned grid for atomic number  77.
 Defaulting to unpruned grid for atomic number  77.
 Defaulting to unpruned grid for atomic number  77.
 Defaulting to unpruned grid for atomic number  77.
 Full mass-weighted force constant matrix:
 Low frequencies --- -380.6358  -12.3684   -5.5352   -0.0008   -0.0004    0.0007
 Low frequencies ---    1.4188   17.9669   18.1395
 ******    1 imaginary frequencies (negative Signs) ****** 
 Diagonal vibrational polarizability:
      105.5316576     108.2556262      89.8207331
 Harmonic frequencies (cm**-1), IR intensities (KM/Mole), Raman scattering
 activities (A**4/AMU), depolarization ratios for plane and unpolarized
 incident light, reduced masses (AMU), force constants (mDyne/A),
 and normal coordinates:
                      1                      2                      3
                      A                      A                      A
 Frequencies --   -380.6343                17.1773                18.1279
 Red. masses --      1.2658                 6.3671                 5.3622
 Frc consts  --      0.1080                 0.0011                 0.0010
 IR Inten    --     17.4876                 0.0533                 0.2287
  Atom AN      X      Y      Z        X      Y      Z        X      Y      Z
     1   6     0.01  -0.00   0.02     0.01  -0.01  -0.01     0.02  -0.03  -0.02
     2   6     0.01  -0.00   0.02    -0.00  -0.02  -0.02     0.01  -0.03  -0.03
     3   6     0.01   0.00   0.01    -0.00  -0.05  -0.00     0.02  -0.03  -0.04
     4   6     0.01   0.00   0.01     0.00  -0.06   0.01     0.03  -0.03  -0.03
     5   6     0.01   0.01   0.01     0.01  -0.04   0.01     0.03  -0.03  -0.02
     6   6     0.01  -0.01   0.00     0.02   0.00  -0.01     0.03  -0.02  -0.01
     7   6     0.01  -0.02  -0.00     0.02   0.01  -0.02     0.02   0.01  -0.00
     8   6     0.01  -0.01  -0.01     0.02   0.02  -0.02     0.04   0.02  -0.00
     9   6     0.00  -0.00  -0.01     0.02   0.02  -0.02     0.05   0.02  -0.01
    10   6     0.00  -0.00  -0.01     0.02   0.02  -0.02     0.04  -0.00  -0.01
    11   1     0.00  -0.00   0.02    -0.00  -0.01  -0.03     0.01  -0.04  -0.03
    12   1     0.01   0.00   0.01    -0.00  -0.08   0.02     0.04  -0.03  -0.04
    13   1     0.02   0.01   0.01     0.01  -0.05   0.02     0.04  -0.03  -0.02
    14   1     0.01  -0.02  -0.00     0.02   0.01  -0.02     0.01   0.01   0.00
    15   1     0.00  -0.00  -0.01     0.03   0.03  -0.03     0.06   0.03  -0.01
    16   1     0.00   0.00  -0.01     0.02   0.03  -0.03     0.05  -0.01  -0.01
    17   7     0.01  -0.01   0.04     0.01  -0.01  -0.02     0.01  -0.03  -0.01
    18   7     0.02  -0.03   0.00     0.02   0.01  -0.01     0.02  -0.01  -0.00
    19  77    -0.00   0.01  -0.01     0.01   0.01  -0.01     0.00  -0.03  -0.01
    20   8    -0.01  -0.01  -0.00     0.01   0.03   0.03    -0.01  -0.01  -0.00
    21   8    -0.01  -0.02   0.02     0.00   0.01  -0.01    -0.00  -0.04  -0.01
    22   8    -0.01  -0.02   0.01    -0.02   0.01  -0.03    -0.03  -0.04   0.02
    23   5    -0.01  -0.04   0.04    -0.00  -0.00  -0.01     0.00  -0.02  -0.01
    24   5    -0.01  -0.02  -0.03     0.02   0.01   0.00    -0.01  -0.02   0.00
    25   5    -0.04  -0.03   0.04    -0.00   0.00  -0.02    -0.02  -0.05   0.01
    26   8    -0.02   0.00   0.00    -0.00  -0.01  -0.04    -0.02  -0.05   0.02
    27   8    -0.01   0.00  -0.02     0.04   0.01  -0.00    -0.02  -0.01   0.01
    28   6     0.00   0.00  -0.01     0.05   0.04   0.02    -0.02   0.01   0.01
    29   6    -0.00  -0.00   0.00     0.02   0.05   0.05    -0.02   0.01   0.00
    30   6    -0.00  -0.01   0.00    -0.03   0.00  -0.04    -0.04  -0.05   0.03
    31   6    -0.00   0.00   0.00    -0.02  -0.01  -0.05    -0.03  -0.05   0.03
    32   6     0.00  -0.01   0.01    -0.01  -0.05  -0.01     0.00   0.00   0.00
    33   6    -0.00  -0.01   0.00    -0.03  -0.06  -0.02     0.03   0.03   0.01
    34   8    -0.01  -0.00   0.01    -0.01  -0.03  -0.01     0.01   0.01   0.00
    35   6    -0.00  -0.00   0.00     0.03   0.07   0.08    -0.02   0.02  -0.01
    36   1    -0.00  -0.00   0.00     0.05   0.08   0.08    -0.01   0.02  -0.02
    37   1    -0.00  -0.00   0.00     0.04   0.08   0.09    -0.03   0.03  -0.00
    38   1    -0.00  -0.00   0.00     0.00   0.08   0.10    -0.02   0.02  -0.01
    39   6    -0.00  -0.00   0.00    -0.02   0.04   0.05    -0.03  -0.00   0.02
    40   1    -0.00  -0.00   0.00    -0.04   0.04   0.07    -0.03  -0.01   0.02
    41   1     0.00  -0.00   0.00    -0.01   0.05   0.07    -0.04   0.01   0.03
    42   1    -0.00  -0.00  -0.00    -0.03   0.02   0.03    -0.03  -0.01   0.03
    43   6     0.00   0.00  -0.00     0.09   0.05   0.03    -0.02   0.02  -0.01
    44   1     0.00   0.00  -0.00     0.11   0.05   0.00    -0.02   0.02  -0.01
    45   1     0.00  -0.00  -0.00     0.10   0.06   0.06    -0.02   0.03  -0.01
    46   1    -0.00  -0.00  -0.00     0.07   0.05   0.03    -0.01   0.02  -0.02
    47   6     0.00   0.00  -0.00     0.05   0.04   0.02    -0.04   0.01   0.02
    48   1     0.00   0.00  -0.00     0.03   0.03   0.02    -0.04   0.01   0.03
    49   1     0.00   0.00  -0.00     0.06   0.05   0.04    -0.04   0.03   0.02
    50   1     0.00   0.00  -0.00     0.07   0.03   0.01    -0.04   0.02   0.02
    51   6    -0.00  -0.00   0.00     0.04  -0.07  -0.00    -0.04   0.02   0.00
    52   1    -0.01  -0.00  -0.00     0.07  -0.07   0.01    -0.06   0.02   0.01
    53   1    -0.00  -0.00   0.00     0.06  -0.05   0.01    -0.06  -0.00  -0.00
    54   1     0.00   0.00  -0.00     0.03  -0.12  -0.00    -0.04   0.05   0.01
    55   6     0.01  -0.01   0.01    -0.04  -0.05  -0.03     0.02  -0.01  -0.00
    56   1     0.01  -0.01   0.01    -0.06  -0.09  -0.03     0.03   0.02   0.00
    57   1     0.01  -0.01   0.01    -0.02  -0.04  -0.02     0.00  -0.03  -0.01
    58   1     0.01  -0.01   0.01    -0.08  -0.02  -0.04     0.05  -0.03  -0.01
    59   6    -0.00   0.00  -0.00    -0.03  -0.12  -0.03     0.02   0.07   0.02
    60   1    -0.00   0.00  -0.00     0.02  -0.13  -0.02    -0.01   0.08   0.02
    61   1     0.00   0.00  -0.00    -0.04  -0.14  -0.03     0.03   0.08   0.02
    62   1    -0.00   0.00  -0.00    -0.05  -0.13  -0.03     0.04   0.09   0.02
    63   6     0.00  -0.00   0.00    -0.09  -0.05  -0.04     0.07   0.02   0.00
    64   1     0.00  -0.00   0.00    -0.11  -0.07  -0.05     0.08   0.03   0.01
    65   1     0.00  -0.01   0.00    -0.09  -0.01  -0.04     0.07  -0.01  -0.00
    66   1    -0.00  -0.00  -0.00    -0.10  -0.05  -0.04     0.08   0.03   0.01
    67   6    -0.00   0.01  -0.00    -0.03  -0.03  -0.06    -0.04  -0.07   0.03
    68   1    -0.00   0.01   0.00    -0.02  -0.05  -0.06    -0.03  -0.06   0.03
    69   1    -0.00   0.01  -0.00    -0.03  -0.02  -0.06    -0.03  -0.08   0.03
    70   1    -0.00   0.01  -0.00    -0.05  -0.03  -0.07    -0.04  -0.07   0.05
    71   6    -0.00   0.00   0.00    -0.02  -0.02  -0.05    -0.04  -0.04   0.03
    72   1    -0.00   0.00   0.00    -0.01  -0.04  -0.05    -0.03  -0.04   0.02
    73   1     0.00   0.00  -0.00    -0.03  -0.03  -0.06    -0.04  -0.04   0.04
    74   1    -0.00  -0.01   0.00    -0.01  -0.02  -0.04    -0.03  -0.03   0.03
    75   6     0.00  -0.01  -0.00    -0.05   0.01  -0.05    -0.05  -0.05   0.04
    76   1     0.00  -0.01  -0.00    -0.05   0.01  -0.05    -0.05  -0.04   0.04
    77   1     0.00  -0.01  -0.00    -0.06   0.00  -0.05    -0.05  -0.05   0.05
    78   1     0.00  -0.01  -0.00    -0.05   0.02  -0.05    -0.05  -0.05   0.04
    79   6    -0.00   0.00   0.00    -0.05   0.01  -0.04    -0.03  -0.07   0.03
    80   1     0.00   0.01  -0.00    -0.06   0.00  -0.06    -0.04  -0.08   0.04
    81   1    -0.01   0.00   0.00    -0.03   0.01  -0.04    -0.03  -0.07   0.02
    82   1    -0.00  -0.00   0.00    -0.05   0.03  -0.04    -0.03  -0.07   0.03
    83   1     0.92   0.12  -0.35    -0.01   0.01  -0.01    -0.02  -0.04  -0.00
    84   6    -0.00  -0.00   0.00    -0.02   0.04   0.02    -0.03   0.02   0.02
    85   8    -0.00  -0.00   0.00    -0.03   0.01   0.04    -0.06   0.01   0.01
    86   6    -0.00  -0.00   0.00    -0.01   0.07   0.02    -0.02   0.06   0.03
    87   1    -0.00  -0.00   0.00    -0.01   0.13   0.04    -0.02   0.08   0.04
[...]
 .00006666,-0.00002369,0.00008646,0.00004848,0.00001325,-0.00005486,-0.
 00008653,0.00001275,-0.00006660,0.00002726,0.00001143,0.00003422,0.000
 00525,0.00002305,-0.00001186,0.00001076,0.00000410,0.00001705,0.000005
 04,-0.00000753,-0.00002137,0.00001318,0.00000612,-0.00000210,-0.000008
 25,-0.00002449,0.00011874,-0.00000394,0.00004907,-0.00001708,0.0000066
 8,-0.00003314,-0.00006452,0.00001553,0.00000965,-0.00002517,-0.0000445
 0,0.00000667,0.00000570,0.00000841,-0.00000167,0.00000264,-0.00000093,
 -0.00001577,-0.00001272,0.00000106,0.00002194,0.00000125,0.00000794,0.
 00005755,-0.00002262,-0.00004425,-0.00001543,0.00002881,0.00000767,0.0
 0002534,-0.00002492,-0.00002894,-0.00000489,0.00000920,0.00002437,0.00
 003664,-0.00003198,-0.00002471,-0.00000629,0.00000151,0.00002550,0.000
 01869,-0.00002088,-0.00003628,-0.00002582,-0.00000216,0.00002337,-0.00
 026554,0.00020406,0.00035783,0.00003370,-0.00004638,-0.00005914,0.0000
 5390,-0.00001641,-0.00010905,0.00025039,-0.00015989,-0.00026591,-0.000
 15102,0.00015883,0.00042919,0.00001364,-0.00002911,-0.00009250,0.00007
 686,-0.00003612,-0.00010055,-0.00014538,-0.00022039,-0.00003853,0.0000
 0531,-0.00000997,0.00000560,0.00000266,0.00000757,0.00000264,-0.000004
 33,0.00000343,0.00000052,0.00000373,-0.00001229,-0.00000314,0.00000333
 ,-0.00001272,0.00000783,0.00000041,0.00000889,-0.00000111,0.00000130,-
 0.00001662,0.00000301,-0.00000067,0.00000826,-0.00000730,0.00000365,-0
 .00001027,-0.00000462,-0.00000438,0.00000514,0.00000183,0.00000886,-0.
 00001082,-0.00000162,-0.00000502,0.00000474,0.00000092,0.00000874,-0.0
 0000712,-0.00000645,0.00001115,-0.00001182,-0.00000469,-0.00001090,-0.
 00000101,0.00000577,-0.00000148,0.00001023,0.00000373,0.00000115,0.000
 02846,-0.00000778,-0.00013411,-0.00012583,-0.00012640,0.00005910,0.000
 10613,0.00006024,0.00002065,-0.00000543,0.00000398,0.00000458,0.000001
 22,-0.00000515,0.00000277,0.00000389,0.00000587,-0.00009776,-0.0000028
 8,0.00002714,-0.00001417,-0.00001420,0.00001869,-0.00000648,-0.0000284
 2,-0.00002909,0.00017202,0.00005156,0.00004525,-0.00000884,0.00001327,
 0.00002015,-0.00000352,-0.00000381,0.00000205,0.00001762,0.00000562,-0
 .00000862,-0.00000789,0.00000137,0.00001356,-0.00000556,-0.00001711,-0
 .00000276,-0.00000203,-0.00000183,-0.00000843,0.00000204,0.00000852,-0
 .00000385,-0.00001055,0.00000304,-0.00000266,-0.00000311,0.00000298,-0
 .00000180,0.00001420,0.00000381,0.00000748,0.00000161,-0.00001239,0.00
 000384,-0.00000076,0.00000312,-0.00000228,-0.00000032,0.00000413,0.000
 00745,-0.00000312,0.00000323,-0.00000571,0.00000629,0.00000019,-0.0000
 0627,-0.00000112,-0.00000131,0.00000112,0.00000372,0.00000169,0.000006
 52,-0.00029322,0.00012306,-0.00008569,0.00006152,-0.00003567,-0.000003
 36,0.00007450,-0.00008514,0.00005545,0.00011183,0.00001446,0.00004426,
 0.05345528,-0.09131559,-0.14297503,0.00780227,-0.03999548,-0.07000348,
 -0.06412105,0.15411685,0.19753683,-0.00010863,-0.00023468,0.00060616,-
 0.00016904,-0.00014523,-0.00017058,-0.00047377,0.00026699,0.00026056,0
 .00039948,-0.00004716,0.00006677,-0.00056435,0.00027932,-0.00005224,0.
 00068089,-0.00082900,-0.00019179,-0.00024378,-0.00214971,-0.00173341,-
 0.03132721,-0.03904468,0.01163005,0.00052888,0.00135703,0.00507579,-0.
 00185943,0.00284312,-0.00065517,-0.00004074,-0.00013141,-0.00007735,-0
 .00003939,-0.00000555,-0.00002099,0.00009171,0.00001822,0.00005556,-0.
 00036876,-0.00069854,0.00000591,-0.00012698,-0.00100361,0.00031101,-0.
 00036135,0.00025857,-0.00016703,-0.00055695,0.00003960,-0.00065321,-0.
 00039480,0.00146905,-0.00152956,0.00080168,-0.00000657,0.00039706,0.00
 132016,0.00080128,-0.00057077,0.00044342,-0.00012024,0.00059672,0.0000
 6134,0.00075756,0.00012311,-0.00061397,-0.00007808,-0.00085423,-0.0015
 3276,-0.00127185,0.00056751,0.00003774,-0.00098584,-0.00018396,-0.0001
 7855,0.00066412,0.00006008,0.00088619,0.00065755,-0.00075727,-0.000557
 10,-0.00017286,0.00022508,-0.00076926,-0.00072832,0.00051666,0.0001149
 4,-0.00019841,-0.00004787,0.00003168,-0.00033932,0.00002754,-0.0003057
 3,0.00003778,-0.00012368,-0.00041128,0.00015347,-0.00040907,0.00065152
 ,0.00008257,0.00083213,-0.00002329,0.00142329,0.00030665,-0.00104392,0
 .00087860,-0.00024951,0.00009296,-0.00014882,-0.00006936,0.00005837,-0
 .00010325,0.00004542,0.00030340,0.00009581,-0.00011614,-0.00003569,0.0
 0001343,0.00004940,-0.00001703,0.00009312,-0.00001760,0.00007840,-0.00
 013570,-0.00002450,0.00012782,0.00012994,-0.00017703,0.00013583,-0.000
 12178,0.00015553,0.00005256,0.00018582,-0.00021244,-0.00225942,0.00159
 062,-0.00005400,0.00005889,-0.00000078,-0.00004114,-0.00000890,-0.0000
 2997,-0.00000269,0.00002982,0.00006435,-0.00006823,0.00000262,0.000004
 63,0.00003942,0.00002847,-0.00000674,0.00003193,-0.00003205,0.00000257
 ,-0.00001521,0.00000384,0.00000607,-0.00001276,0.00004059,0.00000393,0
 .00004839,0.00001526,-0.00000028,0.00002182,0.00002507,-0.00001957,0.0
 0002844,-0.00001259,0.00000056,0.00000181,0.00000092,0.00002904,-0.000
 01446,-0.00001119,0.00006896,0.00010878,-0.00000286,0.00006482,0.00005
 464,0.00005730,-0.00000173,-0.00001136,-0.00002933,-0.00012960,-0.0000
 5090,0.00008795,-0.00005295,0.00008199,0.00001184,-0.00001153,0.000086
 69,0.00007593,0.00003775,-0.00007338,-0.00016763,0.00003597,-0.0000237
 0,-0.00001441,0.00003726,-0.00002023,0.00001154,-0.00001872,0.00000811
 ,0.00000615,-0.00001487,-0.00000891,-0.00001376,0.00003511,0.00000649,
 -0.00003042,0.00004076,-0.00001858,0.00002889,-0.00001636,0.00001240,-
 0.00000831,0.00004580,-0.00000956,-0.00001036,-0.00003096,0.00000867,-
 0.00000591,0.00000815,0.00003794,-0.00002040,0.00000278,-0.00002632,0.
 00000015,0.00002242,-0.00001109,0.00001839,0.00000963,0.00002332,-0.00
 003221,0.00002380,0.00000901,-0.00001971,0.00001671,0.00001644,0.00001
 460,0.00000788,-0.00003026,0.00001642,-0.00000328,0.00000593,-0.000130
 69,0.00005512,0.00010426,0.00034351,0.00003587,0.00006202,-0.00022978,
 -0.00010438,0.00015671,-0.00004729,0.00003724,-0.00001766,-0.00000737,
 -0.00000870,0.00002802,-0.00000672,0.00000100,-0.00003081,0.00069443,0
 .00040097,-0.00052154,-0.00008478,-0.00017010,0.00010174,0.00000421,0.
 00001154,0.00006452,-0.00058359,-0.00005218,0.00008042,0.00003241,-0.0
 0010781,-0.00020022,-0.00000916,0.00003998,0.00001156,-0.00005149,0.00
 000237,0.00002886,0.00002310,-0.00000708,0.00000454,0.00001958,0.00002
 569,-0.00002882,0.00000086,-0.00000411,0.00004899,-0.00000483,-0.00001
 259,0.00000952,0.00002925,-0.00000959,0.00001042,0.00000647,-0.0000048
 3,0.00000220,-0.00002456,-0.00000650,-0.00001122,-0.00000956,0.0000258
 7,-0.00002305,0.00000027,-0.00000670,0.00000392,0.00000454,-0.00000450
 ,-0.00000790,0.00000729,-0.00001186,0.00001754,-0.00002192,-0.00000328
 ,0.00001963,0.00000255,0.00000634,-0.00000670,-0.00000512,-0.00000127,
 -0.00001272,0.00106560,-0.00058183,0.00009598,-0.00024469,0.00019509,0
 .00012839,-0.00028392,0.00037474,-0.00018025,-0.00032504,0.00000913,-0
 .00009500,-0.14477672,-0.09468887,0.03727288,0.01818257,0.00206635,0.0
 0337878,0.01834380,-0.00029359,-0.00490606,0.14545639,-0.00018445,-0.0
 0011572,0.00030148,-0.00007272,-0.00006311,-0.00004769,-0.00017656,0.0
 0009147,0.00008062,0.00012174,0.00001947,0.00003504,-0.00016374,0.0000
 9334,-0.00003483,0.00063742,-0.00019164,0.00075963,0.00003890,-0.00215
 809,-0.00136012,-0.01603240,-0.00662471,0.00659759,-0.00037307,0.00050
 272,0.00101897,-0.00036293,0.00089337,-0.00034534,-0.00002889,-0.00007
 475,-0.00003392,-0.00001661,-0.00000831,-0.00000451,0.00004175,-0.0000
 0484,0.00004674,-0.00046068,-0.00070910,0.00049903,0.00039531,-0.00049
 095,0.00054569,-0.00018550,0.00004133,-0.00005555,-0.00028034,0.000024
 73,-0.00028489,-0.00181447,0.00149372,-0.00061512,0.00052869,0.0001359
 9,-0.00024381,0.00140576,0.00035408,-0.00065805,0.00003182,0.00010079,
 0.00002115,0.00013903,0.00038066,-0.00003095,-0.00000803,-0.00028480,0
 .00001138,-0.00156852,-0.00107139,0.00085096,-0.00013576,-0.00056366,0
 .00004793,-0.00002051,0.00034479,-0.00000343,0.00093429,0.00042497,-0.
 00078154,-0.00059471,0.00017735,0.00040501,-0.00070986,0.00005593,0.00
 046533,0.00000381,-0.00005944,0.00001266,0.00000309,-0.00017355,0.0000
 4093,0.00003457,-0.00001465,-0.00007209,-0.00009217,-0.00039163,0.0001
 3834,0.00006144,0.00046416,0.00003105,0.00042296,-0.00035731,-0.000070
 77,0.00196373,-0.00602119,0.00007730,0.00005427,0.00004526,0.00006534,
 -0.00000344,0.00015932,0.00001129,0.00020055,0.00003771,-0.00013114,-0
 .00003851,-0.00000255,0.00001466,-0.00000969,0.00003846,0.00000057,0.0
 0007035,-0.00010526,-0.00000107,0.00003802,-0.00008685,-0.00023616,0.0
 0023034,-0.00009858,0.00012450,-0.00005566,0.00029020,-0.00032437,0.00
 102744,-0.00235013,0.00037118,0.00010027,-0.00006665,-0.00011202,0.000
 02059,-0.00008950,0.00000505,0.00000927,0.00006359,-0.00005436,0.00000
 291,0.00002039,0.00003651,-0.00005080,0.00000725,0.00005902,-0.0000033
 8,0.00001158,-0.00001043,0.00000248,0.00002379,0.00000955,0.00000851,-
 0.00000367,0.00000534,-0.00000830,0.00000998,0.00000932,-0.00000259,-0
 .00001152,-0.00001237,-0.00000777,0.00001961,0.00001517,0.00003907,0.0
 0002263,-0.00001791,0.00007666,0.00001382,-0.00015148,-0.00001275,0.00
 012106,0.00014546,0.00001940,0.00001679,-0.00004113,-0.00011275,-0.000
 16738,0.00011994,0.00020409,-0.00004525,-0.00032969,-0.00001093,0.0000
 3701,0.00004192,-0.00000094,0.00004126,0.00003884,0.00003951,0.0000271
 5,0.00003174,-0.00000457,0.00002716,-0.00001730,0.00000679,-0.00000739
 ,0.00000894,0.00000719,-0.00000571,-0.00001521,-0.00000875,0.00001411,
 0.00000417,-0.00003609,0.00002261,-0.00001469,0.00001429,-0.00000209,0
 .00000626,-0.00000332,0.00001837,-0.00000893,-0.00000465,-0.00000355,0
 .00000862,0.00000018,-0.00000537,0.00003579,-0.00002247,0.00001659,-0.
 00003086,0.00001412,0.00000705,-0.00001287,0.00000299,0.00001082,0.000
 02088,-0.00001169,0.00000982,-0.00000320,-0.00000339,0.00000220,0.0000
 0239,0.00001256,0.00001100,-0.00001426,0.00000199,-0.00000419,0.000006
 34,-0.00010544,-0.00001508,0.00010215,0.00012061,-0.00008478,-0.000056
 86,-0.00011832,0.00006222,0.00009778,-0.00002143,0.00000619,0.00000033
 ,0.00000069,-0.00000357,0.00000662,-0.00000424,0.00000548,-0.00000784,
 0.00022848,0.00020973,-0.00019283,-0.00001268,-0.00003905,-0.00000836,
 0.00003089,0.00004856,0.00002837,-0.00017913,0.00006578,0.00005304,0.0
 0001443,-0.00006444,-0.00007150,-0.00001483,0.00002028,0.00000671,-0.0
 0001539,0.00000696,0.00001033,0.00000663,-0.00000835,0.00000581,0.0000
 0654,-0.00000011,-0.00000661,0.00000125,-0.00000504,0.00001434,0.00000
 153,0.00000352,0.00000073,0.00001077,-0.00000791,0.00000373,-0.0000006
 7,0.00000610,0.00000100,-0.00000739,-0.00000309,-0.00000305,-0.0000036
 4,0.00000383,-0.00000705,0.00000006,0.00000346,0.00000009,0.00000187,-
 0.00000224,-0.00000202,0.00000281,-0.00000526,0.00000569,-0.00000663,-
 0.00000168,0.00000554,-0.00000033,0.00000552,-0.00000265,-0.00000150,-
 0.00000095,-0.00000320,0.00032554,-0.00029853,0.00007144,-0.00007690,0
 .00008373,0.00003337,-0.00009204,0.00018071,-0.00009209,-0.00008481,0.
 00003459,-0.00002920,-0.09205231,-0.21092403,0.05149699,-0.00579222,-0
 .02387000,0.04450973,-0.01460067,-0.08107792,-0.00995400,0.12716465,0.
 33135437,0.00005342,-0.00003983,-0.00000652,0.00002480,0.00000661,0.00
 002588,0.00005248,-0.00004102,-0.00003092,-0.00004177,0.00001527,-0.00
 001109,0.00007789,-0.00003669,0.00001386,-0.00003911,0.00067741,0.0006
 8326,-0.00050058,-0.00109770,-0.00025900,0.00553632,0.00739435,0.01089
 709,0.00133361,-0.00003324,-0.00223717,0.00121043,-0.00022783,0.000481
 79,0.00000474,0.00001971,0.00000237,0.00000838,0.00000475,-0.00000053,
 -0.00002026,-0.00000284,-0.00001234,-0.00053425,0.00010535,0.00015356,
 0.00016450,0.00020289,0.00004701,0.00016880,-0.00015017,0.00006618,0.0
 0004736,0.00005336,0.00009465,-0.00073536,0.00045767,-0.00017290,0.000
 10019,-0.00028008,0.00010200,-0.00034418,-0.00026569,0.00035826,0.0002
 4423,-0.00012994,0.00001601,-0.00001326,-0.00017903,0.00001814,-0.0006
 1283,0.00026369,-0.00023091,0.00034124,0.00040324,-0.00052857,-0.00003
 469,0.00029195,-0.00002259,0.00006295,-0.00016365,0.00001716,-0.000329
 79,-0.00017598,0.00051378,0.00026496,-0.00008571,-0.00027819,0.0002507
 0,0.00024617,-0.00027601,-0.00002128,0.00004323,-0.00000760,-0.0000069
 3,0.00008558,-0.00002759,-0.00013377,0.00004562,0.00009992,-0.00011020
 ,0.00024738,-0.00012289,0.00051564,-0.00032653,0.00009147,-0.00005091,
 -0.00048160,-0.00003501,0.00006045,0.00007174,-0.00011093,-0.00001636,
 -0.00001343,0.00002878,-0.00000080,0.00009914,0.00002592,-0.00009709,-
 0.00003769,0.00006312,0.00002209,0.00001498,0.00000181,0.00000326,-0.0
 0003452,0.00000475,-0.00002743,0.00004667,0.00000201,-0.00001351,0.000
 05587,0.00017647,-0.00004815,0.00003565,-0.00003733,0.00001067,-0.0001
 7278,0.00013007,-0.00035236,0.00054770,-0.00044471,-0.00003746,0.00004
 595,0.00006931,-0.00001386,0.00004603,-0.00000341,-0.00000956,-0.00003
 261,0.00001945,0.00001422,-0.00001356,-0.00000561,0.00005862,-0.000020
 01,-0.00004291,-0.00001476,0.00001481,0.00000813,0.00001540,-0.0000219
 4,-0.00002461,0.00000054,0.00000751,0.00002019,0.00002742,-0.00002261,
 -0.00001435,0.00000156,0.00000212,0.00002485,0.00001243,-0.00001920,-0
 .00002719,-0.00003003,-0.00000535,0.00001816,-0.00015468,0.00010791,0.
 00022989,0.00002062,-0.00005128,-0.00005704,0.00003808,-0.00000910,-0.
 00005267,0.00015050,-0.00001868,-0.00006327,-0.00013887,0.00007995,0.0
 0036697,0.00001058,-0.00002911,-0.00004196,0.00005774,-0.00002602,-0.0
 0008012,-0.00014623,-0.00008588,0.00000211,0.00000282,-0.00001189,0.00
 000846,0.00000027,0.00000480,-0.00000181,-0.00000508,0.00000222,0.0000
 0686,0.00000393,-0.00000740,-0.00000263,0.00001469,-0.00000992,0.00000
 952,-0.00000234,0.00000377,-0.00000119,0.00000146,-0.00001011,0.000003
 94,0.00000005,0.00000205,-0.00000696,-0.00000049,-0.00000080,-0.000015
 53,0.00000628,-0.00000572,0.00001321,-0.00000260,-0.00000541,0.0000042
 6,-0.00000066,-0.00000093,-0.00000616,0.00000514,-0.00000644,-0.000000
 20,0.00000457,-0.00000434,-0.00000124,-0.00001003,-0.00000447,0.000004
 92,0.00000136,0.00000759,0.00000021,-0.00001352,0.00005469,-0.00001806
 ,-0.00007905,-0.00002672,-0.00004406,0.00004991,0.00000849,0.00001810,
 0.00001403,0.00000091,-0.00000114,0.00000107,0.00000056,-0.00000101,0.
 00000230,-0.00000133,0.00000160,-0.00011866,-0.00004823,0.00005542,-0.
 00001127,-0.00000561,0.00003089,-0.00001364,-0.00001471,-0.00002290,0.
 00010342,-0.00001320,0.00002540,-0.00000815,0.00002322,0.00001356,0.00
 000546,-0.00000721,0.00000006,0.00000795,-0.00000128,-0.00000539,-0.00
 000391,0.00000363,0.00000451,-0.00000261,-0.00000461,-0.00000435,-0.00
 000160,0.00000144,-0.00000252,-0.00000080,0.00000008,-0.00000020,-0.00
 000604,0.00000446,-0.00000094,0.00000005,-0.00000285,-0.00000127,0.000
 00715,0.00000254,0.00000356,0.00000096,-0.00000405,0.00000140,-0.00000
 041,-0.00000147,-0.00000044,-0.00000037,0.00000261,0.00000370,-0.00000
 183,0.00000242,-0.00000276,0.00000287,0.00000039,-0.00000273,0.0000000
 5,-0.00000253,0.00000075,0.00000186,0.00000119,0.00000286,-0.00012152,
 0.00010956,-0.00006767,0.00002580,-0.00002529,0.00000673,0.00003266,-0
 .00006957,0.00004493,0.00004019,-0.00000988,0.00002031,0.03527473,0.04
 998389,-0.09365735,0.01533749,0.05687816,-0.04554021,-0.00830214,-0.02
 118156,0.01495215,-0.04857834,-0.09302012,0.11456301\\-0.00000324,-0.0
 0000243,-0.00000588,-0.00000354,-0.00000387,-0.00000473,-0.00000027,0.
 00000337,0.00000040,-0.00000002,-0.00000202,-0.00000054,-0.00000006,0.
 00000609,0.00000503,-0.00000372,-0.00000212,-0.00000218,-0.00000616,0.
 00000048,0.00000305,0.00000342,0.00000215,0.00000161,-0.00000288,-0.00
 000235,-0.00000350,0.00000161,0.00000180,-0.00000024,0.00000023,0.0000
 0116,0.00000147,0.00000261,0.00000152,0.00000104,0.00000195,-0.0000035
 0,-0.00000302,0.00000144,-0.00000018,0.00000035,0.00000084,0.00000025,
 0.00000044,0.00000075,-0.00000006,0.00000027,0.00000445,0.00000227,0.0
 0000268,0.00000804,0.00000252,0.00000196,0.00000065,-0.00000039,0.0000
 0252,-0.00000233,-0.00000054,0.00000152,0.00000165,-0.00000050,-0.0000
 0173,-0.00000145,-0.00000336,0.00000058,0.00000093,-0.00000080,0.00000
 304,0.00000383,-0.00000123,0.00000379,0.00000146,0.00000170,-0.0000001
 6,-0.00000043,0.00000165,0.00000033,-0.00000209,0.00000154,-0.00000420
 ,0.00000514,0.00000384,0.00000055,-0.00000264,-0.00000067,0.00000230,0
 .00000052,-0.00000153,-0.00000141,0.00000008,0.00000173,-0.00000551,0.
 00000398,-0.00000083,-0.00000232,-0.00000619,0.00000094,0.00000706,-0.
 00000295,0.00000163,-0.00000256,0.00000205,0.00000247,-0.00000473,0.00
 000003,-0.00000007,0.00000047,-0.00000053,-0.00000185,0.00000304,0.000
 00011,0.00000037,0.00000159,-0.00000570,-0.00000013,-0.00000320,0.0000
 0117,0.00000064,0.00000259,0.00000007,-0.00000023,0.00000106,0.0000036
 2,-0.00000038,0.00000006,-0.00000548,0.00000199,0.00000349,0.00000093,
 -0.00000023,-0.00000043,0.00000256,0.00000093,-0.00000207,0.00000088,-
 0.00000046,0.00000128,0.00000264,-0.00000099,0.00000527,-0.00000028,0.
 00000032,0.00000031,0.00000105,0.00000072,-0.00000038,-0.00000345,-0.0
 0000080,-0.00000353,-0.00000317,-0.00000265,0.00000227,0.00000014,0.00
 000149,-0.00000104,0.00000123,0.00000025,0.00000002,-0.00000179,0.0000
 0034,-0.00000023,-0.00000609,-0.00000183,-0.00000439,0.00000273,-0.000
 00114,0.00000096,-0.00000166,0.00000067,0.00000230,0.00000195,0.000002
 15,0.00000178,0.00000202,-0.00001003,0.00000342,0.00000134,0.00000616,
 0.00000050,-0.00000192,0.00000275,-0.00000392,-0.00000006,0.00000106,0
 .00000178,-0.00000317,0.00000337,-0.00000790,0.00000202,-0.00000328,0.
 00000407,0.00000240,0.00000092,0.00000108,0.00000001,-0.00000031,0.000
 00192,-0.00000127,0.00000285,0.00000248,-0.00000047,-0.00000043,-0.000
 00090,-0.00000022,-0.00000005,-0.00000037,0.00000026,-0.00000335,-0.00
 000053,-0.00000245,-0.00000339,0.00000553,0.00000008,0.00000089,0.0000
 0021,-0.00000069,0.00000117,-0.00000005,0.00000268,-0.00000064,-0.0000
 0089,-0.00000894,0.00000292,-0.00000458,-0.00000104,-0.00000005,0.0000
 0279,0.00000354,-0.00000308,-0.00000052,0.00000429,0.00000115,0.000004
 10,0.00000242,0.00000071,0.00000387,-0.00000102,-0.00000076,-0.0000001
 4,-0.00000058,0.00000030,-0.00000031,-0.00000204,-0.00000070,-0.000001
 13,-0.00000070,-0.00000050,-0.00000066,0.00000787,0.00000196,0.0000010
 9,-0.00000133,0.00000017,-0.00000108,-0.00000109,-0.00000498,0.0000048
 6,0.00000097,0.00000092,-0.00000566,0.00000087,0.00000344,-0.00000113,
 -0.00000138,-0.00000298,0.00000314,0.,0.00000060,-0.00000235,-0.000000
 39,0.00000016,0.00000034,-0.00000529,0.00000126,-0.00000133,0.00000111
 ,-0.00000628,-0.00000283,-0.00000057,0.00000098,-0.00000014,0.00000035
 ,0.00000076,-0.00000068,-0.00000015,0.00000064,0.00000068,-0.00000392,
 -0.00000351,0.00000286,0.00000102,0.00000276,-0.00000465,0.00000081,0.
 00000095,-0.00000072,0.00000294,0.00000620,-0.00000667,-0.00000035,-0.
 00000616,0.00000130,0.00000005,-0.00000014,0.00000066,-0.00000074,0.00
 000062,-0.00000200,-0.00000068,-0.00000076,-0.00000054,-0.00000034,-0.
 00000092,-0.00000069,-0.00000365,-0.00000738,0.00000096,0.00000152,0.0
 0000080,-0.00000450,-0.00000006,0.00000221,-0.00000152,0.00000206,0.00
 000231,0.00000176,0.00000071,-0.00000525,-0.00000500,-0.00000166,0.,0.
 00000536,0.00000164,0.00000140,-0.00000240,0.00000156,0.00000007,-0.00
 000072,0.00000302,0.00000243,0.00000034,0.00000009,0.00000060,0.000001
 35,0.00000015,0.00000055,0.00000010,-0.00000029,-0.00000093,0.00000147
 \\\@
 The archive entry for this job was punched.


 IT IS BY EATING THE LIGHT OF A STAR THAT WE EXIST, 
 IN THE FINAL ANALYSIS, 
 JUST AS IT IS BY PERCEIVING THE LIGHT OF STARS
 THAT WE DEFINE THE WORLD AROUND US.

                                    -- GILBERT GROSVENOR
 Job cpu time:       1 days 22 hours 21 minutes 22.5 seconds.
 Elapsed time:       0 days  2 hours 57 minutes 35.9 seconds.
 File lengths (MBytes):  RWF=  11754 Int=      0 D2E=      0 Chk=     62 Scr=      1
 Normal termination of Gaussian 16 at Sat Dec  7 21:45:14 2024.
