/mnt/lustre/scratch/nvme/SLURM/9663637/usccqdma.txSo3sk6KU
OMP_STACKSIZE=0m
GAUSS_PDEF=16
GAUSS_MDEF=65536MB
GAUSS_RDEF=SCF=Direct
 Entering Gaussian System, Link 0=g16.exe
 Initial command:
 /opt/cesga/2020/software/Core/g16/c1/l1.exe "/mnt/lustre/scratch/nvme/SLURM/9663637/usccqdma.txSo3sk6KU/Gau-1292901.inp" -scrdir="/mnt/lustre/scratch/nvme/SLURM/9663637/usccqdma.txSo3sk6KU/"
 Default is to use a total of  16 processors:
                               16 via shared-memory
                                1 via Linda
 Entering Link 1 = /opt/cesga/2020/software/Core/g16/c1/l1.exe PID=   1292927.
  
 Copyright (c) 1988-2019, Gaussian, Inc.  All Rights Reserved.
  
 This is part of the Gaussian(R) 16 program.  It is based on
 the Gaussian(R) 09 system (copyright 2009, Gaussian, Inc.),
 the Gaussian(R) 03 system (copyright 2003, Gaussian, Inc.),
 the Gaussian(R) 98 system (copyright 1998, Gaussian, Inc.),
 the Gaussian(R) 94 system (copyright 1995, Gaussian, Inc.),
 the Gaussian 92(TM) system (copyright 1992, Gaussian, Inc.),
 the Gaussian 90(TM) system (copyright 1990, Gaussian, Inc.),
 the Gaussian 88(TM) system (copyright 1988, Gaussian, Inc.),
 the Gaussian 86(TM) system (copyright 1986, Carnegie Mellon
 University), and the Gaussian 82(TM) system (copyright 1983,
 Carnegie Mellon University). Gaussian is a federally registered
 trademark of Gaussian, Inc.
  
 This software contains proprietary and confidential information,
 including trade secrets, belonging to Gaussian, Inc.
  
 This software is provided under written license and may be
 used, copied, transmitted, or stored only in accord with that
 written license.
  
 The following legend is applicable only to US Government
 contracts under FAR:
  
                    RESTRICTED RIGHTS LEGEND
  
 Use, reproduction and disclosure by the US Government is
 subject to restrictions as set forth in subparagraphs (a)
 and (c) of the Commercial Computer Software - Restricted
 Rights clause in FAR 52.227-19.
  
 Gaussian, Inc.
 340 Quinnipiac St., Bldg. 40, Wallingford CT 06492
  
  
 ---------------------------------------------------------------
 Warning -- This program may not be used in any manner that
 competes with the business of Gaussian, Inc. or will provide
 assistance to any competitor of Gaussian, Inc.  The licensee
 of this program is prohibited from giving any competitor of
 Gaussian, Inc. access to this program.  By using this program,
 the user acknowledges that Gaussian, Inc. is engaged in the
 business of creating and licensing software in the field of
 computational chemistry and represents and warrants to the
 licensee that it is not a competitor of Gaussian, Inc. and that
 it will not use this program in any manner prohibited above.
 ---------------------------------------------------------------
  

 Cite this work as:
 Gaussian 16, Revision C.01,
 M. J. Frisch, G. W. Trucks, H. B. Schlegel, G. E. Scuseria, 
 M. A. Robb, J. R. Cheeseman, G. Scalmani, V. Barone, 
 G. A. Petersson, H. Nakatsuji, X. Li, M. Caricato, A. V. Marenich, 
 J. Bloino, B. G. Janesko, R. Gomperts, B. Mennucci, H. P. Hratchian, 
 J. V. Ortiz, A. F. Izmaylov, J. L. Sonnenberg, D. Williams-Young, 
 F. Ding, F. Lipparini, F. Egidi, J. Goings, B. Peng, A. Petrone, 
 T. Henderson, D. Ranasinghe, V. G. Zakrzewski, J. Gao, N. Rega, 
 G. Zheng, W. Liang, M. Hada, M. Ehara, K. Toyota, R. Fukuda, 
 J. Hasegawa, M. Ishida, T. Nakajima, Y. Honda, O. Kitao, H. Nakai, 
 T. Vreven, K. Throssell, J. A. Montgomery, Jr., J. E. Peralta, 
 F. Ogliaro, M. J. Bearpark, J. J. Heyd, E. N. Brothers, K. N. Kudin, 
 V. N. Staroverov, T. A. Keith, R. Kobayashi, J. Normand, 
 K. Raghavachari, A. P. Rendell, J. C. Burant, S. S. Iyengar, 
 J. Tomasi, M. Cossi, J. M. Millam, M. Klene, C. Adamo, R. Cammi, 
 J. W. Ochterski, R. L. Martin, K. Morokuma, O. Farkas, 
 J. B. Foresman, and D. J. Fox, Gaussian, Inc., Wallingford CT, 2019.
 
 ******************************************
 Gaussian 16:  ES64L-G16RevC.01  3-Jul-2019
                 7-Dec-2024 
 ******************************************
 Default route: SCF=Direct
 ----------------------------------------------------
 # m06/genecp scf=tight int=ultrafine 5d freq=noraman
 ----------------------------------------------------
 1/10=4,30=1,38=1/1,3;
 2/12=2,17=6,18=5,40=1/2;
 3/5=7,8=1,11=2,16=1,17=8,25=1,30=1,71=2,74=-54,75=-5,140=1/1,2,3;
 4//1;
 5/5=2,32=2,38=5,98=1/2;
 8/6=4,10=90,11=11/1;
 11/6=1,8=1,9=11,15=111,16=1/1,2,10;
 10/6=1/2;
 6/7=2,8=2,9=2,10=2,28=1/1;
 7/8=1,10=1,25=1/1,2,3,16;
 1/10=4,30=1/3;
 99//99;
 ------
 OPT-TS
 ------
 Symbolic Z-matrix:
 Charge =  0 Multiplicity = 1
 C                    -2.24015   0.1129    1.78311 
 C                    -0.06948   0.04457   2.58172 
 C                    -0.4994    0.17774   3.89555 
 C                    -1.85992   0.26704   4.15037 
 C                    -2.73976   0.22176   3.07881 
 C                    -3.11443   0.06156   0.59265 
 C                    -3.25626  -0.37721  -1.6742 
 C                    -4.60845  -0.06194  -1.70925 
 C                    -5.21767   0.34359  -0.5275 
 C                    -4.46493   0.40143   0.63697 
 H                     0.98777  -0.02952   2.33385 
 H                    -2.22623   0.35832   5.17006 
 H                    -3.81091   0.24806   3.25753 
 H                    -2.71512  -0.68047  -2.57103 
 H                    -6.27097   0.61651  -0.51121 
 H                    -4.92337   0.73094   1.56555 
 N                    -0.91391   0.03348   1.55348 
 N                    -2.52965  -0.31179  -0.55825 
 Ir                   -0.23829  -0.22781  -0.56254 
 O                     1.68616   1.53594   0.85403 
 O                    -1.65109   2.40895  -0.59623 
 O                     2.35313  -1.89408   0.06199 
 B                    -0.58153   1.7089   -1.15456 
 B                     1.51466   0.78122  -0.31536 
 B                     1.23043  -1.82151  -0.79018 
 O                     1.5325   -2.43078  -2.01263 
 O                     2.61395   0.94829  -1.13908 
 C                     3.44989   1.97671  -0.58662 
 C                     3.05959   1.94641   0.91823 
 C                     3.29497  -2.80217  -0.52671 
 C                     2.92481  -2.75321  -2.04241 
 C                    -1.61607   3.74986  -1.10718 
 C                    -0.85286   3.56041  -2.44676 
 O                     0.02086   2.46207  -2.14619 
 C                     3.80589   0.8835    1.71607 
 H                     3.36486   0.82251   2.72107 
 H                     3.70608  -0.10243   1.24287 
 H                     4.87131   1.12468   1.83234 
 C                     3.14102   3.27711   1.63882 
 H                     2.79127   3.15148   2.6724 
 H                     4.17785   3.6419    1.67159 
 H                     2.5176    4.04213   1.16276 
 C                     4.90183   1.6544   -0.87694 
 H                     5.19016   0.67068  -0.491 
 H                     5.07159   1.65767  -1.96174 
 H                     5.56402   2.40819  -0.42668 
 C                     3.07745   3.28465  -1.27134 
 H                     3.74539   4.10456  -0.97344 
 H                     3.1487    3.14598  -2.35781 
 H                     2.04014   3.56228  -1.05153 
 C                    -3.03644   4.26013  -1.246 
 H                    -3.05446   5.25062  -1.72325 
 H                    -3.65474   3.57472  -1.83716 
 H                    -3.49458   4.35503  -0.25278 
 C                    -0.85344   4.59355  -0.09507 
 H                    -1.35705   4.51889   0.87689 
 H                     0.17099   4.21888   0.03616 
 H                    -0.8147    5.65246  -0.38405 
 C                    -1.75814   3.09901  -3.58348 
 H                    -1.12959   2.77231  -4.42089 
 H                    -2.37544   2.24392  -3.27274 
 H                    -2.42039   3.90077  -3.93705 
 C                    -0.03238   4.75165  -2.89737 
 H                     0.50423   4.49974  -3.82121 
 H                    -0.68182   5.61468  -3.10406 
 H                     0.71096   5.04786  -2.14953 
 C                     3.64069  -1.65174  -2.81225 
 H                     4.71451  -1.85994  -2.92127 
 H                     3.2006   -1.59174  -3.81609 
 H                     3.49933  -0.67764  -2.32978 
 C                     3.09975  -4.07223  -2.77533 
 H                     4.15204  -4.39151  -2.76424 
 H                     2.48946  -4.87295  -2.34117 
 H                     2.79651  -3.94949  -3.82295 
 C                     3.08055  -4.17626   0.10266 
 H                     3.12864  -4.07424   1.19444 
 H                     2.10449  -4.60829  -0.15452 
 H                     3.85329  -4.89081  -0.21165 
 C                     4.70197  -2.33784  -0.20884 
 H                     4.87645  -2.38459   0.87469 
 H                     5.44616  -2.98073  -0.70071 
 H                     4.86236  -1.30654  -0.5398 
 H                     0.08583  -0.34826  -2.1228 
 C                    -2.54951  -3.24195  -0.02685 
 O                    -2.68841  -2.84953   1.13012 
 C                    -3.74183  -3.80697  -0.78876 
 H                    -3.8187   -3.32065  -1.77352 
 H                    -3.56913  -4.8747   -0.99718 
 C                    -0.21053  -2.59487   0.01411 
 H                    -0.53829  -2.32807   1.02008 
 H                     0.50807  -3.4098    0.1906 
 N                    -1.35585  -3.16762  -0.68408 
 C                    -1.11623  -3.6775   -2.01798 
 H                    -0.23748  -4.33728  -2.01288 
 H                    -1.97322  -4.24862  -2.3805 
 H                    -0.8929   -2.861    -2.7178 
 C                    -5.0342   -3.62499  -0.01617 
 H                    -4.97635  -4.10691   0.96524 
 H                    -5.23461  -2.56011   0.1605 
 C                     0.54251   0.24891   4.96682 
 F                     1.36233  -0.80449   4.91822 
 F                     1.30563   1.34017   4.81742 
 F                     0.00177   0.29519   6.18729 
 H                    -5.16113  -0.12293  -2.64334 
 H                    -5.88078  -4.04978  -0.5693 
 

 GradGradGradGradGradGradGradGradGradGradGradGradGradGradGradGradGradGrad
 Berny optimization.
 Initialization pass.
 Trust Radius=3.00D-01 FncErr=1.00D-07 GrdErr=1.00D-07 EigMax=2.50D+02 EigMin=1.00D-04
 Number of steps in this run=      2 maximum allowed number of steps=      2.
 GradGradGradGradGradGradGradGradGradGradGradGradGradGradGradGradGradGrad

 Stoichiometry    C34H54B3F3IrN3O7
 Framework group  C1[X(C34H54B3F3IrN3O7)]
 Deg. of freedom   309
 Full point group                 C1      NOp   1
 Largest Abelian subgroup         C1      NOp   1
 Largest concise Abelian subgroup C1      NOp   1
                         Standard orientation:                         
 ---------------------------------------------------------------------
 Center     Atomic      Atomic             Coordinates (Angstroms)
 Number     Number       Type             X           Y           Z
 ---------------------------------------------------------------------
      1          6           0       -2.240149    0.112901    1.783111
      2          6           0       -0.069479    0.044571    2.581721
      3          6           0       -0.499399    0.177741    3.895551
      4          6           0       -1.859919    0.267041    4.150371
      5          6           0       -2.739759    0.221761    3.078811
      6          6           0       -3.114429    0.061561    0.592651
      7          6           0       -3.256259   -0.377209   -1.674199
      8          6           0       -4.608449   -0.061938   -1.709249
      9          6           0       -5.217669    0.343592   -0.527499
     10          6           0       -4.464929    0.401432    0.636971
     11          1           0        0.987771   -0.029520    2.333851
     12          1           0       -2.226229    0.358321    5.170061
     13          1           0       -3.810909    0.248062    3.257531
     14          1           0       -2.715120   -0.680469   -2.571029
     15          1           0       -6.270969    0.616512   -0.511209
     16          1           0       -4.923369    0.730942    1.565551
     17          7           0       -0.913909    0.033481    1.553481
     18          7           0       -2.529649   -0.311789   -0.558249
     19         77           0       -0.238289   -0.227809   -0.562539
     20          8           0        1.686161    1.535940    0.854031
     21          8           0       -1.651089    2.408951   -0.596229
     22          8           0        2.353130   -1.894080    0.061991
     23          5           0       -0.581529    1.708901   -1.154559
     24          5           0        1.514661    0.781220   -0.315359
     25          5           0        1.230430   -1.821510   -0.790179
     26          8           0        1.532500   -2.430780   -2.012629
     27          8           0        2.613951    0.948290   -1.139079
     28          6           0        3.449891    1.976710   -0.586619
     29          6           0        3.059591    1.946410    0.918231
     30          6           0        3.294970   -2.802170   -0.526709
     31          6           0        2.924810   -2.753210   -2.042409
     32          6           0       -1.616068    3.749861   -1.107179
     33          6           0       -0.852859    3.560411   -2.446759
     34          8           0        0.020861    2.462071   -2.146189
     35          6           0        3.805891    0.883500    1.716071
     36          1           0        3.364861    0.822510    2.721071
     37          1           0        3.706081   -0.102430    1.242871
     38          1           0        4.871311    1.124679    1.832341
     39          6           0        3.141021    3.277110    1.638821
     40          1           0        2.791271    3.151480    2.672401
     41          1           0        4.177852    3.641900    1.671591
     42          1           0        2.517602    4.042130    1.162761
     43          6           0        4.901831    1.654399   -0.876939
     44          1           0        5.190161    0.670679   -0.490999
     45          1           0        5.071591    1.657669   -1.961739
     46          1           0        5.564021    2.408189   -0.426679
     47          6           0        3.077451    3.284650   -1.271339
     48          1           0        3.745392    4.104560   -0.973439
     49          1           0        3.148701    3.145980   -2.357809
     50          1           0        2.040141    3.562280   -1.051529
     51          6           0       -3.036438    4.260131   -1.245999
     52          1           0       -3.054458    5.250621   -1.723249
     53          1           0       -3.654739    3.574722   -1.837159
     54          1           0       -3.494578    4.355031   -0.252779
     55          6           0       -0.853438    4.593551   -0.095069
     56          1           0       -1.357048    4.518891    0.876891
     57          1           0        0.170992    4.218881    0.036161
     58          1           0       -0.814698    5.652461   -0.384049
     59          6           0       -1.758139    3.099011   -3.583479
     60          1           0       -1.129589    2.772311   -4.420889
     61          1           0       -2.375439    2.243921   -3.272739
     62          1           0       -2.420388    3.900771   -3.937049
     63          6           0       -0.032378    4.751651   -2.897369
     64          1           0        0.504232    4.499741   -3.821209
     65          1           0       -0.681818    5.614681   -3.104059
     66          1           0        0.710962    5.047860   -2.149529
     67          6           0        3.640690   -1.651740   -2.812249
     68          1           0        4.714510   -1.859940   -2.921269
     69          1           0        3.200600   -1.591740   -3.816089
     70          1           0        3.499330   -0.677640   -2.329779
     71          6           0        3.099750   -4.072230   -2.775329
     72          1           0        4.152040   -4.391510   -2.764239
     73          1           0        2.489459   -4.872950   -2.341169
     74          1           0        2.796510   -3.949490   -3.822949
     75          6           0        3.080550   -4.176260    0.102661
     76          1           0        3.128640   -4.074240    1.194441
     77          1           0        2.104490   -4.608290   -0.154519
     78          1           0        3.853289   -4.890810   -0.211649
     79          6           0        4.701970   -2.337840   -0.208839
     80          1           0        4.876450   -2.384591    0.874691
     81          1           0        5.446160   -2.980731   -0.700709
     82          1           0        4.862360   -1.306541   -0.539799
     83          1           0        0.085831   -0.348259   -2.122799
     84          6           0       -2.549510   -3.241949   -0.026849
     85          8           0       -2.688410   -2.849529    1.130121
     86          6           0       -3.741830   -3.806968   -0.788759
     87          1           0       -3.818700   -3.320648   -1.773519
     88          1           0       -3.569131   -4.874699   -0.997179
     89          6           0       -0.210530   -2.594869    0.014111
     90          1           0       -0.538290   -2.328069    1.020081
     91          1           0        0.508070   -3.409799    0.190601
     92          7           0       -1.355850   -3.167619   -0.684079
     93          6           0       -1.116230   -3.677499   -2.017979
     94          1           0       -0.237480   -4.337279   -2.012879
     95          1           0       -1.973220   -4.248619   -2.380499
     96          1           0       -0.892900   -2.860999   -2.717799
     97          6           0       -5.034200   -3.624988   -0.016169
     98          1           0       -4.976350   -4.106908    0.965241
     99          1           0       -5.234610   -2.560108    0.160501
    100          6           0        0.542511    0.248911    4.966821
    101          9           0        1.362330   -0.804490    4.918221
    102          9           0        1.305631    1.340170    4.817421
    103          9           0        0.001771    0.295191    6.187291
    104          1           0       -5.161129   -0.122928   -2.643339
    105          1           0       -5.880780   -4.049778   -0.569299
 ---------------------------------------------------------------------
 Rotational constants (GHZ):           0.0604188           0.0549114           0.0526347
 General basis read from cards:  (5D, 7F)
 ======================================================================================================
                                       Pseudopotential Parameters
 ======================================================================================================
  Center     Atomic      Valence      Angular      Power
  Number     Number     Electrons     Momentum     of R      Exponent        Coefficient   SO-Coeffient
 ======================================================================================================
    1          6
                                   No pseudopotential on this center.
    2          6
                                   No pseudopotential on this center.
    3          6
                                   No pseudopotential on this center.
    4          6
                                   No pseudopotential on this center.
    5          6
                                   No pseudopotential on this center.
    6          6
                                   No pseudopotential on this center.
    7          6
                                   No pseudopotential on this center.
    8          6
                                   No pseudopotential on this center.
    9          6
                                   No pseudopotential on this center.
   10          6
                                   No pseudopotential on this center.
   11          1
                                   No pseudopotential on this center.
   12          1
                                   No pseudopotential on this center.
   13          1
                                   No pseudopotential on this center.
   14          1
                                   No pseudopotential on this center.
   15          1
                                   No pseudopotential on this center.
   16          1
                                   No pseudopotential on this center.
   17          7
                                   No pseudopotential on this center.
   18          7
                                   No pseudopotential on this center.
   19         77           17
                                      G and up 
                                                     1      823.5880147       -0.15780140    0.00000000
                                                     2      364.6613336    -1517.52704460    0.00000000
                                                     2       55.7082801     -316.53065290    0.00000000
                                                     2       12.0464544      -91.88809410    0.00000000
                                                     2        3.5120610       -9.22417730    0.00000000
                                      S - G
                                                     0      188.0490770        3.15780140    0.00000000
                                                     1      340.4194712       26.83225770    0.00000000
                                                     2      128.2373673      800.42500070    0.00000000
                                                     2       33.8644961      369.40506830    0.00000000
                                                     2        4.7560005      242.41718990    0.00000000
                                                     2        3.9649974     -118.21732820    0.00000000
                                      P - G
                                                     0      289.7291139        2.15780140    0.00000000
                                                     1       87.4633789       61.96786100    0.00000000
                                                     2       30.4363766      269.05819860    0.00000000
                                                     2        4.0553412      231.16547930    0.00000000
                                                     2        3.5525341     -133.69526670    0.00000000
                                      D - G
                                                     0      136.4017106        3.15780140    0.00000000
                                                     1       95.0776925       45.93498030    0.00000000
                                                     2       49.2258410      359.03446680    0.00000000
                                                     2       15.0874145      176.47401190    0.00000000
                                                     2        4.0405764       54.51552860    0.00000000
                                      F - G
                                                     0      127.3507908        3.95461970    0.00000000
                                                     1       66.2364374       52.97736550    0.00000000
                                                     2       34.4299229      274.86433830    0.00000000
                                                     2       10.1995721      137.20473380    0.00000000
                                                     2        2.5409702       14.86333050    0.00000000
   20          8
                                   No pseudopotential on this center.
   21          8
                                   No pseudopotential on this center.
   22          8
                                   No pseudopotential on this center.
   23          5
                                   No pseudopotential on this center.
   24          5
                                   No pseudopotential on this center.
   25          5
                                   No pseudopotential on this center.
   26          8
                                   No pseudopotential on this center.
   27          8
                                   No pseudopotential on this center.
   28          6
                                   No pseudopotential on this center.
   29          6
                                   No pseudopotential on this center.
   30          6
                                   No pseudopotential on this center.
   31          6
                                   No pseudopotential on this center.
   32          6
                                   No pseudopotential on this center.
   33          6
                                   No pseudopotential on this center.
   34          8
                                   No pseudopotential on this center.
   35          6
                                   No pseudopotential on this center.
   36          1
                                   No pseudopotential on this center.
   37          1
                                   No pseudopotential on this center.
   38          1
                                   No pseudopotential on this center.
   39          6
                                   No pseudopotential on this center.
   40          1
                                   No pseudopotential on this center.
   41          1
                                   No pseudopotential on this center.
   42          1
                                   No pseudopotential on this center.
   43          6
                                   No pseudopotential on this center.
   44          1
                                   No pseudopotential on this center.
   45          1
                                   No pseudopotential on this center.
   46          1
                                   No pseudopotential on this center.
   47          6
                                   No pseudopotential on this center.
   48          1
                                   No pseudopotential on this center.
   49          1
                                   No pseudopotential on this center.
   50          1
                                   No pseudopotential on this center.
   51          6
                                   No pseudopotential on this center.
   52          1
                                   No pseudopotential on this center.
   53          1
                                   No pseudopotential on this center.
   54          1
                                   No pseudopotential on this center.
   55          6
                                   No pseudopotential on this center.
   56          1
                                   No pseudopotential on this center.
   57          1
                                   No pseudopotential on this center.
   58          1
                                   No pseudopotential on this center.
   59          6
                                   No pseudopotential on this center.
   60          1
                                   No pseudopotential on this center.
   61          1
                                   No pseudopotential on this center.
   62          1
                                   No pseudopotential on this center.
   63          6
                                   No pseudopotential on this center.
   64          1
                                   No pseudopotential on this center.
   65          1
                                   No pseudopotential on this center.
   66          1
                                   No pseudopotential on this center.
   67          6
                                   No pseudopotential on this center.
   68          1
                                   No pseudopotential on this center.
   69          1
                                   No pseudopotential on this center.
   70          1
                                   No pseudopotential on this center.
   71          6
                                   No pseudopotential on this center.
   72          1
                                   No pseudopotential on this center.
   73          1
                                   No pseudopotential on this center.
   74          1
                                   No pseudopotential on this center.
   75          6
                                   No pseudopotential on this center.
   76          1
                                   No pseudopotential on this center.
   77          1
                                   No pseudopotential on this center.
   78          1
                                   No pseudopotential on this center.
   79          6
                                   No pseudopotential on this center.
   80          1
                                   No pseudopotential on this center.
   81          1
                                   No pseudopotential on this center.
   82          1
                                   No pseudopotential on this center.
   83          1
                                   No pseudopotential on this center.
   84          6
                                   No pseudopotential on this center.
   85          8
                                   No pseudopotential on this center.
   86          6
                                   No pseudopotential on this center.
   87          1
                                   No pseudopotential on this center.
   88          1
                                   No pseudopotential on this center.
   89          6
                                   No pseudopotential on this center.
   90          1
                                   No pseudopotential on this center.
   91          1
                                   No pseudopotential on this center.
   92          7
                                   No pseudopotential on this center.
   93          6
                                   No pseudopotential on this center.
   94          1
                                   No pseudopotential on this center.
   95          1
                                   No pseudopotential on this center.
   96          1
                                   No pseudopotential on this center.
   97          6
                                   No pseudopotential on this center.
   98          1
                                   No pseudopotential on this center.
   99          1
                                   No pseudopotential on this center.
  100          6
                                   No pseudopotential on this center.
  101          9
                                   No pseudopotential on this center.
  102          9
                                   No pseudopotential on this center.
  103          9
                                   No pseudopotential on this center.
  104          1
                                   No pseudopotential on this center.
  105          1
                                   No pseudopotential on this center.
 ======================================================================================================
 There are   882 symmetry adapted cartesian basis functions of A   symmetry.
 There are   830 symmetry adapted basis functions of A   symmetry.
   830 basis functions,  1659 primitive gaussians,   882 cartesian basis functions
   197 alpha electrons      197 beta electrons
       nuclear repulsion energy      8592.9648105768 Hartrees.
 NAtoms=  105 NActive=  105 NUniq=  105 SFac= 1.00D+00 NAtFMM=   60 NAOKFM=T Big=T
 Integral buffers will be    131072 words long.
 Raffenetti 2 integral format.
 Two-electron integral symmetry is turned on.
 One-electron integrals computed using PRISM.
   1 Symmetry operations used in ECPInt.
 ECPInt:  NShTT=   50086 NPrTT=  307226 LenC2=   38803 LenP2D=  120914.
 LDataN:  DoStor=T MaxTD1= 6 Len=  172
 NBasis=   830 RedAO= T EigKep=  5.04D-04  NBF=   830
 NBsUse=   830 1.00D-06 EigRej= -1.00D+00 NBFU=   830
 Defaulting to unpruned grid for atomic number  77.
 ExpMin= 2.90D-02 ExpMax= 7.00D+03 ExpMxC= 1.05D+03 IAcc=3 IRadAn=         5 AccDes= 0.00D+00
 Harris functional with IExCor= 1009 and IRadAn=       5 diagonalized for initial guess.
 HarFok:  IExCor= 1009 AccDes= 0.00D+00 IRadAn=         5 IDoV= 1 UseB2=F ITyADJ=14
 ICtDFT=  3500011 ScaDFX=  1.000000  1.000000  1.000000  1.000000
 Defaulting to unpruned grid for atomic number  77.
 FoFCou: FMM=F IPFlag=           0 FMFlag=      100000 FMFlg1=        2001
         NFxFlg=           0 DoJE=T BraDBF=F KetDBF=T FulRan=T
         wScrn=  0.000000 ICntrl=       500 IOpCl=  0 I1Cent=   200000004 NGrid=           0
         NMat0=    1 NMatS0=      1 NMatT0=    0 NMatD0=    1 NMtDS0=    0 NMtDT0=    0
 Petite list used in FoFCou.
 Requested convergence on RMS density matrix=1.00D-08 within 128 cycles.
 Requested convergence on MAX density matrix=1.00D-06.
 Requested convergence on             energy=1.00D-06.
 No special actions if energy rises.
 Defaulting to unpruned grid for atomic number  77.
 Defaulting to unpruned grid for atomic number  77.
 Defaulting to unpruned grid for atomic number  77.
 Defaulting to unpruned grid for atomic number  77.
 Defaulting to unpruned grid for atomic number  77.
 Defaulting to unpruned grid for atomic number  77.
 Defaulting to unpruned grid for atomic number  77.
 Defaulting to unpruned grid for atomic number  77.
 Defaulting to unpruned grid for atomic number  77.
 Defaulting to unpruned grid for atomic number  77.
 Defaulting to unpruned grid for atomic number  77.
 Defaulting to unpruned grid for atomic number  77.
 Defaulting to unpruned grid for atomic number  77.
 Defaulting to unpruned grid for atomic number  77.
 Defaulting to unpruned grid for atomic number  77.
 Defaulting to unpruned grid for atomic number  77.
 SCF Done:  E(RM06) =  -2496.60412327     A.U. after   15 cycles
            NFock= 15  Conv=0.82D-08     -V/T= 2.0358
 DoSCS=F DFT=T ScalE2(SS,OS)=  1.000000  1.000000
 Range of M.O.s used for correlation:     1   830
 NBasis=   830 NAE=   197 NBE=   197 NFC=     0 NFV=     0
 NROrb=    830 NOA=   197 NOB=   197 NVA=   633 NVB=   633
   1 Symmetry operations used in ECPInt.
 ECPInt:  NShTT=   50086 NPrTT=  307226 LenC2=   38803 LenP2D=  120914.
 LDataN:  DoStor=T MaxTD1= 7 Len=  274
 Number of processors reduced to   8 by ecpmxn.
 Symmetrizing basis deriv contribution to polar:
 IMax=3 JMax=2 DiffMx= 0.00D+00
 G2DrvN: will do   106 centers at a time, making    1 passes.
 Calling FoFCou, ICntrl=  3107 FMM=T I1Cent=   0 AccDes= 0.00D+00.
 Defaulting to unpruned grid for atomic number  77.
 Defaulting to unpruned grid for atomic number  77.
 Defaulting to unpruned grid for atomic number  77.
 Defaulting to unpruned grid for atomic number  77.
 Defaulting to unpruned grid for atomic number  77.
 Defaulting to unpruned grid for atomic number  77.
 Defaulting to unpruned grid for atomic number  77.
 Defaulting to unpruned grid for atomic number  77.
 Defaulting to unpruned grid for atomic number  77.
 Defaulting to unpruned grid for atomic number  77.
 Defaulting to unpruned grid for atomic number  77.
 Defaulting to unpruned grid for atomic number  77.
 Defaulting to unpruned grid for atomic number  77.
 Defaulting to unpruned grid for atomic number  77.
 Defaulting to unpruned grid for atomic number  77.
 Defaulting to unpruned grid for atomic number  77.
 End of G2Drv F.D. properties file   721 does not exist.
 End of G2Drv F.D. properties file   722 does not exist.
 End of G2Drv F.D. properties file   788 does not exist.
          IDoAtm=11111111111111111111111111111111111111111111111111
          IDoAtm=11111111111111111111111111111111111111111111111111
          IDoAtm=11111
          Differentiating once with respect to electric field.
                with respect to dipole field.
          Differentiating once with respect to nuclear coordinates.
 Defaulting to unpruned grid for atomic number  77.
 CalDSu exits because no D1Ps are significant.
 Defaulting to unpruned grid for atomic number  77.
 Defaulting to unpruned grid for atomic number  77.
 Defaulting to unpruned grid for atomic number  77.
 Defaulting to unpruned grid for atomic number  77.
 Defaulting to unpruned grid for atomic number  77.
 Defaulting to unpruned grid for atomic number  77.
 Defaulting to unpruned grid for atomic number  77.
 Defaulting to unpruned grid for atomic number  77.
 Defaulting to unpruned grid for atomic number  77.
 Defaulting to unpruned grid for atomic number  77.
 Defaulting to unpruned grid for atomic number  77.
 Defaulting to unpruned grid for atomic number  77.
 Defaulting to unpruned grid for atomic number  77.
 Defaulting to unpruned grid for atomic number  77.
 Defaulting to unpruned grid for atomic number  77.
 Defaulting to unpruned grid for atomic number  77.
          There are   318 degrees of freedom in the 1st order CPHF.  IDoFFX=6 NUNeed=     3.
    315 vectors produced by pass  0 Test12= 1.25D-13 1.00D-09 XBig12= 4.65D+02 8.59D+00.
 AX will form    72 AO Fock derivatives at one time.
    315 vectors produced by pass  1 Test12= 1.25D-13 1.00D-09 XBig12= 7.92D+01 1.10D+00.
    315 vectors produced by pass  2 Test12= 1.25D-13 1.00D-09 XBig12= 9.98D-01 9.38D-02.
    315 vectors produced by pass  3 Test12= 1.25D-13 1.00D-09 XBig12= 6.21D-03 6.00D-03.
    315 vectors produced by pass  4 Test12= 1.25D-13 1.00D-09 XBig12= 2.29D-05 3.46D-04.
    279 vectors produced by pass  5 Test12= 1.25D-13 1.00D-09 XBig12= 4.52D-08 1.80D-05.
     76 vectors produced by pass  6 Test12= 1.25D-13 1.00D-09 XBig12= 6.64D-11 5.99D-07.
      3 vectors produced by pass  7 Test12= 1.25D-13 1.00D-09 XBig12= 9.20D-14 1.91D-08.
 InvSVY:  IOpt=1 It=  1 EMax= 2.49D-14
 Solved reduced A of dimension  1933 with   318 vectors.
 Isotropic polarizability for W=    0.000000      471.79 Bohr**3.
 End of Minotr F.D. properties file   721 does not exist.
 End of Minotr F.D. properties file   722 does not exist.
 End of Minotr F.D. properties file   788 does not exist.
 Hyperfine terms turned off by default for NAtoms > 100.

 **********************************************************************

            Population analysis using the SCF Density.

 **********************************************************************

 Orbital symmetries:
       Occupied  (A) (A) (A) (A) (A) (A) (A) (A) (A) (A) (A) (A)
                 (A) (A) (A) (A) (A) (A) (A) (A) (A) (A) (A) (A)
                 (A) (A) (A) (A) (A) (A) (A) (A) (A) (A) (A) (A)
                 (A) (A) (A) (A) (A) (A) (A) (A) (A) (A) (A) (A)
                 (A) (A) (A) (A) (A) (A) (A) (A) (A) (A) (A) (A)
                 (A) (A) (A) (A) (A) (A) (A) (A) (A) (A) (A) (A)
                 (A) (A) (A) (A) (A) (A) (A) (A) (A) (A) (A) (A)
                 (A) (A) (A) (A) (A) (A) (A) (A) (A) (A) (A) (A)
                 (A) (A) (A) (A) (A) (A) (A) (A) (A) (A) (A) (A)
                 (A) (A) (A) (A) (A) (A) (A) (A) (A) (A) (A) (A)
                 (A) (A) (A) (A) (A) (A) (A) (A) (A) (A) (A) (A)
                 (A) (A) (A) (A) (A) (A) (A) (A) (A) (A) (A) (A)
                 (A) (A) (A) (A) (A) (A) (A) (A) (A) (A) (A) (A)
                 (A) (A) (A) (A) (A) (A) (A) (A) (A) (A) (A) (A)
                 (A) (A) (A) (A) (A) (A) (A) (A) (A) (A) (A) (A)
                 (A) (A) (A) (A) (A) (A) (A) (A) (A) (A) (A) (A)
                 (A) (A) (A) (A) (A)
       Virtual   (A) (A) (A) (A) (A) (A) (A) (A) (A) (A) (A) (A)
                 (A) (A) (A) (A) (A) (A) (A) (A) (A) (A) (A) (A)
                 (A) (A) (A) (A) (A) (A) (A) (A) (A) (A) (A) (A)
                 (A) (A) (A) (A) (A) (A) (A) (A) (A) (A) (A) (A)
                 (A) (A) (A) (A) (A) (A) (A) (A) (A) (A) (A) (A)
                 (A) (A) (A) (A) (A) (A) (A) (A) (A) (A) (A) (A)
                 (A) (A) (A) (A) (A) (A) (A) (A) (A) (A) (A) (A)
                 (A) (A) (A) (A) (A) (A) (A) (A) (A) (A) (A) (A)
                 (A) (A) (A) (A) (A) (A) (A) (A) (A) (A) (A) (A)
                 (A) (A) (A) (A) (A) (A) (A) (A) (A) (A) (A) (A)
                 (A) (A) (A) (A) (A) (A) (A) (A) (A) (A) (A) (A)
                 (A) (A) (A) (A) (A) (A) (A) (A) (A) (A) (A) (A)
                 (A) (A) (A) (A) (A) (A) (A) (A) (A) (A) (A) (A)
                 (A) (A) (A) (A) (A) (A) (A) (A) (A) (A) (A) (A)
                 (A) (A) (A) (A) (A) (A) (A) (A) (A) (A) (A) (A)
                 (A) (A) (A) (A) (A) (A) (A) (A) (A) (A) (A) (A)
                 (A) (A) (A) (A) (A) (A) (A) (A) (A) (A) (A) (A)
                 (A) (A) (A) (A) (A) (A) (A) (A) (A) (A) (A) (A)
                 (A) (A) (A) (A) (A) (A) (A) (A) (A) (A) (A) (A)
                 (A) (A) (A) (A) (A) (A) (A) (A) (A) (A) (A) (A)
                 (A) (A) (A) (A) (A) (A) (A) (A) (A) (A) (A) (A)
                 (A) (A) (A) (A) (A) (A) (A) (A) (A) (A) (A) (A)
                 (A) (A) (A) (A) (A) (A) (A) (A) (A) (A) (A) (A)
                 (A) (A) (A) (A) (A) (A) (A) (A) (A) (A) (A) (A)
                 (A) (A) (A) (A) (A) (A) (A) (A) (A) (A) (A) (A)
                 (A) (A) (A) (A) (A) (A) (A) (A) (A) (A) (A) (A)
                 (A) (A) (A) (A) (A) (A) (A) (A) (A) (A) (A) (A)
                 (A) (A) (A) (A) (A) (A) (A) (A) (A) (A) (A) (A)
                 (A) (A) (A) (A) (A) (A) (A) (A) (A) (A) (A) (A)
                 (A) (A) (A) (A) (A) (A) (A) (A) (A) (A) (A) (A)
                 (A) (A) (A) (A) (A) (A) (A) (A) (A) (A) (A) (A)
                 (A) (A) (A) (A) (A) (A) (A) (A) (A) (A) (A) (A)
                 (A) (A) (A) (A) (A) (A) (A) (A) (A) (A) (A) (A)
                 (A) (A) (A) (A) (A) (A) (A) (A) (A) (A) (A) (A)
                 (A) (A) (A) (A) (A) (A) (A) (A) (A) (A) (A) (A)
                 (A) (A) (A) (A) (A) (A) (A) (A) (A) (A) (A) (A)
                 (A) (A) (A) (A) (A) (A) (A) (A) (A) (A) (A) (A)
                 (A) (A) (A) (A) (A) (A) (A) (A) (A) (A) (A) (A)
                 (A) (A) (A) (A) (A) (A) (A) (A) (A) (A) (A) (A)
                 (A) (A) (A) (A) (A) (A) (A) (A) (A) (A) (A) (A)
                 (A) (A) (A) (A) (A) (A) (A) (A) (A) (A) (A) (A)
                 (A) (A) (A) (A) (A) (A) (A) (A) (A) (A) (A) (A)
                 (A) (A) (A) (A) (A) (A) (A) (A) (A) (A) (A) (A)
                 (A) (A) (A) (A) (A) (A) (A) (A) (A) (A) (A) (A)
                 (A) (A) (A) (A) (A) (A) (A) (A) (A) (A) (A) (A)
                 (A) (A) (A) (A) (A) (A) (A) (A) (A) (A) (A) (A)
                 (A) (A) (A) (A) (A) (A) (A) (A) (A) (A) (A) (A)
                 (A) (A) (A) (A) (A) (A) (A) (A) (A) (A) (A) (A)
                 (A) (A) (A) (A) (A) (A) (A) (A) (A) (A) (A) (A)
                 (A) (A) (A) (A) (A) (A) (A) (A) (A) (A) (A) (A)
                 (A) (A) (A) (A) (A) (A) (A) (A) (A) (A) (A) (A)
                 (A) (A) (A) (A) (A) (A) (A) (A) (A) (A) (A) (A)
                 (A) (A) (A) (A) (A) (A) (A) (A) (A)
 The electronic state is 1-A.
 Alpha  occ. eigenvalues --  -24.83053 -24.82354 -24.82286 -19.20755 -19.20499
 Alpha  occ. eigenvalues --  -19.19837 -19.19387 -19.19141 -19.18779 -19.17685
 Alpha  occ. eigenvalues --  -14.45270 -14.44796 -14.41664 -10.51108 -10.33437
 Alpha  occ. eigenvalues --  -10.32647 -10.32435 -10.31268 -10.31029 -10.29752
 Alpha  occ. eigenvalues --  -10.29731 -10.29702 -10.29497 -10.29085 -10.28758
 Alpha  occ. eigenvalues --  -10.28757 -10.28703 -10.28609 -10.28602 -10.28406
 Alpha  occ. eigenvalues --  -10.28327 -10.26094 -10.25111 -10.24905 -10.23460
 Alpha  occ. eigenvalues --  -10.23001 -10.23000 -10.22880 -10.22706 -10.22311
 Alpha  occ. eigenvalues --  -10.22266 -10.22243 -10.22115 -10.22073 -10.21534
 Alpha  occ. eigenvalues --  -10.21401 -10.20139  -6.81864  -6.80211  -6.79826
 Alpha  occ. eigenvalues --   -3.63035  -2.05530  -2.05003  -2.04280  -1.35456
 Alpha  occ. eigenvalues --   -1.27029  -1.26358  -1.06664  -1.05646  -1.05022
 Alpha  occ. eigenvalues --   -1.03609  -1.00577  -0.99635  -0.98660  -0.98244
 Alpha  occ. eigenvalues --   -0.98144  -0.93050  -0.86095  -0.84343  -0.83581
 Alpha  occ. eigenvalues --   -0.80825  -0.79839  -0.79647  -0.79304  -0.78191
 Alpha  occ. eigenvalues --   -0.75315  -0.74301  -0.74023  -0.73713  -0.71230
 Alpha  occ. eigenvalues --   -0.70835  -0.69867  -0.69543  -0.68958  -0.68758
 Alpha  occ. eigenvalues --   -0.68750  -0.68114  -0.66992  -0.66583  -0.65655
 Alpha  occ. eigenvalues --   -0.64564  -0.62998  -0.62056  -0.61421  -0.61383
 Alpha  occ. eigenvalues --   -0.61078  -0.60370  -0.60202  -0.57484  -0.55072
 Alpha  occ. eigenvalues --   -0.54227  -0.54151  -0.53988  -0.53865  -0.53296
 Alpha  occ. eigenvalues --   -0.52869  -0.52512  -0.52363  -0.50764  -0.50122
 Alpha  occ. eigenvalues --   -0.49072  -0.48890  -0.48713  -0.48605  -0.48131
 Alpha  occ. eigenvalues --   -0.47551  -0.47152  -0.46934  -0.46734  -0.46354
 Alpha  occ. eigenvalues --   -0.46178  -0.46008  -0.45685  -0.45277  -0.45189
 Alpha  occ. eigenvalues --   -0.44985  -0.44766  -0.44520  -0.44273  -0.44018
 Alpha  occ. eigenvalues --   -0.43954  -0.43928  -0.43471  -0.43040  -0.42706
 Alpha  occ. eigenvalues --   -0.42675  -0.42426  -0.41463  -0.40998  -0.40472
 Alpha  occ. eigenvalues --   -0.40392  -0.39979  -0.39915  -0.39769  -0.39649
 Alpha  occ. eigenvalues --   -0.39588  -0.39408  -0.39323  -0.39033  -0.38836
 Alpha  occ. eigenvalues --   -0.38716  -0.38508  -0.38442  -0.38203  -0.37912
 Alpha  occ. eigenvalues --   -0.37818  -0.37724  -0.37280  -0.37022  -0.36848
 Alpha  occ. eigenvalues --   -0.36627  -0.36417  -0.36061  -0.35905  -0.35628
 Alpha  occ. eigenvalues --   -0.35584  -0.35454  -0.35394  -0.35066  -0.34793
 Alpha  occ. eigenvalues --   -0.34537  -0.34465  -0.33743  -0.33420  -0.33402
 Alpha  occ. eigenvalues --   -0.32484  -0.32158  -0.31816  -0.31601  -0.31234
 Alpha  occ. eigenvalues --   -0.30747  -0.30660  -0.30483  -0.29712  -0.28950
 Alpha  occ. eigenvalues --   -0.28611  -0.27794  -0.27260  -0.27120  -0.26170
 Alpha  occ. eigenvalues --   -0.25658  -0.25161  -0.24975  -0.24167  -0.22209
 Alpha  occ. eigenvalues --   -0.21532  -0.20449
 Alpha virt. eigenvalues --   -0.07662  -0.04434  -0.03539   0.00458   0.01671
 Alpha virt. eigenvalues --    0.03040   0.04659   0.06081   0.06490   0.07063
 Alpha virt. eigenvalues --    0.08044   0.08492   0.09132   0.09848   0.10272
 Alpha virt. eigenvalues --    0.10776   0.11335   0.11537   0.11606   0.12247
 Alpha virt. eigenvalues --    0.12928   0.13209   0.13294   0.13386   0.13615
 Alpha virt. eigenvalues --    0.13816   0.14087   0.14393   0.14795   0.14999
 Alpha virt. eigenvalues --    0.15284   0.15321   0.15459   0.15653   0.15858
 Alpha virt. eigenvalues --    0.15984   0.16266   0.16417   0.16664   0.16756
 Alpha virt. eigenvalues --    0.16913   0.17231   0.17360   0.17520   0.17906
 Alpha virt. eigenvalues --    0.18035   0.18267   0.18314   0.18890   0.18981
 Alpha virt. eigenvalues --    0.19139   0.19296   0.19436   0.19648   0.19698
 Alpha virt. eigenvalues --    0.19918   0.20171   0.20412   0.20514   0.20628
 Alpha virt. eigenvalues --    0.20944   0.21052   0.21332   0.21765   0.21989
 Alpha virt. eigenvalues --    0.22117   0.22381   0.22629   0.22923   0.23038
 Alpha virt. eigenvalues --    0.23356   0.23580   0.23910   0.23949   0.24170
 Alpha virt. eigenvalues --    0.24304   0.24612   0.24739   0.24898   0.25215
 Alpha virt. eigenvalues --    0.25571   0.25794   0.26037   0.26181   0.26812
 Alpha virt. eigenvalues --    0.27025   0.27282   0.27690   0.27921   0.28037
 Alpha virt. eigenvalues --    0.28448   0.28659   0.28985   0.29771   0.29872
 Alpha virt. eigenvalues --    0.30183   0.30655   0.30854   0.31760   0.31871
 Alpha virt. eigenvalues --    0.32549   0.33518   0.33652   0.34537   0.35134
 Alpha virt. eigenvalues --    0.35789   0.36078   0.36581   0.37059   0.37375
 Alpha virt. eigenvalues --    0.37646   0.38525   0.39140   0.40358   0.40532
 Alpha virt. eigenvalues --    0.41525   0.42617   0.43330   0.44089   0.46439
 Alpha virt. eigenvalues --    0.47074   0.47209   0.48308   0.48780   0.49180
 Alpha virt. eigenvalues --    0.49639   0.50267   0.50794   0.50956   0.51230
 Alpha virt. eigenvalues --    0.51508   0.51733   0.52141   0.52326   0.53178
 Alpha virt. eigenvalues --    0.53308   0.53461   0.54467   0.54616   0.54852
 Alpha virt. eigenvalues --    0.55662   0.55953   0.56143   0.56716   0.57080
 Alpha virt. eigenvalues --    0.57222   0.57475   0.57782   0.57942   0.58345
 Alpha virt. eigenvalues --    0.58834   0.58867   0.59015   0.59308   0.59640
 Alpha virt. eigenvalues --    0.59760   0.60213   0.60510   0.60754   0.61231
 Alpha virt. eigenvalues --    0.61467   0.61620   0.62089   0.62384   0.62601
 Alpha virt. eigenvalues --    0.62882   0.63179   0.63542   0.63678   0.63981
 Alpha virt. eigenvalues --    0.64359   0.64913   0.65209   0.65461   0.65556
 Alpha virt. eigenvalues --    0.65874   0.66190   0.66580   0.66760   0.67380
 Alpha virt. eigenvalues --    0.67892   0.68092   0.68522   0.68834   0.69488
 Alpha virt. eigenvalues --    0.69928   0.70378   0.70645   0.70743   0.71428
 Alpha virt. eigenvalues --    0.71610   0.71981   0.72194   0.72639   0.72702
 Alpha virt. eigenvalues --    0.73377   0.73748   0.74259   0.74334   0.74769
 Alpha virt. eigenvalues --    0.75118   0.75375   0.75502   0.76403   0.76708
 Alpha virt. eigenvalues --    0.76880   0.77397   0.77824   0.78325   0.78555
 Alpha virt. eigenvalues --    0.78763   0.79337   0.79732   0.79998   0.80553
 Alpha virt. eigenvalues --    0.81281   0.81561   0.82185   0.82517   0.82927
 Alpha virt. eigenvalues --    0.83510   0.83726   0.83774   0.84116   0.84452
 Alpha virt. eigenvalues --    0.84825   0.84883   0.85269   0.85656   0.85733
 Alpha virt. eigenvalues --    0.85884   0.86370   0.86534   0.86699   0.87034
 Alpha virt. eigenvalues --    0.87108   0.87258   0.87506   0.88004   0.88253
 Alpha virt. eigenvalues --    0.88323   0.88445   0.88795   0.89294   0.89544
 Alpha virt. eigenvalues --    0.89792   0.90084   0.90478   0.90715   0.90842
 Alpha virt. eigenvalues --    0.91101   0.91181   0.91529   0.91756   0.92177
 Alpha virt. eigenvalues --    0.92520   0.92966   0.92995   0.93620   0.93941
 Alpha virt. eigenvalues --    0.94054   0.94340   0.94550   0.95111   0.95141
 Alpha virt. eigenvalues --    0.95348   0.96015   0.96199   0.96497   0.96876
 Alpha virt. eigenvalues --    0.97035   0.97420   0.97982   0.98889   0.99058
 Alpha virt. eigenvalues --    0.99696   1.00054   1.00540   1.01011   1.01490
 Alpha virt. eigenvalues --    1.01525   1.01747   1.02734   1.03154   1.03827
 Alpha virt. eigenvalues --    1.04137   1.04891   1.05331   1.05821   1.06102
 Alpha virt. eigenvalues --    1.06748   1.07593   1.08441   1.08572   1.09514
 Alpha virt. eigenvalues --    1.09611   1.09965   1.10805   1.11075   1.11581
 Alpha virt. eigenvalues --    1.12567   1.13049   1.13196   1.14087   1.14357
 Alpha virt. eigenvalues --    1.15027   1.15735   1.16164   1.17065   1.17478
 Alpha virt. eigenvalues --    1.17995   1.18679   1.18980   1.19808   1.20098
 Alpha virt. eigenvalues --    1.20714   1.21060   1.21600   1.22010   1.22436
 Alpha virt. eigenvalues --    1.22853   1.23812   1.24431   1.24963   1.25160
 Alpha virt. eigenvalues --    1.25648   1.26822   1.26952   1.27619   1.28070
 Alpha virt. eigenvalues --    1.29244   1.29470   1.30052   1.30997   1.31422
 Alpha virt. eigenvalues --    1.31947   1.32613   1.33416   1.34339   1.34481
 Alpha virt. eigenvalues --    1.34908   1.35407   1.35980   1.36707   1.37123
 Alpha virt. eigenvalues --    1.37274   1.37820   1.38529   1.38837   1.39176
 Alpha virt. eigenvalues --    1.39728   1.40449   1.41225   1.41856   1.41871
 Alpha virt. eigenvalues --    1.42208   1.42664   1.43059   1.44125   1.44557
 Alpha virt. eigenvalues --    1.44659   1.45738   1.45767   1.46057   1.46334
 Alpha virt. eigenvalues --    1.46727   1.47386   1.48129   1.48660   1.48955
 Alpha virt. eigenvalues --    1.49761   1.50367   1.50808   1.50933   1.52006
 Alpha virt. eigenvalues --    1.53420   1.54018   1.55773   1.56044   1.56667
 Alpha virt. eigenvalues --    1.57670   1.58764   1.60288   1.61065   1.62428
 Alpha virt. eigenvalues --    1.63006   1.63495   1.64015   1.64637   1.64967
 Alpha virt. eigenvalues --    1.65482   1.66661   1.67126   1.67382   1.68111
 Alpha virt. eigenvalues --    1.68494   1.68656   1.69171   1.70041   1.70547
 Alpha virt. eigenvalues --    1.70711   1.72061   1.72578   1.72832   1.74775
 Alpha virt. eigenvalues --    1.75168   1.75588   1.76049   1.77125   1.77336
 Alpha virt. eigenvalues --    1.77447   1.78271   1.78335   1.78885   1.79369
 Alpha virt. eigenvalues --    1.79699   1.80092   1.80656   1.81420   1.81947
 Alpha virt. eigenvalues --    1.82197   1.82780   1.83224   1.83577   1.84228
 Alpha virt. eigenvalues --    1.84562   1.85141   1.85297   1.85615   1.86037
 Alpha virt. eigenvalues --    1.86369   1.86722   1.87164   1.88192   1.88323
 Alpha virt. eigenvalues --    1.88802   1.89548   1.90247   1.90754   1.91240
 Alpha virt. eigenvalues --    1.91487   1.91781   1.91851   1.92246   1.92558
 Alpha virt. eigenvalues --    1.92850   1.93111   1.93547   1.93583   1.93833
 Alpha virt. eigenvalues --    1.94209   1.94887   1.94919   1.95382   1.96073
 Alpha virt. eigenvalues --    1.96624   1.96639   1.97114   1.97617   1.98055
 Alpha virt. eigenvalues --    1.98867   1.99142   1.99750   2.00256   2.01785
 Alpha virt. eigenvalues --    2.02235   2.02901   2.03189   2.03375   2.03493
 Alpha virt. eigenvalues --    2.04328   2.04652   2.05354   2.05418   2.06066
 Alpha virt. eigenvalues --    2.06500   2.06894   2.07176   2.07634   2.08187
 Alpha virt. eigenvalues --    2.08462   2.08671   2.09041   2.09265   2.09896
 Alpha virt. eigenvalues --    2.10163   2.10533   2.10941   2.11554   2.11804
 Alpha virt. eigenvalues --    2.12347   2.12851   2.13224   2.13615   2.13955
 Alpha virt. eigenvalues --    2.14512   2.14747   2.15147   2.15308   2.15827
 Alpha virt. eigenvalues --    2.16037   2.16604   2.17132   2.17498   2.17816
 Alpha virt. eigenvalues --    2.18436   2.18993   2.19078   2.19412   2.19650
 Alpha virt. eigenvalues --    2.20317   2.20792   2.21022   2.21521   2.21726
 Alpha virt. eigenvalues --    2.22075   2.22624   2.22955   2.23909   2.24016
 Alpha virt. eigenvalues --    2.24383   2.24780   2.25201   2.25582   2.25900
 Alpha virt. eigenvalues --    2.26130   2.26518   2.26961   2.27465   2.27587
 Alpha virt. eigenvalues --    2.27941   2.28225   2.28507   2.29109   2.29359
 Alpha virt. eigenvalues --    2.30536   2.31198   2.32152   2.32733   2.33072
 Alpha virt. eigenvalues --    2.33281   2.33579   2.34016   2.34448   2.35296
 Alpha virt. eigenvalues --    2.35944   2.36946   2.37973   2.39082   2.39767
 Alpha virt. eigenvalues --    2.40655   2.41513   2.41721   2.44220   2.45049
 Alpha virt. eigenvalues --    2.45610   2.46357   2.46555   2.47765   2.48085
 Alpha virt. eigenvalues --    2.48834   2.49389   2.49544   2.49686   2.50535
 Alpha virt. eigenvalues --    2.50916   2.51401   2.52367   2.53244   2.54199
 Alpha virt. eigenvalues --    2.57022   2.58285   2.59350   2.60267   2.60774
 Alpha virt. eigenvalues --    2.61806   2.62289   2.64079   2.64352   2.65320
 Alpha virt. eigenvalues --    2.65676   2.66586   2.66844   2.67318   2.68224
 Alpha virt. eigenvalues --    2.68526   2.70674   2.73139   2.75786   2.77198
 Alpha virt. eigenvalues --    2.77691   2.77976   2.78430   2.78657   2.79168
 Alpha virt. eigenvalues --    2.79497   2.80423   2.80575   2.80989   2.81477
 Alpha virt. eigenvalues --    2.82340   2.82750   2.83034   2.83910   2.85466
 Alpha virt. eigenvalues --    2.86785   2.87966   2.89934   2.91131   2.91449
 Alpha virt. eigenvalues --    2.93525   2.94977   2.95405   2.96247   2.97311
 Alpha virt. eigenvalues --    2.97949   2.99742   3.03715   3.04731   3.05917
 Alpha virt. eigenvalues --    3.06334   3.07014   3.08684   3.10023   3.11247
 Alpha virt. eigenvalues --    3.12892   3.14354   3.16841   3.21600   3.25856
 Alpha virt. eigenvalues --    3.31885   3.44853  12.76616
          Condensed to atoms (all electrons):
 Mulliken charges:
               1
     1  C    0.357617
     2  C    0.085531
     3  C   -0.081073
     4  C   -0.150097
     5  C   -0.187446
     6  C    0.341805
     7  C    0.026095
     8  C   -0.161216
     9  C   -0.143988
    10  C   -0.173007
    11  H    0.218307
    12  H    0.199347
    13  H    0.179033
    14  H    0.206789
    15  H    0.185151
    16  H    0.172824
    17  N   -0.528297
    18  N   -0.469984
    19  Ir  -0.356516
    20  O   -0.534388
    21  O   -0.518259
    22  O   -0.537670
    23  B    0.464878
    24  B    0.459831
    25  B    0.682874
    26  O   -0.529703
    27  O   -0.512057
    28  C    0.290621
    29  C    0.295899
    30  C    0.302189
    31  C    0.305395
    32  C    0.300884
    33  C    0.291143
    34  O   -0.506005
    35  C   -0.520207
    36  H    0.155429
    37  H    0.193441
    38  H    0.148338
    39  C   -0.506231
    40  H    0.169117
    41  H    0.149962
    42  H    0.164236
    43  C   -0.518222
    44  H    0.168685
    45  H    0.171179
    46  H    0.150601
    47  C   -0.485355
    48  H    0.140567
    49  H    0.173951
    50  H    0.154699
    51  C   -0.506863
    52  H    0.153091
    53  H    0.161357
    54  H    0.164999
    55  C   -0.507678
    56  H    0.172042
    57  H    0.177646
    58  H    0.150105
    59  C   -0.504648
    60  H    0.183083
    61  H    0.156268
    62  H    0.148853
    63  C   -0.510514
    64  H    0.175538
    65  H    0.149585
    66  H    0.170140
    67  C   -0.523847
    68  H    0.133176
    69  H    0.164321
    70  H    0.216736
    71  C   -0.505876
    72  H    0.148280
    73  H    0.153135
    74  H    0.168402
    75  C   -0.508975
    76  H    0.174270
    77  H    0.154738
    78  H    0.152963
    79  C   -0.511771
    80  H    0.164284
    81  H    0.149736
    82  H    0.167927
    83  H    0.188622
    84  C    0.597565
    85  O   -0.531817
    86  C   -0.412806
    87  H    0.158503
    88  H    0.180851
    89  C   -0.386328
    90  H    0.235862
    91  H    0.194982
    92  N   -0.369072
    93  C   -0.355350
    94  H    0.172441
    95  H    0.162999
    96  H    0.211533
    97  C   -0.470184
    98  H    0.184715
    99  H    0.148037
   100  C    0.971341
   101  F   -0.308071
   102  F   -0.308824
   103  F   -0.318643
   104  H    0.184571
   105  H    0.151876
 Sum of Mulliken charges =  -0.00000
 Mulliken charges with hydrogens summed into heavy atoms:
               1
     1  C    0.357617
     2  C    0.303838
     3  C   -0.081073
     4  C    0.049250
     5  C   -0.008413
     6  C    0.341805
     7  C    0.232884
     8  C    0.023355
     9  C    0.041163
    10  C   -0.000183
    17  N   -0.528297
    18  N   -0.469984
    19  Ir  -0.167894
    20  O   -0.534388
    21  O   -0.518259
    22  O   -0.537670
    23  B    0.464878
    24  B    0.459831
    25  B    0.682874
    26  O   -0.529703
    27  O   -0.512057
    28  C    0.290621
    29  C    0.295899
    30  C    0.302189
    31  C    0.305395
    32  C    0.300884
    33  C    0.291143
    34  O   -0.506005
    35  C   -0.023000
    39  C   -0.022916
    43  C   -0.027757
    47  C   -0.016137
    51  C   -0.027415
    55  C   -0.007885
    59  C   -0.016444
    63  C   -0.015252
    67  C   -0.009613
    71  C   -0.036060
    75  C   -0.027004
    79  C   -0.029823
    84  C    0.597565
    85  O   -0.531817
    86  C   -0.073453
    89  C    0.044516
    92  N   -0.369072
    93  C    0.191623
    97  C    0.014444
   100  C    0.971341
   101  F   -0.308071
   102  F   -0.308824
   103  F   -0.318643
 APT charges:
               1
     1  C    0.272587
     2  C    0.100673
     3  C   -0.237666
     4  C    0.137511
     5  C   -0.196645
     6  C    0.245720
     7  C    0.079885
     8  C   -0.089325
     9  C    0.134304
    10  C   -0.173274
    11  H    0.115602
    12  H    0.064411
    13  H    0.045760
    14  H    0.060030
    15  H    0.035660
    16  H    0.046208
    17  N   -0.176984
    18  N   -0.255206
    19  Ir  -0.692141
    20  O   -0.954328
    21  O   -0.958821
    22  O   -1.068190
    23  B    1.237872
    24  B    1.239703
    25  B    1.595089
    26  O   -1.041709
    27  O   -0.969767
    28  C    0.478217
    29  C    0.488994
    30  C    0.532074
    31  C    0.540436
    32  C    0.473549
    33  C    0.479083
    34  O   -0.958235
    35  C   -0.036712
    36  H   -0.012070
    37  H    0.035408
    38  H   -0.021902
    39  C   -0.004070
    40  H   -0.000698
    41  H   -0.017626
    42  H   -0.004210
    43  C   -0.006678
    44  H   -0.000554
    45  H    0.001710
    46  H   -0.019395
    47  C   -0.029214
    48  H   -0.028436
    49  H    0.007061
    50  H    0.008644
    51  C   -0.009835
    52  H   -0.013945
    53  H   -0.014540
    54  H   -0.001831
    55  C   -0.026585
    56  H   -0.003096
    57  H    0.009606
    58  H   -0.021513
    59  C   -0.023688
    60  H    0.009270
    61  H   -0.016276
    62  H   -0.021638
    63  C   -0.009392
    64  H    0.004311
    65  H   -0.017895
    66  H    0.008548
    67  C   -0.058459
    68  H   -0.031674
    69  H   -0.004820
    70  H    0.071401
    71  C   -0.009752
    72  H   -0.020637
    73  H   -0.007902
    74  H   -0.001079
    75  C   -0.063615
    76  H    0.007963
    77  H   -0.003672
    78  H   -0.028199
    79  C   -0.009908
    80  H    0.000244
    81  H   -0.023136
    82  H    0.009818
    83  H   -0.012491
    84  C    0.882709
    85  O   -0.721095
    86  C    0.003795
    87  H   -0.022674
    88  H   -0.022479
    89  C   -0.020409
    90  H    0.072108
    91  H   -0.057927
    92  N   -0.712488
    93  C    0.270775
    94  H   -0.011325
    95  H   -0.002798
    96  H    0.008310
    97  C    0.076492
    98  H    0.013659
    99  H   -0.014934
   100  C    1.775202
   101  F   -0.545936
   102  F   -0.560842
   103  F   -0.584784
   104  H    0.039964
   105  H   -0.033239
 Sum of APT charges =  -0.00000
 APT charges with hydrogens summed into heavy atoms:
               1
     1  C    0.272587
     2  C    0.216274
     3  C   -0.237666
     4  C    0.201922
     5  C   -0.150885
     6  C    0.245720
     7  C    0.139915
     8  C   -0.049361
     9  C    0.169964
    10  C   -0.127067
    17  N   -0.176984
    18  N   -0.255206
    19  Ir  -0.704632
    20  O   -0.954328
    21  O   -0.958821
    22  O   -1.068190
    23  B    1.237872
    24  B    1.239703
    25  B    1.595089
    26  O   -1.041709
    27  O   -0.969767
    28  C    0.478217
    29  C    0.488994
    30  C    0.532074
    31  C    0.540436
    32  C    0.473549
    33  C    0.479083
    34  O   -0.958235
    35  C   -0.035275
    39  C   -0.026605
    43  C   -0.024917
    47  C   -0.041944
    51  C   -0.040152
    55  C   -0.041588
    59  C   -0.052332
    63  C   -0.014428
    67  C   -0.023553
    71  C   -0.039370
    75  C   -0.087523
    79  C   -0.022982
    84  C    0.882709
    85  O   -0.721095
    86  C   -0.041359
    89  C   -0.006229
    92  N   -0.712488
    93  C    0.264962
    97  C    0.041978
   100  C    1.775202
   101  F   -0.545936
   102  F   -0.560842
   103  F   -0.584784
 Electronic spatial extent (au):  <R**2>=          27341.1003
 Charge=             -0.0000 electrons
 Dipole moment (field-independent basis, Debye):
    X=             -5.9436    Y=              1.4866    Z=             -0.5339  Tot=              6.1499
 Quadrupole moment (field-independent basis, Debye-Ang):
   XX=           -281.1593   YY=           -306.8740   ZZ=           -315.9973
   XY=             -6.5446   XZ=              2.8515   YZ=              6.2604
 Traceless Quadrupole moment (field-independent basis, Debye-Ang):
   XX=             20.1842   YY=             -5.5305   ZZ=            -14.6538
   XY=             -6.5446   XZ=              2.8515   YZ=              6.2604
 Octapole moment (field-independent basis, Debye-Ang**2):
  XXX=           -119.9225  YYY=            -17.0343  ZZZ=             10.6549  XYY=             11.2119
  XXY=             14.5185  XXZ=             -7.5084  XZZ=            -80.6271  YZZ=              4.1090
  YYZ=            -44.7078  XYZ=            -19.0997
 Hexadecapole moment (field-independent basis, Debye-Ang**3):
 XXXX=         -13413.2960 YYYY=         -11858.9651 ZZZZ=          -9199.1642 XXXY=            -91.2261
 XXXZ=            153.1617 YYYX=             -1.1498 YYYZ=             31.2334 ZZZX=            -70.8536
 ZZZY=             21.6620 XXYY=          -4344.3990 XXZZ=          -3741.9097 YYZZ=          -3556.0149
 XXYZ=            128.4519 YYXZ=            118.4146 ZZXY=            -32.1005
 N-N= 8.592964810577D+03 E-N=-2.299221232620D+04  KE= 2.410262871361D+03
  Exact polarizability:     532.096     -15.368     428.575       3.445      11.773     454.687
 Approx polarizability:     749.442     -36.671     580.621       5.120      28.255     730.411
   1 Symmetry operations used in ECPInt.
 ECPInt:  NShTT=   50086 NPrTT=  307226 LenC2=   38803 LenP2D=  120914.
 LDataN:  DoStor=T MaxTD1= 8 Len=  415
 Calling FoFJK, ICntrl=    100127 FMM=F ISym2X=0 I1Cent= 0 IOpClX= 0 NMat=1 NMatS=1 NMatT=0.
 Defaulting to unpruned grid for atomic number  77.
 Defaulting to unpruned grid for atomic number  77.
 Defaulting to unpruned grid for atomic number  77.
 Defaulting to unpruned grid for atomic number  77.
 Defaulting to unpruned grid for atomic number  77.
 Defaulting to unpruned grid for atomic number  77.
 Defaulting to unpruned grid for atomic number  77.
 Defaulting to unpruned grid for atomic number  77.
 Defaulting to unpruned grid for atomic number  77.
 Defaulting to unpruned grid for atomic number  77.
 Defaulting to unpruned grid for atomic number  77.
 Defaulting to unpruned grid for atomic number  77.
 Defaulting to unpruned grid for atomic number  77.
 Defaulting to unpruned grid for atomic number  77.
 Defaulting to unpruned grid for atomic number  77.
 Defaulting to unpruned grid for atomic number  77.
 Full mass-weighted force constant matrix:
 Low frequencies ---  -76.3035   -9.2898   -4.5979   -0.0007   -0.0006   -0.0004
 Low frequencies ---    3.2059   19.3999   21.4193
 ******    1 imaginary frequencies (negative Signs) ****** 
 Diagonal vibrational polarizability:
       93.5798424     145.8864725      66.6148544
 Harmonic frequencies (cm**-1), IR intensities (KM/Mole), Raman scattering
 activities (A**4/AMU), depolarization ratios for plane and unpolarized
 incident light, reduced masses (AMU), force constants (mDyne/A),
 and normal coordinates:
                      1                      2                      3
                      A                      A                      A
 Frequencies --    -76.3008                19.2743                21.3701
 Red. masses --      6.6205                 5.7405                 5.2095
 Frc consts  --      0.0227                 0.0013                 0.0014
 IR Inten    --      2.1676                 0.2011                 0.3112
  Atom AN      X      Y      Z        X      Y      Z        X      Y      Z
     1   6    -0.03  -0.01   0.00    -0.02   0.00  -0.04    -0.00   0.01  -0.01
     2   6    -0.03   0.03  -0.00    -0.03   0.04  -0.00    -0.01  -0.01   0.01
     3   6    -0.03   0.01   0.00    -0.05   0.08  -0.01    -0.03  -0.04   0.01
     4   6    -0.03  -0.02   0.00    -0.06   0.07  -0.04    -0.03  -0.03  -0.00
     5   6    -0.03  -0.03   0.00    -0.04   0.04  -0.05    -0.02  -0.00  -0.01
     6   6    -0.03  -0.02  -0.00    -0.00  -0.03  -0.05     0.00   0.01  -0.01
     7   6    -0.04  -0.04   0.01     0.05  -0.04  -0.05     0.02   0.00  -0.01
     8   6    -0.03   0.02  -0.01     0.04  -0.08  -0.07     0.02  -0.01  -0.02
     9   6    -0.02   0.06  -0.01     0.00  -0.11  -0.08     0.01  -0.01  -0.03
    10   6    -0.02   0.04  -0.01    -0.02  -0.08  -0.07     0.00   0.00  -0.02
    11   1    -0.03   0.07  -0.01    -0.03   0.04   0.02    -0.01  -0.01   0.02
    12   1    -0.03  -0.04   0.00    -0.07   0.10  -0.04    -0.04  -0.05  -0.00
    13   1    -0.03  -0.05   0.00    -0.04   0.04  -0.06    -0.02  -0.00  -0.02
    14   1    -0.05  -0.08   0.01     0.07  -0.02  -0.04     0.03   0.00  -0.01
    15   1    -0.01   0.10  -0.02    -0.01  -0.15  -0.09     0.00  -0.02  -0.03
    16   1    -0.01   0.07  -0.01    -0.04  -0.10  -0.08    -0.01   0.00  -0.03
    17   7    -0.03   0.02  -0.00    -0.02   0.01  -0.01    -0.00   0.01   0.00
    18   7    -0.04  -0.07   0.01     0.03  -0.01  -0.04     0.01   0.01  -0.01
    19  77    -0.01   0.07   0.01     0.02  -0.01  -0.01     0.01   0.00   0.01
    20   8     0.02  -0.01   0.02     0.02  -0.01   0.00    -0.01  -0.00   0.03
    21   8    -0.02  -0.01  -0.03     0.03  -0.00   0.08    -0.01   0.01  -0.07
    22   8    -0.05  -0.10  -0.01     0.02  -0.02  -0.05     0.03   0.03  -0.05
    23   5    -0.01  -0.00  -0.03     0.02   0.01   0.03     0.01   0.00  -0.02
    24   5     0.03  -0.03   0.02     0.02  -0.01   0.00     0.00   0.02   0.02
    25   5    -0.12  -0.30   0.05     0.01   0.01  -0.04     0.02   0.06  -0.02
    26   8    -0.07  -0.20   0.02    -0.02   0.01  -0.04    -0.02   0.04  -0.03
    27   8     0.03  -0.03   0.03     0.02  -0.01   0.00     0.00   0.03   0.02
    28   6     0.02  -0.01   0.02     0.03  -0.03   0.01    -0.00   0.03   0.04
    29   6     0.02  -0.01   0.02     0.03  -0.03   0.01    -0.01  -0.00   0.04
    30   6     0.00  -0.03  -0.03    -0.00  -0.03  -0.08     0.01   0.03  -0.07
    31   6    -0.03  -0.05  -0.02    -0.02  -0.01  -0.07    -0.02   0.04  -0.06
    32   6    -0.00  -0.01  -0.01     0.02   0.01   0.10     0.00  -0.00  -0.10
    33   6     0.01   0.00  -0.01    -0.01   0.04   0.08     0.04  -0.03  -0.07
    34   8     0.01   0.00  -0.01    -0.00   0.03   0.03     0.04  -0.01  -0.02
    35   6     0.01  -0.01   0.02     0.01  -0.04   0.01    -0.01  -0.02   0.02
    36   1     0.01  -0.01   0.02    -0.00  -0.04   0.00    -0.01  -0.04   0.02
    37   1     0.01  -0.01   0.02    -0.00  -0.04   0.00     0.00  -0.01   0.00
    38   1     0.02  -0.02   0.02     0.01  -0.06   0.02    -0.01  -0.02   0.03
    39   6     0.02  -0.01   0.01     0.05  -0.03   0.01    -0.01  -0.02   0.07
    40   1     0.02  -0.00   0.01     0.04  -0.03   0.01    -0.01  -0.04   0.07
    41   1     0.02  -0.01   0.01     0.05  -0.05   0.01    -0.01  -0.01   0.08
    42   1     0.02  -0.01   0.01     0.06  -0.02   0.01    -0.01  -0.01   0.09
    43   6     0.02   0.00   0.02     0.03  -0.04   0.01    -0.00   0.03   0.04
    44   1     0.04   0.01   0.04     0.02  -0.05   0.02    -0.00   0.03   0.03
    45   1     0.02  -0.02   0.02     0.03  -0.05   0.01    -0.00   0.05   0.04
    46   1     0.02   0.02  -0.00     0.04  -0.05   0.01    -0.00   0.03   0.05
    47   6     0.01  -0.02   0.01     0.05  -0.02   0.01    -0.00   0.04   0.07
    48   1    -0.00  -0.01   0.00     0.06  -0.03   0.01    -0.01   0.04   0.09
    49   1     0.01  -0.03   0.01     0.04  -0.02   0.01     0.00   0.06   0.07
    50   1     0.00  -0.03   0.01     0.05  -0.01   0.02    -0.01   0.03   0.07
    51   6     0.00   0.00  -0.02     0.01   0.00   0.14     0.00  -0.01  -0.15
    52   1     0.01   0.01  -0.00    -0.01   0.00   0.14     0.01  -0.03  -0.18
    53   1     0.00   0.01  -0.03     0.00  -0.01   0.16     0.02  -0.03  -0.15
    54   1    -0.01  -0.00  -0.02     0.04  -0.00   0.15    -0.03   0.01  -0.17
    55   6    -0.00  -0.02   0.00     0.04  -0.01   0.10    -0.03   0.02  -0.09
    56   1    -0.01  -0.03  -0.00     0.06  -0.03   0.11    -0.06   0.05  -0.11
    57   1    -0.01  -0.03   0.00     0.04  -0.01   0.07    -0.04   0.03  -0.05
    58   1     0.00  -0.02   0.01     0.03  -0.00   0.12    -0.03   0.02  -0.12
    59   6     0.01   0.01  -0.02    -0.03   0.07   0.09     0.08  -0.06  -0.09
    60   1     0.02   0.01  -0.01    -0.05   0.09   0.06     0.11  -0.07  -0.06
    61   1     0.01   0.00  -0.02    -0.03   0.06   0.08     0.07  -0.05  -0.09
    62   1     0.01   0.01  -0.01    -0.04   0.07   0.13     0.09  -0.07  -0.13
    63   6     0.01   0.01   0.00    -0.01   0.04   0.09     0.05  -0.03  -0.07
    64   1     0.01   0.01   0.00    -0.03   0.06   0.08     0.07  -0.05  -0.06
    65   1     0.01   0.01   0.01    -0.02   0.05   0.12     0.05  -0.04  -0.10
    66   1     0.00  -0.00   0.01    -0.00   0.02   0.08     0.03  -0.02  -0.06
    67   6    -0.15   0.03  -0.03    -0.03  -0.00  -0.07    -0.04   0.05  -0.07
    68   1    -0.14   0.12  -0.06    -0.03  -0.01  -0.09    -0.05   0.05  -0.10
    69   1    -0.18  -0.01  -0.02    -0.05   0.02  -0.06    -0.07   0.06  -0.06
    70   1    -0.23   0.01  -0.02    -0.01  -0.01  -0.05    -0.03   0.04  -0.05
    71   6     0.07  -0.03  -0.04    -0.05   0.00  -0.09    -0.04   0.05  -0.08
    72   1     0.10   0.06  -0.04    -0.05  -0.01  -0.11    -0.04   0.04  -0.10
    73   1     0.14  -0.08  -0.04    -0.05   0.00  -0.09    -0.04   0.05  -0.08
    74   1     0.06  -0.04  -0.03    -0.06   0.02  -0.08    -0.06   0.06  -0.07
    75   6     0.09  -0.05  -0.04    -0.01  -0.03  -0.09     0.02   0.02  -0.08
    76   1     0.10  -0.05  -0.04     0.01  -0.04  -0.09     0.04   0.02  -0.08
    77   1     0.11  -0.10  -0.03    -0.02  -0.02  -0.08     0.01   0.03  -0.06
    78   1     0.13  -0.00  -0.05    -0.02  -0.04  -0.11     0.00   0.02  -0.10
    79   6    -0.02   0.06  -0.06     0.01  -0.05  -0.10     0.02   0.02  -0.10
    80   1    -0.00   0.07  -0.06     0.03  -0.06  -0.10     0.05   0.01  -0.11
    81   1     0.01   0.10  -0.07    -0.01  -0.05  -0.11     0.01   0.02  -0.13
    82   1    -0.09   0.07  -0.06     0.02  -0.05  -0.09     0.02   0.02  -0.10
    83   1     0.09   0.05   0.02     0.02   0.01  -0.01     0.00   0.00   0.00
    84   6     0.11  -0.03   0.01     0.00  -0.01   0.04    -0.00   0.03   0.12
    85   8     0.14  -0.06   0.03     0.02   0.01   0.04     0.03   0.05   0.11
    86   6     0.07   0.04   0.02    -0.00  -0.05   0.08    -0.02   0.01   0.16
    87   1     0.08   0.05   0.03    -0.06  -0.03   0.09    -0.06   0.01   0.16
    88   1     0.02   0.03   0.01     0.04  -0.04   0.05    -0.01   0.01   0.15
    89   6     0.14  -0.14  -0.00    -0.00   0.01  -0.01     0.00   0.04   0.03
    90   1     0.07   0.13  -0.10     0.02  -0.00   0.01     0.05   0.00   0.06
    91   1    -0.03  -0.24   0.29     0.01   0.02  -0.04     0.03   0.06  -0.04
    92   7     0.10  -0.04  -0.02    -0.01   0.01   0.02    -0.02   0.02   0.08
    93   6     0.05  -0.08  -0.02    -0.02  -0.00   0.02    -0.05   0.02   0.08
    94   1     0.01  -0.12  -0.02    -0.07  -0.07   0.03    -0.06   0.02   0.05
    95   1     0.01  -0.04   0.01    -0.06   0.07  -0.01    -0.06   0.02   0.10
    96   1     0.07  -0.10  -0.03     0.05  -0.01   0.03    -0.07   0.02   0.07
    97   6     0.09   0.08   0.03     0.02  -0.12   0.13     0.01  -0.01   0.21
    98   1     0.08   0.07   0.03     0.07  -0.15   0.11     0.05  -0.02   0.20
    99   1     0.12   0.09   0.04    -0.02  -0.13   0.17    -0.00  -0.01   0.22
   100   6    -0.02   0.00  -0.00    -0.07   0.11   0.00    -0.04  -0.08   0.02
   101   9    -0.03   0.00  -0.01    -0.09   0.09   0.07    -0.07  -0.11   0.02
   102   9    -0.02   0.00  -0.01    -0.04   0.08  -0.04     0.00  -0.10   0.04
   103   9    -0.02   0.01  -0.00    -0.09   0.18  -0.01    -0.05  -0.08   0.02
   104   1    -0.02   0.04  -0.01     0.05  -0.10  -0.08     0.02  -0.02  -0.02
   105   1     0.07   0.11   0.04     0.02  -0.14   0.14    -0.01  -0.02   0.23
                      4                      5                      6
                      A                      A                      A
 Frequencies --     30.1119                30.8949                38.4459
 Red. masses --      4.2261                 5.2662                 8.3395
 Frc consts  --      0.0023                 0.0030                 0.0073
 IR Inten    --      0.8745                 0.6601                 0.0624
  Atom AN      X      Y      Z        X      Y      Z        X      Y      Z
     1   6    -0.00   0.03  -0.03    -0.01  -0.02  -0.03    -0.00  -0.06  -0.01
     2   6    -0.01  -0.03  -0.02    -0.01   0.03  -0.04     0.00  -0.03  -0.03
     3   6    -0.01  -0.00  -0.02    -0.01  -0.05  -0.03     0.01  -0.05  -0.03
     4   6    -0.01   0.05  -0.03    -0.02  -0.11  -0.03     0.01  -0.09  -0.01
     5   6    -0.01   0.06  -0.04    -0.01  -0.09  -0.03     0.01  -0.10  -0.01
     6   6     0.01   0.04  -0.04    -0.01  -0.02  -0.04    -0.01  -0.04  -0.01
     7   6    -0.00  -0.01  -0.03     0.01   0.02  -0.04    -0.01   0.03  -0.02
     8   6     0.02   0.07  -0.05    -0.00  -0.02  -0.04    -0.01   0.04  -0.01
     9   6     0.03   0.14  -0.06    -0.02  -0.06  -0.03    -0.01  -0.00   0.00
    10   6     0.03   0.13  -0.06    -0.02  -0.06  -0.03    -0.01  -0.04   0.00
    11   1    -0.01  -0.08  -0.01    -0.01   0.08  -0.04     0.00  -0.02  -0.04
    12   1    -0.01   0.07  -0.04    -0.02  -0.17  -0.02     0.02  -0.11  -0.01
    13   1    -0.01   0.10  -0.05    -0.02  -0.14  -0.03     0.01  -0.13   0.00
    14   1    -0.01  -0.07  -0.01     0.02   0.05  -0.05    -0.01   0.06  -0.04
    15   1     0.05   0.22  -0.08    -0.02  -0.09  -0.03    -0.01  -0.00   0.01
    16   1     0.04   0.19  -0.07    -0.03  -0.10  -0.02    -0.00  -0.07   0.01
    17   7    -0.00  -0.02  -0.02    -0.01   0.03  -0.04    -0.00  -0.04  -0.02
    18   7    -0.01  -0.02  -0.02     0.00   0.01  -0.04    -0.01  -0.00  -0.02
    19  77     0.00  -0.04  -0.02     0.00   0.04  -0.03    -0.00  -0.01  -0.02
    20   8    -0.03  -0.01  -0.02     0.03   0.02  -0.04    -0.06   0.03  -0.01
    21   8    -0.02  -0.04   0.02     0.01   0.02   0.02     0.01  -0.00  -0.01
    22   8     0.04   0.03  -0.01    -0.02   0.02   0.05    -0.02  -0.02  -0.01
    23   5    -0.02  -0.03  -0.00    -0.00   0.03  -0.02     0.01  -0.00  -0.01
    24   5    -0.01  -0.01  -0.02     0.01   0.02  -0.04    -0.01  -0.00   0.00
    25   5     0.03   0.01  -0.01    -0.01  -0.01   0.03    -0.01  -0.01  -0.02
    26   8     0.03  -0.01   0.01     0.02  -0.03   0.05    -0.01  -0.01  -0.01
    27   8    -0.01   0.00  -0.02     0.01   0.01  -0.05     0.03  -0.02   0.05
    28   6    -0.03   0.01  -0.02     0.02   0.00  -0.05     0.01  -0.01   0.06
    29   6    -0.03   0.01  -0.02     0.03   0.01  -0.05    -0.06   0.03   0.04
    30   6     0.04   0.03   0.00    -0.01  -0.00   0.10    -0.01  -0.01  -0.00
    31   6     0.03  -0.00   0.00     0.02  -0.04   0.09    -0.00  -0.01  -0.01
    32   6    -0.01  -0.03   0.06     0.00   0.03   0.04     0.03   0.00   0.01
    33   6    -0.02   0.01   0.05    -0.03   0.05   0.02     0.05   0.02   0.01
    34   8    -0.03  -0.01   0.01    -0.02   0.05  -0.02     0.03   0.01   0.01
    35   6    -0.02   0.02  -0.01     0.03   0.01  -0.05    -0.10   0.05   0.10
    36   1    -0.02   0.02  -0.01     0.03   0.02  -0.04    -0.14   0.07   0.08
    37   1     0.00   0.02  -0.01     0.02   0.01  -0.04    -0.08   0.03   0.12
    38   1    -0.02   0.04  -0.01     0.03   0.01  -0.06    -0.10   0.05   0.14
    39   6    -0.06   0.01  -0.02     0.03   0.01  -0.06    -0.09   0.05   0.01
    40   1    -0.06   0.01  -0.02     0.03   0.02  -0.06    -0.14   0.08  -0.00
    41   1    -0.06   0.03  -0.01     0.03   0.01  -0.06    -0.09   0.04   0.05
    42   1    -0.06   0.00  -0.03     0.04   0.02  -0.06    -0.06   0.04  -0.04
    43   6    -0.02   0.03  -0.01     0.01  -0.01  -0.06     0.02  -0.03   0.13
    44   1    -0.01   0.03  -0.00     0.01  -0.01  -0.07    -0.00  -0.01   0.18
    45   1    -0.02   0.02  -0.01     0.01  -0.01  -0.06     0.07  -0.06   0.14
    46   1    -0.03   0.04  -0.01     0.02  -0.02  -0.06    -0.00  -0.01   0.14
    47   6    -0.04   0.01  -0.02     0.02   0.00  -0.06     0.04  -0.03   0.01
[...]
 0.00000009,0.00000029,-0.00000269,-0.00000159,-0.00000086,0.00000018,-
 0.00000082,0.00000017,0.00000049,-0.00000106,-0.00000135,-0.00000021,0
 .00000064,-0.00000026,0.00000049,-0.00000048,-0.00000029,-0.00000162,-
 0.00000094,0.00000106,-0.00002950,0.00000047,0.00000753,0.00029881,0.0
 0017391,-0.00001598,-0.00010986,-0.00010299,-0.00004129,-0.00004311,-0
 .00006867,0.00011525,0.00008949,0.00000932,-0.00009873,-0.00002213,0.0
 0001810,-0.00003321,0.00004383,-0.00000617,0.00003970,0.00001118,0.000
 00105,-0.00001308,-0.00001677,-0.00001245,0.00000535,-0.00012209,-0.00
 018838,0.00000204,0.00001083,0.00004277,0.00005429,-0.00000597,0.00000
 046,-0.00000827,-0.00000426,-0.00002837,-0.00000441,0.00000787,0.00001
 343,0.00000776,-0.00002888,0.00002107,-0.00004833,-0.00001107,0.000029
 67,-0.00002063,0.00003672,0.00005898,0.00005749,0.00003460,0.00005904,
 0.00001354,-0.00001959,-0.00000073,-0.00000929,-0.00000784,-0.00001201
 ,0.00000341,-0.00000462,-0.00000774,-0.00000277,0.00182620,0.02844282,
 0.00004720,0.00029450,0.00004731,-0.00001000,-0.00000416,-0.00002165,-
 0.00005686,0.00000618,-0.00000630,0.00003103,0.00000831,0.00004868,-0.
 00000464,0.00000077,-0.00010845,0.00101254,-0.00013762,0.00004753,0.00
 267241,-0.00009070,0.00322115,-0.12602331,-0.01790712,-0.26615542,-0.0
 1559912,-0.00000312,-0.01622031,0.00304870,-0.00284201,-0.00220841,0.0
 0000171,-0.00000228,-0.00000608,0.00000039,0.00000318,-0.00000385,-0.0
 0002726,-0.00002944,0.00006036,-0.00017081,0.00067749,0.00005427,0.000
 19539,0.00095798,0.00084059,-0.00082887,-0.00000477,-0.00075293,-0.000
 02414,0.00000380,-0.00004525,0.00032666,-0.00130837,0.00202853,0.00007
 326,-0.00003823,0.00000466,-0.00005046,-0.00004415,-0.00001322,0.00001
 780,-0.00009345,0.00004828,-0.00006535,0.00005009,-0.00000134,-0.00001
 157,0.00013190,-0.00007419,0.00007271,0.00010524,0.00002262,0.00007554
 ,-0.00016371,-0.00002724,-0.00003644,0.00005022,0.00004024,-0.00007462
 ,-0.00004781,0.00000876,0.00001458,0.00002405,0.00000599,0.00003013,0.
 00000687,0.00000470,0.00002517,-0.00001803,-0.00001620,0.00002856,-0.0
 0000675,-0.00000557,-0.00002452,0.00007168,-0.00001955,-0.00003034,0.0
 0002188,-0.00001914,0.00001522,-0.00007167,0.00004931,-0.00000362,-0.0
 0000087,-0.00000275,0.00000197,0.00000081,0.00000241,0.00000272,-0.000
 00107,0.00000029,-0.00000447,-0.00000096,-0.00000012,-0.00000381,0.000
 00027,-0.00000318,0.00000195,0.00000074,0.00000078,-0.00000316,-0.0000
 0235,-0.00000030,0.00000117,-0.00000021,0.00000047,-0.00000164,-0.0000
 0448,0.00000048,0.00000130,0.00000025,-0.00000044,-0.00000044,0.000000
 84,0.00000219,-0.00000303,-0.00000110,-0.00000110,-0.00000378,-0.00000
 379,-0.00000043,-0.00000127,-0.00000395,-0.00000037,-0.00000002,0.0000
 0101,0.00000152,0.00000005,0.00000182,-0.00000149,-0.00000777,-0.00003
 008,-0.00003986,0.00000488,0.00000018,0.00001046,-0.00002381,-0.000050
 50,0.00000833,0.00000179,0.00001382,0.00000473,0.00001245,-0.00001400,
 -0.00000033,-0.00000210,0.00000502,0.00000211,0.00000622,0.00000366,0.
 00000283,-0.00000297,-0.00000617,0.00000064,-0.00000729,-0.00001458,0.
 00000134,0.00001112,0.00000697,-0.00000316,-0.00005621,-0.00001093,-0.
 00000815,0.00000140,-0.00000776,0.00000721,0.00000463,-0.00000005,0.00
 000799,-0.00000179,-0.00000017,0.00000007,0.00000065,-0.00000513,0.000
 00114,0.00000222,0.00000385,0.00000031,-0.00000334,0.00000069,0.000000
 20,-0.00000376,0.00000039,0.00000061,0.00000148,-0.00000009,0.00000062
 ,0.00000364,-0.00000066,-0.00000283,-0.00000371,-0.00000030,0.00000154
 ,-0.00000211,0.00000209,0.00000064,0.00000080,0.00000086,-0.00000185,0
 .00000076,-0.00000059,0.00000198,-0.00000676,0.00000614,0.00000236,0.0
 0000102,-0.00000136,0.00000026,0.00000108,-0.00000226,-0.00000022,-0.0
 0000282,0.00000425,0.00000029,-0.00000188,0.00000251,0.00000036,0.0000
 0050,-0.00000115,-0.00000078,-0.00000289,0.00000150,0.00000126,0.00000
 170,-0.00000039,-0.00000071,0.00000274,0.00000752,0.00001014,-0.000186
 43,-0.00013577,-0.00005761,0.00007108,0.00010409,0.00006012,0.00001255
 ,0.00004162,-0.00003059,-0.00008332,0.00004203,0.00002403,0.00001842,-
 0.00001387,0.00002151,-0.00001209,-0.00000603,-0.00000914,-0.00000279,
 -0.00001063,0.00000559,0.00001337,0.00001443,-0.00000134,0.00008105,0.
 00009578,-0.00000253,-0.00000403,-0.00002448,-0.00002210,0.00000145,0.
 00000166,0.00000176,0.00000332,0.00001392,0.00000848,-0.00000233,-0.00
 000130,-0.00000455,0.00001805,-0.00002030,0.00002108,0.00001506,-0.000
 02923,0.00001600,-0.00004849,-0.00004261,-0.00008287,0.00006991,-0.000
 00459,0.00007970,-0.00002857,0.00001411,-0.00001683,-0.00003106,-0.000
 01672,-0.00001883,-0.00000939,-0.00000043,-0.00003035,0.13550880,0.020
 39855,0.27920288,-0.00003614,0.00004788,-0.00000928,0.00001580,0.00000
 869,0.00001580,-0.00000120,0.00000054,-0.00000505,0.00000911,0.0000007
 1,0.00000147,-0.00001060,-0.00000940,0.00000450,-0.00003857,0.00006829
 ,0.00004445,-0.00006366,0.00002845,-0.00005192,-0.00001600,0.00001343,
 -0.00003219,0.00000527,-0.00000002,-0.00001545,0.00002633,-0.00001087,
 0.00000072,0.00000446,0.00000731,0.00000418,0.00000043,0.00000090,-0.0
 0000082,0.00000218,0.00000021,-0.00000252,-0.00001127,0.00001786,-0.00
 001690,0.00001264,-0.00001682,-0.00000669,0.00000036,-0.00000891,-0.00
 000360,0.00001425,-0.00001997,0.00002533,0.00004902,-0.00005155,0.0000
 2405,-0.00015864,-0.00011528,0.00001855,-0.00006937,-0.00005715,-0.000
 03700,0.00005486,-0.00013823,0.00002228,-0.00021162,-0.00001334,0.0000
 1703,0.00001223,0.00017950,-0.00007355,0.00014391,0.00008407,0.0000204
 9,0.00027253,0.00025018,-0.00021258,-0.00014568,0.00000096,0.00008037,
 -0.00007578,-0.00005308,0.00000818,0.00002432,0.00003369,0.00001056,0.
 00003649,0.00001681,0.00000054,0.00005412,-0.00005819,-0.00002839,0.00
 008890,-0.00001876,-0.00001774,0.00000419,0.00004830,-0.00001752,-0.00
 003275,0.00003558,-0.00002101,0.00001367,-0.00011296,0.00006143,-0.000
 00696,0.00000100,0.00000160,0.00000273,0.00000061,0.00000085,0.0000066
 2,0.00000047,0.00000106,-0.00000647,-0.00000166,-0.00000097,-0.0000026
 5,-0.00000148,-0.00000110,0.00000197,0.00000124,-0.00000095,-0.0000044
 1,-0.00000270,-0.00000057,0.00000198,-0.00000081,0.00000113,-0.0000035
 9,-0.00000204,-0.00000134,0.00000305,0.00000070,0.00000124,0.00000051,
 0.00000189,0.00000245,-0.00000350,-0.00000369,-0.00000206,-0.00000163,
 -0.00000506,-0.00000155,-0.00000338,-0.00000561,-0.00000103,0.00000104
 ,0.00000184,0.00000128,0.00000102,0.00000343,0.00000032,-0.00000034,-0
 .00000847,0.00000114,0.00000239,-0.00000659,0.00000257,-0.00000061,0.0
 0000314,-0.00000048,0.00000093,0.00000216,-0.00000224,-0.00000073,-0.0
 0000826,0.00000388,-0.00000017,0.00000316,-0.00000053,0.00000307,0.000
 00310,0.00000028,-0.00000152,-0.00000781,0.,0.00000727,-0.00000219,0.0
 0000389,-0.00000315,0.00000187,-0.00000088,-0.00000416,0.00000092,-0.0
 0000419,0.00000482,-0.00000620,0.00000346,0.00000416,-0.00000314,0.000
 00370,-0.00000299,0.00000133,0.00000092,0.00000195,-0.00000615,0.00000
 123,-0.00000023,0.00000237,-0.00000047,-0.00001212,0.00000233,0.000001
 56,-0.00001193,-0.00000204,0.00000302,0.00000415,-0.00000001,0.0000023
 6,0.00000316,0.00000215,-0.00000237,-0.00000546,0.00000879,-0.00000044
 ,-0.00001010,0.00000198,0.00000088,0.00000368,-0.00000918,-0.00000104,
 0.00000475,-0.00000186,0.00000374,0.00000740,0.00002434,0.00001169,0.0
 0000450,-0.00000414,-0.00000058,-0.00000599,-0.00001832,-0.00000807,-0
 .00001668,0.00000211,0.00000258,-0.00000662,0.00000523,0.00000443,0.00
 000073,-0.00000085,-0.00000398,-0.00000879,0.00000289,0.00000179,0.000
 00017,-0.00000283,0.00000064,-0.00000162,0.00000823,-0.00000232,-0.002
 25359,0.00165782,0.00412231,0.00003881,-0.00015787,0.00034133,-0.02031
 958,-0.01079292,-0.01542427,0.00093646,-0.00037479,0.00006715,0.000889
 09,0.00039860,-0.00053425,-0.00012148,0.00008456,0.00052926,0.00005205
 ,0.00003119,0.00001766,-0.00014879,-0.00007356,-0.00002052,-0.00186078
 ,-0.00092884,-0.00090867,0.00001367,-0.00021436,-0.00050574,-0.0000507
 8,0.00005485,0.00006601,0.00008970,0.00001396,-0.00004221,-0.00001867,
 -0.00000278,0.00009668,-0.20371843,-0.07934241,-0.10442846,-0.00091736
 ,0.00011930,0.00035468,0.00534046,0.00244287,0.00413579,0.00003527,0.0
 0002353,0.00007270,-0.00000988,-0.00000413,-0.00001640,-0.00001777,-0.
 00001473,-0.00001453,-0.00000116,-0.00000449,-0.00003579,0.00000416,-0
 .00003557,0.00003097,0.22211857,0.00004110,0.00003256,0.00005439,0.000
 00415,0.00000359,-0.00000871,-0.00002630,0.00000311,-0.00000440,0.0000
 1842,-0.00000199,0.00002230,-0.00000110,-0.00001287,-0.00003358,0.0001
 1348,0.00006776,0.00005741,-0.00003454,0.00002627,-0.00008646,0.000016
 51,-0.00000036,-0.00012701,-0.00015267,0.00003241,-0.00004650,-0.00000
 034,-0.00003949,0.00009840,0.00000225,0.00000132,-0.00000266,0.0000003
 1,0.00000074,-0.00000140,-0.00000569,0.00001725,0.00001632,-0.00001561
 ,-0.00000855,0.00000779,0.00002548,-0.00005342,-0.00001735,-0.00000661
 ,0.00002475,0.00000468,-0.00001297,-0.00000591,-0.00000871,0.00004568,
 -0.00001271,0.00004232,0.00000372,-0.00002206,0.00000447,-0.00003092,-
 0.00002409,-0.00000546,-0.00000180,-0.00005359,0.00001618,-0.00003317,
 0.00001472,-0.00000162,0.00001201,0.00005910,-0.00003584,0.00004480,0.
 00003625,-0.00000812,0.00007010,-0.00002080,-0.00001306,-0.00003995,0.
 00001202,0.00002365,-0.00003381,-0.00002058,0.00000662,0.00000876,0.00
 001235,0.00000261,0.00001783,0.00000611,0.00000158,0.00001372,-0.00000
 642,-0.00000782,0.00002377,-0.00000450,-0.00000359,-0.00000247,0.00003
 248,-0.00001083,-0.00001346,0.00001392,-0.00000987,0.00000191,-0.00004
 100,0.00002980,-0.00000219,-0.00000036,-0.00000117,0.00000116,0.000000
 69,0.00000156,0.00000219,-0.00000033,-0.00000007,-0.00000283,-0.000000
 62,0.,-0.00000170,-0.00000049,-0.00000136,0.00000109,0.00000075,0.0000
 0039,-0.00000213,-0.00000125,-0.00000016,0.00000097,-0.00000016,0.0000
 0041,-0.00000095,-0.00000125,0.00000019,0.00000094,0.00000013,0.000000
 08,-0.00000015,0.00000065,0.00000135,-0.00000141,-0.00000108,-0.000000
 86,-0.00000085,-0.00000200,-0.00000027,-0.00000124,-0.00000218,-0.0000
 0045,0.00000027,0.00000071,0.00000092,0.00000024,0.00000139,-0.0000002
 6,0.00000230,-0.00000291,0.00000054,-0.00000067,-0.00000433,0.00000148
 ,-0.00000326,-0.00000187,-0.00000109,-0.00000031,0.00000259,-0.0000005
 7,0.00000028,-0.00000427,0.00000138,-0.00000062,0.00000233,0.00000047,
 0.00000156,0.00000125,-0.00000024,-0.00000096,-0.00000392,0.00000033,0
 .00000488,0.00000330,0.00000239,-0.00000257,-0.00000015,0.00000040,-0.
 00000167,0.00000129,-0.00000455,0.00000152,-0.00000437,0.00000142,0.00
 000058,-0.00000027,0.00000208,-0.00000171,0.00000033,0.00000070,0.0000
 0103,-0.00000255,0.00000021,0.00000016,0.00000098,-0.00000007,-0.00000
 300,-0.00000030,-0.00000050,-0.00000313,-0.00000023,0.00000078,0.00000
 131,0.00000021,0.00000085,0.00000162,-0.00000021,-0.00000115,-0.000001
 38,0.00000223,-0.00000126,-0.00000246,0.00000080,0.00000027,0.00000055
 ,-0.00000187,0.00000037,0.00000123,-0.00000028,0.00000100,-0.00000057,
 0.00000398,0.00000295,0.00000097,-0.00000098,0.00000004,-0.00000110,-0
 .00000280,-0.00000119,-0.00000259,0.00000169,0.00000044,-0.00000093,-0
 .00000018,-0.00000011,0.00000027,-0.00000037,-0.00000080,-0.00000146,0
 .00000105,0.00000075,0.00000027,-0.00000097,-0.00000007,0.00000206,0.0
 0000368,0.00000810,0.00132830,0.00015556,-0.00171397,-0.00089988,0.000
 61700,0.00035706,0.00476969,0.00108418,0.00299472,-0.00037927,-0.00011
 809,0.00001513,-0.00019049,0.00027477,0.00053096,0.00006118,-0.0000045
 4,-0.00001630,0.00001727,0.00000674,0.00000581,0.00000246,0.00001256,-
 0.00000066,0.00007833,0.00025580,0.00035880,-0.00002083,-0.00001771,0.
 00002552,-0.00000682,0.00000296,0.00000829,-0.00000963,0.00000646,-0.0
 0002333,-0.00000968,-0.00000574,0.00001071,-0.07998021,-0.08935354,-0.
 05258797,0.01271173,0.00602324,0.00673527,-0.02449134,-0.00958990,-0.0
 1559833,0.00004351,0.00001022,0.00005236,-0.00001681,0.00000447,-0.000
 01161,-0.00001931,-0.00001242,-0.00001109,-0.00000463,-0.00000229,-0.0
 0002105,-0.00000658,-0.00006425,0.00007881,0.08698478,0.09065866,0.000
 02071,0.00002861,0.00001885,0.00000887,0.00000407,-0.00000407,-0.00001
 820,0.00000216,-0.00000404,0.00001233,-0.00000204,0.00002452,-0.000001
 50,-0.00001733,-0.00001865,0.00004694,0.00004245,-0.00000933,0.0000123
 2,0.00000167,-0.00000524,-0.00000660,-0.00004187,-0.00003455,-0.000086
 58,0.00000723,-0.00000173,-0.00000767,-0.00002823,0.00003688,0.0000042
 0,0.00000184,-0.00000372,0.00000107,0.00000375,0.00000128,-0.00000986,
 0.00002231,0.00001155,0.00000643,-0.00000037,-0.00000157,0.00000698,-0
 .00001321,0.00000055,-0.00000993,0.00001931,-0.00000201,-0.00000721,-0
 .00000619,-0.00001650,0.00000826,-0.00002424,0.00000627,0.00001289,0.0
 0000180,-0.00000092,-0.00003456,-0.00002418,-0.00000292,-0.00000408,-0
 .00003879,0.00001108,-0.00001088,0.00001909,-0.00000700,0.00000664,0.0
 0004312,-0.00002491,0.00004801,0.00003017,-0.00001071,0.00005448,-0.00
 003966,0.00004746,-0.00005262,0.00000958,0.00001861,-0.00003608,-0.000
 01912,0.00000646,0.00001025,0.00001212,0.00000283,0.00002079,0.0000070
 0,0.00000260,0.00001293,0.00000037,-0.00000489,0.00002951,-0.00000794,
 -0.00000295,-0.00000076,0.00002694,-0.00000657,-0.00000574,0.00001157,
 -0.00000353,-0.00000329,-0.00003150,0.00001974,-0.00000193,-0.00000038
 ,-0.00000226,0.00000139,0.00000116,0.00000212,0.00000225,-0.00000058,-
 0.00000048,-0.00000351,-0.00000090,0.00000027,-0.00000144,-0.00000083,
 -0.00000176,0.00000142,0.00000098,0.00000056,-0.00000271,-0.00000133,0
 .00000003,0.00000104,0.00000017,0.00000041,-0.00000109,-0.00000084,0.0
 0000067,0.00000083,0.00000039,-0.00000011,0.00000001,0.00000067,0.0000
 0155,-0.00000146,-0.00000135,-0.00000111,-0.00000055,-0.00000158,-0.00
 000007,-0.00000159,-0.00000236,-0.00000075,0.00000083,0.00000072,0.000
 00082,0.00000016,0.00000166,0.00000035,0.00000289,-0.00000096,0.000001
 55,-0.00000111,-0.00000381,0.00000175,-0.00000243,-0.00000006,-0.00000
 234,-0.00000020,0.00000278,-0.00000053,-0.00000024,-0.00000249,-0.0000
 0047,-0.00000048,0.00000226,0.00000021,0.00000085,0.00000115,-0.000000
 46,-0.00000061,-0.00000372,0.00000099,0.00000371,0.00000315,-0.0000014
 4,-0.00000093,0.00000079,-0.00000007,-0.00000247,-0.00000098,-0.000000
 16,0.00000133,-0.00000301,0.00000083,-0.00000123,-0.00000023,0.0000002
 3,-0.00000099,0.00000070,0.00000095,0.00000135,-0.00000182,0.00000022,
 -0.00000073,-0.00000002,-0.00000075,-0.00000341,0.00000020,0.00000063,
 -0.00000411,-0.00000014,0.00000066,0.00000175,-0.00000009,-0.00000018,
 0.00000201,-0.00000039,-0.00000071,-0.00000165,0.00000317,0.,-0.000003
 74,0.00000058,-0.00000005,0.00000125,-0.00000254,0.00000034,0.00000205
 ,-0.00000063,0.00000011,0.00000003,0.00000354,0.00000122,0.00000201,-0
 .00000078,0.00000021,-0.00000085,-0.00000358,-0.00000171,-0.00000347,0
 .00000151,0.00000136,0.00000006,-0.00000200,-0.00000198,0.00000033,-0.
 00000058,-0.00000109,-0.00000084,0.00000129,0.00000148,0.00000015,-0.0
 0000094,-0.00000005,0.00000313,0.00000357,0.00000598,0.00329791,-0.001
 76575,-0.00484903,-0.00227882,-0.00006102,0.00143708,0.01612333,0.0078
 2490,0.00922595,-0.00084678,0.00031478,0.00062909,-0.00098020,0.000016
 43,0.00052452,0.00018169,0.00002392,-0.00015408,0.00003601,0.00001649,
 0.00001454,0.00002932,0.00002204,0.00000632,0.00067075,0.00055113,0.00
 111355,-0.00008197,0.00007553,0.00015537,-0.00001796,0.00000039,-0.000
 00446,-0.00004366,-0.00004236,-0.00000370,0.00000427,0.00000359,0.0000
 0742,-0.10512567,-0.05240806,-0.11736147,-0.02091770,-0.01320476,-0.01
 177143,-0.00232156,-0.00021085,-0.00296269,0.00005527,0.00002380,0.000
 05778,-0.00001927,0.00000113,-0.00001299,-0.00002517,-0.00001879,-0.00
 001228,-0.00000734,-0.00000483,-0.00002302,-0.00000966,0.00001063,0.00
 000021,0.11226206,0.05883964,0.12393348\\-0.00000120,0.00000232,-0.000
 00372,0.00000399,0.00000255,-0.00000737,-0.00000833,0.00000127,0.00000
 441,-0.00001012,0.00000461,-0.00000195,0.00000410,0.00000275,0.0000015
 2,0.00000025,0.00000178,-0.00001201,0.00000099,0.00000003,-0.00000677,
 -0.00000297,0.00000265,-0.00000919,0.00000425,0.00000215,-0.00000510,0
 .00000153,0.00000446,-0.00000077,-0.00000640,-0.00000006,0.00000247,-0
 .00000486,0.00000299,-0.00000580,-0.00000648,0.00000397,-0.00000457,0.
 00000170,0.00000180,-0.00000192,-0.00000303,0.00000484,-0.00000865,-0.
 00000113,0.00000303,-0.00000814,-0.00000665,-0.00000024,-0.00000031,-0
 .00000098,0.00000390,0.00000521,-0.00000268,-0.00000172,-0.00000106,-0
 .00000280,-0.00000057,-0.00000092,-0.00000098,0.00000404,-0.00000182,0
 .00000197,-0.00000123,0.00000439,0.00000657,-0.00000143,-0.00000423,0.
 00000600,-0.00000057,-0.00000177,-0.00000356,-0.00000160,0.00000019,-0
 .00000048,-0.00000299,0.00000173,-0.00000123,-0.00000150,0.00000685,-0
 .00000199,-0.00000553,0.00000342,0.00000313,0.00000071,0.00000703,-0.0
 0000386,-0.00000596,0.00000161,0.00000251,0.00000485,0.00000809,0.0000
 0322,-0.00000295,-0.00000310,0.00000585,0.00000302,-0.00000458,0.00000
 235,-0.00000063,0.00000190,0.00000084,-0.00000082,-0.00000033,-0.00000
 365,-0.00000099,0.00000610,-0.00000249,-0.00000339,0.00000369,-0.00000
 305,-0.00000212,0.00000578,0.00000254,0.00000056,-0.00000277,-0.000002
 98,-0.00000106,0.00000464,-0.00000134,-0.00000270,0.00000316,0.0000012
 4,-0.00000192,0.00000236,0.00000702,-0.00000484,0.00000316,-0.00000044
 ,-0.00000046,0.00000450,0.00000268,-0.00000389,0.00000718,0.00000055,-
 0.00000512,0.00000454,0.00000342,0.00000204,-0.00000112,0.00000250,-0.
 00000442,0.00000234,0.00000465,-0.00000314,0.00000493,0.00000180,-0.00
 000136,0.00000056,0.00000493,0.00000127,-0.00000690,0.00000454,0.00000
 065,-0.00000400,0.00000600,0.00000433,-0.00000445,0.00000292,0.0000027
 3,-0.00000692,-0.00000403,0.00000731,0.00000173,0.00000430,0.00000190,
 -0.00000839,0.00000508,-0.00000077,-0.00000160,0.00000422,-0.00000346,
 -0.00000193,0.00000474,0.00000371,-0.00000297,0.00000767,-0.00000079,-
 0.00000389,0.00000246,-0.00000255,-0.00000280,0.00000750,-0.00000028,-
 0.00000394,0.00000821,-0.00000230,0.00000208,0.00000674,-0.00000139,-0
 .00000175,0.00000635,-0.00000005,-0.00000332,0.00000297,-0.00000156,-0
 .00000328,0.00000541,-0.00000390,0.00000813,-0.00000091,-0.00000311,0.
 00000565,0.00000185,-0.00000329,0.00000216,0.00000156,-0.00000456,0.00
 000326,-0.00000469,-0.00000630,0.00000230,0.00000040,-0.00000402,0.000
 00625,0.00000098,-0.00000126,0.00000394,0.00000230,-0.00000277,0.00000
 600,-0.00000682,0.00000096,0.00000128,-0.00000360,-0.00000166,0.000007
 82,-0.00000051,-0.00000042,0.00000401,-0.00000293,-0.00000296,0.000005
 98,-0.00000099,-0.00000983,0.00000464,-0.00000276,-0.00000174,0.000007
 10,-0.00000449,-0.00000062,0.00000840,0.00000081,0.00000021,0.00000531
 ,0.00000211,-0.00000043,0.00000005,-0.00000321,0.00000541,0.00000632,-
 0.00000333,-0.00000148,-0.00001088,-0.00000424,0.00001013,-0.00000246,
 -0.00000137,0.00000041,-0.00000006,-0.00000200,-0.00000314,-0.00000400
 ,-0.00000587,0.00000470,-0.00000568,-0.00000340,0.00000263,0.00000371,
 0.00000018,-0.00000430,0.00000226,0.00000052,0.00000266,0.00000464,0.0
 0000360,-0.00000026,-0.00000743,-0.00000396,0.00000171,0.00000181,-0.0
 0000042,0.00000089,-0.00000045,-0.00000029,-0.00000294,0.00000265,0.00
 000069,0.00000971,-0.00000619,-0.00000387,0.00000276,-0.00000258,-0.00
 000147,0.00000015,-0.00000543,-0.00000545,-0.00000063,-0.00000204,-0.0
 0000756,0.00000402,0.00000287,-0.00000415,0.00000084,0.00000042,-0.000
 00692,0.00000180,0.00000006,0.00000432,0.00000287,-0.00000387,-0.00000
 607,0.00000193,-0.00000745\\\@
 The archive entry for this job was punched.


 A MAN THINKING OR WORKING IS ALWAYS ALONE, 
 LET HIM BE WHERE HE WILL.

                                    -- THOREAU
 Job cpu time:       1 days 19 hours 27 minutes 17.5 seconds.
 Elapsed time:       0 days  2 hours 45 minutes 58.1 seconds.
 File lengths (MBytes):  RWF=   8253 Int=      0 D2E=      0 Chk=     49 Scr=      1
 Normal termination of Gaussian 16 at Sat Dec  7 21:50:46 2024.
