/mnt/lustre/scratch/nvme/SLURM/9663713/usccqdma.N898G12gMj
OMP_STACKSIZE=0m
GAUSS_PDEF=16
GAUSS_MDEF=65536MB
GAUSS_RDEF=SCF=Direct
 Entering Gaussian System, Link 0=g16.exe
 Initial command:
 /opt/cesga/2020/software/Core/g16/c1/l1.exe "/mnt/lustre/scratch/nvme/SLURM/9663713/usccqdma.N898G12gMj/Gau-2728821.inp" -scrdir="/mnt/lustre/scratch/nvme/SLURM/9663713/usccqdma.N898G12gMj/"
 Default is to use a total of  16 processors:
                               16 via shared-memory
                                1 via Linda
 Entering Link 1 = /opt/cesga/2020/software/Core/g16/c1/l1.exe PID=   2728847.
  
 Copyright (c) 1988-2019, Gaussian, Inc.  All Rights Reserved.
  
 This is part of the Gaussian(R) 16 program.  It is based on
 the Gaussian(R) 09 system (copyright 2009, Gaussian, Inc.),
 the Gaussian(R) 03 system (copyright 2003, Gaussian, Inc.),
 the Gaussian(R) 98 system (copyright 1998, Gaussian, Inc.),
 the Gaussian(R) 94 system (copyright 1995, Gaussian, Inc.),
 the Gaussian 92(TM) system (copyright 1992, Gaussian, Inc.),
 the Gaussian 90(TM) system (copyright 1990, Gaussian, Inc.),
 the Gaussian 88(TM) system (copyright 1988, Gaussian, Inc.),
 the Gaussian 86(TM) system (copyright 1986, Carnegie Mellon
 University), and the Gaussian 82(TM) system (copyright 1983,
 Carnegie Mellon University). Gaussian is a federally registered
 trademark of Gaussian, Inc.
  
 This software contains proprietary and confidential information,
 including trade secrets, belonging to Gaussian, Inc.
  
 This software is provided under written license and may be
 used, copied, transmitted, or stored only in accord with that
 written license.
  
 The following legend is applicable only to US Government
 contracts under FAR:
  
                    RESTRICTED RIGHTS LEGEND
  
 Use, reproduction and disclosure by the US Government is
 subject to restrictions as set forth in subparagraphs (a)
 and (c) of the Commercial Computer Software - Restricted
 Rights clause in FAR 52.227-19.
  
 Gaussian, Inc.
 340 Quinnipiac St., Bldg. 40, Wallingford CT 06492
  
  
 ---------------------------------------------------------------
 Warning -- This program may not be used in any manner that
 competes with the business of Gaussian, Inc. or will provide
 assistance to any competitor of Gaussian, Inc.  The licensee
 of this program is prohibited from giving any competitor of
 Gaussian, Inc. access to this program.  By using this program,
 the user acknowledges that Gaussian, Inc. is engaged in the
 business of creating and licensing software in the field of
 computational chemistry and represents and warrants to the
 licensee that it is not a competitor of Gaussian, Inc. and that
 it will not use this program in any manner prohibited above.
 ---------------------------------------------------------------
  

 Cite this work as:
 Gaussian 16, Revision C.01,
 M. J. Frisch, G. W. Trucks, H. B. Schlegel, G. E. Scuseria, 
 M. A. Robb, J. R. Cheeseman, G. Scalmani, V. Barone, 
 G. A. Petersson, H. Nakatsuji, X. Li, M. Caricato, A. V. Marenich, 
 J. Bloino, B. G. Janesko, R. Gomperts, B. Mennucci, H. P. Hratchian, 
 J. V. Ortiz, A. F. Izmaylov, J. L. Sonnenberg, D. Williams-Young, 
 F. Ding, F. Lipparini, F. Egidi, J. Goings, B. Peng, A. Petrone, 
 T. Henderson, D. Ranasinghe, V. G. Zakrzewski, J. Gao, N. Rega, 
 G. Zheng, W. Liang, M. Hada, M. Ehara, K. Toyota, R. Fukuda, 
 J. Hasegawa, M. Ishida, T. Nakajima, Y. Honda, O. Kitao, H. Nakai, 
 T. Vreven, K. Throssell, J. A. Montgomery, Jr., J. E. Peralta, 
 F. Ogliaro, M. J. Bearpark, J. J. Heyd, E. N. Brothers, K. N. Kudin, 
 V. N. Staroverov, T. A. Keith, R. Kobayashi, J. Normand, 
 K. Raghavachari, A. P. Rendell, J. C. Burant, S. S. Iyengar, 
 J. Tomasi, M. Cossi, J. M. Millam, M. Klene, C. Adamo, R. Cammi, 
 J. W. Ochterski, R. L. Martin, K. Morokuma, O. Farkas, 
 J. B. Foresman, and D. J. Fox, Gaussian, Inc., Wallingford CT, 2019.
 
 ******************************************
 Gaussian 16:  ES64L-G16RevC.01  3-Jul-2019
                 7-Dec-2024 
 ******************************************
 Default route: SCF=Direct
 ----------------------------------------------------
 # m06/genecp scf=tight int=ultrafine 5d freq=noraman
 ----------------------------------------------------
 1/10=4,30=1,38=1/1,3;
 2/12=2,17=6,18=5,40=1/2;
 3/5=7,8=1,11=2,16=1,17=8,25=1,30=1,71=2,74=-54,75=-5,140=1/1,2,3;
 4//1;
 5/5=2,32=2,38=5,98=1/2;
 8/6=4,10=90,11=11/1;
 11/6=1,8=1,9=11,15=111,16=1/1,2,10;
 10/6=1/2;
 6/7=2,8=2,9=2,10=2,28=1/1;
 7/8=1,10=1,25=1/1,2,3,16;
 1/10=4,30=1/3;
 99//99;
 ------
 OPT-TS
 ------
 Symbolic Z-matrix:
 Charge =  0 Multiplicity = 1
 C                     1.5632   -0.93078   2.0836 
 C                     2.23818   0.98425   0.97033 
 C                     3.39117   1.07823   1.7297 
 C                     3.63628   0.12057   2.70404 
 C                     2.71015  -0.8919    2.87321 
 C                     0.56326  -1.99213   2.21205 
 C                    -1.40277  -2.88855   1.40327 
 C                    -1.4441   -3.84829   2.40078 
 C                    -0.41947  -3.87404   3.3405 
 C                     0.58581  -2.92897   3.25023 
 H                     2.00874   1.7249    0.21348 
 H                     4.538     0.15306   3.31184 
 H                     2.8946   -1.67643   3.60058 
 H                    -2.20271  -2.79912   0.67221 
 H                    -0.4125   -4.60862   4.14323 
 H                     1.3762   -2.90826   3.99486 
 N                     1.32085   0.01468   1.1435 
 N                    -0.41367  -1.99362   1.28636 
 Ir                   -0.31319  -0.18087  -0.18356 
 O                    -0.84866   2.2648   -1.96742 
 O                    -1.75249   0.56341   2.44191 
 O                    -2.96596  -1.58531  -0.84994 
 B                    -1.77075   0.68256   1.05694 
 B                    -0.36272   1.7768   -0.76017 
 B                    -1.7698   -1.17723  -1.41047 
 O                    -1.58616  -1.72562  -2.65956 
 O                     0.08795   2.83249   0.03468 
 C                     0.09731   4.02268  -0.76926 
 C                    -0.95643   3.69204  -1.86559 
 C                    -3.68815  -2.32075  -1.85886 
 C                    -2.54334  -2.78684  -2.80405 
 C                    -2.81001   1.38271   2.96475 
 C                    -3.80537   1.42132   1.77473 
 O                    -2.91991   1.35456   0.6478 
 C                    -2.38275   4.00631  -1.43619 
 H                    -3.07199   3.56565  -2.16753 
 H                    -2.60722   3.55352  -0.46202 
 H                    -2.56957   5.08803  -1.39257 
 C                    -0.67465   4.30332  -3.22351 
 H                    -1.46565   4.01631  -3.92771 
 H                    -0.65655   5.4012   -3.16326 
 H                     0.28053   3.95728  -3.63449 
 C                    -0.24598   5.20979   0.10801 
 H                    -1.19736   5.06353   0.63194 
 H                     0.5373    5.35238   0.86363 
 H                    -0.3143    6.13024  -0.48969 
 C                     1.50847   4.18235  -1.32162 
 H                     1.78233   3.33336  -1.96325 
 H                     1.62385   5.10731  -1.90204 
 H                     2.21538   4.21902  -0.4814 
 C                    -3.35067   0.75071   4.23076 
 H                    -2.58118   0.7691    5.01335 
 H                    -4.22585   1.30323   4.60295 
 H                    -3.63891  -0.29386   4.06693 
 C                    -2.20254   2.74561   3.27073 
 H                    -1.36479   2.60884   3.96594 
 H                    -1.80315   3.20574   2.35584 
 H                    -2.92776   3.42956   3.73265 
 C                    -4.70015   0.18857   1.70627 
 H                    -4.10743  -0.73236   1.79229 
 H                    -5.47179   0.19311   2.48839 
 H                    -5.19379   0.17026   0.72583 
 C                    -4.64511   2.67866   1.6792 
 H                    -4.02397   3.57837   1.59804 
 H                    -5.28399   2.62951   0.78757 
 H                    -5.29593   2.78374   2.55952 
 C                    -1.85127  -4.06193  -2.33955 
 H                    -0.93203  -4.19222  -2.924 
 H                    -1.55793  -4.00018  -1.28215 
 H                    -2.48308  -4.94907  -2.48056 
 C                    -2.93153  -2.90992  -4.26282 
 H                    -3.27586  -1.95437  -4.67216 
 H                    -2.06378  -3.23499  -4.84996 
 H                    -3.72809  -3.65673  -4.39103 
 C                    -4.64301  -1.33462  -2.516 
 H                    -5.28738  -1.82427  -3.2581 
 H                    -5.28116  -0.89162  -1.7413 
 H                    -4.0964   -0.51915  -3.00623 
 C                    -4.47093  -3.43227  -1.19075 
 H                    -3.82634  -4.1061   -0.61412 
 H                    -5.20939  -2.99754  -0.50404 
 H                    -5.01139  -4.0308   -1.93765 
 H                    -1.346     0.14784  -1.43506 
 C                     3.53905  -1.03264  -0.92559 
 O                     3.47831  -1.92968  -0.08436 
 C                     4.86429  -0.3348   -1.21341 
 H                     5.11383  -0.43209  -2.28354 
 H                     4.76376   0.7505   -1.03821 
 C                     1.16153  -1.28347  -1.47363 
 H                     0.75109  -1.43034  -2.48008 
 H                     1.35455  -2.26919  -1.03154 
 N                     2.45295  -0.6205   -1.63244 
 C                     2.48585   0.40619  -2.64596 
 H                     3.28563   1.13497  -2.47349 
 H                     2.61427  -0.01762  -3.65588 
 H                     1.52291   0.9391   -2.62921 
 C                     5.99827  -0.87789  -0.36397 
 H                     5.73009  -0.78283   0.70034 
 H                     6.09933  -1.95942  -0.53836 
 C                     7.31807  -0.175    -0.63559 
 H                     7.57735  -0.26819  -1.70518 
 H                     7.20788   0.90934  -0.45237 
 C                     8.46606  -0.71105   0.20653 
 H                     8.20653  -0.61592   1.27372 
 H                     8.57472  -1.79189   0.02137 
 C                     9.78074  -0.00222  -0.07239 
 H                     10.60068  -0.39681   0.54075 
 H                     10.07104  -0.11174  -1.12679 
 H                     9.6997    1.0747    0.13264 
 H                    -2.27232  -4.55193   2.43948 
 H                     4.08669   1.89321   1.54162 
 

 GradGradGradGradGradGradGradGradGradGradGradGradGradGradGradGradGradGrad
 Berny optimization.
 Initialization pass.
 Trust Radius=3.00D-01 FncErr=1.00D-07 GrdErr=1.00D-07 EigMax=2.50D+02 EigMin=1.00D-04
 Number of steps in this run=      2 maximum allowed number of steps=      2.
 GradGradGradGradGradGradGradGradGradGradGradGradGradGradGradGradGradGrad

 Stoichiometry    C36H61B3IrN3O7
 Framework group  C1[X(C36H61B3IrN3O7)]
 Deg. of freedom   327
 Full point group                 C1      NOp   1
 Largest Abelian subgroup         C1      NOp   1
 Largest concise Abelian subgroup C1      NOp   1
                         Standard orientation:                         
 ---------------------------------------------------------------------
 Center     Atomic      Atomic             Coordinates (Angstroms)
 Number     Number       Type             X           Y           Z
 ---------------------------------------------------------------------
      1          6           0        1.563200   -0.930779    2.083600
      2          6           0        2.238181    0.984251    0.970330
      3          6           0        3.391171    1.078231    1.729700
      4          6           0        3.636281    0.120571    2.704040
      5          6           0        2.710150   -0.891899    2.873210
      6          6           0        0.563260   -1.992129    2.212050
      7          6           0       -1.402770   -2.888549    1.403270
      8          6           0       -1.444100   -3.848289    2.400780
      9          6           0       -0.419470   -3.874039    3.340500
     10          6           0        0.585810   -2.928969    3.250230
     11          1           0        2.008741    1.724901    0.213480
     12          1           0        4.538001    0.153061    3.311840
     13          1           0        2.894600   -1.676429    3.600580
     14          1           0       -2.202710   -2.799119    0.672210
     15          1           0       -0.412500   -4.608619    4.143230
     16          1           0        1.376200   -2.908259    3.994860
     17          7           0        1.320851    0.014681    1.143500
     18          7           0       -0.413670   -1.993619    1.286360
     19         77           0       -0.313189   -0.180869   -0.183560
     20          8           0       -0.848659    2.264801   -1.967420
     21          8           0       -1.752489    0.563411    2.441910
     22          8           0       -2.965960   -1.585309   -0.849940
     23          5           0       -1.770749    0.682561    1.056940
     24          5           0       -0.362719    1.776801   -0.760170
     25          5           0       -1.769800   -1.177229   -1.410470
     26          8           0       -1.586160   -1.725619   -2.659560
     27          8           0        0.087951    2.832491    0.034680
     28          6           0        0.097311    4.022681   -0.769260
     29          6           0       -0.956429    3.692041   -1.865590
     30          6           0       -3.688150   -2.320749   -1.858860
     31          6           0       -2.543340   -2.786839   -2.804050
     32          6           0       -2.810009    1.382711    2.964750
     33          6           0       -3.805369    1.421321    1.774730
     34          8           0       -2.919909    1.354561    0.647800
     35          6           0       -2.382749    4.006311   -1.436190
     36          1           0       -3.071989    3.565651   -2.167530
     37          1           0       -2.607219    3.553521   -0.462020
     38          1           0       -2.569569    5.088031   -1.392570
     39          6           0       -0.674649    4.303321   -3.223510
     40          1           0       -1.465649    4.016311   -3.927710
     41          1           0       -0.656549    5.401201   -3.163260
     42          1           0        0.280531    3.957281   -3.634490
     43          6           0       -0.245979    5.209791    0.108010
     44          1           0       -1.197359    5.063531    0.631940
     45          1           0        0.537301    5.352381    0.863630
     46          1           0       -0.314299    6.130241   -0.489690
     47          6           0        1.508471    4.182351   -1.321620
     48          1           0        1.782331    3.333361   -1.963250
     49          1           0        1.623851    5.107311   -1.902040
     50          1           0        2.215381    4.219021   -0.481400
     51          6           0       -3.350669    0.750711    4.230760
     52          1           0       -2.581179    0.769101    5.013350
     53          1           0       -4.225849    1.303231    4.602950
     54          1           0       -3.638909   -0.293859    4.066930
     55          6           0       -2.202539    2.745611    3.270730
     56          1           0       -1.364789    2.608841    3.965940
     57          1           0       -1.803149    3.205741    2.355840
     58          1           0       -2.927759    3.429561    3.732650
     59          6           0       -4.700149    0.188571    1.706270
     60          1           0       -4.107430   -0.732359    1.792290
     61          1           0       -5.471789    0.193111    2.488390
     62          1           0       -5.193789    0.170261    0.725830
     63          6           0       -4.645109    2.678661    1.679200
     64          1           0       -4.023969    3.578371    1.598040
     65          1           0       -5.283989    2.629511    0.787570
     66          1           0       -5.295929    2.783741    2.559520
     67          6           0       -1.851270   -4.061929   -2.339550
     68          1           0       -0.932030   -4.192219   -2.924000
     69          1           0       -1.557930   -4.000179   -1.282150
     70          1           0       -2.483080   -4.949069   -2.480560
     71          6           0       -2.931530   -2.909919   -4.262820
     72          1           0       -3.275860   -1.954369   -4.672160
     73          1           0       -2.063780   -3.234989   -4.849960
     74          1           0       -3.728090   -3.656729   -4.391030
     75          6           0       -4.643010   -1.334619   -2.516000
     76          1           0       -5.287380   -1.824269   -3.258100
     77          1           0       -5.281160   -0.891619   -1.741300
     78          1           0       -4.096400   -0.519149   -3.006230
     79          6           0       -4.470930   -3.432269   -1.190750
     80          1           0       -3.826340   -4.106099   -0.614120
     81          1           0       -5.209390   -2.997539   -0.504040
     82          1           0       -5.011390   -4.030799   -1.937650
     83          1           0       -1.345999    0.147841   -1.435060
     84          6           0        3.539050   -1.032639   -0.925590
     85          8           0        3.478310   -1.929679   -0.084360
     86          6           0        4.864291   -0.334799   -1.213410
     87          1           0        5.113831   -0.432089   -2.283540
     88          1           0        4.763761    0.750501   -1.038210
     89          6           0        1.161530   -1.283469   -1.473630
     90          1           0        0.751090   -1.430339   -2.480080
     91          1           0        1.354550   -2.269189   -1.031540
     92          7           0        2.452950   -0.620499   -1.632440
     93          6           0        2.485851    0.406191   -2.645960
     94          1           0        3.285631    1.134971   -2.473490
     95          1           0        2.614271   -0.017619   -3.655880
     96          1           0        1.522911    0.939101   -2.629210
     97          6           0        5.998270   -0.877889   -0.363970
     98          1           0        5.730090   -0.782829    0.700340
     99          1           0        6.099330   -1.959419   -0.538360
    100          6           0        7.318071   -0.174999   -0.635590
    101          1           0        7.577351   -0.268189   -1.705180
    102          1           0        7.207881    0.909341   -0.452370
    103          6           0        8.466060   -0.711049    0.206530
    104          1           0        8.206530   -0.615919    1.273720
    105          1           0        8.574720   -1.791889    0.021370
    106          6           0        9.780741   -0.002219   -0.072390
    107          1           0       10.600681   -0.396809    0.540750
    108          1           0       10.071041   -0.111739   -1.126790
    109          1           0        9.699701    1.074701    0.132640
    110          1           0       -2.272320   -4.551929    2.439480
    111          1           0        4.086691    1.893211    1.541620
 ---------------------------------------------------------------------
 Rotational constants (GHZ):           0.0736153           0.0458522           0.0421114
 General basis read from cards:  (5D, 7F)
 ======================================================================================================
                                       Pseudopotential Parameters
 ======================================================================================================
  Center     Atomic      Valence      Angular      Power
  Number     Number     Electrons     Momentum     of R      Exponent        Coefficient   SO-Coeffient
 ======================================================================================================
    1          6
                                   No pseudopotential on this center.
    2          6
                                   No pseudopotential on this center.
    3          6
                                   No pseudopotential on this center.
    4          6
                                   No pseudopotential on this center.
    5          6
                                   No pseudopotential on this center.
    6          6
                                   No pseudopotential on this center.
    7          6
                                   No pseudopotential on this center.
    8          6
                                   No pseudopotential on this center.
    9          6
                                   No pseudopotential on this center.
   10          6
                                   No pseudopotential on this center.
   11          1
                                   No pseudopotential on this center.
   12          1
                                   No pseudopotential on this center.
   13          1
                                   No pseudopotential on this center.
   14          1
                                   No pseudopotential on this center.
   15          1
                                   No pseudopotential on this center.
   16          1
                                   No pseudopotential on this center.
   17          7
                                   No pseudopotential on this center.
   18          7
                                   No pseudopotential on this center.
   19         77           17
                                      G and up 
                                                     1      823.5880147       -0.15780140    0.00000000
                                                     2      364.6613336    -1517.52704460    0.00000000
                                                     2       55.7082801     -316.53065290    0.00000000
                                                     2       12.0464544      -91.88809410    0.00000000
                                                     2        3.5120610       -9.22417730    0.00000000
                                      S - G
                                                     0      188.0490770        3.15780140    0.00000000
                                                     1      340.4194712       26.83225770    0.00000000
                                                     2      128.2373673      800.42500070    0.00000000
                                                     2       33.8644961      369.40506830    0.00000000
                                                     2        4.7560005      242.41718990    0.00000000
                                                     2        3.9649974     -118.21732820    0.00000000
                                      P - G
                                                     0      289.7291139        2.15780140    0.00000000
                                                     1       87.4633789       61.96786100    0.00000000
                                                     2       30.4363766      269.05819860    0.00000000
                                                     2        4.0553412      231.16547930    0.00000000
                                                     2        3.5525341     -133.69526670    0.00000000
                                      D - G
                                                     0      136.4017106        3.15780140    0.00000000
                                                     1       95.0776925       45.93498030    0.00000000
                                                     2       49.2258410      359.03446680    0.00000000
                                                     2       15.0874145      176.47401190    0.00000000
                                                     2        4.0405764       54.51552860    0.00000000
                                      F - G
                                                     0      127.3507908        3.95461970    0.00000000
                                                     1       66.2364374       52.97736550    0.00000000
                                                     2       34.4299229      274.86433830    0.00000000
                                                     2       10.1995721      137.20473380    0.00000000
                                                     2        2.5409702       14.86333050    0.00000000
   20          8
                                   No pseudopotential on this center.
   21          8
                                   No pseudopotential on this center.
   22          8
                                   No pseudopotential on this center.
   23          5
                                   No pseudopotential on this center.
   24          5
                                   No pseudopotential on this center.
   25          5
                                   No pseudopotential on this center.
   26          8
                                   No pseudopotential on this center.
   27          8
                                   No pseudopotential on this center.
   28          6
                                   No pseudopotential on this center.
   29          6
                                   No pseudopotential on this center.
   30          6
                                   No pseudopotential on this center.
   31          6
                                   No pseudopotential on this center.
   32          6
                                   No pseudopotential on this center.
   33          6
                                   No pseudopotential on this center.
   34          8
                                   No pseudopotential on this center.
   35          6
                                   No pseudopotential on this center.
   36          1
                                   No pseudopotential on this center.
   37          1
                                   No pseudopotential on this center.
   38          1
                                   No pseudopotential on this center.
   39          6
                                   No pseudopotential on this center.
   40          1
                                   No pseudopotential on this center.
   41          1
                                   No pseudopotential on this center.
   42          1
                                   No pseudopotential on this center.
   43          6
                                   No pseudopotential on this center.
   44          1
                                   No pseudopotential on this center.
   45          1
                                   No pseudopotential on this center.
   46          1
                                   No pseudopotential on this center.
   47          6
                                   No pseudopotential on this center.
   48          1
                                   No pseudopotential on this center.
   49          1
                                   No pseudopotential on this center.
   50          1
                                   No pseudopotential on this center.
   51          6
                                   No pseudopotential on this center.
   52          1
                                   No pseudopotential on this center.
   53          1
                                   No pseudopotential on this center.
   54          1
                                   No pseudopotential on this center.
   55          6
                                   No pseudopotential on this center.
   56          1
                                   No pseudopotential on this center.
   57          1
                                   No pseudopotential on this center.
   58          1
                                   No pseudopotential on this center.
   59          6
                                   No pseudopotential on this center.
   60          1
                                   No pseudopotential on this center.
   61          1
                                   No pseudopotential on this center.
   62          1
                                   No pseudopotential on this center.
   63          6
                                   No pseudopotential on this center.
   64          1
                                   No pseudopotential on this center.
   65          1
                                   No pseudopotential on this center.
   66          1
                                   No pseudopotential on this center.
   67          6
                                   No pseudopotential on this center.
   68          1
                                   No pseudopotential on this center.
   69          1
                                   No pseudopotential on this center.
   70          1
                                   No pseudopotential on this center.
   71          6
                                   No pseudopotential on this center.
   72          1
                                   No pseudopotential on this center.
   73          1
                                   No pseudopotential on this center.
   74          1
                                   No pseudopotential on this center.
   75          6
                                   No pseudopotential on this center.
   76          1
                                   No pseudopotential on this center.
   77          1
                                   No pseudopotential on this center.
   78          1
                                   No pseudopotential on this center.
   79          6
                                   No pseudopotential on this center.
   80          1
                                   No pseudopotential on this center.
   81          1
                                   No pseudopotential on this center.
   82          1
                                   No pseudopotential on this center.
   83          1
                                   No pseudopotential on this center.
   84          6
                                   No pseudopotential on this center.
   85          8
                                   No pseudopotential on this center.
   86          6
                                   No pseudopotential on this center.
   87          1
                                   No pseudopotential on this center.
   88          1
                                   No pseudopotential on this center.
   89          6
                                   No pseudopotential on this center.
   90          1
                                   No pseudopotential on this center.
   91          1
                                   No pseudopotential on this center.
   92          7
                                   No pseudopotential on this center.
   93          6
                                   No pseudopotential on this center.
   94          1
                                   No pseudopotential on this center.
   95          1
                                   No pseudopotential on this center.
   96          1
                                   No pseudopotential on this center.
   97          6
                                   No pseudopotential on this center.
   98          1
                                   No pseudopotential on this center.
   99          1
                                   No pseudopotential on this center.
  100          6
                                   No pseudopotential on this center.
  101          1
                                   No pseudopotential on this center.
  102          1
                                   No pseudopotential on this center.
  103          6
                                   No pseudopotential on this center.
  104          1
                                   No pseudopotential on this center.
  105          1
                                   No pseudopotential on this center.
  106          6
                                   No pseudopotential on this center.
  107          1
                                   No pseudopotential on this center.
  108          1
                                   No pseudopotential on this center.
  109          1
                                   No pseudopotential on this center.
  110          1
                                   No pseudopotential on this center.
  111          1
                                   No pseudopotential on this center.
 ======================================================================================================
 There are   881 symmetry adapted cartesian basis functions of A   symmetry.
 There are   830 symmetry adapted basis functions of A   symmetry.
   830 basis functions,  1659 primitive gaussians,   881 cartesian basis functions
   193 alpha electrons      193 beta electrons
       nuclear repulsion energy      8033.6364340522 Hartrees.
 NAtoms=  111 NActive=  111 NUniq=  111 SFac= 1.00D+00 NAtFMM=   60 NAOKFM=T Big=T
 Integral buffers will be    131072 words long.
 Raffenetti 2 integral format.
 Two-electron integral symmetry is turned on.
 One-electron integrals computed using PRISM.
   1 Symmetry operations used in ECPInt.
 ECPInt:  NShTT=   53301 NPrTT=  320676 LenC2=   39395 LenP2D=  120853.
 LDataN:  DoStor=T MaxTD1= 6 Len=  172
 NBasis=   830 RedAO= T EigKep=  5.53D-04  NBF=   830
 NBsUse=   830 1.00D-06 EigRej= -1.00D+00 NBFU=   830
 Defaulting to unpruned grid for atomic number  77.
 ExpMin= 2.90D-02 ExpMax= 5.48D+03 ExpMxC= 8.25D+02 IAcc=3 IRadAn=         5 AccDes= 0.00D+00
 Harris functional with IExCor= 1009 and IRadAn=       5 diagonalized for initial guess.
 HarFok:  IExCor= 1009 AccDes= 0.00D+00 IRadAn=         5 IDoV= 1 UseB2=F ITyADJ=14
 ICtDFT=  3500011 ScaDFX=  1.000000  1.000000  1.000000  1.000000
 Defaulting to unpruned grid for atomic number  77.
 FoFCou: FMM=F IPFlag=           0 FMFlag=      100000 FMFlg1=        2001
         NFxFlg=           0 DoJE=T BraDBF=F KetDBF=T FulRan=T
         wScrn=  0.000000 ICntrl=       500 IOpCl=  0 I1Cent=   200000004 NGrid=           0
         NMat0=    1 NMatS0=      1 NMatT0=    0 NMatD0=    1 NMtDS0=    0 NMtDT0=    0
 Petite list used in FoFCou.
 Requested convergence on RMS density matrix=1.00D-08 within 128 cycles.
 Requested convergence on MAX density matrix=1.00D-06.
 Requested convergence on             energy=1.00D-06.
 No special actions if energy rises.
 Defaulting to unpruned grid for atomic number  77.
 Defaulting to unpruned grid for atomic number  77.
 Defaulting to unpruned grid for atomic number  77.
 Defaulting to unpruned grid for atomic number  77.
 Defaulting to unpruned grid for atomic number  77.
 Defaulting to unpruned grid for atomic number  77.
 Defaulting to unpruned grid for atomic number  77.
 Defaulting to unpruned grid for atomic number  77.
 Defaulting to unpruned grid for atomic number  77.
 Defaulting to unpruned grid for atomic number  77.
 Defaulting to unpruned grid for atomic number  77.
 Defaulting to unpruned grid for atomic number  77.
 Defaulting to unpruned grid for atomic number  77.
 Defaulting to unpruned grid for atomic number  77.
 Defaulting to unpruned grid for atomic number  77.
 Defaulting to unpruned grid for atomic number  77.
 EnCoef did     4 forward-backward iterations
 EnCoef did     7 forward-backward iterations
 SCF Done:  E(RM06) =  -2277.49089076     A.U. after   18 cycles
            NFock= 18  Conv=0.53D-08     -V/T= 2.0390
 DoSCS=F DFT=T ScalE2(SS,OS)=  1.000000  1.000000
 Range of M.O.s used for correlation:     1   830
 NBasis=   830 NAE=   193 NBE=   193 NFC=     0 NFV=     0
 NROrb=    830 NOA=   193 NOB=   193 NVA=   637 NVB=   637

 **** Warning!!: The smallest alpha delta epsilon is  0.99448154D-01

   1 Symmetry operations used in ECPInt.
 ECPInt:  NShTT=   53301 NPrTT=  320676 LenC2=   39395 LenP2D=  120853.
 LDataN:  DoStor=T MaxTD1= 7 Len=  274
 Number of processors reduced to   8 by ecpmxn.
 Symmetrizing basis deriv contribution to polar:
 IMax=3 JMax=2 DiffMx= 0.00D+00
 G2DrvN: will do   112 centers at a time, making    1 passes.
 Calling FoFCou, ICntrl=  3107 FMM=T I1Cent=   0 AccDes= 0.00D+00.
 Defaulting to unpruned grid for atomic number  77.
 Defaulting to unpruned grid for atomic number  77.
 Defaulting to unpruned grid for atomic number  77.
 Defaulting to unpruned grid for atomic number  77.
 Defaulting to unpruned grid for atomic number  77.
 Defaulting to unpruned grid for atomic number  77.
 Defaulting to unpruned grid for atomic number  77.
 Defaulting to unpruned grid for atomic number  77.
 Defaulting to unpruned grid for atomic number  77.
 Defaulting to unpruned grid for atomic number  77.
 Defaulting to unpruned grid for atomic number  77.
 Defaulting to unpruned grid for atomic number  77.
 Defaulting to unpruned grid for atomic number  77.
 Defaulting to unpruned grid for atomic number  77.
 Defaulting to unpruned grid for atomic number  77.
 Defaulting to unpruned grid for atomic number  77.
 End of G2Drv F.D. properties file   721 does not exist.
 End of G2Drv F.D. properties file   722 does not exist.
 End of G2Drv F.D. properties file   788 does not exist.
          IDoAtm=11111111111111111111111111111111111111111111111111
          IDoAtm=11111111111111111111111111111111111111111111111111
          IDoAtm=11111111111
          Differentiating once with respect to electric field.
                with respect to dipole field.
          Differentiating once with respect to nuclear coordinates.
 Defaulting to unpruned grid for atomic number  77.
 CalDSu exits because no D1Ps are significant.
 Defaulting to unpruned grid for atomic number  77.
 Defaulting to unpruned grid for atomic number  77.
 Defaulting to unpruned grid for atomic number  77.
 Defaulting to unpruned grid for atomic number  77.
 Defaulting to unpruned grid for atomic number  77.
 Defaulting to unpruned grid for atomic number  77.
 Defaulting to unpruned grid for atomic number  77.
 Defaulting to unpruned grid for atomic number  77.
 Defaulting to unpruned grid for atomic number  77.
 Defaulting to unpruned grid for atomic number  77.
 Defaulting to unpruned grid for atomic number  77.
 Defaulting to unpruned grid for atomic number  77.
 Defaulting to unpruned grid for atomic number  77.
 Defaulting to unpruned grid for atomic number  77.
 Defaulting to unpruned grid for atomic number  77.
 Defaulting to unpruned grid for atomic number  77.
          There are   336 degrees of freedom in the 1st order CPHF.  IDoFFX=6 NUNeed=     3.
    333 vectors produced by pass  0 Test12= 1.23D-13 1.00D-09 XBig12= 4.70D+02 7.98D+00.
 AX will form    72 AO Fock derivatives at one time.
    333 vectors produced by pass  1 Test12= 1.23D-13 1.00D-09 XBig12= 6.92D+01 8.75D-01.
    333 vectors produced by pass  2 Test12= 1.23D-13 1.00D-09 XBig12= 8.02D-01 7.61D-02.
    333 vectors produced by pass  3 Test12= 1.23D-13 1.00D-09 XBig12= 4.83D-03 4.98D-03.
    333 vectors produced by pass  4 Test12= 1.23D-13 1.00D-09 XBig12= 1.40D-05 2.15D-04.
    282 vectors produced by pass  5 Test12= 1.23D-13 1.00D-09 XBig12= 2.57D-08 8.51D-06.
     72 vectors produced by pass  6 Test12= 1.23D-13 1.00D-09 XBig12= 3.50D-11 3.90D-07.
      3 vectors produced by pass  7 Test12= 1.23D-13 1.00D-09 XBig12= 4.51D-14 1.46D-08.
 InvSVY:  IOpt=1 It=  1 EMax= 2.84D-14
 Solved reduced A of dimension  2022 with   336 vectors.
 Isotropic polarizability for W=    0.000000      505.94 Bohr**3.
 End of Minotr F.D. properties file   721 does not exist.
 End of Minotr F.D. properties file   722 does not exist.
 End of Minotr F.D. properties file   788 does not exist.
 Hyperfine terms turned off by default for NAtoms > 100.

 **********************************************************************

            Population analysis using the SCF Density.

 **********************************************************************

 Orbital symmetries:
       Occupied  (A) (A) (A) (A) (A) (A) (A) (A) (A) (A) (A) (A)
                 (A) (A) (A) (A) (A) (A) (A) (A) (A) (A) (A) (A)
                 (A) (A) (A) (A) (A) (A) (A) (A) (A) (A) (A) (A)
                 (A) (A) (A) (A) (A) (A) (A) (A) (A) (A) (A) (A)
                 (A) (A) (A) (A) (A) (A) (A) (A) (A) (A) (A) (A)
                 (A) (A) (A) (A) (A) (A) (A) (A) (A) (A) (A) (A)
                 (A) (A) (A) (A) (A) (A) (A) (A) (A) (A) (A) (A)
                 (A) (A) (A) (A) (A) (A) (A) (A) (A) (A) (A) (A)
                 (A) (A) (A) (A) (A) (A) (A) (A) (A) (A) (A) (A)
                 (A) (A) (A) (A) (A) (A) (A) (A) (A) (A) (A) (A)
                 (A) (A) (A) (A) (A) (A) (A) (A) (A) (A) (A) (A)
                 (A) (A) (A) (A) (A) (A) (A) (A) (A) (A) (A) (A)
                 (A) (A) (A) (A) (A) (A) (A) (A) (A) (A) (A) (A)
                 (A) (A) (A) (A) (A) (A) (A) (A) (A) (A) (A) (A)
                 (A) (A) (A) (A) (A) (A) (A) (A) (A) (A) (A) (A)
                 (A) (A) (A) (A) (A) (A) (A) (A) (A) (A) (A) (A)
                 (A)
       Virtual   (A) (A) (A) (A) (A) (A) (A) (A) (A) (A) (A) (A)
                 (A) (A) (A) (A) (A) (A) (A) (A) (A) (A) (A) (A)
                 (A) (A) (A) (A) (A) (A) (A) (A) (A) (A) (A) (A)
                 (A) (A) (A) (A) (A) (A) (A) (A) (A) (A) (A) (A)
                 (A) (A) (A) (A) (A) (A) (A) (A) (A) (A) (A) (A)
                 (A) (A) (A) (A) (A) (A) (A) (A) (A) (A) (A) (A)
                 (A) (A) (A) (A) (A) (A) (A) (A) (A) (A) (A) (A)
                 (A) (A) (A) (A) (A) (A) (A) (A) (A) (A) (A) (A)
                 (A) (A) (A) (A) (A) (A) (A) (A) (A) (A) (A) (A)
                 (A) (A) (A) (A) (A) (A) (A) (A) (A) (A) (A) (A)
                 (A) (A) (A) (A) (A) (A) (A) (A) (A) (A) (A) (A)
                 (A) (A) (A) (A) (A) (A) (A) (A) (A) (A) (A) (A)
                 (A) (A) (A) (A) (A) (A) (A) (A) (A) (A) (A) (A)
                 (A) (A) (A) (A) (A) (A) (A) (A) (A) (A) (A) (A)
                 (A) (A) (A) (A) (A) (A) (A) (A) (A) (A) (A) (A)
                 (A) (A) (A) (A) (A) (A) (A) (A) (A) (A) (A) (A)
                 (A) (A) (A) (A) (A) (A) (A) (A) (A) (A) (A) (A)
                 (A) (A) (A) (A) (A) (A) (A) (A) (A) (A) (A) (A)
                 (A) (A) (A) (A) (A) (A) (A) (A) (A) (A) (A) (A)
                 (A) (A) (A) (A) (A) (A) (A) (A) (A) (A) (A) (A)
                 (A) (A) (A) (A) (A) (A) (A) (A) (A) (A) (A) (A)
                 (A) (A) (A) (A) (A) (A) (A) (A) (A) (A) (A) (A)
                 (A) (A) (A) (A) (A) (A) (A) (A) (A) (A) (A) (A)
                 (A) (A) (A) (A) (A) (A) (A) (A) (A) (A) (A) (A)
                 (A) (A) (A) (A) (A) (A) (A) (A) (A) (A) (A) (A)
                 (A) (A) (A) (A) (A) (A) (A) (A) (A) (A) (A) (A)
                 (A) (A) (A) (A) (A) (A) (A) (A) (A) (A) (A) (A)
                 (A) (A) (A) (A) (A) (A) (A) (A) (A) (A) (A) (A)
                 (A) (A) (A) (A) (A) (A) (A) (A) (A) (A) (A) (A)
                 (A) (A) (A) (A) (A) (A) (A) (A) (A) (A) (A) (A)
                 (A) (A) (A) (A) (A) (A) (A) (A) (A) (A) (A) (A)
                 (A) (A) (A) (A) (A) (A) (A) (A) (A) (A) (A) (A)
                 (A) (A) (A) (A) (A) (A) (A) (A) (A) (A) (A) (A)
                 (A) (A) (A) (A) (A) (A) (A) (A) (A) (A) (A) (A)
                 (A) (A) (A) (A) (A) (A) (A) (A) (A) (A) (A) (A)
                 (A) (A) (A) (A) (A) (A) (A) (A) (A) (A) (A) (A)
                 (A) (A) (A) (A) (A) (A) (A) (A) (A) (A) (A) (A)
                 (A) (A) (A) (A) (A) (A) (A) (A) (A) (A) (A) (A)
                 (A) (A) (A) (A) (A) (A) (A) (A) (A) (A) (A) (A)
                 (A) (A) (A) (A) (A) (A) (A) (A) (A) (A) (A) (A)
                 (A) (A) (A) (A) (A) (A) (A) (A) (A) (A) (A) (A)
                 (A) (A) (A) (A) (A) (A) (A) (A) (A) (A) (A) (A)
                 (A) (A) (A) (A) (A) (A) (A) (A) (A) (A) (A) (A)
                 (A) (A) (A) (A) (A) (A) (A) (A) (A) (A) (A) (A)
                 (A) (A) (A) (A) (A) (A) (A) (A) (A) (A) (A) (A)
                 (A) (A) (A) (A) (A) (A) (A) (A) (A) (A) (A) (A)
                 (A) (A) (A) (A) (A) (A) (A) (A) (A) (A) (A) (A)
                 (A) (A) (A) (A) (A) (A) (A) (A) (A) (A) (A) (A)
                 (A) (A) (A) (A) (A) (A) (A) (A) (A) (A) (A) (A)
                 (A) (A) (A) (A) (A) (A) (A) (A) (A) (A) (A) (A)
                 (A) (A) (A) (A) (A) (A) (A) (A) (A) (A) (A) (A)
                 (A) (A) (A) (A) (A) (A) (A) (A) (A) (A) (A) (A)
                 (A) (A) (A) (A) (A) (A) (A) (A) (A) (A) (A) (A)
                 (A)
 The electronic state is 1-A.
 Alpha  occ. eigenvalues --  -19.22272 -19.21878 -19.20669 -19.20233 -19.19574
 Alpha  occ. eigenvalues --  -19.19556 -19.15186 -14.45270 -14.43848 -14.39231
 Alpha  occ. eigenvalues --  -10.30952 -10.30943 -10.30820 -10.30790 -10.30659
 Alpha  occ. eigenvalues --  -10.29658 -10.29228 -10.29204 -10.29202 -10.28798
 Alpha  occ. eigenvalues --  -10.28731 -10.27984 -10.27457 -10.27292 -10.26896
 Alpha  occ. eigenvalues --  -10.26856 -10.26611 -10.25127 -10.24195 -10.23546
 Alpha  occ. eigenvalues --  -10.23353 -10.23274 -10.23152 -10.23149 -10.23123
 Alpha  occ. eigenvalues --  -10.22978 -10.22886 -10.22686 -10.22581 -10.22556
 Alpha  occ. eigenvalues --  -10.22522 -10.22223 -10.22027 -10.21844 -10.21607
 Alpha  occ. eigenvalues --  -10.20209  -6.83305  -6.80420  -6.78510  -3.64619
 Alpha  occ. eigenvalues --   -2.07912  -2.06468  -2.04728  -1.08182  -1.06379
 Alpha  occ. eigenvalues --   -1.05508  -1.01235  -1.01002  -0.99487  -0.99164
 Alpha  occ. eigenvalues --   -0.98501  -0.96602  -0.90692  -0.83464  -0.82627
 Alpha  occ. eigenvalues --   -0.81880  -0.81743  -0.80564  -0.80501  -0.79909
 Alpha  occ. eigenvalues --   -0.76369  -0.76135  -0.75921  -0.74954  -0.74429
 Alpha  occ. eigenvalues --   -0.71482  -0.70545  -0.70006  -0.69454  -0.68728
 Alpha  occ. eigenvalues --   -0.68665  -0.68062  -0.67644  -0.67322  -0.67149
 Alpha  occ. eigenvalues --   -0.64142  -0.63667  -0.62988  -0.62653  -0.61754
 Alpha  occ. eigenvalues --   -0.61006  -0.59219  -0.57182  -0.57068  -0.56221
 Alpha  occ. eigenvalues --   -0.55766  -0.54779  -0.54142  -0.53612  -0.52624
 Alpha  occ. eigenvalues --   -0.52605  -0.52398  -0.50413  -0.50230  -0.49621
 Alpha  occ. eigenvalues --   -0.48858  -0.48023  -0.47866  -0.47639  -0.47527
 Alpha  occ. eigenvalues --   -0.46902  -0.46486  -0.46358  -0.46312  -0.45980
 Alpha  occ. eigenvalues --   -0.45833  -0.45453  -0.45337  -0.44700  -0.44600
 Alpha  occ. eigenvalues --   -0.44470  -0.44037  -0.43719  -0.43573  -0.43392
 Alpha  occ. eigenvalues --   -0.43173  -0.42984  -0.42502  -0.41992  -0.41437
 Alpha  occ. eigenvalues --   -0.41136  -0.40641  -0.40583  -0.40378  -0.40131
 Alpha  occ. eigenvalues --   -0.40095  -0.39883  -0.39734  -0.39671  -0.39507
 Alpha  occ. eigenvalues --   -0.39274  -0.39003  -0.38759  -0.38616  -0.38546
 Alpha  occ. eigenvalues --   -0.38318  -0.38150  -0.37729  -0.37598  -0.37445
 Alpha  occ. eigenvalues --   -0.37230  -0.37123  -0.36915  -0.36564  -0.36309
 Alpha  occ. eigenvalues --   -0.36194  -0.36086  -0.35605  -0.35478  -0.35132
 Alpha  occ. eigenvalues --   -0.35033  -0.34766  -0.34552  -0.34461  -0.34017
 Alpha  occ. eigenvalues --   -0.33428  -0.33143  -0.32894  -0.32581  -0.32471
 Alpha  occ. eigenvalues --   -0.32224  -0.32082  -0.31890  -0.31700  -0.31592
 Alpha  occ. eigenvalues --   -0.31296  -0.31100  -0.30911  -0.30788  -0.30540
 Alpha  occ. eigenvalues --   -0.30274  -0.29688  -0.28121  -0.27647  -0.26643
 Alpha  occ. eigenvalues --   -0.26319  -0.25710  -0.25581  -0.23993  -0.22693
 Alpha  occ. eigenvalues --   -0.22372  -0.20880  -0.15825
 Alpha virt. eigenvalues --   -0.05881  -0.02740  -0.02065   0.01803   0.02424
 Alpha virt. eigenvalues --    0.02853   0.05751   0.06041   0.06611   0.06828
 Alpha virt. eigenvalues --    0.07389   0.08734   0.09338   0.09551   0.10179
 Alpha virt. eigenvalues --    0.10850   0.11012   0.11362   0.11565   0.11750
 Alpha virt. eigenvalues --    0.12072   0.12398   0.12961   0.13041   0.13447
 Alpha virt. eigenvalues --    0.13734   0.13903   0.14098   0.14250   0.14359
 Alpha virt. eigenvalues --    0.14590   0.14750   0.14983   0.15398   0.15444
 Alpha virt. eigenvalues --    0.15659   0.15773   0.16116   0.16306   0.16500
 Alpha virt. eigenvalues --    0.16656   0.17008   0.17099   0.17161   0.17455
 Alpha virt. eigenvalues --    0.17496   0.17702   0.17940   0.18092   0.18206
 Alpha virt. eigenvalues --    0.18340   0.18664   0.18783   0.19007   0.19114
 Alpha virt. eigenvalues --    0.19304   0.19497   0.19624   0.19771   0.19851
 Alpha virt. eigenvalues --    0.20139   0.20511   0.20580   0.20645   0.20960
 Alpha virt. eigenvalues --    0.21242   0.21474   0.21571   0.21909   0.22347
 Alpha virt. eigenvalues --    0.22353   0.22574   0.22991   0.23164   0.23484
 Alpha virt. eigenvalues --    0.23659   0.23923   0.24181   0.24443   0.24577
 Alpha virt. eigenvalues --    0.24682   0.24975   0.25080   0.25118   0.25423
 Alpha virt. eigenvalues --    0.25600   0.25884   0.25992   0.26498   0.26642
 Alpha virt. eigenvalues --    0.26885   0.27112   0.27195   0.27471   0.28011
 Alpha virt. eigenvalues --    0.28232   0.28594   0.28897   0.29230   0.29550
 Alpha virt. eigenvalues --    0.29639   0.30017   0.30513   0.30962   0.31565
 Alpha virt. eigenvalues --    0.31832   0.32298   0.32784   0.33150   0.34081
 Alpha virt. eigenvalues --    0.34657   0.35384   0.35780   0.36592   0.36867
 Alpha virt. eigenvalues --    0.37644   0.37995   0.39154   0.39348   0.39806
 Alpha virt. eigenvalues --    0.41610   0.42926   0.43539   0.44887   0.45851
 Alpha virt. eigenvalues --    0.47941   0.48111   0.48486   0.48900   0.49384
 Alpha virt. eigenvalues --    0.49846   0.50570   0.50724   0.50829   0.51097
 Alpha virt. eigenvalues --    0.51660   0.51780   0.52054   0.52848   0.53271
 Alpha virt. eigenvalues --    0.53831   0.54058   0.54501   0.54722   0.55108
 Alpha virt. eigenvalues --    0.55479   0.55699   0.55962   0.56413   0.56494
 Alpha virt. eigenvalues --    0.56738   0.56910   0.57341   0.57664   0.57866
 Alpha virt. eigenvalues --    0.58235   0.58382   0.58525   0.58857   0.58924
 Alpha virt. eigenvalues --    0.59383   0.59492   0.59646   0.60008   0.60197
 Alpha virt. eigenvalues --    0.60641   0.60795   0.61028   0.61451   0.61496
 Alpha virt. eigenvalues --    0.61733   0.62218   0.62400   0.62832   0.63299
 Alpha virt. eigenvalues --    0.63796   0.63977   0.64302   0.64861   0.64986
 Alpha virt. eigenvalues --    0.65464   0.65625   0.66025   0.66230   0.66781
 Alpha virt. eigenvalues --    0.66995   0.67230   0.67756   0.68081   0.68323
 Alpha virt. eigenvalues --    0.68763   0.68946   0.68978   0.69933   0.70138
 Alpha virt. eigenvalues --    0.70335   0.70690   0.71068   0.71329   0.71888
 Alpha virt. eigenvalues --    0.71996   0.72176   0.72668   0.72835   0.73285
 Alpha virt. eigenvalues --    0.73572   0.73784   0.74464   0.74673   0.74701
 Alpha virt. eigenvalues --    0.75805   0.76000   0.76436   0.76914   0.77130
 Alpha virt. eigenvalues --    0.77782   0.78042   0.78540   0.78655   0.78960
 Alpha virt. eigenvalues --    0.79334   0.79774   0.80437   0.80618   0.80831
 Alpha virt. eigenvalues --    0.81417   0.81652   0.82188   0.82474   0.82697
 Alpha virt. eigenvalues --    0.83072   0.83375   0.83487   0.83659   0.83886
 Alpha virt. eigenvalues --    0.84193   0.84584   0.84678   0.84751   0.85031
 Alpha virt. eigenvalues --    0.85217   0.85450   0.85753   0.86011   0.86289
 Alpha virt. eigenvalues --    0.86507   0.86646   0.86922   0.87486   0.87551
 Alpha virt. eigenvalues --    0.87727   0.88001   0.88179   0.88384   0.88789
 Alpha virt. eigenvalues --    0.89069   0.89085   0.89623   0.89761   0.89922
 Alpha virt. eigenvalues --    0.90309   0.90378   0.90828   0.90890   0.91081
 Alpha virt. eigenvalues --    0.91314   0.91584   0.91812   0.92090   0.92180
 Alpha virt. eigenvalues --    0.92376   0.92557   0.93082   0.93604   0.93741
 Alpha virt. eigenvalues --    0.94079   0.94162   0.94638   0.94926   0.95122
 Alpha virt. eigenvalues --    0.95269   0.95682   0.95867   0.96094   0.96359
 Alpha virt. eigenvalues --    0.96678   0.96982   0.97277   0.97662   0.98025
 Alpha virt. eigenvalues --    0.98724   0.99345   0.99553   0.99795   1.00030
 Alpha virt. eigenvalues --    1.00327   1.00492   1.01301   1.02111   1.02202
 Alpha virt. eigenvalues --    1.02679   1.03131   1.03757   1.04308   1.04734
 Alpha virt. eigenvalues --    1.05274   1.06146   1.06716   1.07172   1.08004
 Alpha virt. eigenvalues --    1.08509   1.09101   1.09829   1.10143   1.10633
 Alpha virt. eigenvalues --    1.10767   1.11957   1.12524   1.13206   1.13761
 Alpha virt. eigenvalues --    1.14098   1.14749   1.15321   1.15580   1.15978
 Alpha virt. eigenvalues --    1.16257   1.17603   1.17747   1.18338   1.18562
 Alpha virt. eigenvalues --    1.18848   1.19487   1.20164   1.20809   1.21566
 Alpha virt. eigenvalues --    1.21887   1.23061   1.23814   1.23967   1.24807
 Alpha virt. eigenvalues --    1.25655   1.26061   1.27041   1.27556   1.27806
 Alpha virt. eigenvalues --    1.28007   1.28450   1.29151   1.29564   1.30862
 Alpha virt. eigenvalues --    1.31585   1.31866   1.33031   1.34805   1.35398
 Alpha virt. eigenvalues --    1.35987   1.36839   1.37258   1.37569   1.38032
 Alpha virt. eigenvalues --    1.38716   1.39698   1.39984   1.40748   1.41147
 Alpha virt. eigenvalues --    1.41827   1.42980   1.43192   1.43539   1.43678
 Alpha virt. eigenvalues --    1.43848   1.45034   1.45710   1.46032   1.46245
 Alpha virt. eigenvalues --    1.46739   1.47011   1.47439   1.48196   1.48572
 Alpha virt. eigenvalues --    1.49083   1.49495   1.50099   1.50458   1.51208
 Alpha virt. eigenvalues --    1.52672   1.53160   1.54339   1.54702   1.55734
 Alpha virt. eigenvalues --    1.56167   1.57717   1.58156   1.58965   1.59463
 Alpha virt. eigenvalues --    1.60404   1.60543   1.61902   1.62585   1.62707
 Alpha virt. eigenvalues --    1.63987   1.65071   1.65744   1.65907   1.66817
 Alpha virt. eigenvalues --    1.67316   1.67668   1.67981   1.68910   1.69355
 Alpha virt. eigenvalues --    1.71038   1.71281   1.72059   1.73081   1.73378
 Alpha virt. eigenvalues --    1.73932   1.74479   1.75143   1.76841   1.76933
 Alpha virt. eigenvalues --    1.77530   1.78122   1.78341   1.78582   1.79160
 Alpha virt. eigenvalues --    1.80049   1.80849   1.81340   1.81634   1.81817
 Alpha virt. eigenvalues --    1.82434   1.82694   1.83835   1.84266   1.84593
 Alpha virt. eigenvalues --    1.84911   1.85746   1.86420   1.86784   1.86980
 Alpha virt. eigenvalues --    1.87619   1.87678   1.88551   1.89795   1.89905
 Alpha virt. eigenvalues --    1.90354   1.90500   1.90584   1.91086   1.91295
 Alpha virt. eigenvalues --    1.91411   1.91694   1.91850   1.91936   1.92096
 Alpha virt. eigenvalues --    1.92219   1.92558   1.92829   1.93210   1.93337
 Alpha virt. eigenvalues --    1.93779   1.94290   1.94401   1.94770   1.95489
 Alpha virt. eigenvalues --    1.95625   1.96585   1.96928   1.97956   1.98470
 Alpha virt. eigenvalues --    1.98739   1.99364   1.99818   2.00270   2.00903
 Alpha virt. eigenvalues --    2.01403   2.01692   2.02338   2.02772   2.03679
 Alpha virt. eigenvalues --    2.03945   2.04537   2.04912   2.05355   2.05691
 Alpha virt. eigenvalues --    2.05907   2.06618   2.06933   2.07330   2.07529
 Alpha virt. eigenvalues --    2.07958   2.09112   2.09244   2.09404   2.10194
 Alpha virt. eigenvalues --    2.10442   2.10853   2.11505   2.12159   2.12545
 Alpha virt. eigenvalues --    2.13079   2.13482   2.14277   2.14497   2.14818
 Alpha virt. eigenvalues --    2.15246   2.15803   2.16095   2.16639   2.17351
 Alpha virt. eigenvalues --    2.17409   2.17468   2.17926   2.18149   2.18829
 Alpha virt. eigenvalues --    2.19033   2.19107   2.19652   2.19917   2.20058
 Alpha virt. eigenvalues --    2.20414   2.20833   2.21141   2.21646   2.21993
 Alpha virt. eigenvalues --    2.22486   2.22581   2.23078   2.23575   2.24027
 Alpha virt. eigenvalues --    2.24369   2.24922   2.25035   2.25585   2.26197
 Alpha virt. eigenvalues --    2.26294   2.26468   2.27073   2.27883   2.28309
 Alpha virt. eigenvalues --    2.29240   2.29718   2.30615   2.31373   2.31893
 Alpha virt. eigenvalues --    2.32216   2.32449   2.32934   2.33289   2.33754
 Alpha virt. eigenvalues --    2.34186   2.35053   2.35617   2.36384   2.36585
 Alpha virt. eigenvalues --    2.37133   2.38131   2.38739   2.38881   2.39708
 Alpha virt. eigenvalues --    2.40342   2.42092   2.43096   2.44440   2.44897
 Alpha virt. eigenvalues --    2.46979   2.47250   2.47833   2.48125   2.48252
 Alpha virt. eigenvalues --    2.49298   2.49713   2.50504   2.52805   2.54282
 Alpha virt. eigenvalues --    2.54667   2.55173   2.56328   2.58062   2.59149
 Alpha virt. eigenvalues --    2.59635   2.59853   2.60519   2.61388   2.62161
 Alpha virt. eigenvalues --    2.63115   2.63139   2.64074   2.64782   2.65361
 Alpha virt. eigenvalues --    2.67049   2.68469   2.68862   2.69798   2.71255
 Alpha virt. eigenvalues --    2.71471   2.73436   2.76439   2.77665   2.77841
 Alpha virt. eigenvalues --    2.77890   2.78761   2.78977   2.79310   2.79623
 Alpha virt. eigenvalues --    2.80305   2.80461   2.80879   2.81373   2.82478
 Alpha virt. eigenvalues --    2.84111   2.84797   2.85821   2.86403   2.87583
 Alpha virt. eigenvalues --    2.88294   2.89805   2.91221   2.93316   2.94200
 Alpha virt. eigenvalues --    2.95417   2.96584   2.98563   3.00605   3.01876
 Alpha virt. eigenvalues --    3.03404   3.03581   3.07425   3.09128   3.10572
 Alpha virt. eigenvalues --    3.12038   3.13102   3.24534   3.26569   3.31512
 Alpha virt. eigenvalues --    3.45496  12.96128
          Condensed to atoms (all electrons):
 Mulliken charges:
               1
     1  C    0.359005
     2  C    0.088022
     3  C   -0.163576
     4  C   -0.136210
     5  C   -0.155303
     6  C    0.297728
     7  C    0.039858
     8  C   -0.171636
     9  C   -0.140644
    10  C   -0.171467
    11  H    0.185102
    12  H    0.177930
    13  H    0.169071
    14  H    0.190274
    15  H    0.178296
    16  H    0.169985
    17  N   -0.572106
    18  N   -0.454870
    19  Ir  -0.137882
    20  O   -0.518100
    21  O   -0.512030
    22  O   -0.495649
    23  B    0.519091
    24  B    0.395613
    25  B    0.543632
    26  O   -0.481688
    27  O   -0.533271
    28  C    0.296377
    29  C    0.291577
    30  C    0.289087
    31  C    0.291854
    32  C    0.299502
    33  C    0.291899
    34  O   -0.522217
    35  C   -0.504828
    36  H    0.171263
    37  H    0.182499
    38  H    0.141826
    39  C   -0.509978
    40  H    0.173289
    41  H    0.148372
    42  H    0.166886
    43  C   -0.506075
    44  H    0.169348
    45  H    0.168858
    46  H    0.151390
    47  C   -0.509116
    48  H    0.160156
    49  H    0.158554
    50  H    0.160520
    51  C   -0.512023
    52  H    0.167294
    53  H    0.147881
    54  H    0.167755
    55  C   -0.505858
    56  H    0.171249
    57  H    0.173934
    58  H    0.144213
    59  C   -0.495933
    60  H    0.169262
    61  H    0.144002
    62  H    0.165500
    63  C   -0.509560
    64  H    0.162324
    65  H    0.169343
    66  H    0.149528
    67  C   -0.506058
    68  H    0.189087
    69  H    0.163462
    70  H    0.153629
    71  C   -0.516297
    72  H    0.178165
    73  H    0.178942
    74  H    0.152160
    75  C   -0.510820
    76  H    0.154244
    77  H    0.176424
    78  H    0.187990
    79  C   -0.513852
    80  H    0.161922
    81  H    0.175634
    82  H    0.160494
    83  H    0.165258
    84  C    0.579683
    85  O   -0.540588
    86  C   -0.404568
    87  H    0.163792
    88  H    0.141511
    89  C   -0.327640
    90  H    0.161952
    91  H    0.179925
    92  N   -0.360971
    93  C   -0.378599
    94  H    0.152715
    95  H    0.173326
    96  H    0.202759
    97  C   -0.260251
    98  H    0.138665
    99  H    0.163404
   100  C   -0.275403
   101  H    0.137132
   102  H    0.127858
   103  C   -0.280919
   104  H    0.142166
   105  H    0.150446
   106  C   -0.497253
   107  H    0.162339
   108  H    0.159064
   109  H    0.155779
   110  H    0.172597
   111  H    0.171567
 Sum of Mulliken charges =  -0.00000
 Mulliken charges with hydrogens summed into heavy atoms:
               1
     1  C    0.359005
     2  C    0.273125
     3  C    0.007991
     4  C    0.041720
     5  C    0.013768
     6  C    0.297728
     7  C    0.230133
     8  C    0.000961
     9  C    0.037652
    10  C   -0.001482
    17  N   -0.572106
    18  N   -0.454870
    19  Ir  -0.137882
    20  O   -0.518100
    21  O   -0.512030
    22  O   -0.495649
    23  B    0.519091
    24  B    0.395613
    25  B    0.708890
    26  O   -0.481688
    27  O   -0.533271
    28  C    0.296377
    29  C    0.291577
    30  C    0.289087
    31  C    0.291854
    32  C    0.299502
    33  C    0.291899
    34  O   -0.522217
    35  C   -0.009241
    39  C   -0.021431
    43  C   -0.016480
    47  C   -0.029886
    51  C   -0.029093
    55  C   -0.016463
    59  C   -0.017169
    63  C   -0.028365
    67  C    0.000120
    71  C   -0.007031
    75  C    0.007838
    79  C   -0.015801
    84  C    0.579683
    85  O   -0.540588
    86  C   -0.099264
    89  C    0.014237
    92  N   -0.360971
    93  C    0.150200
    97  C    0.041817
   100  C   -0.010414
   103  C    0.011693
   106  C   -0.020070
 APT charges:
               1
     1  C    0.080997
     2  C    0.029971
     3  C   -0.038697
     4  C    0.061887
     5  C   -0.114463
     6  C    0.223163
     7  C    0.018792
     8  C   -0.049768
     9  C    0.119696
    10  C   -0.190503
    11  H    0.097513
    12  H    0.032518
    13  H    0.042582
    14  H    0.101808
    15  H    0.025336
    16  H    0.041189
    17  N    0.056802
    18  N   -0.154382
    19  Ir  -0.937308
    20  O   -1.005789
    21  O   -0.900772
    22  O   -0.994939
    23  B    1.181946
    24  B    1.298957
    25  B    1.411168
    26  O   -0.993564
    27  O   -1.000641
    28  C    0.518747
    29  C    0.502684
    30  C    0.522390
    31  C    0.513075
    32  C    0.461547
    33  C    0.447679
    34  O   -0.963878
    35  C   -0.032032
    36  H    0.001172
    37  H    0.025590
    38  H   -0.030341
    39  C   -0.006383
    40  H    0.000967
    41  H   -0.017644
    42  H   -0.001525
    43  C   -0.008696
    44  H   -0.000218
    45  H    0.001790
    46  H   -0.018807
    47  C   -0.038129
    48  H   -0.000125
    49  H   -0.019765
    50  H   -0.001328
    51  C   -0.009439
    52  H   -0.002916
    53  H   -0.016400
    54  H   -0.000857
    55  C   -0.014245
    56  H   -0.002848
    57  H    0.004323
    58  H   -0.026529
    59  C   -0.012657
    60  H   -0.005230
    61  H   -0.032418
    62  H   -0.008297
    63  C    0.002123
    64  H    0.000859
    65  H   -0.001144
    66  H   -0.023172
    67  C   -0.024629
    68  H    0.013825
    69  H   -0.009114
    70  H   -0.017241
    71  C   -0.011231
    72  H    0.008770
    73  H    0.005823
    74  H   -0.013047
    75  C   -0.039288
    76  H   -0.022984
    77  H    0.005072
    78  H    0.016236
    79  C   -0.014774
    80  H   -0.000684
    81  H    0.011950
    82  H   -0.010820
    83  H    0.060792
    84  C    0.838756
    85  O   -0.682951
    86  C    0.006327
    87  H   -0.038041
    88  H   -0.028403
    89  C    0.269325
    90  H   -0.047180
    91  H   -0.041446
    92  N   -0.757956
    93  C    0.292299
    94  H   -0.008030
    95  H   -0.061742
    96  H    0.022819
    97  C    0.100818
    98  H   -0.021798
    99  H   -0.021025
   100  C    0.110937
   101  H   -0.055090
   102  H   -0.053169
   103  C    0.115605
   104  H   -0.050660
   105  H   -0.047408
   106  C    0.062528
   107  H   -0.042420
   108  H   -0.021192
   109  H   -0.021316
   110  H    0.031290
   111  H    0.039046
 Sum of APT charges =   0.00000
 APT charges with hydrogens summed into heavy atoms:
               1
     1  C    0.080997
     2  C    0.127484
     3  C    0.000349
     4  C    0.094405
     5  C   -0.071881
     6  C    0.223163
     7  C    0.120600
     8  C   -0.018478
     9  C    0.145032
    10  C   -0.149314
    17  N    0.056802
    18  N   -0.154382
    19  Ir  -0.937308
    20  O   -1.005789
    21  O   -0.900772
    22  O   -0.994939
    23  B    1.181946
    24  B    1.298957
    25  B    1.471960
    26  O   -0.993564
    27  O   -1.000641
    28  C    0.518747
    29  C    0.502684
    30  C    0.522390
    31  C    0.513075
    32  C    0.461547
    33  C    0.447679
    34  O   -0.963878
    35  C   -0.035611
    39  C   -0.024585
    43  C   -0.025932
    47  C   -0.059347
    51  C   -0.029612
    55  C   -0.039299
    59  C   -0.058601
    63  C   -0.021334
    67  C   -0.037159
    71  C   -0.009686
    75  C   -0.040964
    79  C   -0.014328
    84  C    0.838756
    85  O   -0.682951
    86  C   -0.060117
    89  C    0.180700
    92  N   -0.757956
    93  C    0.245346
    97  C    0.057995
   100  C    0.002677
   103  C    0.017538
   106  C   -0.022400
 Electronic spatial extent (au):  <R**2>=          31017.5629
 Charge=             -0.0000 electrons
 Dipole moment (field-independent basis, Debye):
    X=             -1.5747    Y=             -0.5130    Z=              2.6136  Tot=              3.0941
 Quadrupole moment (field-independent basis, Debye-Ang):
   XX=           -303.0652   YY=           -295.3508   ZZ=           -298.5991
   XY=             20.3994   XZ=              8.3903   YZ=             -8.8962
 Traceless Quadrupole moment (field-independent basis, Debye-Ang):
   XX=             -4.0601   YY=              3.6542   ZZ=              0.4059
   XY=             20.3994   XZ=              8.3903   YZ=             -8.8962
 Octapole moment (field-independent basis, Debye-Ang**2):
  XXX=           -123.6470  YYY=            -30.2082  ZZZ=             11.0427  XYY=            -82.7557
  XXY=             -1.7438  XXZ=              2.7912  XZZ=             -3.9253  YZZ=            -65.9444
  YYZ=              5.6703  XYZ=            -23.9160
 Hexadecapole moment (field-independent basis, Debye-Ang**3):
 XXXX=         -22806.4393 YYYY=         -10563.5049 ZZZZ=          -8094.1247 XXXY=            131.9913
 XXXZ=            157.1075 YYYX=            217.1520 YYYZ=           -206.6651 ZZZX=            142.9562
 ZZZY=           -106.8204 XXYY=          -5554.5354 XXZZ=          -4878.7315 YYZZ=          -2948.3238
 XXYZ=            132.3560 YYXZ=             40.9025 ZZXY=             -8.7310
 N-N= 8.033636434052D+03 E-N=-2.134473926242D+04  KE= 2.191911555144D+03
  Exact polarizability:     561.989      31.209     487.062      25.664     -38.331     468.777
 Approx polarizability:     748.307      60.621     720.518      56.801     -74.246     715.042
   1 Symmetry operations used in ECPInt.
 ECPInt:  NShTT=   53301 NPrTT=  320676 LenC2=   39395 LenP2D=  120853.
 LDataN:  DoStor=T MaxTD1= 8 Len=  415
 Calling FoFJK, ICntrl=    100127 FMM=F ISym2X=0 I1Cent= 0 IOpClX= 0 NMat=1 NMatS=1 NMatT=0.
 Defaulting to unpruned grid for atomic number  77.
 Defaulting to unpruned grid for atomic number  77.
 Defaulting to unpruned grid for atomic number  77.
 Defaulting to unpruned grid for atomic number  77.
 Defaulting to unpruned grid for atomic number  77.
 Defaulting to unpruned grid for atomic number  77.
 Defaulting to unpruned grid for atomic number  77.
 Defaulting to unpruned grid for atomic number  77.
 Defaulting to unpruned grid for atomic number  77.
 Defaulting to unpruned grid for atomic number  77.
 Defaulting to unpruned grid for atomic number  77.
 Defaulting to unpruned grid for atomic number  77.
 Defaulting to unpruned grid for atomic number  77.
 Defaulting to unpruned grid for atomic number  77.
 Defaulting to unpruned grid for atomic number  77.
 Defaulting to unpruned grid for atomic number  77.
 Full mass-weighted force constant matrix:
 Low frequencies ---  -26.7228   -0.0009   -0.0008    0.0007    3.4030    5.0354
 Low frequencies ---    7.6981   14.2072   15.8248
 ******    1 imaginary frequencies (negative Signs) ****** 
 Diagonal vibrational polarizability:
      114.0724494      95.6495030      83.7379178
 Harmonic frequencies (cm**-1), IR intensities (KM/Mole), Raman scattering
 activities (A**4/AMU), depolarization ratios for plane and unpolarized
 incident light, reduced masses (AMU), force constants (mDyne/A),
 and normal coordinates:
                      1                      2                      3
                      A                      A                      A
 Frequencies --    -26.5654                13.6572                15.3625
 Red. masses --      4.4705                 4.2631                 4.1063
 Frc consts  --      0.0019                 0.0005                 0.0006
 IR Inten    --      0.5366                 0.0963                 0.1307
  Atom AN      X      Y      Z        X      Y      Z        X      Y      Z
     1   6    -0.02  -0.01   0.00     0.03   0.00  -0.04    -0.01  -0.04   0.01
     2   6    -0.00  -0.02  -0.00     0.01   0.01  -0.03     0.02  -0.05   0.00
     3   6    -0.00  -0.03  -0.01     0.01   0.02  -0.04     0.01  -0.06   0.01
     4   6    -0.01  -0.03  -0.01     0.02   0.02  -0.04     0.00  -0.07   0.01
     5   6    -0.02  -0.02  -0.00     0.03   0.01  -0.04    -0.01  -0.06   0.01
     6   6    -0.02  -0.01   0.00     0.04  -0.01  -0.04    -0.03  -0.02   0.01
     7   6    -0.02  -0.01   0.00     0.04  -0.02  -0.03    -0.04   0.00   0.01
     8   6    -0.02  -0.01   0.01     0.06  -0.03  -0.05    -0.06   0.01   0.02
     9   6    -0.02  -0.01   0.01     0.08  -0.04  -0.06    -0.06  -0.00   0.02
    10   6    -0.02  -0.00   0.01     0.06  -0.03  -0.06    -0.05  -0.02   0.02
    11   1    -0.00  -0.01  -0.00    -0.00   0.01  -0.03     0.03  -0.05   0.00
    12   1    -0.01  -0.03  -0.01     0.02   0.03  -0.04     0.00  -0.08   0.01
    13   1    -0.02  -0.02  -0.00     0.03   0.01  -0.04    -0.02  -0.06   0.01
    14   1    -0.02  -0.02  -0.00     0.02  -0.01  -0.02    -0.04   0.01   0.01
    15   1    -0.02  -0.00   0.01     0.10  -0.06  -0.08    -0.07   0.00   0.03
    16   1    -0.02  -0.00   0.01     0.08  -0.04  -0.07    -0.05  -0.02   0.02
    17   7    -0.01  -0.01  -0.00     0.01   0.01  -0.03     0.00  -0.04   0.00
    18   7    -0.03  -0.01   0.01     0.03  -0.00  -0.03    -0.03  -0.01   0.01
    19  77    -0.02   0.02   0.04     0.00   0.00  -0.02    -0.00  -0.02   0.00
    20   8     0.01  -0.02  -0.03    -0.02  -0.01  -0.02     0.02  -0.01   0.01
    21   8     0.01   0.03   0.07     0.05  -0.00   0.01     0.01  -0.00   0.00
    22   8     0.02  -0.07  -0.02    -0.01   0.01   0.02    -0.01   0.01  -0.00
    23   5     0.02   0.03   0.07     0.02  -0.00   0.01     0.01   0.00   0.00
    24   5     0.04  -0.00  -0.03    -0.00   0.00  -0.03     0.03  -0.02   0.00
    25   5    -0.01   0.02  -0.02    -0.02   0.00   0.00    -0.01   0.00  -0.00
    26   8    -0.00   0.09  -0.05    -0.03  -0.00   0.00    -0.02   0.01  -0.00
    27   8     0.07   0.01  -0.07     0.00   0.01  -0.04     0.06  -0.03  -0.01
    28   6     0.04  -0.00  -0.09    -0.02   0.00  -0.04     0.08  -0.03  -0.02
    29   6     0.01  -0.02  -0.05    -0.03  -0.01  -0.03     0.05  -0.01   0.00
    30   6     0.05  -0.07  -0.04    -0.03   0.01   0.03    -0.02   0.02  -0.00
    31   6     0.07   0.03  -0.06    -0.04   0.00   0.02    -0.03   0.01  -0.00
    32   6    -0.01   0.01   0.07     0.06  -0.00   0.03     0.01   0.00   0.00
    33   6     0.01   0.01   0.06     0.04  -0.00   0.05     0.02   0.02  -0.00
    34   8     0.02   0.03   0.06     0.02   0.00   0.03     0.02   0.02   0.00
    35   6     0.02  -0.02  -0.01    -0.03  -0.02  -0.01     0.07   0.03   0.03
    36   1    -0.00  -0.04   0.03    -0.03  -0.02   0.01     0.04   0.04   0.04
    37   1     0.06  -0.00   0.01    -0.01  -0.02  -0.00     0.07   0.04   0.03
    38   1     0.02  -0.02  -0.02    -0.03  -0.02  -0.01     0.10   0.03   0.02
    39   6    -0.03  -0.04  -0.07    -0.06  -0.01  -0.03     0.05  -0.02  -0.00
    40   1    -0.06  -0.06  -0.04    -0.06  -0.02  -0.02     0.03  -0.01   0.01
    41   1    -0.04  -0.04  -0.09    -0.06  -0.01  -0.04     0.07  -0.02  -0.01
    42   1    -0.05  -0.05  -0.09    -0.06  -0.00  -0.05     0.03  -0.05  -0.02
    43   6     0.07   0.01  -0.10    -0.01   0.00  -0.04     0.13  -0.02  -0.02
    44   1     0.09   0.02  -0.06    -0.00  -0.00  -0.03     0.13   0.01   0.00
    45   1     0.10   0.03  -0.13    -0.00   0.01  -0.05     0.14  -0.03  -0.03
    46   1     0.04   0.00  -0.12    -0.03   0.00  -0.04     0.14  -0.02  -0.02
    47   6     0.03  -0.01  -0.13    -0.03   0.01  -0.06     0.07  -0.07  -0.04
    48   1     0.01  -0.02  -0.12    -0.03   0.01  -0.06     0.04  -0.08  -0.04
    49   1     0.01  -0.02  -0.15    -0.04   0.01  -0.07     0.09  -0.08  -0.05
    50   1     0.05   0.00  -0.15    -0.01   0.02  -0.08     0.09  -0.08  -0.05
    51   6    -0.01  -0.01   0.05     0.08  -0.00   0.04    -0.00  -0.00  -0.01
    52   1    -0.02  -0.00   0.06     0.09  -0.00   0.02    -0.00  -0.01  -0.00
    53   1    -0.02  -0.03   0.05     0.09  -0.00   0.05     0.00   0.00  -0.01
    54   1     0.01  -0.02   0.04     0.08  -0.00   0.04    -0.01   0.00  -0.02
    55   6    -0.03   0.02   0.09     0.06  -0.00   0.02     0.02  -0.00   0.02
    56   1    -0.03   0.02   0.08     0.08  -0.00   0.00     0.02  -0.02   0.02
    57   1    -0.05   0.05   0.09     0.04  -0.00   0.01     0.03   0.00   0.02
    58   1    -0.05  -0.01   0.10     0.07  -0.00   0.03     0.02  -0.00   0.02
    59   6     0.02  -0.00   0.04     0.04  -0.00   0.06     0.00   0.04  -0.01
    60   1     0.03   0.00   0.03     0.04  -0.00   0.05    -0.01   0.03  -0.02
    61   1     0.01  -0.02   0.03     0.05  -0.01   0.07    -0.00   0.04  -0.02
    62   1     0.03  -0.00   0.03     0.02  -0.00   0.07     0.00   0.05  -0.01
    63   6    -0.01  -0.00   0.06     0.03  -0.00   0.06     0.03   0.03   0.00
    64   1    -0.02   0.00   0.07     0.03  -0.00   0.05     0.04   0.03   0.01
    65   1     0.00  -0.01   0.05     0.02  -0.00   0.07     0.04   0.05  -0.00
    66   1    -0.02  -0.02   0.05     0.05  -0.00   0.07     0.03   0.04  -0.00
    67   6     0.15   0.07  -0.10    -0.05  -0.00   0.01    -0.03   0.01  -0.01
    68   1     0.16   0.15  -0.11    -0.06  -0.01  -0.01    -0.04   0.00  -0.01
    69   1     0.15   0.06  -0.10    -0.03  -0.01   0.00    -0.03   0.01  -0.01
    70   1     0.21   0.03  -0.13    -0.06   0.00   0.01    -0.04   0.01  -0.01
    71   6     0.06   0.05  -0.06    -0.06   0.01   0.02    -0.03   0.02  -0.00
    72   1    -0.01   0.04  -0.03    -0.06   0.01   0.03    -0.02   0.02  -0.00
    73   1     0.07   0.12  -0.08    -0.07   0.00   0.01    -0.03   0.01  -0.00
    74   1     0.10   0.00  -0.07    -0.07   0.01   0.03    -0.04   0.02  -0.00
    75   6    -0.01  -0.09   0.01    -0.03   0.01   0.04    -0.02   0.03   0.00
    76   1     0.00  -0.10   0.00    -0.04   0.02   0.05    -0.02   0.03   0.00
    77   1    -0.02  -0.16   0.04    -0.02   0.02   0.05    -0.01   0.03   0.00
    78   1    -0.06  -0.05   0.03    -0.03   0.01   0.04    -0.01   0.03   0.00
    79   6     0.12  -0.14  -0.08    -0.02   0.02   0.05    -0.03   0.02  -0.00
    80   1     0.15  -0.12  -0.10    -0.02   0.02   0.04    -0.03   0.02  -0.01
    81   1     0.08  -0.22  -0.07    -0.01   0.02   0.05    -0.03   0.03  -0.00
    82   1     0.16  -0.15  -0.11    -0.04   0.02   0.06    -0.04   0.03  -0.00
    83   1    -0.20   0.03   0.16    -0.02   0.00   0.00     0.00  -0.00   0.00
    84   6    -0.03   0.00  -0.01    -0.02  -0.01  -0.02    -0.00  -0.02  -0.02
    85   8    -0.03  -0.01  -0.02    -0.05  -0.02  -0.03     0.03  -0.01  -0.02
    86   6    -0.02  -0.01  -0.01    -0.01  -0.03   0.01    -0.02   0.02  -0.04
    87   1    -0.02  -0.00  -0.01     0.02  -0.03   0.02    -0.02   0.02  -0.03
    88   1    -0.01  -0.01  -0.01    -0.01  -0.02   0.01    -0.06   0.02  -0.04
    89   6    -0.03   0.04  -0.01    -0.02   0.02  -0.06    -0.01  -0.05   0.02
    90   1    -0.04   0.06  -0.01    -0.02   0.06  -0.06    -0.02  -0.09   0.03
    91   1    -0.04   0.03  -0.03    -0.04   0.00  -0.09     0.01  -0.04   0.05
    92   7    -0.02   0.03  -0.00    -0.01   0.01  -0.04    -0.02  -0.04  -0.01
    93   6    -0.01   0.03  -0.00     0.02   0.02  -0.02    -0.05  -0.06  -0.03
    94   1    -0.01   0.03   0.02     0.03  -0.00  -0.01    -0.05  -0.05  -0.07
    95   1     0.02   0.03   0.00     0.01   0.03  -0.03    -0.06  -0.08  -0.03
    96   1    -0.01   0.02  -0.02     0.03   0.04  -0.02    -0.05  -0.07  -0.03
    97   6    -0.02  -0.02  -0.01    -0.04  -0.03   0.05    -0.00   0.06  -0.03
    98   1    -0.02  -0.02  -0.01    -0.10  -0.07   0.04    -0.02   0.03  -0.03
    99   1    -0.03  -0.02  -0.02    -0.02  -0.03   0.03     0.06   0.07  -0.05
   100   6    -0.02  -0.02  -0.01    -0.04  -0.00   0.14    -0.04   0.14  -0.00
   101   1    -0.02  -0.02  -0.01     0.02   0.04   0.15    -0.02   0.18  -0.00
   102   1    -0.02  -0.02   0.00    -0.07  -0.01   0.17    -0.11   0.13   0.02
   103   6    -0.02  -0.03  -0.01    -0.07  -0.01   0.18    -0.02   0.20   0.00
   104   1    -0.02  -0.04  -0.01    -0.14  -0.06   0.17    -0.05   0.16   0.00
   105   1    -0.03  -0.03  -0.02    -0.04  -0.00   0.14     0.05   0.21  -0.02
   106   6    -0.02  -0.04  -0.00    -0.07   0.02   0.29    -0.06   0.29   0.04
   107   1    -0.02  -0.04  -0.01    -0.10   0.01   0.32    -0.05   0.32   0.05
   108   1    -0.02  -0.03  -0.00    -0.01   0.08   0.30    -0.04   0.33   0.05
   109   1    -0.02  -0.04   0.01    -0.11   0.01   0.33    -0.13   0.28   0.07
   110   1    -0.02  -0.01   0.00     0.07  -0.04  -0.05    -0.07   0.02   0.02
   111   1     0.00  -0.03  -0.01     0.00   0.03  -0.04     0.03  -0.07   0.00
                      4                      5                      6
                      A                      A                      A
 Frequencies --     20.9900                25.2229                30.3618
 Red. masses --      4.1066                 4.2103                 3.9476
 Frc consts  --      0.0011                 0.0016                 0.0021
 IR Inten    --      0.2763                 0.3645                 0.1169
  Atom AN      X      Y      Z        X      Y      Z        X      Y      Z
     1   6    -0.00  -0.04  -0.01    -0.01   0.02  -0.01    -0.02   0.03   0.04
     2   6    -0.03  -0.01   0.04     0.02  -0.02  -0.06    -0.01   0.02   0.02
     3   6    -0.03  -0.01   0.04     0.02  -0.02  -0.07    -0.04   0.05   0.05
     4   6    -0.01  -0.03   0.02     0.01  -0.00  -0.05    -0.05   0.07   0.08
     5   6    -0.00  -0.05  -0.01    -0.00   0.02  -0.02    -0.04   0.06   0.08
     6   6     0.01  -0.06  -0.03    -0.03   0.04   0.03    -0.01   0.01   0.03
     7   6    -0.00  -0.03  -0.02    -0.01   0.01   0.03     0.03  -0.04  -0.02
     8   6     0.03  -0.08  -0.07    -0.05   0.08   0.09     0.04  -0.04  -0.02
     9   6     0.06  -0.13  -0.10    -0.08   0.13   0.12     0.01  -0.01   0.01
    10   6     0.05  -0.11  -0.08    -0.07   0.11   0.09    -0.01   0.01   0.03
    11   1    -0.04   0.01   0.06     0.03  -0.04  -0.08    -0.00  -0.01  -0.00
    12   1    -0.01  -0.03   0.02     0.02  -0.00  -0.05    -0.07   0.10   0.10
    13   1     0.01  -0.06  -0.02    -0.01   0.03  -0.00    -0.06   0.08   0.10
    14   1    -0.03  -0.00   0.01     0.01  -0.03  -0.00     0.05  -0.06  -0.03
    15   1     0.09  -0.17  -0.14    -0.12   0.18   0.17     0.02  -0.01   0.01
    16   1     0.07  -0.15  -0.10    -0.09   0.15   0.12    -0.02   0.03   0.04
    17   7    -0.01  -0.02   0.02     0.01  -0.00  -0.03    -0.01   0.01   0.02
    18   7    -0.01  -0.02  -0.01    -0.00   0.00   0.01     0.01  -0.01   0.01
    19  77    -0.01  -0.01   0.02    -0.00  -0.01  -0.02     0.01  -0.02  -0.00
    20   8     0.08  -0.03  -0.03     0.03   0.02   0.00    -0.02  -0.03  -0.01
[...]
 00000054,-0.00000020,0.00000294,-0.00000021,-0.00000229,0.00002018,0.0
 0001164,0.00007109,0.00083544,-0.00174868,-0.00080081,0.00180804,-0.00
 132059,-0.00051917,-0.00081393,-0.00070083,0.00016967,-0.00009226,0.00
 003119,0.00000248,-0.00193028,0.00692594,-0.00054371,-0.00001644,-0.00
 074273,0.00041129,-0.00003269,0.00008732,-0.00003306,-0.00002495,0.000
 03608,-0.00001099,-0.00023862,-0.00018135,0.00000633,0.00002448,-0.000
 11076,0.00006704,0.00010112,-0.00002394,-0.00010174,0.00032994,0.00013
 785,0.00026149,-0.00012662,-0.00014805,-0.00008047,-0.00000360,0.00004
 773,0.00000851,-0.00001396,-0.00001023,0.00001187,-0.00000082,-0.00001
 040,-0.00000208,0.00015114,0.00012646,0.00006027,0.00006948,0.00011612
 ,-0.00000640,-0.00000548,-0.00000127,0.00003616,0.00001819,0.00001209,
 0.00000951,-0.00002112,0.00000711,-0.00002911,0.00000248,0.00000719,0.
 00000266,-0.00000081,0.00000022,-0.00000225,0.00000123,-0.00000016,0.0
 0000018,-0.00000358,0.00000157,0.00000082,-0.00000028,0.00000404,0.000
 00338,-0.00000162,0.00000017,-0.00000156,0.00000021,0.00000177,-0.0000
 0250,0.00000105,-0.00000037,0.00000012,0.00000021,0.00000254,-0.000003
 42,0.00000096,-0.00000065,0.00000035,-0.00000041,0.00000004,0.00000090
 ,0.00000004,0.00000263,0.00000010,0.00000017,0.00000012,-0.00000215,-0
 .00000148,-0.00000152,0.00000088,0.00000099,0.00000160,-0.00000027,0.0
 0000008,0.00000060,0.00000090,-0.00001211,-0.00001725,-0.00001814,-0.0
 0000512,-0.00000399,-0.00000247,0.00000106,0.00000591,0.00000120,0.000
 01376,-0.00000105,0.00001353,-0.00000231,0.00000479,-0.00001292,-0.000
 00287,-0.00000195,0.00000065,0.00000283,0.00000519,-0.00000204,0.00000
 071,-0.00000029,0.00000196,-0.00000741,-0.00000119,-0.00000012,0.00000
 940,-0.00000631,0.00002733,0.00000904,-0.00001097,-0.00000374,-0.00000
 955,0.00001262,-0.00001246,-0.00000409,-0.00000323,0.00000181,0.000000
 78,-0.00000205,0.00000023,-0.00000281,0.00000225,-0.00000317,0.0000016
 6,-0.00000069,-0.00000082,-0.00002450,-0.00006164,-0.00003604,-0.00000
 201,-0.00000445,0.00003224,0.00004672,0.00006855,0.00003942,-0.0000144
 2,-0.00002246,-0.00004145,-0.00000170,-0.00002994,0.00000489,0.0000076
 5,-0.00000643,0.00001066,-0.00000399,0.00000484,0.00000055,-0.00000546
 ,-0.00000380,-0.00001173,-0.00006548,-0.00005758,0.00000528,-0.0000065
 8,0.00000895,-0.00001010,0.00000671,0.00000698,-0.00000322,0.00000957,
 -0.00002559,0.00002039,-0.00021017,0.00020383,-0.00006713,0.00014760,-
 0.00017040,0.00010034,0.00000249,-0.00000726,0.00001167,0.00002976,-0.
 00005392,0.00005060,0.00002957,0.00010736,-0.00005512,-0.00002431,0.00
 003406,-0.00003473,0.00000750,-0.00003227,0.00001938,-0.00000141,0.000
 00169,0.00000570,0.00000018,0.00000085,0.00000022,0.00000111,0.0000004
 8,0.00000004,0.00001150,0.00017319,-0.00007373,0.00002192,-0.00000014,
 -0.00002132,-0.00002248,0.00001476,0.00005385,0.00006190,-0.00003168,-
 0.00003494,0.00000775,-0.00001136,0.00000702,-0.00000013,-0.00000081,-
 0.00000110,0.00000270,-0.00000199,-0.00000220,-0.00001016,-0.00000053,
 0.00001241,0.00000048,0.00000289,-0.00000239,0.00000030,0.00000036,0.0
 0000140,0.00000069,-0.00000088,0.00000010,0.00000077,-0.00000035,0.000
 00165,-0.00000040,0.00000008,0.00000012,-0.00000011,-0.00000085,-0.000
 00037,0.00000042,0.00000075,-0.00000032,0.00000014,0.00000020,0.000000
 23,0.00000024,-0.00000064,-0.00000011,0.00000031,0.00000013,0.00000031
 ,-0.00000033,0.00000022,-0.00000016,-0.00000007,0.,0.00000007,0.000000
 03,-0.00000056,0.,0.00037233,-0.01857116,0.04489088,-0.00040201,0.0012
 0695,-0.00100128,-0.01139609,-0.01956793,0.00820634,-0.16798332,-0.141
 51897,0.02285589,0.00749351,0.00600206,-0.00147091,0.00234336,-0.00028
 542,-0.00298178,-0.00025762,0.00025632,0.00044903,0.00000453,-0.000004
 72,0.00004233,-0.00001423,0.00001522,-0.00000052,0.00000884,0.00000596
 ,0.00005607,-0.00004503,-0.00003985,-0.00004229,-0.00019376,0.00107331
 ,0.00140459,-0.00044901,0.00075363,0.00163643,0.00027455,0.00032594,-0
 .00017774,0.00000310,0.00000180,-0.00000652,-0.00000464,-0.00000188,0.
 00000532,0.00003238,-0.00002815,-0.00001334,-0.00222559,-0.00233622,-0
 .00585826,-0.00002815,-0.00003207,-0.00008966,0.00038087,-0.00012520,0
 .00071515,0.00001485,0.00023411,-0.00003136,-0.00005721,0.00005760,0.0
 0008569,-0.00011311,-0.00008550,-0.00001339,0.00012740,-0.00011831,-0.
 00010380,0.00002880,-0.00048445,0.00003848,0.00010345,0.00027937,-0.00
 000848,-0.00006359,-0.00011400,-0.00008558,0.00008258,0.00049301,0.000
 00247,-0.00014069,-0.00013024,0.00012040,-0.00000926,-0.00009234,-0.00
 006379,0.00003035,0.00001866,0.00003591,0.00004538,0.00003207,0.000008
 24,0.00002896,-0.00006157,-0.00003030,0.00001334,-0.00000023,-0.000028
 23,-0.00007479,0.00007047,0.00004129,0.00001544,0.00002782,0.00002455,
 0.00001489,-0.00000126,0.00000652,-0.00000255,-0.00001339,-0.00000341,
 -0.00000853,0.00000947,-0.00000310,0.00000377,0.00001655,0.00000916,0.
 00001300,-0.00000041,0.00000493,-0.00000501,0.00001098,-0.00000827,0.0
 0000060,-0.00000887,-0.00001399,-0.00001878,0.00000863,-0.00005513,0.0
 0001688,-0.00000692,-0.00000486,0.00000684,0.00003165,0.00002838,0.000
 00646,0.00001014,0.00001733,-0.00010533,-0.00005084,-0.00015933,-0.000
 00341,0.00000119,-0.00000415,0.00005693,-0.00000219,0.00003654,0.00002
 253,0.00012243,0.00003033,-0.00000344,0.00001255,0.00000425,0.00000178
 ,-0.00000438,0.00000257,-0.00000451,-0.00000013,0.00000376,0.00000462,
 0.00000526,-0.00000282,-0.00000584,0.00001395,0.00000854,-0.00000030,-
 0.00001101,0.00001245,-0.00001078,-0.00000367,-0.00001309,0.00000132,0
 .00000756,0.00000239,-0.00000049,-0.00000064,0.00000805,-0.00000016,0.
 00000531,-0.00000380,-0.00000389,-0.00000006,0.00000273,0.00000363,-0.
 00000013,0.00000182,-0.00000591,-0.00000583,0.00000370,0.00000122,0.00
 000575,-0.00000044,0.00000013,0.00000061,0.00000009,-0.00000368,0.0000
 0329,0.00000086,-0.00001061,-0.00000950,-0.00000134,0.00000031,0.00000
 229,0.00000036,-0.00000191,0.00000184,-0.00000292,-0.00000120,-0.00000
 739,0.00000036,-0.00000284,-0.00000599,0.00000080,-0.00000027,0.000002
 11,0.00000026,0.00000170,-0.00000014,-0.00000058,-0.00000293,-0.000002
 43,-0.00000343,-0.00000378,-0.00000430,-0.00000718,-0.00000486,0.,-0.0
 0000397,-0.00000143,-0.00000018,0.00000262,0.00000435,-0.00000207,0.00
 000208,-0.00000426,-0.00000171,-0.00000644,0.00000139,0.00000193,-0.00
 000018,-0.00000162,0.00000029,0.00000218,-0.00000320,-0.00000403,-0.00
 000087,-0.00018713,-0.00011855,-0.00016785,0.00000946,-0.00009679,0.00
 003229,0.00001044,0.00003863,-0.00004624,0.00002231,0.00005735,0.00001
 559,-0.00000402,0.00000917,-0.00000580,0.00010028,-0.00004726,0.000042
 71,-0.00012629,0.00003913,0.00009822,0.00001251,-0.00000771,-0.0000186
 2,0.00001392,0.00000684,-0.00001057,0.00010167,0.00010103,0.00000339,-
 0.00002676,-0.00007594,0.00002613,0.00004426,0.00000487,-0.00003489,0.
 00001175,0.00002505,-0.00000680,-0.00002791,-0.00001054,0.00000050,0.0
 0003534,-0.00002020,0.00012631,0.00004722,-0.00003425,-0.00015342,-0.0
 0000914,-0.00000300,-0.00004069,0.00002428,0.00016388,-0.00004948,0.00
 001697,-0.00005173,-0.00001735,0.00009455,-0.00019907,-0.00008025,-0.0
 0002289,-0.00002680,0.00000284,-0.00000239,0.00001324,-0.00001403,0.00
 001452,-0.00001141,0.00000037,-0.00000507,0.00000065,0.00000012,0.0000
 0687,-0.00000169,0.00000296,0.00000329,-0.00000191,-0.00000782,-0.0000
 0588,-0.00000350,0.00000267,0.00001074,-0.00002139,-0.00001059,0.17232
 269,0.00082186,0.00014939,0.00008863,0.00161752,0.00095104,0.00084468,
 -0.14224301,-0.20830846,0.04499775,-0.01450147,-0.01077273,0.00072258,
 0.00000712,0.00047334,0.00540042,0.00031501,-0.00031150,-0.00049575,0.
 00005095,0.00003159,-0.00004582,0.00000333,-0.00004798,0.00003115,-0.0
 0003303,-0.00000610,-0.00007944,0.00001008,-0.00000254,0.00006184,0.00
 090954,-0.00073366,-0.00163702,0.00119253,-0.00042589,-0.00177044,-0.0
 0075560,-0.00051649,0.00004325,-0.00000121,-0.00000963,0.00000642,0.00
 000015,-0.00000815,0.00000170,-0.00002763,0.00007015,-0.00002966,-0.00
 153771,0.00383714,0.00274521,-0.00011860,-0.00008750,0.00004187,0.0000
 3433,0.00002458,-0.00016286,-0.00000853,0.00003664,-0.00004063,-0.0000
 6759,0.00004386,0.00004155,-0.00005044,-0.00003170,-0.00004747,0.00015
 658,-0.00004985,0.00000915,0.00003054,-0.00007933,0.00006125,0.0000344
 0,0.00005644,0.00010230,-0.00001464,-0.00004025,-0.00005776,0.00003466
 ,-0.00002398,0.00003912,0.00000593,0.00000219,-0.00005096,-0.00000266,
 -0.00000510,0.00002613,0.00001695,0.00001617,0.00002900,0.00001224,0.0
 0001738,0.00000603,0.00002617,-0.00003282,-0.00001446,0.00001549,-0.00
 000050,-0.00001109,-0.00005221,0.00002645,0.00000747,-0.00000417,-0.00
 000210,-0.00000753,-0.00000446,-0.00000095,-0.00000020,0.00000163,-0.0
 0000128,-0.00000079,-0.00000010,0.00000295,0.00000091,-0.00000447,0.00
 000030,0.00000084,-0.00000478,-0.00000111,-0.00000133,0.00000242,0.000
 00113,-0.00000016,0.00000173,0.00000215,0.00000283,0.00000659,0.000002
 40,0.00000765,-0.00000280,-0.00000163,-0.00000035,-0.00000168,-0.00000
 312,-0.00000559,-0.00000108,0.00000203,-0.00000366,0.00009694,0.000047
 14,0.00013322,-0.00002425,-0.00000195,-0.00001957,-0.00002513,-0.00000
 401,-0.00002259,-0.00020812,0.00005554,-0.00020227,-0.00000493,0.00000
 294,0.00000268,0.00000163,-0.00000204,-0.00000174,-0.00000428,0.000002
 12,0.00000267,0.00000284,-0.00000001,-0.00000062,-0.00000210,0.0000019
 1,0.00000080,0.00000063,-0.00000179,-0.00000217,0.00000163,-0.00000115
 ,0.00000035,-0.00000284,0.00000416,0.00000207,-0.00000057,-0.00000257,
 0.00000222,0.00000135,0.00000357,0.00000026,-0.00000299,-0.00000024,0.
 00000237,-0.00000077,0.00000025,-0.00000243,-0.00000188,-0.00000020,-0
 .00000077,0.00000125,0.00000020,0.00000009,-0.00000145,0.00000044,-0.0
 0000241,-0.00000162,0.00000069,0.00000231,-0.00000233,-0.00000235,0.00
 000718,0.00000163,0.00000060,-0.00000296,-0.00000125,0.00000280,-0.000
 00051,-0.00000116,-0.00000297,-0.00000052,-0.00000129,-0.00000103,-0.0
 0000011,-0.00000097,0.00000115,0.00000043,0.00000219,-0.00000123,-0.00
 000185,-0.00000151,-0.00000099,-0.00000128,-0.00000248,-0.00000245,-0.
 00000426,-0.00000364,-0.00000095,-0.00000310,0.00000210,0.00000005,0.0
 0000063,0.00000061,0.,0.00000119,-0.00000075,-0.00000491,-0.00000298,-
 0.00000005,0.00000362,0.00000173,0.00000214,0.00000057,0.00000115,-0.0
 0000311,-0.00000206,-0.00000263,-0.00002902,-0.00001713,0.00001684,-0.
 00071222,-0.00018583,0.00001432,0.00031985,0.00000730,-0.00018262,-0.0
 0004781,-0.00007803,0.00006454,0.00001881,0.00012681,0.00007228,0.0000
 3675,0.00009851,-0.00028157,-0.00011049,-0.00001766,0.00008342,0.00003
 497,-0.00000678,-0.00002058,0.00000869,0.00000008,-0.00001506,0.000341
 55,-0.00009062,-0.00006355,-0.00001964,-0.00004931,0.00001147,-0.00001
 003,0.00004394,-0.00004332,0.00000406,0.00000443,-0.00000201,0.0000134
 7,0.00000454,0.00001697,0.00011197,0.00000085,-0.00013791,0.00001851,-
 0.00024124,0.00013990,-0.00007342,0.00006592,0.00009131,0.00006967,-0.
 00010060,-0.00000960,-0.00004217,0.00003422,0.00004041,0.00008079,0.00
 008468,-0.00006630,0.00003410,-0.00000625,0.00000994,0.00001168,-0.000
 02030,0.00002296,-0.00002324,0.00002421,0.00000608,0.00000083,0.000017
 87,-0.00000990,-0.00002526,0.00000158,-0.00000783,-0.00000397,-0.00000
 158,0.00001325,0.00001083,0.00000051,-0.00000070,-0.00002295,0.0000158
 0,0.00001421,0.15431837,0.21594628,-0.00074903,0.00042450,-0.00133145,
 -0.00957151,-0.01445529,0.00587230,0.02322739,0.04520112,-0.05558819,0
 .01601302,0.01545477,0.00087911,-0.00352205,0.00526496,0.00012368,0.00
 045582,-0.00048356,-0.00043340,0.00007317,0.00003068,-0.00002161,0.000
 02167,-0.00003193,0.00003341,-0.00001390,-0.00006832,-0.00000370,0.000
 00633,0.00007005,-0.00004657,0.00147313,-0.00118284,-0.00133962,0.0012
 0581,-0.00210461,-0.00100328,0.00078570,0.00083666,0.00002526,-0.00000
 167,0.00000199,-0.00000496,0.00000285,-0.00000257,-0.00000364,-0.00002
 723,0.00000886,0.00007888,-0.00644675,0.00184398,0.00198332,-0.0001210
 8,-0.00001202,-0.00000408,0.00054255,-0.00006063,0.00052122,0.00001946
 ,0.00002903,-0.00000739,-0.00000049,-0.00001471,-0.00004864,-0.0000150
 2,-0.00003379,-0.00000402,-0.00002321,-0.00001499,0.00006708,0.0000399
 5,-0.00010860,-0.00002212,-0.00005457,0.00012352,-0.00002856,0.0000043
 5,-0.00004255,-0.00003015,0.00012885,-0.00002691,0.00002288,-0.0000375
 9,0.00001792,0.00008194,-0.00000214,-0.00001659,-0.00001389,0.00000326
 ,0.00000317,0.00000939,0.00000437,0.00000109,0.00000002,-0.00000372,0.
 00001795,0.00000381,-0.00000603,-0.00000184,0.00001813,0.00003330,-0.0
 0000537,-0.00003372,0.00000654,0.00001122,0.00000821,0.00000611,-0.000
 00162,-0.00000017,-0.00000088,0.00000028,-0.00000201,0.00000026,-0.000
 00336,0.00000121,0.00000008,0.00000773,0.00000535,0.00000523,0.0000001
 7,0.00000207,-0.00000177,-0.00000021,-0.00000168,0.00000294,-0.0000028
 6,-0.00000887,0.00003719,0.00001513,0.00000648,0.00001112,-0.00000651,
 -0.00000834,-0.00001156,-0.00000602,0.00000369,-0.00000493,-0.00000073
 ,-0.00000434,-0.00001120,-0.00005016,-0.00010381,-0.00002319,-0.000016
 14,-0.00003914,0.00003264,-0.00000485,0.00002154,0.00008652,0.00003616
 ,0.00016053,0.00000157,-0.00000272,-0.00000006,-0.00000145,0.00000330,
 -0.00000259,0.00000201,-0.00000034,-0.00000054,-0.00000258,-0.00000262
 ,-0.00000001,0.00000370,-0.00001177,0.00000935,0.00000024,0.00000837,-
 0.00001145,0.00000378,0.00000133,0.00000685,-0.00000071,-0.00000248,-0
 .00000165,-0.00000091,0.00000115,-0.00000637,-0.00000041,-0.00000013,0
 .00000127,0.00000259,0.00000090,-0.00000080,-0.00000194,-0.00000092,-0
 .00000108,0.00000045,-0.00000069,-0.00000402,-0.00000037,-0.00000092,0
 .00000394,-0.00000259,-0.00000090,-0.00000076,0.00000307,-0.00000004,-
 0.00000162,-0.00000504,-0.00000285,-0.00000072,0.00000071,-0.00000158,
 -0.00000285,-0.00000016,0.00000102,0.00000240,0.00000251,-0.00000154,0
 .00000130,-0.00000030,-0.00000190,0.00000153,-0.00000056,-0.00000020,0
 .00000092,0.00000042,-0.00000134,-0.00000174,0.00000039,0.00000064,-0.
 00000115,-0.00000029,-0.00000113,-0.00000169,-0.00000089,0.00000008,-0
 .00000023,0.00000113,-0.00000034,-0.00000037,0.00000104,0.00000066,0.0
 0000140,-0.00000146,0.00000021,-0.00000343,-0.00000021,-0.00000085,0.0
 0000077,0.00000094,-0.00000015,-0.00000020,-0.00000090,-0.00000108,0.0
 0000078,-0.00013374,-0.00006457,-0.00007260,-0.00047380,-0.00007908,0.
 00006451,0.00017423,-0.00000311,-0.00011168,0.00004429,-0.00032734,0.0
 0005923,-0.00000419,0.00012271,0.00002959,-0.00000042,0.00015227,-0.00
 025233,0.00000238,-0.00000132,-0.00003877,0.00000255,0.00000173,-0.000
 00109,-0.00001244,0.00001522,0.00001629,0.00019995,-0.00008418,-0.0000
 8844,-0.00005122,-0.00007675,0.00003047,0.00002338,0.00003912,-0.00003
 116,0.00001260,0.00002303,0.00000070,-0.00000531,0.00000495,0.00001125
 ,0.00004592,0.00007746,0.00001697,0.00000832,-0.00001928,0.00007824,-0
 .00005243,0.00003230,-0.00000409,0.00000493,-0.00007614,0.00000012,-0.
 00001223,0.00001794,-0.00000222,-0.00001275,0.00009375,0.00005090,0.00
 000178,0.00001176,0.00007082,-0.00000074,0.00000854,-0.00002580,-0.000
 00921,0.00000386,-0.00001740,-0.00000777,0.00001685,-0.00002191,-0.000
 01865,0.00000171,-0.00000263,0.00000591,-0.00000428,-0.00000323,0.0000
 0134,-0.00000990,0.00001022,-0.00001211,0.00002057,0.00002580,-0.02330
 443,-0.05052035,0.05042888\\0.00000686,0.00000154,0.00000413,0.0000070
 4,0.00000423,0.00000248,-0.00000579,-0.00000131,-0.00000640,0.00000418
 ,0.00000315,-0.00000063,-0.00000314,-0.00000044,0.00000099,-0.00000279
 ,-0.00000003,0.00000136,-0.00000746,0.00000149,-0.00000545,-0.00000590
 ,-0.00000470,0.00000811,0.00000268,0.00000762,0.00000163,0.00000454,0.
 00000020,0.00000742,-0.00000012,-0.00000051,-0.00000097,-0.00000101,0.
 00000088,-0.00000146,0.00000014,0.00000259,-0.00000193,0.00000225,0.00
 000066,0.00000433,0.00000041,-0.00000288,0.00000571,-0.00000053,0.0000
 0135,0.00000039,-0.00000091,0.00000118,-0.00000465,0.00000466,0.000008
 45,-0.00000002,0.00000057,-0.00000127,0.00000117,0.00000017,0.00000125
 ,-0.00000247,-0.00000004,0.00000312,0.00000321,-0.00000078,0.00000072,
 0.00000418,-0.00000066,0.00000167,-0.00000073,-0.00000157,0.00000085,-
 0.00000101,-0.00000042,0.00000110,0.00000429,-0.00000008,-0.00000475,-
 0.00000176,0.00000151,-0.00000077,-0.00000242,-0.00000057,-0.00000418,
 -0.00000480,0.00000271,-0.00000366,0.00000075,0.00000392,-0.00000570,0
 .00000757,-0.00000754,0.00000233,0.00000148,0.00000474,0.00000588,-0.0
 0000586,0.00000193,-0.00000139,0.00000098,0.00000229,0.00000312,0.0000
 0095,0.00000060,0.00000182,-0.00000929,0.00000077,0.00000087,0.0000015
 3,-0.00000028,-0.00000153,0.00000193,-0.00000047,-0.00000221,-0.000001
 46,-0.00000444,-0.00000942,-0.00001081,0.00000415,0.00000132,0.0000028
 2,-0.00000037,0.00000176,-0.00000171,-0.00000274,-0.00000045,0.0000008
 7,-0.00000266,0.00000179,-0.00000775,0.00000261,0.00000023,-0.00000261
 ,0.00000215,0.00000102,0.00000002,0.00000062,-0.00000126,-0.00000038,0
 .00000166,0.00000477,0.00000250,0.00000040,-0.00000410,-0.00000331,0.0
 0000022,-0.00000224,-0.00000118,-0.00000321,-0.00000075,-0.00000641,0.
 00000355,0.00000327,0.00000209,0.00000191,0.00000198,0.00000141,-0.000
 00138,0.00000312,0.00000047,-0.00000030,-0.00000023,0.00000020,-0.0000
 0431,0.00000227,-0.00000585,0.00000424,0.00000107,0.00000202,0.0000005
 3,-0.00000018,-0.00000033,0.00000154,0.00000164,-0.00000067,0.00000251
 ,0.00000231,0.00000119,-0.00000223,-0.00000005,-0.00000106,0.00000089,
 0.00000052,-0.00000144,0.00000080,0.00000105,0.00000695,-0.00000120,0.
 00000510,-0.00000346,0.00000218,0.00000262,-0.00000088,-0.00000012,0.0
 0000025,-0.00000030,-0.00000073,0.00000045,0.00000191,0.00000269,-0.00
 000376,-0.00000080,-0.00000425,-0.00000092,0.00000455,0.00000051,0.000
 00010,0.00000397,-0.00000102,-0.00000112,0.00000222,-0.00000088,-0.000
 00954,0.00000674,-0.00000209,0.00000191,0.00000046,-0.00000168,-0.0000
 0163,0.00000104,0.00000192,0.00000116,0.00000256,-0.00000221,0.0000013
 8,-0.00000125,-0.00000144,-0.00000136,0.00000114,-0.00000110,-0.000000
 31,0.00000171,-0.00000056,-0.00000171,0.00000193,-0.00000303,0.0000011
 2,-0.00000037,0.00000166,-0.00000130,0.00000339,-0.00000173,0.00000035
 ,0.00000281,0.00000047,0.00000106,0.00000428,-0.00000159,-0.00000064,-
 0.00000017,0.00000259,0.00001116,-0.00001102,-0.00000295,-0.00000845,0
 .00000740,-0.00000408,-0.00000599,0.00000348,0.00000021,-0.00000097,-0
 .00000259,0.00000026,0.00000035,-0.00000121,-0.00000489,0.00000139,-0.
 00000031,-0.00000106,-0.00000154,0.00000030,0.00000070,-0.00000246,0.0
 0000158,0.00000558,-0.00000735,0.00000617,-0.00000042,-0.00000173,-0.0
 0000306,-0.00000025,-0.00000143,-0.00000072,-0.00000064,-0.00000137,-0
 .00000027,-0.00000172,0.,-0.00000107,0.00000031,0.00000021,-0.00000444
 ,-0.00000012,0.00000070,-0.00000037,0.00000044,0.00000063,-0.00000044,
 -0.00000113,-0.00000930,-0.00000023,-0.00000011,-0.00000130,-0.0000011
 6,0.00000003,0.00000293,-0.00000045,0.00000047,0.00000189,-0.00000388,
 0.00000096,0.00000028,-0.00000220,0.00000006,0.00000002,-0.00000090,-0
 .00000682,0.00000487,-0.00000469,0.00000474,-0.00000297,0.00000192,-0.
 00000049,-0.00000112,-0.00000113,0.00000003,-0.00000627,-0.00000301,0.
 00000333,0.00000342,0.00000191,0.00000116,0.00000105,-0.00000137\\\@
 The archive entry for this job was punched.


 OUR LITTLE SYSTEMS HAVE THEIR DAY,    
   THEY HAVE THEIR DAY AND CEASE TO BE.
   THEY ARE BUT BROKEN LIGHTS OF THEE, 
 AND THOU, OH LORD, ART MORE THAN THEY.
          -------------------          
 LET KNOWLEDGE GROW FROM MORE TO MORE, 
   BUT MORE OF REVERENCE IN US DWELL.  
   THAT MIND AND SOUL, ACCORDING WELL, 
 MAY MAKE ONE MUSIC AS BEFORE.....     
          -------------------          
                    LORD TENNYSON      
 Job cpu time:       1 days 18 hours 31 minutes 57.4 seconds.
 Elapsed time:       0 days  2 hours 42 minutes 38.2 seconds.
 File lengths (MBytes):  RWF=   8594 Int=      0 D2E=      0 Chk=     49 Scr=      1
 Normal termination of Gaussian 16 at Sun Dec  8 00:03:02 2024.
