/mnt/lustre/scratch/nvme/SLURM/9663543/usccqdma.yYwK1Bo9b8
OMP_STACKSIZE=0m
GAUSS_PDEF=16
GAUSS_MDEF=65536MB
GAUSS_RDEF=SCF=Direct
 Entering Gaussian System, Link 0=g16.exe
 Initial command:
 /opt/cesga/2020/software/Core/g16/c1/l1.exe "/mnt/lustre/scratch/nvme/SLURM/9663543/usccqdma.yYwK1Bo9b8/Gau-3485089.inp" -scrdir="/mnt/lustre/scratch/nvme/SLURM/9663543/usccqdma.yYwK1Bo9b8/"
 Default is to use a total of  16 processors:
                               16 via shared-memory
                                1 via Linda
 Entering Link 1 = /opt/cesga/2020/software/Core/g16/c1/l1.exe PID=   3485118.
  
 Copyright (c) 1988-2019, Gaussian, Inc.  All Rights Reserved.
  
 This is part of the Gaussian(R) 16 program.  It is based on
 the Gaussian(R) 09 system (copyright 2009, Gaussian, Inc.),
 the Gaussian(R) 03 system (copyright 2003, Gaussian, Inc.),
 the Gaussian(R) 98 system (copyright 1998, Gaussian, Inc.),
 the Gaussian(R) 94 system (copyright 1995, Gaussian, Inc.),
 the Gaussian 92(TM) system (copyright 1992, Gaussian, Inc.),
 the Gaussian 90(TM) system (copyright 1990, Gaussian, Inc.),
 the Gaussian 88(TM) system (copyright 1988, Gaussian, Inc.),
 the Gaussian 86(TM) system (copyright 1986, Carnegie Mellon
 University), and the Gaussian 82(TM) system (copyright 1983,
 Carnegie Mellon University). Gaussian is a federally registered
 trademark of Gaussian, Inc.
  
 This software contains proprietary and confidential information,
 including trade secrets, belonging to Gaussian, Inc.
  
 This software is provided under written license and may be
 used, copied, transmitted, or stored only in accord with that
 written license.
  
 The following legend is applicable only to US Government
 contracts under FAR:
  
                    RESTRICTED RIGHTS LEGEND
  
 Use, reproduction and disclosure by the US Government is
 subject to restrictions as set forth in subparagraphs (a)
 and (c) of the Commercial Computer Software - Restricted
 Rights clause in FAR 52.227-19.
  
 Gaussian, Inc.
 340 Quinnipiac St., Bldg. 40, Wallingford CT 06492
  
  
 ---------------------------------------------------------------
 Warning -- This program may not be used in any manner that
 competes with the business of Gaussian, Inc. or will provide
 assistance to any competitor of Gaussian, Inc.  The licensee
 of this program is prohibited from giving any competitor of
 Gaussian, Inc. access to this program.  By using this program,
 the user acknowledges that Gaussian, Inc. is engaged in the
 business of creating and licensing software in the field of
 computational chemistry and represents and warrants to the
 licensee that it is not a competitor of Gaussian, Inc. and that
 it will not use this program in any manner prohibited above.
 ---------------------------------------------------------------
  

 Cite this work as:
 Gaussian 16, Revision C.01,
 M. J. Frisch, G. W. Trucks, H. B. Schlegel, G. E. Scuseria, 
 M. A. Robb, J. R. Cheeseman, G. Scalmani, V. Barone, 
 G. A. Petersson, H. Nakatsuji, X. Li, M. Caricato, A. V. Marenich, 
 J. Bloino, B. G. Janesko, R. Gomperts, B. Mennucci, H. P. Hratchian, 
 J. V. Ortiz, A. F. Izmaylov, J. L. Sonnenberg, D. Williams-Young, 
 F. Ding, F. Lipparini, F. Egidi, J. Goings, B. Peng, A. Petrone, 
 T. Henderson, D. Ranasinghe, V. G. Zakrzewski, J. Gao, N. Rega, 
 G. Zheng, W. Liang, M. Hada, M. Ehara, K. Toyota, R. Fukuda, 
 J. Hasegawa, M. Ishida, T. Nakajima, Y. Honda, O. Kitao, H. Nakai, 
 T. Vreven, K. Throssell, J. A. Montgomery, Jr., J. E. Peralta, 
 F. Ogliaro, M. J. Bearpark, J. J. Heyd, E. N. Brothers, K. N. Kudin, 
 V. N. Staroverov, T. A. Keith, R. Kobayashi, J. Normand, 
 K. Raghavachari, A. P. Rendell, J. C. Burant, S. S. Iyengar, 
 J. Tomasi, M. Cossi, J. M. Millam, M. Klene, C. Adamo, R. Cammi, 
 J. W. Ochterski, R. L. Martin, K. Morokuma, O. Farkas, 
 J. B. Foresman, and D. J. Fox, Gaussian, Inc., Wallingford CT, 2019.
 
 ******************************************
 Gaussian 16:  ES64L-G16RevC.01  3-Jul-2019
                 7-Dec-2024 
 ******************************************
 Default route: SCF=Direct
 ----------------------------------------------------
 # m06/genecp scf=tight int=ultrafine 5d freq=noraman
 ----------------------------------------------------
 1/10=4,30=1,38=1/1,3;
 2/12=2,17=6,18=5,40=1/2;
 3/5=7,8=1,11=2,16=1,17=8,25=1,30=1,71=2,74=-54,75=-5,140=1/1,2,3;
 4//1;
 5/5=2,32=2,38=5,98=1/2;
 8/6=4,10=90,11=11/1;
 11/6=1,8=1,9=11,15=111,16=1/1,2,10;
 10/6=1/2;
 6/7=2,8=2,9=2,10=2,28=1/1;
 7/8=1,10=1,25=1/1,2,3,16;
 1/10=4,30=1/3;
 99//99;
 ------
 OPT-TS
 ------
 Symbolic Z-matrix:
 Charge =  0 Multiplicity = 1
 C                     3.24918  -0.13292  -0.19847 
 H                     2.93336   0.90084  -0.03125 
 C                     4.58886  -0.49251  -0.30312 
 C                     4.91286  -1.8257   -0.51125 
 H                     5.95201  -2.13109  -0.60789 
 C                     3.88859  -2.75806  -0.59094 
 C                     1.56651  -4.65538  -0.49638 
 C                     0.43398  -5.45776  -0.49595 
 H                     0.53225  -6.54139  -0.49271 
 C                    -0.81939  -4.85823  -0.48495 
 C                    -0.89178  -3.47193  -0.48411 
 H                    -1.84271  -2.94111  -0.44594 
 C                     1.41689  -3.26902  -0.50117 
 C                     2.56573  -2.3368   -0.46511 
 C                     0.97426   3.57434   0.60187 
 C                    -0.25462   3.83112  -0.31656 
 C                     0.62057   3.59284   2.08367 
 H                    -0.24029   2.94148   2.28365 
 H                     0.40031   4.6088    2.43923 
 H                     1.47623   3.20678   2.65348 
 C                     2.16977   4.46893   0.34166 
 H                     2.98779   4.20082   1.02352 
 H                     1.91538   5.5241    0.51824 
 H                     2.54027   4.36686  -0.68452 
 C                    -1.29651   4.76963   0.26031 
 H                    -2.11689   4.89649  -0.4589 
 H                    -0.8678    5.76215   0.46265 
 H                    -1.72158   4.37018   1.18788 
 C                     0.13268   4.28366  -1.71892 
 H                     0.89467   3.62199  -2.15095 
 H                     0.51225   5.31467  -1.73033 
 H                    -0.7558    4.23533  -2.36164 
 C                    -3.26706   0.63146  -2.73003 
 C                    -4.01959  -0.04235  -1.54809 
 C                    -3.29132   2.15332  -2.65816 
 H                    -2.96695   2.50563  -1.67081 
 H                    -4.28712   2.55796  -2.8868 
 H                    -2.58074   2.5444   -3.39829 
 C                    -3.70759   0.17352  -4.10658 
 H                    -3.1214    0.69581  -4.87347 
 H                    -4.76944   0.40558  -4.27552 
 H                    -3.55761  -0.90298  -4.24588 
 C                    -5.22592   0.72022  -1.03754 
 H                    -5.69986   0.16298  -0.21799 
 H                    -5.97393   0.85166  -1.83298 
 H                    -4.94111   1.70639  -0.65531 
 C                    -4.40443  -1.48996  -1.83148 
 H                    -3.55075  -2.05013  -2.23782 
 H                    -5.24171  -1.56881  -2.53821 
 H                    -4.70454  -1.96132  -0.88544 
 B                     0.15796   1.57478  -0.19157 
 B                    -1.76388  -0.0418   -1.14058 
 N                     2.26653  -1.03135  -0.28188 
 N                     0.19688  -2.69741  -0.50484 
 O                     1.31835   2.2207    0.26699 
 O                    -0.8265    2.52527  -0.43534 
 O                    -1.91502   0.21116  -2.50475 
 O                    -3.01644  -0.07264  -0.52656 
 Ir                    0.06578  -0.43608  -0.41024 
 H                    -1.73083  -5.4502   -0.4718 
 B                    -0.99234  -0.39494   1.27104 
 O                    -1.31104   0.7056    2.05348 
 O                    -1.43763  -1.57057   1.87499 
 C                    -1.77363   0.22479   3.32163 
 C                    -2.28972  -1.20237   2.97025 
 C                    -0.57372   0.20853   4.26112 
 C                    -2.8297    1.17615   3.8473 
 C                    -2.13515  -2.22459   4.07941 
 C                    -3.72418  -1.21106   2.45736 
 H                     0.20196  -0.47879   3.89874 
 H                    -0.85347  -0.08263   5.28276 
 H                    -0.13862   1.21558   4.29748 
 H                    -2.37368   2.1531    4.05707 
 H                    -3.26979   0.79963   4.78221 
 H                    -3.6299    1.32896   3.11526 
 H                    -2.52388  -3.19502   3.74398 
 H                    -2.70438  -1.92334   4.97081 
 H                    -1.08613  -2.36232   4.3636 
 H                    -3.86042  -0.47206   1.65909 
 H                    -4.44631  -1.02272   3.26378 
 H                    -3.93364  -2.20296   2.03283 
 H                     4.12547  -3.80483  -0.76082 
 H                     2.55367  -5.1102   -0.47624 
 C                     5.6253    0.58564  -0.21914 
 F                     5.47211   1.31564   0.88812 
 F                     5.53239   1.42138  -1.25751 
 F                     6.86319   0.08119  -0.21211 
 

 GradGradGradGradGradGradGradGradGradGradGradGradGradGradGradGradGradGrad
 Berny optimization.
 Initialization pass.
 Trust Radius=3.00D-01 FncErr=1.00D-07 GrdErr=1.00D-07 EigMax=2.50D+02 EigMin=1.00D-04
 Number of steps in this run=      2 maximum allowed number of steps=      2.
 GradGradGradGradGradGradGradGradGradGradGradGradGradGradGradGradGradGrad

 Stoichiometry    C29H43B3F3IrN2O6
 Framework group  C1[X(C29H43B3F3IrN2O6)]
 Deg. of freedom   255
 Full point group                 C1      NOp   1
 Largest Abelian subgroup         C1      NOp   1
 Largest concise Abelian subgroup C1      NOp   1
                         Standard orientation:                         
 ---------------------------------------------------------------------
 Center     Atomic      Atomic             Coordinates (Angstroms)
 Number     Number       Type             X           Y           Z
 ---------------------------------------------------------------------
      1          6           0        3.249180   -0.132918   -0.198471
      2          1           0        2.933359    0.900841   -0.031251
      3          6           0        4.588860   -0.492508   -0.303121
      4          6           0        4.912861   -1.825697   -0.511251
      5          1           0        5.952011   -2.131087   -0.607891
      6          6           0        3.888591   -2.758058   -0.590941
      7          6           0        1.566512   -4.655379   -0.496381
      8          6           0        0.433983   -5.457760   -0.495951
      9          1           0        0.532253   -6.541390   -0.492711
     10          6           0       -0.819388   -4.858231   -0.484951
     11          6           0       -0.891778   -3.471931   -0.484111
     12          1           0       -1.842709   -2.941111   -0.445941
     13          6           0        1.416891   -3.269019   -0.501171
     14          6           0        2.565731   -2.336799   -0.465111
     15          6           0        0.974258    3.574340    0.601869
     16          6           0       -0.254623    3.831120   -0.316561
     17          6           0        0.620568    3.592840    2.083669
     18          1           0       -0.240292    2.941480    2.283649
     19          1           0        0.400307    4.608800    2.439229
     20          1           0        1.476228    3.206781    2.653479
     21          6           0        2.169767    4.468931    0.341659
     22          1           0        2.987787    4.200821    1.023519
     23          1           0        1.915376    5.524101    0.518239
     24          1           0        2.540267    4.366861   -0.684521
     25          6           0       -1.296513    4.769629    0.260309
     26          1           0       -2.116893    4.896489   -0.458901
     27          1           0       -0.867804    5.762149    0.462649
     28          1           0       -1.721583    4.370179    1.187879
     29          6           0        0.132677    4.283660   -1.718921
     30          1           0        0.894668    3.621990   -2.150951
     31          1           0        0.512247    5.314670   -1.730331
     32          1           0       -0.755803    4.235329   -2.361641
     33          6           0       -3.267061    0.631458   -2.730031
     34          6           0       -4.019590   -0.042353   -1.548091
     35          6           0       -3.291322    2.153318   -2.658161
     36          1           0       -2.966952    2.505628   -1.670811
     37          1           0       -4.287122    2.557957   -2.886801
     38          1           0       -2.580742    2.544398   -3.398291
     39          6           0       -3.707591    0.173518   -4.106581
     40          1           0       -3.121401    0.695808   -4.873471
     41          1           0       -4.769441    0.405577   -4.275521
     42          1           0       -3.557610   -0.902982   -4.245881
     43          6           0       -5.225921    0.720217   -1.037541
     44          1           0       -5.699860    0.162976   -0.217991
     45          1           0       -5.973931    0.851656   -1.832981
     46          1           0       -4.941111    1.706387   -0.655311
     47          6           0       -4.404430   -1.489963   -1.831481
     48          1           0       -3.550749   -2.050132   -2.237821
     49          1           0       -5.241709   -1.568813   -2.538211
     50          1           0       -4.704539   -1.961323   -0.885441
     51          5           0        0.157959    1.574780   -0.191571
     52          5           0       -1.763880   -0.041801   -1.140581
     53          7           0        2.266530   -1.031349   -0.281881
     54          7           0        0.196881   -2.697410   -0.504841
     55          8           0        1.318348    2.220701    0.266989
     56          8           0       -0.826502    2.525269   -0.435341
     57          8           0       -1.915021    0.211159   -2.504751
     58          8           0       -3.016440   -0.072642   -0.526561
     59         77           0        0.065780   -0.436080   -0.410241
     60          1           0       -1.730827   -5.450201   -0.471801
     61          5           0       -0.992340   -0.394941    1.271039
     62          8           0       -1.311041    0.705599    2.053479
     63          8           0       -1.437629   -1.570571    1.874989
     64          6           0       -1.773631    0.224789    3.321629
     65          6           0       -2.289720   -1.202372    2.970249
     66          6           0       -0.573721    0.208529    4.261119
     67          6           0       -2.829701    1.176148    3.847299
     68          6           0       -2.135149   -2.224591    4.079409
     69          6           0       -3.724180   -1.211062    2.457359
     70          1           0        0.201960   -0.478790    3.898739
     71          1           0       -0.853470   -0.082631    5.282759
     72          1           0       -0.138621    1.215580    4.297479
     73          1           0       -2.373682    2.153098    4.057069
     74          1           0       -3.269791    0.799628    4.782209
     75          1           0       -3.629901    1.328958    3.115259
     76          1           0       -2.523879   -3.195022    3.743979
     77          1           0       -2.704379   -1.923342    4.970809
     78          1           0       -1.086129   -2.362321    4.363599
     79          1           0       -3.860420   -0.472062    1.659089
     80          1           0       -4.446310   -1.022723    3.263779
     81          1           0       -3.933639   -2.202963    2.032829
     82          1           0        4.125472   -3.804828   -0.760821
     83          1           0        2.553673   -5.110199   -0.476241
     84          6           0        5.625299    0.585643   -0.219141
     85          9           0        5.472109    1.315643    0.888119
     86          9           0        5.532389    1.421383   -1.257511
     87          9           0        6.863190    0.081194   -0.212111
 ---------------------------------------------------------------------
 Rotational constants (GHZ):           0.0859266           0.0621585           0.0521133
 General basis read from cards:  (5D, 7F)
 ======================================================================================================
                                       Pseudopotential Parameters
 ======================================================================================================
  Center     Atomic      Valence      Angular      Power
  Number     Number     Electrons     Momentum     of R      Exponent        Coefficient   SO-Coeffient
 ======================================================================================================
    1          6
                                   No pseudopotential on this center.
    2          1
                                   No pseudopotential on this center.
    3          6
                                   No pseudopotential on this center.
    4          6
                                   No pseudopotential on this center.
    5          1
                                   No pseudopotential on this center.
    6          6
                                   No pseudopotential on this center.
    7          6
                                   No pseudopotential on this center.
    8          6
                                   No pseudopotential on this center.
    9          1
                                   No pseudopotential on this center.
   10          6
                                   No pseudopotential on this center.
   11          6
                                   No pseudopotential on this center.
   12          1
                                   No pseudopotential on this center.
   13          6
                                   No pseudopotential on this center.
   14          6
                                   No pseudopotential on this center.
   15          6
                                   No pseudopotential on this center.
   16          6
                                   No pseudopotential on this center.
   17          6
                                   No pseudopotential on this center.
   18          1
                                   No pseudopotential on this center.
   19          1
                                   No pseudopotential on this center.
   20          1
                                   No pseudopotential on this center.
   21          6
                                   No pseudopotential on this center.
   22          1
                                   No pseudopotential on this center.
   23          1
                                   No pseudopotential on this center.
   24          1
                                   No pseudopotential on this center.
   25          6
                                   No pseudopotential on this center.
   26          1
                                   No pseudopotential on this center.
   27          1
                                   No pseudopotential on this center.
   28          1
                                   No pseudopotential on this center.
   29          6
                                   No pseudopotential on this center.
   30          1
                                   No pseudopotential on this center.
   31          1
                                   No pseudopotential on this center.
   32          1
                                   No pseudopotential on this center.
   33          6
                                   No pseudopotential on this center.
   34          6
                                   No pseudopotential on this center.
   35          6
                                   No pseudopotential on this center.
   36          1
                                   No pseudopotential on this center.
   37          1
                                   No pseudopotential on this center.
   38          1
                                   No pseudopotential on this center.
   39          6
                                   No pseudopotential on this center.
   40          1
                                   No pseudopotential on this center.
   41          1
                                   No pseudopotential on this center.
   42          1
                                   No pseudopotential on this center.
   43          6
                                   No pseudopotential on this center.
   44          1
                                   No pseudopotential on this center.
   45          1
                                   No pseudopotential on this center.
   46          1
                                   No pseudopotential on this center.
   47          6
                                   No pseudopotential on this center.
   48          1
                                   No pseudopotential on this center.
   49          1
                                   No pseudopotential on this center.
   50          1
                                   No pseudopotential on this center.
   51          5
                                   No pseudopotential on this center.
   52          5
                                   No pseudopotential on this center.
   53          7
                                   No pseudopotential on this center.
   54          7
                                   No pseudopotential on this center.
   55          8
                                   No pseudopotential on this center.
   56          8
                                   No pseudopotential on this center.
   57          8
                                   No pseudopotential on this center.
   58          8
                                   No pseudopotential on this center.
   59         77           17
                                      G and up 
                                                     1      823.5880147       -0.15780140    0.00000000
                                                     2      364.6613336    -1517.52704460    0.00000000
                                                     2       55.7082801     -316.53065290    0.00000000
                                                     2       12.0464544      -91.88809410    0.00000000
                                                     2        3.5120610       -9.22417730    0.00000000
                                      S - G
                                                     0      188.0490770        3.15780140    0.00000000
                                                     1      340.4194712       26.83225770    0.00000000
                                                     2      128.2373673      800.42500070    0.00000000
                                                     2       33.8644961      369.40506830    0.00000000
                                                     2        4.7560005      242.41718990    0.00000000
                                                     2        3.9649974     -118.21732820    0.00000000
                                      P - G
                                                     0      289.7291139        2.15780140    0.00000000
                                                     1       87.4633789       61.96786100    0.00000000
                                                     2       30.4363766      269.05819860    0.00000000
                                                     2        4.0553412      231.16547930    0.00000000
                                                     2        3.5525341     -133.69526670    0.00000000
                                      D - G
                                                     0      136.4017106        3.15780140    0.00000000
                                                     1       95.0776925       45.93498030    0.00000000
                                                     2       49.2258410      359.03446680    0.00000000
                                                     2       15.0874145      176.47401190    0.00000000
                                                     2        4.0405764       54.51552860    0.00000000
                                      F - G
                                                     0      127.3507908        3.95461970    0.00000000
                                                     1       66.2364374       52.97736550    0.00000000
                                                     2       34.4299229      274.86433830    0.00000000
                                                     2       10.1995721      137.20473380    0.00000000
                                                     2        2.5409702       14.86333050    0.00000000
   60          1
                                   No pseudopotential on this center.
   61          5
                                   No pseudopotential on this center.
   62          8
                                   No pseudopotential on this center.
   63          8
                                   No pseudopotential on this center.
   64          6
                                   No pseudopotential on this center.
   65          6
                                   No pseudopotential on this center.
   66          6
                                   No pseudopotential on this center.
   67          6
                                   No pseudopotential on this center.
   68          6
                                   No pseudopotential on this center.
   69          6
                                   No pseudopotential on this center.
   70          1
                                   No pseudopotential on this center.
   71          1
                                   No pseudopotential on this center.
   72          1
                                   No pseudopotential on this center.
   73          1
                                   No pseudopotential on this center.
   74          1
                                   No pseudopotential on this center.
   75          1
                                   No pseudopotential on this center.
   76          1
                                   No pseudopotential on this center.
   77          1
                                   No pseudopotential on this center.
   78          1
                                   No pseudopotential on this center.
   79          1
                                   No pseudopotential on this center.
   80          1
                                   No pseudopotential on this center.
   81          1
                                   No pseudopotential on this center.
   82          1
                                   No pseudopotential on this center.
   83          1
                                   No pseudopotential on this center.
   84          6
                                   No pseudopotential on this center.
   85          9
                                   No pseudopotential on this center.
   86          9
                                   No pseudopotential on this center.
   87          9
                                   No pseudopotential on this center.
 ======================================================================================================
 There are   755 symmetry adapted cartesian basis functions of A   symmetry.
 There are   710 symmetry adapted basis functions of A   symmetry.
   710 basis functions,  1419 primitive gaussians,   755 cartesian basis functions
   169 alpha electrons      169 beta electrons
       nuclear repulsion energy      6442.0683823490 Hartrees.
 NAtoms=   87 NActive=   87 NUniq=   87 SFac= 1.00D+00 NAtFMM=   60 NAOKFM=T Big=T
 Integral buffers will be    131072 words long.
 Raffenetti 2 integral format.
 Two-electron integral symmetry is turned on.
 One-electron integrals computed using PRISM.
   1 Symmetry operations used in ECPInt.
 ECPInt:  NShTT=   35511 NPrTT=  219705 LenC2=   27413 LenP2D=   87595.
 LDataN:  DoStor=T MaxTD1= 6 Len=  172
 NBasis=   710 RedAO= T EigKep=  4.81D-04  NBF=   710
 NBsUse=   710 1.00D-06 EigRej= -1.00D+00 NBFU=   710
 Defaulting to unpruned grid for atomic number  77.
 ExpMin= 2.90D-02 ExpMax= 7.00D+03 ExpMxC= 1.05D+03 IAcc=3 IRadAn=         5 AccDes= 0.00D+00
 Harris functional with IExCor= 1009 and IRadAn=       5 diagonalized for initial guess.
 HarFok:  IExCor= 1009 AccDes= 0.00D+00 IRadAn=         5 IDoV= 1 UseB2=F ITyADJ=14
 ICtDFT=  3500011 ScaDFX=  1.000000  1.000000  1.000000  1.000000
 Defaulting to unpruned grid for atomic number  77.
 FoFCou: FMM=F IPFlag=           0 FMFlag=      100000 FMFlg1=        2001
         NFxFlg=           0 DoJE=T BraDBF=F KetDBF=T FulRan=T
         wScrn=  0.000000 ICntrl=       500 IOpCl=  0 I1Cent=   200000004 NGrid=           0
         NMat0=    1 NMatS0=      1 NMatT0=    0 NMatD0=    1 NMtDS0=    0 NMtDT0=    0
 Petite list used in FoFCou.
 Requested convergence on RMS density matrix=1.00D-08 within 128 cycles.
 Requested convergence on MAX density matrix=1.00D-06.
 Requested convergence on             energy=1.00D-06.
 No special actions if energy rises.
 Defaulting to unpruned grid for atomic number  77.
 Defaulting to unpruned grid for atomic number  77.
 Defaulting to unpruned grid for atomic number  77.
 Defaulting to unpruned grid for atomic number  77.
 Defaulting to unpruned grid for atomic number  77.
 Defaulting to unpruned grid for atomic number  77.
 Defaulting to unpruned grid for atomic number  77.
 Defaulting to unpruned grid for atomic number  77.
 Defaulting to unpruned grid for atomic number  77.
 Defaulting to unpruned grid for atomic number  77.
 Defaulting to unpruned grid for atomic number  77.
 Defaulting to unpruned grid for atomic number  77.
 Defaulting to unpruned grid for atomic number  77.
 Defaulting to unpruned grid for atomic number  77.
 Defaulting to unpruned grid for atomic number  77.
 Defaulting to unpruned grid for atomic number  77.
 EnCoef did     7 forward-backward iterations
 SCF Done:  E(RM06) =  -2169.70474683     A.U. after   18 cycles
            NFock= 18  Conv=0.32D-08     -V/T= 2.0403
 DoSCS=F DFT=T ScalE2(SS,OS)=  1.000000  1.000000
 Range of M.O.s used for correlation:     1   710
 NBasis=   710 NAE=   169 NBE=   169 NFC=     0 NFV=     0
 NROrb=    710 NOA=   169 NOB=   169 NVA=   541 NVB=   541
   1 Symmetry operations used in ECPInt.
 ECPInt:  NShTT=   35511 NPrTT=  219705 LenC2=   27413 LenP2D=   87595.
 LDataN:  DoStor=T MaxTD1= 7 Len=  274
 Number of processors reduced to  10 by ecpmxn.
 Symmetrizing basis deriv contribution to polar:
 IMax=3 JMax=2 DiffMx= 0.00D+00
 G2DrvN: will do    88 centers at a time, making    1 passes.
 Calling FoFCou, ICntrl=  3107 FMM=T I1Cent=   0 AccDes= 0.00D+00.
 Defaulting to unpruned grid for atomic number  77.
 Defaulting to unpruned grid for atomic number  77.
 Defaulting to unpruned grid for atomic number  77.
 Defaulting to unpruned grid for atomic number  77.
 Defaulting to unpruned grid for atomic number  77.
 Defaulting to unpruned grid for atomic number  77.
 Defaulting to unpruned grid for atomic number  77.
 Defaulting to unpruned grid for atomic number  77.
 Defaulting to unpruned grid for atomic number  77.
 Defaulting to unpruned grid for atomic number  77.
 Defaulting to unpruned grid for atomic number  77.
 Defaulting to unpruned grid for atomic number  77.
 Defaulting to unpruned grid for atomic number  77.
 Defaulting to unpruned grid for atomic number  77.
 Defaulting to unpruned grid for atomic number  77.
 Defaulting to unpruned grid for atomic number  77.
 End of G2Drv F.D. properties file   721 does not exist.
 End of G2Drv F.D. properties file   722 does not exist.
 End of G2Drv F.D. properties file   788 does not exist.
          IDoAtm=11111111111111111111111111111111111111111111111111
          IDoAtm=1111111111111111111111111111111111111
          Differentiating once with respect to electric field.
                with respect to dipole field.
          Differentiating once with respect to nuclear coordinates.
 Defaulting to unpruned grid for atomic number  77.
 CalDSu exits because no D1Ps are significant.
 Defaulting to unpruned grid for atomic number  77.
 Defaulting to unpruned grid for atomic number  77.
 Defaulting to unpruned grid for atomic number  77.
 Defaulting to unpruned grid for atomic number  77.
 Defaulting to unpruned grid for atomic number  77.
 Defaulting to unpruned grid for atomic number  77.
 Defaulting to unpruned grid for atomic number  77.
 Defaulting to unpruned grid for atomic number  77.
 Defaulting to unpruned grid for atomic number  77.
 Defaulting to unpruned grid for atomic number  77.
 Defaulting to unpruned grid for atomic number  77.
 Defaulting to unpruned grid for atomic number  77.
 Defaulting to unpruned grid for atomic number  77.
 Defaulting to unpruned grid for atomic number  77.
 Defaulting to unpruned grid for atomic number  77.
 Defaulting to unpruned grid for atomic number  77.
          There are   264 degrees of freedom in the 1st order CPHF.  IDoFFX=6 NUNeed=     3.
    261 vectors produced by pass  0 Test12= 9.14D-14 1.00D-09 XBig12= 4.77D+02 8.94D+00.
 AX will form    72 AO Fock derivatives at one time.
    261 vectors produced by pass  1 Test12= 9.14D-14 1.00D-09 XBig12= 6.61D+01 1.09D+00.
    261 vectors produced by pass  2 Test12= 9.14D-14 1.00D-09 XBig12= 9.89D-01 1.38D-01.
    261 vectors produced by pass  3 Test12= 9.14D-14 1.00D-09 XBig12= 7.52D-03 1.07D-02.
    261 vectors produced by pass  4 Test12= 9.14D-14 1.00D-09 XBig12= 2.90D-05 4.80D-04.
    241 vectors produced by pass  5 Test12= 9.14D-14 1.00D-09 XBig12= 6.41D-08 1.78D-05.
     70 vectors produced by pass  6 Test12= 9.14D-14 1.00D-09 XBig12= 1.05D-10 6.81D-07.
      3 vectors produced by pass  7 Test12= 9.14D-14 1.00D-09 XBig12= 1.46D-13 2.84D-08.
      1 vectors produced by pass  8 Test12= 9.14D-14 1.00D-09 XBig12= 1.99D-16 1.04D-09.
 InvSVY:  IOpt=1 It=  1 EMax= 1.78D-14
 Solved reduced A of dimension  1620 with   264 vectors.
 Isotropic polarizability for W=    0.000000      421.09 Bohr**3.
 End of Minotr F.D. properties file   721 does not exist.
 End of Minotr F.D. properties file   722 does not exist.
 End of Minotr F.D. properties file   788 does not exist.

 **********************************************************************

            Population analysis using the SCF Density.

 **********************************************************************

 Orbital symmetries:
       Occupied  (A) (A) (A) (A) (A) (A) (A) (A) (A) (A) (A) (A)
                 (A) (A) (A) (A) (A) (A) (A) (A) (A) (A) (A) (A)
                 (A) (A) (A) (A) (A) (A) (A) (A) (A) (A) (A) (A)
                 (A) (A) (A) (A) (A) (A) (A) (A) (A) (A) (A) (A)
                 (A) (A) (A) (A) (A) (A) (A) (A) (A) (A) (A) (A)
                 (A) (A) (A) (A) (A) (A) (A) (A) (A) (A) (A) (A)
                 (A) (A) (A) (A) (A) (A) (A) (A) (A) (A) (A) (A)
                 (A) (A) (A) (A) (A) (A) (A) (A) (A) (A) (A) (A)
                 (A) (A) (A) (A) (A) (A) (A) (A) (A) (A) (A) (A)
                 (A) (A) (A) (A) (A) (A) (A) (A) (A) (A) (A) (A)
                 (A) (A) (A) (A) (A) (A) (A) (A) (A) (A) (A) (A)
                 (A) (A) (A) (A) (A) (A) (A) (A) (A) (A) (A) (A)
                 (A) (A) (A) (A) (A) (A) (A) (A) (A) (A) (A) (A)
                 (A) (A) (A) (A) (A) (A) (A) (A) (A) (A) (A) (A)
                 (A)
       Virtual   (A) (A) (A) (A) (A) (A) (A) (A) (A) (A) (A) (A)
                 (A) (A) (A) (A) (A) (A) (A) (A) (A) (A) (A) (A)
                 (A) (A) (A) (A) (A) (A) (A) (A) (A) (A) (A) (A)
                 (A) (A) (A) (A) (A) (A) (A) (A) (A) (A) (A) (A)
                 (A) (A) (A) (A) (A) (A) (A) (A) (A) (A) (A) (A)
                 (A) (A) (A) (A) (A) (A) (A) (A) (A) (A) (A) (A)
                 (A) (A) (A) (A) (A) (A) (A) (A) (A) (A) (A) (A)
                 (A) (A) (A) (A) (A) (A) (A) (A) (A) (A) (A) (A)
                 (A) (A) (A) (A) (A) (A) (A) (A) (A) (A) (A) (A)
                 (A) (A) (A) (A) (A) (A) (A) (A) (A) (A) (A) (A)
                 (A) (A) (A) (A) (A) (A) (A) (A) (A) (A) (A) (A)
                 (A) (A) (A) (A) (A) (A) (A) (A) (A) (A) (A) (A)
                 (A) (A) (A) (A) (A) (A) (A) (A) (A) (A) (A) (A)
                 (A) (A) (A) (A) (A) (A) (A) (A) (A) (A) (A) (A)
                 (A) (A) (A) (A) (A) (A) (A) (A) (A) (A) (A) (A)
                 (A) (A) (A) (A) (A) (A) (A) (A) (A) (A) (A) (A)
                 (A) (A) (A) (A) (A) (A) (A) (A) (A) (A) (A) (A)
                 (A) (A) (A) (A) (A) (A) (A) (A) (A) (A) (A) (A)
                 (A) (A) (A) (A) (A) (A) (A) (A) (A) (A) (A) (A)
                 (A) (A) (A) (A) (A) (A) (A) (A) (A) (A) (A) (A)
                 (A) (A) (A) (A) (A) (A) (A) (A) (A) (A) (A) (A)
                 (A) (A) (A) (A) (A) (A) (A) (A) (A) (A) (A) (A)
                 (A) (A) (A) (A) (A) (A) (A) (A) (A) (A) (A) (A)
                 (A) (A) (A) (A) (A) (A) (A) (A) (A) (A) (A) (A)
                 (A) (A) (A) (A) (A) (A) (A) (A) (A) (A) (A) (A)
                 (A) (A) (A) (A) (A) (A) (A) (A) (A) (A) (A) (A)
                 (A) (A) (A) (A) (A) (A) (A) (A) (A) (A) (A) (A)
                 (A) (A) (A) (A) (A) (A) (A) (A) (A) (A) (A) (A)
                 (A) (A) (A) (A) (A) (A) (A) (A) (A) (A) (A) (A)
                 (A) (A) (A) (A) (A) (A) (A) (A) (A) (A) (A) (A)
                 (A) (A) (A) (A) (A) (A) (A) (A) (A) (A) (A) (A)
                 (A) (A) (A) (A) (A) (A) (A) (A) (A) (A) (A) (A)
                 (A) (A) (A) (A) (A) (A) (A) (A) (A) (A) (A) (A)
                 (A) (A) (A) (A) (A) (A) (A) (A) (A) (A) (A) (A)
                 (A) (A) (A) (A) (A) (A) (A) (A) (A) (A) (A) (A)
                 (A) (A) (A) (A) (A) (A) (A) (A) (A) (A) (A) (A)
                 (A) (A) (A) (A) (A) (A) (A) (A) (A) (A) (A) (A)
                 (A) (A) (A) (A) (A) (A) (A) (A) (A) (A) (A) (A)
                 (A) (A) (A) (A) (A) (A) (A) (A) (A) (A) (A) (A)
                 (A) (A) (A) (A) (A) (A) (A) (A) (A) (A) (A) (A)
                 (A) (A) (A) (A) (A) (A) (A) (A) (A) (A) (A) (A)
                 (A) (A) (A) (A) (A) (A) (A) (A) (A) (A) (A) (A)
                 (A) (A) (A) (A) (A) (A) (A) (A) (A) (A) (A) (A)
                 (A) (A) (A) (A) (A) (A) (A) (A) (A) (A) (A) (A)
                 (A) (A) (A) (A) (A) (A) (A) (A) (A) (A) (A) (A)
                 (A)
 The electronic state is 1-A.
 Alpha  occ. eigenvalues --  -24.83559 -24.82889 -24.82766 -19.19491 -19.19345
 Alpha  occ. eigenvalues --  -19.19291 -19.19152 -19.18688 -19.18674 -14.45850
 Alpha  occ. eigenvalues --  -14.45058 -10.51684 -10.33657 -10.32741 -10.31759
 Alpha  occ. eigenvalues --  -10.30933 -10.30764 -10.29987 -10.29727 -10.29556
 Alpha  occ. eigenvalues --  -10.29085 -10.28686 -10.28671 -10.28476 -10.28353
 Alpha  occ. eigenvalues --  -10.28286 -10.28137 -10.28126 -10.22370 -10.22214
 Alpha  occ. eigenvalues --  -10.22049 -10.22033 -10.22030 -10.21901 -10.21860
 Alpha  occ. eigenvalues --  -10.21689 -10.21413 -10.21203 -10.20958 -10.20676
 Alpha  occ. eigenvalues --   -6.79748  -6.78083  -6.77686  -3.59866  -2.02766
 Alpha  occ. eigenvalues --   -2.01748  -2.01386  -1.36027  -1.27545  -1.26970
 Alpha  occ. eigenvalues --   -1.05429  -1.04934  -1.04841  -1.01045  -0.98583
 Alpha  occ. eigenvalues --   -0.98392  -0.97979  -0.97930  -0.86885  -0.84610
 Alpha  occ. eigenvalues --   -0.84179  -0.79777  -0.79704  -0.79427  -0.79290
 Alpha  occ. eigenvalues --   -0.74259  -0.74194  -0.73914  -0.73763  -0.69708
 Alpha  occ. eigenvalues --   -0.69558  -0.69361  -0.69328  -0.69248  -0.66952
 Alpha  occ. eigenvalues --   -0.66718  -0.66599  -0.65957  -0.64942  -0.61982
 Alpha  occ. eigenvalues --   -0.61938  -0.61210  -0.60953  -0.60487  -0.60324
 Alpha  occ. eigenvalues --   -0.57720  -0.54532  -0.54060  -0.53680  -0.53516
 Alpha  occ. eigenvalues --   -0.52820  -0.52738  -0.52271  -0.52083  -0.51006
 Alpha  occ. eigenvalues --   -0.49546  -0.49452  -0.49199  -0.48019  -0.47222
 Alpha  occ. eigenvalues --   -0.46981  -0.46381  -0.46174  -0.45901  -0.45535
 Alpha  occ. eigenvalues --   -0.45519  -0.45340  -0.45244  -0.45064  -0.44988
 Alpha  occ. eigenvalues --   -0.44327  -0.43734  -0.43469  -0.43279  -0.43222
 Alpha  occ. eigenvalues --   -0.43180  -0.42710  -0.42523  -0.42388  -0.40589
 Alpha  occ. eigenvalues --   -0.40120  -0.39981  -0.39556  -0.39301  -0.39187
 Alpha  occ. eigenvalues --   -0.39092  -0.39022  -0.38794  -0.38659  -0.38562
 Alpha  occ. eigenvalues --   -0.38340  -0.38078  -0.37922  -0.36927  -0.36666
 Alpha  occ. eigenvalues --   -0.36585  -0.36420  -0.35990  -0.35726  -0.35473
 Alpha  occ. eigenvalues --   -0.35374  -0.35140  -0.35104  -0.34937  -0.34531
 Alpha  occ. eigenvalues --   -0.34171  -0.33871  -0.33775  -0.33178  -0.32820
 Alpha  occ. eigenvalues --   -0.31965  -0.31536  -0.31336  -0.30650  -0.30393
 Alpha  occ. eigenvalues --   -0.30331  -0.29359  -0.29286  -0.29081  -0.28592
 Alpha  occ. eigenvalues --   -0.27865  -0.26373  -0.25449  -0.25072  -0.24749
 Alpha  occ. eigenvalues --   -0.24067  -0.21073  -0.20142  -0.19875
 Alpha virt. eigenvalues --   -0.08664  -0.05323  -0.03814  -0.00133   0.00071
 Alpha virt. eigenvalues --    0.03531   0.04019   0.05868   0.06986   0.07226
 Alpha virt. eigenvalues --    0.08157   0.09880   0.10003   0.10356   0.10554
 Alpha virt. eigenvalues --    0.10785   0.12257   0.12821   0.13351   0.13494
 Alpha virt. eigenvalues --    0.13837   0.14222   0.14695   0.14820   0.14901
 Alpha virt. eigenvalues --    0.15070   0.15345   0.15433   0.15729   0.15927
 Alpha virt. eigenvalues --    0.16011   0.16322   0.16663   0.16746   0.17075
 Alpha virt. eigenvalues --    0.17237   0.17295   0.17555   0.18170   0.18251
 Alpha virt. eigenvalues --    0.18512   0.18844   0.18923   0.19597   0.19797
 Alpha virt. eigenvalues --    0.19804   0.19922   0.20191   0.20491   0.20770
 Alpha virt. eigenvalues --    0.21024   0.21105   0.21262   0.21420   0.21545
 Alpha virt. eigenvalues --    0.21572   0.21788   0.22033   0.22746   0.23045
 Alpha virt. eigenvalues --    0.23595   0.23738   0.24117   0.24370   0.24470
 Alpha virt. eigenvalues --    0.24750   0.25353   0.25497   0.25795   0.26329
 Alpha virt. eigenvalues --    0.26406   0.26545   0.27004   0.27303   0.27579
 Alpha virt. eigenvalues --    0.28200   0.28249   0.28369   0.28780   0.29223
 Alpha virt. eigenvalues --    0.29721   0.29852   0.30251   0.31002   0.31940
 Alpha virt. eigenvalues --    0.32099   0.32918   0.33179   0.34394   0.35022
 Alpha virt. eigenvalues --    0.35787   0.36633   0.37195   0.37898   0.38508
 Alpha virt. eigenvalues --    0.39346   0.39556   0.40743   0.41585   0.43272
 Alpha virt. eigenvalues --    0.43627   0.45466   0.46122   0.47253   0.47550
 Alpha virt. eigenvalues --    0.47792   0.49371   0.49861   0.51113   0.51250
 Alpha virt. eigenvalues --    0.51295   0.51610   0.51750   0.51830   0.52258
 Alpha virt. eigenvalues --    0.52694   0.52941   0.53546   0.54903   0.55150
 Alpha virt. eigenvalues --    0.55696   0.55941   0.56410   0.56571   0.57136
 Alpha virt. eigenvalues --    0.57178   0.57428   0.57620   0.57634   0.58247
 Alpha virt. eigenvalues --    0.58620   0.58761   0.59149   0.59208   0.59305
 Alpha virt. eigenvalues --    0.59996   0.60165   0.60440   0.60560   0.61151
 Alpha virt. eigenvalues --    0.61431   0.61972   0.62119   0.62791   0.62951
 Alpha virt. eigenvalues --    0.63281   0.63497   0.64369   0.64930   0.65259
 Alpha virt. eigenvalues --    0.66054   0.66642   0.66949   0.67189   0.67553
 Alpha virt. eigenvalues --    0.68016   0.68474   0.69015   0.69348   0.69756
 Alpha virt. eigenvalues --    0.70637   0.70881   0.71145   0.71298   0.71738
 Alpha virt. eigenvalues --    0.72548   0.72984   0.73134   0.73729   0.73862
 Alpha virt. eigenvalues --    0.74303   0.74340   0.74663   0.75147   0.75405
 Alpha virt. eigenvalues --    0.75914   0.76147   0.76864   0.77417   0.77759
 Alpha virt. eigenvalues --    0.78819   0.79165   0.79514   0.79821   0.81181
 Alpha virt. eigenvalues --    0.81313   0.81693   0.81912   0.82391   0.83118
 Alpha virt. eigenvalues --    0.83872   0.84237   0.84313   0.84431   0.84696
 Alpha virt. eigenvalues --    0.85329   0.85514   0.85841   0.86103   0.86346
 Alpha virt. eigenvalues --    0.86529   0.86949   0.87508   0.87762   0.88043
 Alpha virt. eigenvalues --    0.88508   0.88823   0.89486   0.89559   0.89751
 Alpha virt. eigenvalues --    0.90042   0.90579   0.90641   0.90886   0.91083
 Alpha virt. eigenvalues --    0.91229   0.91575   0.91926   0.92269   0.92383
 Alpha virt. eigenvalues --    0.92641   0.93134   0.93362   0.93719   0.94050
 Alpha virt. eigenvalues --    0.94490   0.95196   0.95394   0.95823   0.96128
 Alpha virt. eigenvalues --    0.96510   0.96688   0.97127   0.97380   0.97750
 Alpha virt. eigenvalues --    0.98042   0.98273   0.99305   0.99393   1.00079
 Alpha virt. eigenvalues --    1.00397   1.00907   1.01455   1.02414   1.02639
 Alpha virt. eigenvalues --    1.03282   1.03490   1.04457   1.05064   1.05575
 Alpha virt. eigenvalues --    1.06142   1.06791   1.07562   1.07828   1.08357
 Alpha virt. eigenvalues --    1.09358   1.09742   1.09965   1.10893   1.11845
 Alpha virt. eigenvalues --    1.12671   1.13775   1.15211   1.15655   1.16156
 Alpha virt. eigenvalues --    1.16664   1.17299   1.17803   1.18164   1.19476
 Alpha virt. eigenvalues --    1.20041   1.20784   1.21324   1.21714   1.22536
 Alpha virt. eigenvalues --    1.23053   1.23694   1.24685   1.25157   1.26053
 Alpha virt. eigenvalues --    1.26974   1.27627   1.27739   1.29423   1.29849
 Alpha virt. eigenvalues --    1.30201   1.31959   1.32170   1.33501   1.33604
 Alpha virt. eigenvalues --    1.33823   1.34224   1.35196   1.35908   1.36174
 Alpha virt. eigenvalues --    1.37571   1.37895   1.38632   1.39208   1.39521
 Alpha virt. eigenvalues --    1.40339   1.40771   1.41082   1.41856   1.42035
 Alpha virt. eigenvalues --    1.42616   1.43488   1.44428   1.44578   1.44814
 Alpha virt. eigenvalues --    1.45257   1.45410   1.46315   1.47366   1.48263
 Alpha virt. eigenvalues --    1.48742   1.49516   1.50744   1.51036   1.52209
 Alpha virt. eigenvalues --    1.52858   1.53337   1.54445   1.55606   1.56462
 Alpha virt. eigenvalues --    1.58432   1.59362   1.60243   1.60763   1.61513
 Alpha virt. eigenvalues --    1.62909   1.63851   1.64414   1.64973   1.65434
 Alpha virt. eigenvalues --    1.65977   1.66459   1.66999   1.67937   1.69426
 Alpha virt. eigenvalues --    1.69876   1.70071   1.70357   1.71058   1.71140
 Alpha virt. eigenvalues --    1.72391   1.72730   1.73109   1.73618   1.75466
 Alpha virt. eigenvalues --    1.76662   1.77001   1.77614   1.78390   1.78483
 Alpha virt. eigenvalues --    1.78833   1.80146   1.80677   1.81494   1.82086
 Alpha virt. eigenvalues --    1.82661   1.83003   1.83600   1.83745   1.84414
 Alpha virt. eigenvalues --    1.84698   1.85642   1.85861   1.86426   1.87372
 Alpha virt. eigenvalues --    1.87587   1.87776   1.88750   1.89640   1.90120
 Alpha virt. eigenvalues --    1.91098   1.91383   1.91955   1.92279   1.92458
 Alpha virt. eigenvalues --    1.92500   1.93137   1.93277   1.93635   1.93738
 Alpha virt. eigenvalues --    1.94029   1.94452   1.95077   1.96089   1.96853
 Alpha virt. eigenvalues --    1.97377   1.97594   1.98338   1.99925   2.00342
 Alpha virt. eigenvalues --    2.00891   2.01853   2.02078   2.02284   2.02853
 Alpha virt. eigenvalues --    2.03155   2.03955   2.04076   2.04368   2.04538
 Alpha virt. eigenvalues --    2.05121   2.06419   2.07403   2.07607   2.07759
 Alpha virt. eigenvalues --    2.07963   2.08249   2.08375   2.08614   2.08867
 Alpha virt. eigenvalues --    2.09483   2.09977   2.11061   2.11537   2.11686
 Alpha virt. eigenvalues --    2.11743   2.12403   2.12855   2.13488   2.13917
 Alpha virt. eigenvalues --    2.14870   2.15305   2.15754   2.16302   2.16468
 Alpha virt. eigenvalues --    2.17152   2.17456   2.18172   2.18949   2.19592
 Alpha virt. eigenvalues --    2.19812   2.19999   2.20073   2.20313   2.21084
 Alpha virt. eigenvalues --    2.22423   2.22828   2.22884   2.23122   2.23745
 Alpha virt. eigenvalues --    2.24244   2.24654   2.24710   2.25053   2.26037
 Alpha virt. eigenvalues --    2.26460   2.26948   2.27179   2.27629   2.28164
 Alpha virt. eigenvalues --    2.28278   2.29041   2.29572   2.31647   2.32235
 Alpha virt. eigenvalues --    2.32860   2.33164   2.33520   2.34578   2.34708
 Alpha virt. eigenvalues --    2.35176   2.36060   2.36149   2.39490   2.39691
 Alpha virt. eigenvalues --    2.39961   2.40274   2.43669   2.44460   2.45294
 Alpha virt. eigenvalues --    2.46805   2.47395   2.48019   2.48968   2.49249
 Alpha virt. eigenvalues --    2.49305   2.49833   2.49929   2.52050   2.52322
 Alpha virt. eigenvalues --    2.52543   2.56389   2.59226   2.60240   2.60338
 Alpha virt. eigenvalues --    2.61054   2.61390   2.61706   2.63718   2.65361
 Alpha virt. eigenvalues --    2.65524   2.65766   2.66179   2.67544   2.68815
 Alpha virt. eigenvalues --    2.70255   2.76429   2.77214   2.78214   2.78856
 Alpha virt. eigenvalues --    2.79069   2.79177   2.79818   2.80352   2.80857
 Alpha virt. eigenvalues --    2.81695   2.82144   2.82300   2.82712   2.84400
 Alpha virt. eigenvalues --    2.85139   2.85908   2.87816   2.88965   2.90193
 Alpha virt. eigenvalues --    2.90916   2.92275   2.93547   2.94885   2.96527
 Alpha virt. eigenvalues --    2.97106   2.97707   3.04934   3.05217   3.06361
 Alpha virt. eigenvalues --    3.06565   3.06984   3.09063   3.12089   3.12179
 Alpha virt. eigenvalues --    3.13338   3.15085   3.25282   3.29850   3.43794
 Alpha virt. eigenvalues --    9.36392
          Condensed to atoms (all electrons):
 Mulliken charges:
               1
     1  C    0.028102
     2  H    0.262494
     3  C   -0.080675
     4  C   -0.149247
     5  H    0.202842
     6  C   -0.198445
     7  C   -0.185959
     8  C   -0.136415
     9  H    0.184760
    10  C   -0.178069
    11  C    0.093243
    12  H    0.198389
    13  C    0.298998
    14  C    0.305412
    15  C    0.299038
    16  C    0.301340
    17  C   -0.512219
    18  H    0.189819
    19  H    0.142496
    20  H    0.159674
    21  C   -0.512966
    22  H    0.165483
    23  H    0.149541
    24  H    0.167119
    25  C   -0.506580
    26  H    0.162479
    27  H    0.144844
    28  H    0.175141
    29  C   -0.504278
    30  H    0.172479
    31  H    0.145400
    32  H    0.165284
    33  C    0.293354
    34  C    0.306434
    35  C   -0.508216
    36  H    0.192826
    37  H    0.138087
    38  H    0.162567
    39  C   -0.509554
    40  H    0.169823
    41  H    0.145295
    42  H    0.163792
    43  C   -0.511892
    44  H    0.160386
    45  H    0.147802
    46  H    0.179890
    47  C   -0.504047
    48  H    0.159711
    49  H    0.150924
    50  H    0.158546
    51  B    0.426399
    52  B    0.437005
    53  N   -0.534143
    54  N   -0.491680
    55  O   -0.549311
    56  O   -0.517664
    57  O   -0.525353
    58  O   -0.524451
    59  Ir   0.065949
    60  H    0.186824
    61  B    0.534696
    62  O   -0.514796
    63  O   -0.535576
    64  C    0.298568
    65  C    0.295629
    66  C   -0.506878
    67  C   -0.507398
    68  C   -0.508004
    69  C   -0.506968
    70  H    0.173954
    71  H    0.146969
    72  H    0.167158
    73  H    0.163320
    74  H    0.145967
    75  H    0.178663
    76  H    0.161593
    77  H    0.148644
    78  H    0.167164
    79  H    0.196256
    80  H    0.141664
    81  H    0.148094
    82  H    0.179730
    83  H    0.171411
    84  C    0.971694
    85  F   -0.306623
    86  F   -0.304707
    87  F   -0.319050
 Sum of Mulliken charges =  -0.00000
 Mulliken charges with hydrogens summed into heavy atoms:
               1
     1  C    0.290596
     3  C   -0.080675
     4  C    0.053596
     6  C   -0.018715
     7  C   -0.014547
     8  C    0.048344
    10  C    0.008755
    11  C    0.291632
    13  C    0.298998
    14  C    0.305412
    15  C    0.299038
    16  C    0.301340
    17  C   -0.020230
    21  C   -0.030824
    25  C   -0.024116
    29  C   -0.021115
    33  C    0.293354
    34  C    0.306434
    35  C   -0.014737
    39  C   -0.030644
    43  C   -0.023813
    47  C   -0.034866
    51  B    0.426399
    52  B    0.437005
    53  N   -0.534143
    54  N   -0.491680
    55  O   -0.549311
    56  O   -0.517664
    57  O   -0.525353
    58  O   -0.524451
    59  Ir   0.065949
    61  B    0.534696
    62  O   -0.514796
    63  O   -0.535576
    64  C    0.298568
    65  C    0.295629
    66  C   -0.018798
    67  C   -0.019449
    68  C   -0.030603
    69  C   -0.020954
    84  C    0.971694
    85  F   -0.306623
    86  F   -0.304707
    87  F   -0.319050
 APT charges:
               1
     1  C    0.055638
     2  H    0.167311
     3  C   -0.209874
     4  C    0.112688
     5  H    0.068657
     6  C   -0.229332
     7  C   -0.160538
     8  C    0.065236
     9  H    0.031273
    10  C   -0.012129
    11  C    0.062639
    12  H    0.074442
    13  C    0.118895
    14  C    0.264564
    15  C    0.510654
    16  C    0.498338
    17  C   -0.054508
    18  H    0.039913
    19  H   -0.027532
    20  H   -0.002856
    21  C   -0.009807
    22  H   -0.002741
    23  H   -0.019279
    24  H   -0.001062
    25  C   -0.008670
    26  H   -0.005699
    27  H   -0.023695
    28  H    0.006821
    29  C   -0.029394
    30  H    0.002458
    31  H   -0.028761
    32  H    0.000195
    33  C    0.526014
    34  C    0.487120
    35  C   -0.055503
    36  H    0.042790
    37  H   -0.032719
    38  H    0.003058
    39  C   -0.012599
    40  H   -0.004109
    41  H   -0.022421
    42  H   -0.003841
    43  C   -0.011198
    44  H   -0.002959
    45  H   -0.021740
    46  H    0.011906
    47  C   -0.021877
    48  H   -0.009256
    49  H   -0.026551
    50  H   -0.004652
    51  B    1.252290
    52  B    1.302610
    53  N   -0.190010
    54  N   -0.108839
    55  O   -1.024432
    56  O   -1.005512
    57  O   -1.045251
    58  O   -0.999447
    59  Ir  -0.650594
    60  H    0.041940
    61  B    1.253395
    62  O   -0.983953
    63  O   -0.967080
    64  C    0.497739
    65  C    0.514436
    66  C   -0.030863
    67  C   -0.008799
    68  C   -0.014483
    69  C   -0.053837
    70  H    0.000341
    71  H   -0.022560
    72  H    0.004807
    73  H   -0.005038
    74  H   -0.021160
    75  H    0.008367
    76  H   -0.005756
    77  H   -0.014930
    78  H   -0.003841
    79  H    0.049761
    80  H   -0.029605
    81  H   -0.004494
    82  H    0.043710
    83  H    0.037503
    84  C    1.807491
    85  F   -0.556457
    86  F   -0.569840
    87  F   -0.592917
 Sum of APT charges =  -0.00000
 APT charges with hydrogens summed into heavy atoms:
               1
     1  C    0.222950
     3  C   -0.209874
     4  C    0.181345
     6  C   -0.185622
     7  C   -0.123035
     8  C    0.096510
    10  C    0.029811
    11  C    0.137081
    13  C    0.118895
    14  C    0.264564
    15  C    0.510654
    16  C    0.498338
    17  C   -0.044983
    21  C   -0.032889
    25  C   -0.031244
    29  C   -0.055502
    33  C    0.526014
    34  C    0.487120
    35  C   -0.042374
    39  C   -0.042970
    43  C   -0.023991
    47  C   -0.062336
    51  B    1.252290
    52  B    1.302610
    53  N   -0.190010
    54  N   -0.108839
    55  O   -1.024432
    56  O   -1.005512
    57  O   -1.045251
    58  O   -0.999447
    59  Ir  -0.650594
    61  B    1.253395
    62  O   -0.983953
    63  O   -0.967080
    64  C    0.497739
    65  C    0.514436
    66  C   -0.048275
    67  C   -0.026629
    68  C   -0.039010
    69  C   -0.038175
    84  C    1.807491
    85  F   -0.556457
    86  F   -0.569840
    87  F   -0.592917
 Electronic spatial extent (au):  <R**2>=          23554.3473
 Charge=             -0.0000 electrons
 Dipole moment (field-independent basis, Debye):
    X=              2.1641    Y=             -6.8222    Z=              0.0171  Tot=              7.1572
 Quadrupole moment (field-independent basis, Debye-Ang):
   XX=           -259.4335   YY=           -235.2144   ZZ=           -274.8070
   XY=            -13.8639   XZ=             -2.6804   YZ=              5.1262
 Traceless Quadrupole moment (field-independent basis, Debye-Ang):
   XX=             -2.9486   YY=             21.2705   ZZ=            -18.3220
   XY=            -13.8639   XZ=             -2.6804   YZ=              5.1262
 Octapole moment (field-independent basis, Debye-Ang**2):
  XXX=             87.9240  YYY=           -177.2923  ZZZ=            -14.2703  XYY=             73.6718
  XXY=            -97.1280  XXZ=            -39.9260  XZZ=             12.0619  YZZ=              4.1086
  YYZ=            -38.2562  XYZ=             12.1087
 Hexadecapole moment (field-independent basis, Debye-Ang**3):
 XXXX=         -14078.1596 YYYY=          -8974.5445 ZZZZ=          -6121.9040 XXXY=           -282.8781
 XXXZ=              0.7561 YYYX=              1.2924 YYYZ=            139.5103 ZZZX=            -77.8273
 ZZZY=            -21.5209 XXYY=          -3848.5080 XXZZ=          -3328.8853 YYZZ=          -2798.4219
 XXYZ=             40.9865 YYXZ=            -25.4021 ZZXY=             36.0468
 N-N= 6.442068382349D+03 E-N=-1.792969956609D+04  KE= 2.085650029865D+03
  Exact polarizability:     473.023      -0.460     470.687       2.271       5.146     319.547
 Approx polarizability:     669.116       8.875     671.083      -1.642       8.977     462.784
   1 Symmetry operations used in ECPInt.
 ECPInt:  NShTT=   35511 NPrTT=  219705 LenC2=   27413 LenP2D=   87595.
 LDataN:  DoStor=T MaxTD1= 8 Len=  415
 Calling FoFJK, ICntrl=    100127 FMM=F ISym2X=0 I1Cent= 0 IOpClX= 0 NMat=1 NMatS=1 NMatT=0.
 Defaulting to unpruned grid for atomic number  77.
 Defaulting to unpruned grid for atomic number  77.
 Defaulting to unpruned grid for atomic number  77.
 Defaulting to unpruned grid for atomic number  77.
 Defaulting to unpruned grid for atomic number  77.
 Defaulting to unpruned grid for atomic number  77.
 Defaulting to unpruned grid for atomic number  77.
 Defaulting to unpruned grid for atomic number  77.
 Defaulting to unpruned grid for atomic number  77.
 Defaulting to unpruned grid for atomic number  77.
 Defaulting to unpruned grid for atomic number  77.
 Defaulting to unpruned grid for atomic number  77.
 Defaulting to unpruned grid for atomic number  77.
 Defaulting to unpruned grid for atomic number  77.
 Defaulting to unpruned grid for atomic number  77.
 Defaulting to unpruned grid for atomic number  77.
 Full mass-weighted force constant matrix:
 Low frequencies ---   -4.4368   -0.0007   -0.0005    0.0001    1.2511    6.1044
 Low frequencies ---    9.4386   16.8338   17.9384
 Diagonal vibrational polarizability:
       91.4582694      54.4140066     241.6098758
 Harmonic frequencies (cm**-1), IR intensities (KM/Mole), Raman scattering
 activities (A**4/AMU), depolarization ratios for plane and unpolarized
 incident light, reduced masses (AMU), force constants (mDyne/A),
 and normal coordinates:
                      1                      2                      3
                      A                      A                      A
 Frequencies --      9.0666                16.7552                17.6892
 Red. masses --      6.9311                 4.7038                 5.3208
 Frc consts  --      0.0003                 0.0008                 0.0010
 IR Inten    --      0.2191                 0.2825                 1.0009
  Atom AN      X      Y      Z        X      Y      Z        X      Y      Z
     1   6     0.01   0.01  -0.03    -0.03   0.02   0.01    -0.01   0.01  -0.01
     2   1     0.01  -0.00   0.01    -0.04   0.01   0.02    -0.01   0.01  -0.05
     3   6     0.01   0.02  -0.11    -0.02   0.04   0.02    -0.00   0.01   0.01
     4   6     0.00   0.02  -0.15     0.00   0.05   0.02     0.01   0.01   0.07
     5   1    -0.00   0.03  -0.21     0.01   0.06   0.03     0.01   0.01   0.08
     6   6     0.00   0.02  -0.12     0.02   0.03   0.00     0.01  -0.00   0.10
     7   6     0.02   0.00  -0.03     0.04  -0.00  -0.05     0.02  -0.01   0.18
     8   6     0.02  -0.01  -0.00     0.05  -0.02  -0.06     0.02  -0.01   0.18
     9   1     0.03  -0.00  -0.02     0.07  -0.02  -0.08     0.02  -0.01   0.25
    10   6     0.02  -0.01   0.06     0.04  -0.04  -0.04     0.02  -0.02   0.09
    11   6     0.01  -0.01   0.08     0.02  -0.04  -0.01     0.01  -0.02   0.01
    12   1     0.01  -0.02   0.13     0.02  -0.05   0.00     0.01  -0.02  -0.05
    13   6     0.01  -0.00  -0.00     0.02  -0.00  -0.02     0.01  -0.01   0.09
    14   6     0.01   0.01  -0.04     0.01   0.01  -0.01     0.01  -0.00   0.07
    15   6    -0.01  -0.01   0.08     0.03  -0.04   0.01     0.05  -0.03  -0.00
    16   6     0.02  -0.01   0.04     0.04  -0.01   0.00    -0.00  -0.00   0.07
    17   6    -0.05  -0.00   0.07     0.02  -0.02   0.01     0.13  -0.06   0.02
    18   1    -0.06   0.00   0.04     0.01  -0.01   0.01     0.14  -0.06   0.05
    19   1    -0.06  -0.00   0.06     0.04  -0.02   0.00     0.14  -0.07   0.05
    20   1    -0.07  -0.00   0.09     0.01  -0.04   0.01     0.16  -0.07  -0.04
    21   6    -0.00  -0.01   0.11     0.06  -0.08   0.02     0.04  -0.03  -0.05
    22   1    -0.02  -0.00   0.14     0.06  -0.14  -0.01     0.09  -0.09  -0.12
    23   1    -0.01  -0.01   0.09     0.11  -0.07   0.05     0.08  -0.04   0.02
    24   1     0.03  -0.01   0.12     0.04  -0.07   0.01    -0.03   0.01  -0.08
    25   6     0.00  -0.00   0.00     0.05   0.01  -0.01     0.02  -0.03   0.15
    26   1     0.03  -0.00  -0.02     0.06   0.02  -0.01    -0.01  -0.01   0.20
    27   1     0.00  -0.00   0.01     0.07   0.00  -0.01     0.03  -0.03   0.16
    28   1    -0.02   0.00  -0.01     0.04   0.02  -0.01     0.07  -0.06   0.16
    29   6     0.06  -0.01   0.05     0.06  -0.01   0.01    -0.08   0.04   0.06
    30   1     0.07  -0.02   0.07     0.05  -0.03   0.01    -0.10   0.05  -0.00
    31   1     0.07  -0.01   0.06     0.09  -0.02   0.02    -0.08   0.04   0.07
    32   1     0.08  -0.01   0.02     0.06   0.02  -0.00    -0.11   0.06   0.11
    33   6     0.09  -0.02  -0.04     0.01  -0.04  -0.03    -0.00   0.06   0.00
    34   6     0.04   0.01  -0.06    -0.02   0.08   0.02     0.00   0.00  -0.03
    35   6     0.10  -0.02  -0.07     0.09  -0.03  -0.14    -0.02   0.06   0.07
    36   1     0.08  -0.00  -0.07     0.13   0.02  -0.16    -0.03   0.02   0.09
    37   1     0.12  -0.01  -0.11     0.11   0.01  -0.14    -0.02   0.06   0.08
    38   1     0.13  -0.04  -0.06     0.10  -0.12  -0.18    -0.02   0.10   0.09
    39   6     0.13  -0.04  -0.05    -0.03  -0.10  -0.00     0.00   0.12  -0.02
    40   1     0.16  -0.07  -0.04    -0.00  -0.19  -0.04     0.00   0.16   0.01
    41   1     0.14  -0.04  -0.09    -0.02  -0.06  -0.01     0.00   0.11  -0.01
    42   1     0.12  -0.05  -0.02    -0.09  -0.12   0.07     0.02   0.13  -0.07
    43   6     0.03   0.04  -0.11     0.03   0.19  -0.02    -0.01  -0.04   0.00
    44   1    -0.00   0.06  -0.12     0.00   0.27   0.02    -0.00  -0.08  -0.03
    45   1     0.06   0.03  -0.14     0.03   0.18  -0.02    -0.01  -0.01   0.00
    46   1     0.03   0.04  -0.12     0.09   0.19  -0.09    -0.02  -0.05   0.05
    47   6     0.03   0.01  -0.04    -0.11   0.09   0.11     0.02   0.01  -0.09
    48   1     0.04  -0.01   0.00    -0.14   0.01   0.13     0.03   0.04  -0.11
    49   1     0.06   0.01  -0.07    -0.12   0.10   0.11     0.02   0.03  -0.09
    50   1    -0.01   0.03  -0.04    -0.13   0.16   0.13     0.03  -0.03  -0.11
    51   5     0.01  -0.01   0.06    -0.01  -0.02  -0.00     0.00  -0.01  -0.01
    52   5     0.02  -0.01   0.02    -0.02  -0.01  -0.00     0.00   0.01  -0.03
    53   7     0.01   0.00   0.00    -0.01   0.00  -0.00    -0.00   0.00   0.02
    54   7     0.01  -0.01   0.06     0.01  -0.02  -0.01     0.01  -0.01   0.01
    55   8    -0.00  -0.01   0.09    -0.00  -0.05   0.02     0.02  -0.02  -0.05
    56   8     0.02  -0.01   0.03     0.01   0.00  -0.01    -0.01  -0.00   0.06
    57   8     0.07  -0.03   0.01    -0.01  -0.09  -0.02     0.00   0.07  -0.01
    58   8     0.00   0.02  -0.02    -0.01   0.09   0.01     0.00  -0.03  -0.03
    59  77     0.01  -0.01   0.06    -0.02  -0.02  -0.00    -0.00  -0.01  -0.02
    60   1     0.02  -0.02   0.08     0.05  -0.05  -0.04     0.02  -0.02   0.09
    61   5    -0.05   0.00   0.03    -0.01  -0.02   0.00    -0.01  -0.01  -0.02
    62   8    -0.06   0.01   0.02     0.03  -0.01   0.01     0.01  -0.02  -0.01
    63   8    -0.08   0.01   0.02    -0.04  -0.01  -0.01    -0.04  -0.01  -0.04
    64   6    -0.10   0.01   0.01     0.05  -0.01   0.02    -0.00  -0.03  -0.02
    65   6    -0.10   0.01  -0.00    -0.00   0.01   0.01    -0.03  -0.01  -0.04
    66   6    -0.12   0.00   0.04     0.07  -0.06  -0.01    -0.01  -0.07  -0.01
    67   6    -0.10   0.02  -0.02     0.09   0.01   0.05     0.02  -0.01  -0.01
    68   6    -0.13   0.01   0.00    -0.01  -0.01   0.00    -0.06  -0.03  -0.06
    69   6    -0.09   0.02  -0.04    -0.01   0.06   0.04    -0.03   0.03  -0.05
    70   1    -0.12  -0.01   0.05     0.04  -0.08  -0.03    -0.02  -0.08  -0.02
    71   1    -0.15   0.00   0.03     0.08  -0.06  -0.00    -0.02  -0.09  -0.02
    72   1    -0.11  -0.00   0.05     0.10  -0.07  -0.01     0.01  -0.08   0.01
    73   1    -0.10   0.01  -0.01     0.12  -0.01   0.06     0.04  -0.03   0.01
    74   1    -0.13   0.02  -0.03     0.09   0.01   0.06     0.01  -0.01  -0.01
    75   1    -0.08   0.02  -0.04     0.08   0.05   0.07     0.02   0.02  -0.01
    76   1    -0.13   0.02  -0.01    -0.05   0.01  -0.00    -0.08  -0.02  -0.07
    77   1    -0.15   0.02  -0.01     0.01   0.00   0.01    -0.06  -0.03  -0.05
    78   1    -0.14   0.00   0.02    -0.01  -0.04  -0.02    -0.07  -0.06  -0.05
    79   1    -0.07   0.03  -0.04    -0.00   0.06   0.04    -0.01   0.05  -0.03
    80   1    -0.11   0.03  -0.05     0.01   0.08   0.05    -0.03   0.03  -0.05
    81   1    -0.09   0.03  -0.04    -0.06   0.07   0.05    -0.05   0.04  -0.07
    82   1     0.00   0.02  -0.15     0.04   0.04   0.00     0.02  -0.01   0.14
    83   1     0.02   0.01  -0.08     0.05   0.01  -0.06     0.02  -0.00   0.24
    84   6     0.01   0.02  -0.15    -0.05   0.06   0.02    -0.02   0.03  -0.05
    85   9     0.04   0.03  -0.16    -0.12   0.13  -0.03    -0.07   0.14  -0.14
    86   9    -0.03   0.01  -0.16    -0.00   0.00  -0.03     0.02  -0.08  -0.14
    87   9     0.01   0.02  -0.19    -0.04   0.09   0.12    -0.01   0.04   0.05
                      4                      5                      6
                      A                      A                      A
 Frequencies --     22.6810                25.3824                33.8507
 Red. masses --      3.8149                 5.1546                 6.2455
 Frc consts  --      0.0012                 0.0020                 0.0042
 IR Inten    --      0.1129                 0.7959                 0.3046
  Atom AN      X      Y      Z        X      Y      Z        X      Y      Z
     1   6    -0.01   0.01   0.01     0.01   0.00  -0.01    -0.02   0.01  -0.01
     2   1    -0.01   0.00   0.01     0.02   0.01  -0.03    -0.03   0.01   0.00
     3   6    -0.01   0.01   0.00     0.00  -0.01  -0.01    -0.01   0.04  -0.02
     4   6    -0.01   0.01   0.01    -0.01  -0.02   0.02     0.01   0.05  -0.04
     5   1    -0.00   0.01   0.01    -0.01  -0.03   0.02     0.01   0.07  -0.06
     6   6    -0.00   0.01   0.02    -0.01  -0.01   0.05     0.02   0.03  -0.04
     7   6     0.00   0.00   0.07    -0.02   0.00   0.19     0.06  -0.01   0.06
     8   6     0.00  -0.00   0.07    -0.02   0.01   0.20     0.07  -0.03   0.09
     9   1     0.01  -0.00   0.11    -0.03   0.01   0.29     0.09  -0.03   0.12
    10   6     0.00  -0.00   0.03    -0.02   0.01   0.10     0.06  -0.05   0.08
    11   6    -0.00  -0.00  -0.02    -0.01   0.01  -0.00     0.04  -0.05   0.04
    12   1    -0.00  -0.01  -0.05    -0.01   0.02  -0.08     0.03  -0.07   0.03
    13   6    -0.00   0.00   0.03    -0.01   0.00   0.08     0.03  -0.01   0.02
    14   6    -0.00   0.00   0.02    -0.01  -0.00   0.05     0.02   0.01  -0.01
    15   6     0.00  -0.01   0.03    -0.06   0.01   0.05     0.04  -0.04  -0.02
    16   6     0.07   0.00  -0.05    -0.05   0.01   0.04     0.06  -0.02  -0.05
    17   6    -0.09   0.02   0.01    -0.08  -0.03   0.04     0.01  -0.00  -0.03
    18   1    -0.13   0.05  -0.03    -0.07  -0.04   0.02    -0.00   0.02  -0.02
    19   1    -0.08   0.03  -0.02    -0.10  -0.04   0.06     0.03   0.01  -0.05
    20   1    -0.14   0.00   0.07    -0.08  -0.03   0.05    -0.00  -0.01  -0.01
    21   6     0.05  -0.05   0.10    -0.07   0.04   0.09     0.07  -0.07  -0.02
    22   1    -0.00  -0.08   0.14    -0.09   0.08   0.12     0.05  -0.09  -0.00
    23   1     0.07  -0.04   0.07    -0.12   0.04   0.08     0.09  -0.06  -0.03
    24   1     0.10  -0.07   0.12    -0.04   0.05   0.10     0.07  -0.10  -0.01
    25   6     0.07   0.06  -0.14    -0.07  -0.02   0.04     0.08   0.03  -0.09
    26   1     0.12   0.07  -0.20    -0.06  -0.02   0.03     0.10   0.03  -0.11
    27   1     0.09   0.05  -0.15    -0.10  -0.02   0.08     0.11   0.02  -0.11
    28   1    -0.01   0.11  -0.16    -0.08  -0.06   0.03     0.05   0.07  -0.08
    29   6     0.17  -0.05  -0.04    -0.03   0.05   0.05     0.10  -0.08  -0.05
    30   1     0.18  -0.09   0.03    -0.01   0.08   0.05     0.09  -0.11  -0.02
    31   1     0.20  -0.07  -0.05    -0.05   0.06   0.09     0.12  -0.09  -0.08
    32   1     0.21  -0.05  -0.09    -0.02   0.06   0.04     0.11  -0.08  -0.07
    33   6    -0.02   0.05   0.02     0.01  -0.02  -0.06    -0.02   0.06   0.03
    34   6    -0.01   0.03   0.02    -0.00   0.06  -0.02    -0.01   0.01   0.00
    35   6    -0.01   0.04   0.05     0.06  -0.01  -0.13    -0.02   0.06   0.10
    36   1    -0.01   0.03   0.05     0.08   0.03  -0.16    -0.02   0.02   0.12
    37   1    -0.01   0.05   0.06     0.06   0.00  -0.14    -0.02   0.07   0.11
    38   1    -0.02   0.05   0.05     0.05  -0.07  -0.17    -0.02   0.10   0.12
    39   6    -0.03   0.07   0.02    -0.01  -0.07  -0.03    -0.02   0.13   0.01
    40   1    -0.04   0.08   0.02    -0.00  -0.13  -0.06    -0.02   0.16   0.03
    41   1    -0.04   0.08   0.03    -0.01  -0.05  -0.04    -0.02   0.13   0.03
    42   1    -0.04   0.07   0.00    -0.05  -0.09   0.02    -0.02   0.13  -0.04
    43   6    -0.01   0.02   0.04     0.03   0.13  -0.04    -0.01  -0.02   0.04
    44   1    -0.00   0.01   0.03     0.02   0.19  -0.01    -0.00  -0.06   0.02
    45   1    -0.01   0.04   0.05     0.03   0.12  -0.04    -0.02   0.01   0.05
    46   1     0.00   0.02   0.06     0.07   0.14  -0.10    -0.02  -0.04   0.09
    47   6    -0.02   0.03  -0.00    -0.05   0.06   0.05    -0.01   0.02  -0.06
    48   1    -0.03   0.04  -0.02    -0.08   0.02   0.07    -0.01   0.04  -0.09
    49   1    -0.03   0.05   0.00    -0.06   0.06   0.06    -0.01   0.05  -0.05
    50   1    -0.01   0.02  -0.01    -0.07   0.11   0.07     0.01  -0.02  -0.07
    51   5     0.00  -0.00   0.01    -0.01   0.01  -0.00     0.00  -0.03  -0.00
    52   5    -0.01   0.01  -0.00     0.00   0.01  -0.03    -0.01  -0.01  -0.01
    53   7    -0.01   0.00   0.01     0.00   0.01   0.02    -0.00  -0.00  -0.00
    54   7    -0.00  -0.00  -0.02    -0.01   0.01  -0.01     0.02  -0.03   0.01
    55   8    -0.01  -0.03   0.08    -0.03   0.02   0.03     0.01  -0.05   0.01
    56   8     0.03   0.02  -0.05    -0.02   0.00  -0.01     0.02  -0.01  -0.02
    57   8    -0.02   0.04   0.01     0.00  -0.04  -0.04    -0.01   0.05   0.00
    58   8    -0.00   0.01   0.01     0.01   0.07  -0.02    -0.01  -0.03  -0.00
    59  77    -0.01  -0.00  -0.01     0.00   0.01  -0.03    -0.01  -0.03  -0.01
    60   1     0.00  -0.01   0.03    -0.02   0.02   0.11     0.07  -0.07   0.11
    61   5     0.01  -0.02   0.00     0.02  -0.01  -0.02    -0.03  -0.01  -0.02
    62   8    -0.04  -0.02  -0.02     0.03  -0.03   0.00     0.02  -0.01  -0.00
    63   8     0.08  -0.03   0.02     0.04  -0.02  -0.03    -0.09   0.00  -0.03
    64   6    -0.04  -0.02  -0.02     0.05  -0.05   0.00     0.02  -0.00  -0.00
    65   6     0.05  -0.06   0.01     0.04  -0.04  -0.02    -0.06   0.03  -0.02
    66   6    -0.05   0.06   0.00     0.06  -0.06  -0.01     0.04  -0.08  -0.03
    67   6    -0.10  -0.08  -0.05     0.05  -0.06   0.03     0.08   0.04   0.04
    68   6     0.10  -0.03   0.03     0.05  -0.06  -0.03    -0.10   0.01  -0.04
    69   6     0.06  -0.16  -0.01     0.04  -0.03  -0.01    -0.06   0.12  -0.01
    70   1    -0.01   0.10   0.03     0.05  -0.05  -0.04    -0.01  -0.12  -0.05
    71   1    -0.05   0.07   0.01     0.07  -0.08  -0.02     0.04  -0.08  -0.03
    72   1    -0.11   0.09  -0.01     0.06  -0.06  -0.00     0.09  -0.11  -0.03
    73   1    -0.16  -0.04  -0.06     0.05  -0.06   0.05     0.14   0.01   0.05
    74   1    -0.09  -0.08  -0.05     0.06  -0.08   0.03     0.08   0.04   0.03
    75   1    -0.10  -0.14  -0.07     0.04  -0.04   0.04     0.08   0.10   0.05
    76   1     0.16  -0.06   0.04     0.05  -0.05  -0.05    -0.16   0.03  -0.04
    77   1     0.07  -0.05   0.01     0.06  -0.07  -0.02    -0.08   0.03  -0.03
    78   1     0.10   0.03   0.04     0.06  -0.06  -0.04    -0.11  -0.05  -0.05
    79   1     0.02  -0.18  -0.03     0.04  -0.03  -0.00    -0.04   0.14   0.01
    80   1     0.03  -0.18  -0.02     0.05  -0.03  -0.00    -0.05   0.14   0.01
    81   1     0.12  -0.18   0.01     0.04  -0.03  -0.01    -0.12   0.14  -0.03
    82   1    -0.00   0.01   0.02    -0.02  -0.02   0.07     0.04   0.04  -0.06
    83   1     0.00   0.00   0.11    -0.02   0.00   0.27     0.07   0.01   0.07
    84   6    -0.02   0.02  -0.02     0.02  -0.02  -0.02    -0.04   0.06   0.02
    85   9    -0.04   0.06  -0.05     0.10  -0.09   0.03     0.03  -0.08   0.13
    86   9    -0.00  -0.02  -0.05    -0.06   0.04   0.04    -0.16   0.19   0.14
    87   9    -0.01   0.02   0.02     0.02  -0.03  -0.15    -0.02   0.11  -0.15
                      7                      8                      9
                      A                      A                      A
 Frequencies --     37.5057                48.7576                50.7219
 Red. masses --      3.7253                 4.7886                 5.1369
 Frc consts  --      0.0031                 0.0067                 0.0078
 IR Inten    --      0.0936                 0.1368                 0.0489
  Atom AN      X      Y      Z        X      Y      Z        X      Y      Z
     1   6     0.00   0.00   0.01    -0.00  -0.00  -0.01     0.03  -0.01  -0.00
     2   1     0.01   0.00   0.01    -0.00  -0.01   0.03     0.03  -0.01   0.05
     3   6    -0.00  -0.01   0.01    -0.01   0.00  -0.04     0.03  -0.01  -0.03
     4   6    -0.01  -0.01   0.02    -0.01   0.02  -0.12     0.02   0.01  -0.12
     5   1    -0.01  -0.02   0.03    -0.01   0.02  -0.15     0.02   0.01  -0.16
     6   6    -0.01  -0.01   0.03    -0.01   0.02  -0.14     0.02   0.01  -0.15
     7   6    -0.03   0.01   0.02     0.00   0.01   0.02     0.05  -0.01  -0.00
     8   6    -0.03   0.02  -0.00     0.01   0.00   0.10     0.06  -0.02   0.08
     9   1    -0.04   0.02   0.00     0.01   0.00   0.15     0.07  -0.02   0.10
    10   6    -0.03   0.02  -0.03     0.01  -0.00   0.11     0.06  -0.03   0.12
    11   6    -0.02   0.02  -0.04    -0.00  -0.00   0.04     0.04  -0.03   0.08
    12   1    -0.02   0.03  -0.06    -0.00  -0.01   0.05     0.04  -0.04   0.11
    13   6    -0.02   0.01   0.01    -0.00   0.00  -0.03     0.04  -0.01  -0.03
    14   6    -0.01   0.00   0.02    -0.01   0.01  -0.08     0.03   0.00  -0.08
    15   6    -0.05   0.02   0.04     0.02  -0.04   0.10    -0.09   0.02  -0.02
    16   6     0.01   0.01  -0.03     0.04   0.01   0.08    -0.08  -0.03  -0.04
    17   6    -0.13   0.04   0.02    -0.01  -0.07   0.09    -0.12   0.01  -0.02
    18   1    -0.14   0.03  -0.01    -0.03  -0.05   0.05    -0.10  -0.01  -0.03
    19   1    -0.16   0.04  -0.00     0.01  -0.08   0.11    -0.16   0.01  -0.03
    20   1    -0.16   0.05   0.08    -0.03  -0.11   0.10    -0.12   0.05  -0.01
    21   6    -0.04   0.02   0.10     0.05  -0.06   0.15    -0.13   0.07  -0.00
    22   1    -0.08   0.04   0.16     0.03  -0.12   0.15    -0.13   0.13   0.04
    23   1    -0.06   0.02   0.07     0.07  -0.06   0.20    -0.19   0.06  -0.04
    24   1     0.03   0.01   0.13     0.06  -0.02   0.15    -0.09   0.06   0.01
    25   6    -0.02   0.03  -0.11     0.02  -0.03   0.11    -0.12  -0.05  -0.07
    26   1     0.02   0.02  -0.16     0.04   0.00   0.09    -0.10  -0.06  -0.09
    27   1    -0.02   0.03  -0.12     0.01  -0.03   0.17    -0.14  -0.04  -0.05
    28   1    -0.07   0.06  -0.13     0.00  -0.08   0.07    -0.13  -0.06  -0.08
    29   6     0.09  -0.03  -0.02     0.07   0.09   0.12    -0.07  -0.03  -0.04
    30   1     0.11  -0.04   0.04     0.08   0.11   0.09    -0.04  -0.02  -0.02
    31   1     0.09  -0.03  -0.03     0.08   0.09   0.19    -0.11  -0.02  -0.05
    32   1     0.13  -0.05  -0.07     0.09   0.14   0.09    -0.06  -0.07  -0.06
    33   6    -0.01  -0.02  -0.00    -0.04  -0.06  -0.01    -0.00   0.07   0.04
    34   6     0.01  -0.06  -0.02    -0.01  -0.07   0.00    -0.00   0.07   0.04
    35   6    -0.05  -0.02   0.02    -0.06  -0.06  -0.01     0.03   0.07   0.06
    36   1    -0.06  -0.02   0.02    -0.04  -0.05  -0.02     0.04   0.05   0.07
    37   1    -0.06  -0.04   0.02    -0.08  -0.07   0.02     0.04   0.09   0.07
    38   1    -0.06   0.01   0.03    -0.10  -0.05  -0.04     0.04   0.07   0.07
    39   6     0.01  -0.01  -0.01    -0.06  -0.07  -0.00    -0.03   0.11   0.04
    40   1    -0.00   0.02  -0.00    -0.08  -0.06  -0.01    -0.03   0.11   0.04
    41   1     0.00  -0.04  -0.01    -0.06  -0.09   0.01    -0.03   0.14   0.06
    42   1     0.04  -0.01  -0.03    -0.04  -0.07  -0.00    -0.06   0.11   0.02
    43   6    -0.03  -0.11  -0.02    -0.03  -0.10   0.01     0.04   0.11   0.09
    44   1    -0.01  -0.13  -0.03    -0.00  -0.10   0.02     0.04   0.11   0.09
    45   1    -0.03  -0.13  -0.02    -0.04  -0.12   0.02     0.03   0.16   0.11
    46   1    -0.07  -0.10  -0.01    -0.05  -0.09  -0.00     0.09   0.09   0.11
    47   6     0.06  -0.07  -0.03     0.02  -0.08   0.01    -0.07   0.10   0.01
    48   1     0.09  -0.03  -0.03     0.03  -0.06   0.01    -0.10   0.07  -0.01
    49   1     0.07  -0.10  -0.03     0.01  -0.11   0.02    -0.09   0.15   0.02
    50   1     0.08  -0.09  -0.03     0.04  -0.08   0.02    -0.08   0.09   0.01
    51   5    -0.00   0.01   0.02     0.01  -0.00  -0.00    -0.01  -0.01  -0.01
    52   5     0.00   0.01  -0.01    -0.01  -0.02  -0.03     0.01  -0.00   0.00
    53   7    -0.00   0.01   0.01    -0.01   0.00  -0.03     0.03  -0.00  -0.02
    54   7    -0.01   0.02  -0.02    -0.01  -0.00  -0.02     0.03  -0.02   0.01
    55   8    -0.03   0.02   0.08     0.00  -0.04   0.07    -0.04   0.03  -0.00
    56   8     0.00   0.01  -0.03     0.04   0.02  -0.01    -0.04  -0.05  -0.03
    57   8     0.00   0.02  -0.00    -0.03  -0.03  -0.03    -0.01   0.03   0.01
    58   8     0.00  -0.03  -0.01    -0.00  -0.04  -0.01     0.02   0.01   0.02
    59  77     0.00   0.02   0.00    -0.00   0.00  -0.04     0.01  -0.02  -0.00
    60   1    -0.03   0.03  -0.05     0.01  -0.01   0.17     0.06  -0.04   0.18
    61   5    -0.01   0.00  -0.01     0.01   0.03  -0.02    -0.00  -0.01  -0.01
    62   8     0.04  -0.00   0.02     0.02   0.05  -0.05     0.02  -0.01  -0.01
    63   8    -0.05   0.01  -0.03     0.01   0.04   0.00    -0.03  -0.01  -0.02
    64   6     0.07  -0.02   0.03     0.01   0.08  -0.04    -0.01  -0.00  -0.01
[...]
 001671,0.00003766,-0.00017076,-0.00006470,-0.00023482,0.00042187,0.000
 18449,-0.00014229,0.00037793,-0.00001339,-0.00031361,0.00010722,-0.000
 23490,-0.00033358,0.00005208,-0.00007330,-0.00016772,0.00010421,0.0004
 3662,-0.00001632,-0.00000517,-0.00000241,0.00031518,-0.00008558,-0.000
 60500,-0.00015437,0.00010849,0.00033053,-0.00019943,-0.00004184,0.0003
 0836,0.00003355,0.00003634,-0.00015235,0.00012027,-0.00004085,-0.00013
 807,0.00001001,-0.00001306,0.00002119,-0.00000002,0.00000025,0.0000170
 7,-0.00001616,-0.00000237,0.00001550,-0.00001649,0.00000256,0.00001712
 ,-0.00001051,0.00000488,-0.00001550,-0.00000662,-0.00000617,0.00002333
 ,0.00000091,0.00000962,-0.00001039,0.00000416,0.00001177,-0.00000368,-
 0.00001141,-0.00000288,0.00001436,0.00000395,-0.00000308,-0.00000543,0
 .00000763,-0.00000282,-0.00000747,-0.00001083,0.00000281,0.00001962,0.
 00000431,-0.00000148,-0.00001046,0.00001386,-0.00000331,-0.00000984,-0
 .00002024,0.00000465,0.00001573,0.00001031,0.00000230,-0.00000668,-0.0
 0021135,-0.00017554,-0.00016547,0.00001618,0.00004601,-0.00001942,-0.0
 8027185,-0.00494070,0.00226826,0.01383827,-0.00007541,0.00312064,0.078
 94465,0.00245725,-0.00259535,0.00009950,-0.00053913,-0.00060168,0.0009
 9399,-0.00630321,-0.03006769,0.03299047,-0.00316306,0.00180781,0.00138
 449,0.00028862,0.00015883,0.00106951,-0.00160470,-0.00038829,-0.001969
 17,-0.00037911,-0.00014472,-0.00001517,0.00004964,0.00027525,-0.000001
 42,-0.00001259,-0.00005831,0.00000701,-0.00030231,0.00008709,-0.000015
 98,0.00003877,-0.00044419,-0.00003373,-0.00001967,-0.00002512,0.000005
 68,-0.00000910,0.00024043,0.00038870,0.00054734,0.00035338,0.00016702,
 -0.00025417,-0.00072883,-0.00003275,-0.00030762,-0.00037004,0.00005909
 ,0.00009535,0.00018170,-0.00000415,0.00005180,-0.00003602,-0.00006748,
 -0.00002849,0.00003496,0.00003831,-0.00002744,-0.00004881,0.00001106,-
 0.00000672,0.00005203,0.00016477,-0.00000262,0.00000567,0.00024778,0.0
 0012838,0.00000081,-0.00005922,-0.00017177,0.00013126,-0.00023654,0.00
 003230,0.00006629,-0.00004099,-0.00000184,-0.00001228,0.00001412,-0.00
 001497,0.00006050,0.00002046,0.00001992,-0.00001614,-0.00003675,-0.000
 03444,0.00011409,0.00001233,-0.00003756,-0.00009075,-0.00002951,-0.000
 00194,0.00009457,-0.00002485,0.00005256,-0.00002864,-0.00000070,0.0002
 4322,-0.00017892,0.00004758,0.00011538,-0.00002013,0.00015853,-0.00004
 292,0.00002276,0.00000182,-0.00000690,-0.00002527,0.00001270,-0.000019
 60,0.00003142,-0.00000340,0.00001412,-0.00000036,-0.00003201,-0.000046
 52,0.00001914,0.00000309,0.00001455,0.00000883,-0.00002216,-0.00002280
 ,-0.00000235,-0.00002101,0.00000585,0.00000934,0.00001749,-0.00001817,
 -0.00000427,-0.00002063,0.00000628,0.00000139,0.00000484,-0.00002846,0
 .00000609,-0.00001139,0.00000257,0.00000896,0.00001286,0.00000236,0.00
 000014,-0.00004807,-0.00001104,0.00001053,0.00004041,-0.00003234,-0.00
 000057,-0.00001702,0.00002322,0.00000263,-0.00000927,-0.00026059,-0.00
 184505,-0.00034977,0.00099186,-0.00032153,0.00039130,-0.00094620,-0.00
 067179,-0.00206348,-0.00005242,-0.00039302,-0.00012498,0.00051893,0.00
 152079,0.00013119,0.00009793,0.00107705,0.00005431,-0.00052828,0.00027
 418,-0.00049786,-0.00051633,0.00014597,-0.00017727,0.00005707,0.000017
 89,0.00087657,-0.00002815,-0.00000739,-0.00000213,0.00037976,-0.000214
 19,-0.00088470,-0.00019909,0.00031497,0.00045269,-0.00024823,0.0000738
 7,0.00036356,0.00004724,0.00002461,-0.00012256,0.00018116,-0.00007825,
 -0.00018912,0.00000627,-0.00005371,0.00000723,-0.00000773,-0.00001350,
 0.00000615,-0.00001086,0.00000209,0.00002733,-0.00002483,0.00000379,0.
 00001482,-0.00001735,0.00001787,-0.00001014,-0.00000216,-0.00000030,0.
 00002236,0.00000531,0.00001679,0.00000593,0.00001099,0.00002855,0.0000
 1369,-0.00000991,0.00000515,0.00001176,-0.00000725,-0.00000798,-0.0000
 0742,0.00001827,0.00000630,-0.00001066,-0.00001827,0.00000576,0.000027
 52,-0.00000327,-0.00000677,-0.00002165,0.00001288,-0.00000383,-0.00001
 302,-0.00002773,0.00000506,0.00002335,0.00001805,0.00000957,-0.0000036
 0,-0.00026436,-0.00029923,-0.00013498,0.00001812,0.00010723,-0.0000106
 5,-0.00509302,-0.18212662,0.11574567,0.00062592,0.02326756,-0.00452751
 ,-0.01853407,0.21464404,-0.00160133,0.00037142,0.00040802,0.00005340,0
 .00005869,-0.00066353,0.00057668,0.01807439,-0.00477520,0.00285410,0.0
 0023956,-0.00101598,-0.00013751,-0.00022389,-0.00042051,0.00032084,0.0
 0080635,0.00058342,0.00012223,0.00006261,0.00002429,-0.00000082,-0.000
 10228,0.00000386,0.00000369,0.00002217,-0.00000930,0.00010272,-0.00002
 385,0.00000693,-0.00001134,0.00015113,0.00001686,0.00000420,0.00000774
 ,-0.00001190,0.00003886,-0.00007343,-0.00008526,-0.00040383,-0.0002466
 5,-0.00030733,0.00009041,0.00026999,-0.00003220,0.00010384,0.00022417,
 -0.00014356,-0.00012407,-0.00005481,-0.00004071,-0.00001447,0.00000385
 ,0.00004008,0.00002108,-0.00002131,-0.00000013,0.00003514,0.00001204,0
 .00005262,-0.00012135,0.00001211,-0.00033978,0.00000651,0.00008219,0.0
 0000125,-0.00002086,-0.00001445,0.00007580,0.00007570,-0.00006760,0.00
 016871,-0.00001177,-0.00004633,0.00005681,0.00001860,0.00000010,0.0000
 0069,0.00000470,-0.00001802,-0.00001648,-0.00003262,0.00000948,0.00002
 972,0.00009328,-0.00010362,0.00000820,0.00000743,0.00006007,0.00000682
 ,-0.00000599,-0.00003725,0.00000692,-0.00001885,0.00001768,0.00001919,
 -0.00009959,0.00007359,-0.00002926,-0.00005906,0.00000890,-0.00009645,
 0.00003079,-0.00000525,-0.00001034,-0.00000099,0.00001241,-0.00000466,
 0.00000590,-0.00001544,0.00000214,-0.00000864,-0.00000658,0.00002114,0
 .00002448,-0.00000555,-0.00000770,-0.00000567,-0.00001311,0.00001881,0
 .00000561,0.00000292,0.00001271,0.00000221,0.00000063,-0.00000954,0.00
 001027,0.00000055,0.00001298,-0.00000857,-0.00000475,0.00000070,0.0000
 1605,-0.00000244,0.00000674,-0.00000028,-0.00000048,-0.00000890,0.0000
 0359,-0.00000055,0.00002181,0.00000304,-0.00000181,-0.00001903,0.00001
 774,0.00000159,0.00000830,-0.00001199,-0.00000509,0.00000950,-0.000026
 89,0.00064224,-0.00001916,-0.00047523,0.00017491,-0.00029217,0.0008136
 2,0.00040912,0.00065752,0.00004551,0.00014402,0.00003090,-0.00004663,-
 0.00051584,0.00024000,0.00005141,-0.00048003,0.00008456,0.00023762,-0.
 00014088,0.00032484,0.00023043,-0.00006774,0.00014481,-0.00001939,0.00
 011340,-0.00033372,0.00001258,0.00000314,-0.00000541,-0.00001721,-0.00
 001046,0.00015595,0.00006157,-0.00007254,-0.00002533,0.00006326,-0.000
 02913,-0.00002895,-0.00005955,0.00000431,-0.00004672,-0.00006435,0.000
 00733,0.00003422,0.00000859,0.00002850,0.00002308,0.00001193,0.0000001
 8,0.00001744,-0.00000876,0.00000164,-0.00000824,0.00000824,0.00000576,
 0.00000855,-0.00000276,-0.00003974,-0.00000964,0.00000692,-0.00000170,
 -0.00000447,-0.00001640,0.00002108,-0.00000057,-0.00000838,-0.00000192
 ,-0.00000765,-0.00000108,-0.00000078,-0.00000297,0.00001645,-0.0000008
 9,0.00000501,-0.00000166,0.00000274,0.00000597,0.00000424,-0.00000546,
 -0.00000688,0.00000963,-0.00000520,0.00001035,-0.00000132,-0.00000361,
 -0.00000273,0.00000729,-0.00000239,-0.00000811,-0.00000118,0.00000507,
 0.00000010,0.00020884,0.00021046,0.00009796,-0.00000431,-0.00006146,-0
 .00001064,0.00285645,0.11179119,-0.19865522,0.00258094,0.01524440,-0.0
 8708826,0.01870619,-0.17255669,0.29772491,-0.00164486,-0.00873951,-0.0
 0152964,0.00080760,-0.00028980,-0.00013544,-0.04805228,0.01501257,-0.0
 0047317,-0.00190397,0.00492300,0.00087341,-0.00047057,-0.00310989,-0.0
 0067508,-0.00069529,-0.00098339,0.00016332,-0.00044581,-0.00022300,0.0
 0000719,0.00014211,0.00013966,-0.00001477,-0.00002116,-0.00006583,0.00
 000071,-0.00024874,0.00009422,-0.00000942,0.00008245,-0.00035643,-0.00
 002088,-0.00001466,0.00000793,0.00000676,0.00026842,0.00012194,-0.0000
 4875,0.00048230,0.00090701,0.00000820,0.00014429,-0.00051472,-0.000212
 56,-0.00002634,-0.00022104,0.00006654,-0.00001615,0.00002642,0.0000494
 5,-0.00000551,-0.00001360,-0.00000867,-0.00002849,0.00006645,0.0000304
 4,0.00000856,-0.00002698,-0.00005624,0.00007952,0.00008034,0.00005103,
 0.00000945,-0.00013390,-0.00012536,-0.00008900,0.00009139,0.00001258,0
 .00003430,-0.00008849,0.00007333,-0.00002473,0.00001030,-0.00003332,-0
 .00003799,0.00000480,-0.00001526,0.00001505,0.00003027,0.00001128,0.00
 000507,-0.00001379,0.00000831,0.00002395,-0.00000654,-0.00003724,-0.00
 000418,-0.00000453,0.00005374,0.00001864,0.00003947,0.00000459,-0.0000
 4007,-0.00000389,-0.00000945,0.00030845,-0.00011069,0.00007269,0.00020
 114,0.00001816,0.00020033,-0.00004622,0.00001226,-0.00000287,0.0000388
 1,-0.00001866,-0.00000276,-0.00004571,0.00002699,-0.00001130,0.0000210
 2,-0.00000182,0.00001118,-0.00003656,0.00001211,-0.00000993,0.00001970
 ,0.00000720,-0.00000765,-0.00003792,0.00000234,-0.00001931,0.00000946,
 -0.00000808,0.00001040,-0.00002562,-0.00000313,-0.00002069,-0.00000105
 ,-0.00000829,0.00001931,-0.00003423,0.00001080,-0.00001957,0.00001496,
 0.00000022,0.00000290,-0.00001373,-0.00001169,-0.00004182,0.00000077,0
 .00001825,0.00003173,-0.00004151,-0.00000629,-0.00002902,0.00001926,-0
 .00000298,0.00000853,0.00067537,-0.00048617,0.00004179,0.00105197,-0.0
 0021099,0.00047997,-0.00363460,0.00015597,0.00024767,-0.00002013,-0.00
 026529,-0.00006845,-0.00064293,0.00063279,0.00016689,-0.00036344,0.000
 58547,-0.00007711,-0.00062814,0.00019024,-0.00049677,-0.00076766,0.000
 07919,-0.00019673,0.00024922,-0.00018021,0.00072150,-0.00002853,-0.000
 01655,0.00000758,0.00052052,-0.00000396,-0.00119070,-0.00032087,0.0001
 3584,0.00063411,-0.00039743,-0.00016254,0.00060905,0.00010248,0.000084
 46,-0.00030084,0.00023918,-0.00005879,-0.00027070,0.00001727,-0.000020
 77,0.00004063,-0.00000299,0.00000669,0.00002992,-0.00003120,-0.0000085
 9,0.00002913,-0.00003140,0.00000238,0.00003263,-0.00001379,0.00002785,
 -0.00003207,-0.00002189,-0.00001417,0.00005276,0.00000949,0.00000092,-
 0.00003064,0.00000877,0.00001445,-0.00001320,-0.00002370,-0.00000936,0
 .00003256,0.00000611,-0.00000245,-0.00001251,0.00000742,-0.00001393,-0
 .00001644,-0.00001939,0.00000598,0.00003802,0.00000979,0.00000489,-0.0
 0001884,0.00003137,-0.00000559,-0.00001904,-0.00003998,0.00000965,0.00
 003127,0.00001594,-0.00000267,-0.00001707,-0.00013669,-0.00025185,-0.0
 0003901,0.00004073,0.00005213,0.00000555,-0.28947131,0.05128082,-0.003
 62022,-0.02095763,0.03148214,0.02973240,-0.01763558,0.03307206,-0.0271
 4009,0.38350072,0.00025538,-0.00293195,-0.00080892,-0.00039290,-0.0000
 7985,-0.00001804,-0.01774795,0.01043974,-0.00012282,-0.00056398,-0.003
 79540,-0.00083422,-0.00300731,0.00020508,0.00008688,-0.00074798,0.0014
 7476,0.00023041,-0.00004428,-0.00005903,0.00000275,-0.00002191,0.00006
 465,0.00000211,-0.00000156,-0.00001269,0.00000032,-0.00004776,-0.00001
 254,-0.00000356,0.00003314,-0.00003750,-0.00002358,-0.00000754,-0.0000
 1214,0.00000034,0.00000655,0.00024615,-0.00000396,-0.00028558,0.000498
 39,0.00012141,-0.00014258,-0.00029359,-0.00000479,-0.00016003,-0.00013
 623,-0.00002213,0.00000422,0.00009696,-0.00003378,0.00003044,-0.000022
 58,-0.00002447,-0.00000424,0.00000383,0.00002270,-0.00000522,-0.000023
 03,0.00004174,-0.00007692,0.00001912,-0.00003921,0.00000052,0.00007458
 ,0.00015979,0.00008645,-0.00001557,-0.00000867,-0.00005605,0.00004829,
 -0.00010120,0.00002111,0.00002610,-0.00000117,0.00001133,-0.00000922,0
 .00001267,-0.00001023,0.00002886,0.00000551,-0.00000026,-0.00000547,-0
 .00001492,0.00000693,0.00004119,0.00001528,-0.00001905,-0.00003546,-0.
 00002061,-0.00000477,0.00004144,-0.00001489,0.00003170,-0.00001189,0.0
 0000914,0.00008270,-0.00007495,0.00000927,0.00003076,-0.00000851,0.000
 05211,-0.00001347,0.00001103,-0.00000218,-0.00001089,-0.00001019,0.000
 00684,-0.00000395,0.00001228,0.00000009,0.00000328,-0.00000185,-0.0000
 1596,-0.00001789,0.00001081,0.00000161,0.00000444,0.00000057,-0.000007
 85,-0.00000749,-0.00000129,-0.00000763,0.00000268,0.00000680,0.0000063
 6,-0.00000696,-0.00000399,-0.00000993,0.00000113,0.00000066,0.00000088
 ,-0.00000973,0.00000235,-0.00000185,-0.00000043,0.00000523,0.00000462,
 0.00000055,0.00000262,-0.00001818,-0.00000536,0.00000449,0.00001286,-0
 .00000916,-0.00000112,-0.00000435,0.00000652,0.00000112,-0.00000321,-0
 .00029054,-0.00091971,-0.00024925,0.00033306,-0.00013019,0.00013537,-0
 .00184645,-0.00030442,0.00012373,-0.00021375,-0.00010340,-0.00001184,0
 .00042620,0.00071074,0.00018103,0.00014108,0.00045225,0.00007594,-0.00
 019256,0.00011090,-0.00016322,-0.00019110,0.00005806,-0.00006130,0.000
 10524,-0.00002343,0.00043419,-0.00000979,-0.00000382,0.00000267,0.0001
 2504,-0.00011433,-0.00046716,-0.00006336,0.00016964,0.00022111,-0.0000
 8554,0.00004018,0.00015491,0.00000143,0.00000885,-0.00005880,0.0000637
 8,-0.00004412,-0.00007043,0.00000285,-0.00002534,0.00000954,-0.0000004
 3,-0.00001120,0.00000645,-0.00000509,0.00000598,0.00001166,-0.00000835
 ,0.00000756,0.00000858,-0.00001084,-0.00000953,-0.00000489,0.00000696,
 0.00000146,0.00000556,-0.00000582,0.00002124,0.00000920,0.00000280,0.0
 0001645,0.00000846,-0.00000352,0.00000498,0.00000193,0.00000045,-0.000
 00533,-0.00000112,0.00000938,0.00000657,-0.00000146,-0.00000761,-0.000
 00046,0.00001003,-0.00000028,-0.00000748,-0.00000723,0.00000390,-0.000
 00309,-0.00000724,-0.00000989,0.00000017,0.00000761,0.00000795,0.00000
 773,0.00000116,0.00012065,0.00002381,0.00000200,-0.00000039,0.00006137
 ,-0.00000595,0.05776901,-0.09915670,0.00011091,0.04314165,-0.01813848,
 -0.02452235,0.04630471,-0.02342311,0.02569516,-0.12280720,0.13494513,-
 0.00003614,-0.00082721,0.00149871,-0.00011536,-0.00000956,-0.00020234,
 -0.00217690,0.00050668,0.00948470,-0.00002496,-0.00026642,-0.00037660,
 -0.00049549,-0.00003442,-0.00029750,-0.00017679,0.00015099,0.00001584,
 -0.00001529,-0.00002184,0.00001257,0.00000986,0.00000408,0.00000239,-0
 .00000047,-0.00000184,-0.00000419,-0.00000849,0.00000506,0.00000198,0.
 00000275,-0.00000758,0.00001423,-0.00000155,-0.00000069,-0.00000555,0.
 00002540,0.00003904,0.00007758,0.00002203,-0.00003972,-0.00007845,0.00
 000113,-0.00003130,-0.00003606,-0.00001844,0.00001866,-0.00004896,-0.0
 0004602,0.00001256,-0.00002225,0.00000361,-0.00000668,0.00000577,0.000
 00471,-0.00000211,0.00000937,0.00001272,-0.00000434,0.00002804,-0.0000
 6818,0.00001481,-0.00012874,0.00000002,0.00005629,0.00003903,0.0000146
 8,-0.00000351,0.00002469,0.00001778,-0.00001973,0.00003545,0.00000145,
 -0.00000567,0.00001549,0.00000739,-0.00000244,0.00000367,-0.00000085,0
 .00000487,-0.00000330,-0.00001111,0.00000036,0.00000602,0.00003359,-0.
 00002012,0.00000649,-0.00000369,0.00000958,-0.00000048,-0.00000195,0.0
 0000191,-0.00000249,0.00000141,0.00000169,0.00000878,0.00001103,-0.000
 00680,-0.00000433,0.00000044,-0.00000018,-0.00000688,0.00000372,0.0000
 0238,-0.00000392,-0.00000138,0.00000005,0.00000039,-0.00000182,0.00000
 018,-0.00000010,-0.00000102,-0.00000292,0.00000274,0.00000002,0.000002
 08,-0.00000240,0.00000045,-0.00000410,0.00000362,-0.00000265,0.0000008
 1,0.00000063,0.00000224,0.00000221,-0.00000072,0.00000034,-0.00000094,
 0.00000044,-0.00000304,-0.00000223,0.00000168,0.00000064,0.00000047,0.
 00000074,0.00000050,0.00000187,-0.00000169,0.00000105,0.00000007,-0.00
 000157,-0.00000117,0.00000207,-0.00000022,0.00000082,-0.00000008,-0.00
 000016,-0.00000127,-0.00000171,0.00000276,-0.00005861,-0.00011533,-0.0
 0007586,0.00002440,0.00001963,-0.00003275,-0.00024897,0.00030791,-0.00
 070638,-0.00002533,-0.00000647,-0.00001570,0.00006523,0.00009926,0.000
 15658,0.00003776,0.00001981,0.00004776,-0.00001741,-0.00000187,0.00003
 101,-0.00002664,-0.00000032,0.00002441,-0.00002237,0.00000876,0.000060
 86,-0.00000137,-0.00000090,-0.00000728,0.00007455,-0.00003362,-0.00018
 278,-0.00002214,0.00003800,0.00011718,-0.00003088,-0.00000943,0.000088
 70,-0.00001691,0.00001169,-0.00006389,0.00001341,-0.00001576,-0.000031
 62,0.00000607,0.00000313,0.00001698,0.00000503,-0.00000321,0.00001242,
 -0.00000906,0.00000139,0.00000254,-0.00000188,0.00000433,0.00000927,-0
 .00000604,-0.00001718,-0.00000907,0.00000275,-0.00000140,0.00000452,-0
 .00000747,0.00001536,0.00000015,-0.00000185,0.00000588,-0.00000124,-0.
 00000371,0.00000080,0.00000192,0.00000748,-0.00000269,0.00000095,0.000
 00325,0.00000250,0.00000074,-0.00000228,-0.00000183,0.00000357,0.00000
 498,-0.00000419,0.00000050,0.00000333,-0.00000299,-0.00000458,-0.00000
 338,-0.00000006,0.00000166,0.00000330,0.00000483,-0.00000045,0.0000118
 8,0.00000212,-0.00001256,0.00000043,0.00000658,-0.00001091,-0.00275488
 ,-0.00029836,-0.07570487,0.04329298,-0.02764490,-0.00777022,-0.0396806
 1,0.02831245,-0.00658660,0.00241925,-0.00021852,0.08056017\\0.00000029
 ,0.00001277,0.00000696,-0.00000351,0.00000356,-0.00000449,0.00000266,-
 0.00001676,-0.00000291,-0.00000862,-0.00000930,-0.00000005,0.00000306,
 0.00001009,-0.00000228,0.00002396,-0.00001333,0.00000397,0.00002030,-0
 .00002242,-0.00000848,-0.00000356,-0.00000005,-0.00000113,0.00000071,-
 0.00000467,-0.00000015,0.00001362,0.00001788,-0.00000214,-0.00004112,-
 0.00003441,-0.00000384,0.00000475,0.00000128,0.00000860,-0.00000540,-0
 .00000362,0.00000288,-0.00000253,0.00001477,0.00000002,0.00000655,-0.0
 0001422,-0.00000345,-0.00000225,0.00001339,0.00000901,-0.00000768,0.00
 001096,-0.00000424,0.00000046,0.00000121,-0.00000314,0.00000090,-0.000
 00190,-0.00000143,0.00000119,0.00000053,0.00000293,-0.00000561,0.00000
 226,-0.00000760,0.00000020,-0.00000248,0.00000076,0.,0.00000015,-0.000
 00086,-0.00000119,0.00000362,0.00000520,0.00000284,-0.00001619,-0.0000
 1289,-0.00000625,0.00000525,-0.00000307,-0.00000034,0.00000366,0.00000
 126,-0.00000156,0.00000039,0.00000665,-0.00000798,0.00000049,0.0000041
 4,0.00000197,0.00000076,-0.00000642,-0.00000179,0.00000034,0.00000008,
 -0.00000274,-0.00000593,-0.00000214,0.00001653,-0.00001698,-0.00000123
 ,-0.00001270,0.00001219,-0.00002043,-0.00000654,0.00000527,0.00000586,
 -0.00000212,0.00000114,-0.00000885,-0.00000161,-0.00000327,0.00000278,
 0.00000585,0.00000479,0.00000767,-0.00000722,-0.00000701,0.00000785,0.
 00000238,0.00000139,-0.00000486,0.00000200,-0.00000198,0.00000098,0.00
 000229,-0.00000115,0.00000042,-0.00000060,-0.00000727,0.00000212,-0.00
 000188,-0.00000157,0.00000558,0.00000430,-0.00000097,0.00000158,-0.000
 00233,-0.00000092,0.00000090,-0.00000205,-0.00001443,0.00000812,0.0000
 0406,0.00000201,-0.00000413,0.00000305,-0.00000290,0.00000928,0.000000
 30,-0.00000112,-0.00000626,0.00001620,0.00002410,0.00000914,0.00001961
 ,0.00000103,-0.00001464,-0.00005309,-0.00002151,-0.00002082,0.00005158
 ,0.00007899,0.00002358,-0.00001005,-0.00000190,-0.00000147,-0.00001913
 ,-0.00000094,0.00000646,-0.00001528,0.00000178,-0.00000727,-0.00001256
 ,0.00000544,0.00003436,0.00003968,-0.00003386,-0.00001924,-0.00000189,
 -0.00000370,-0.00000127,-0.00003637,-0.00001037,0.00002902,0.00002081,
 -0.00001964,-0.00002424,0.00000438,0.00001046,-0.00000751,0.00000646,0
 .00001797,0.00001518,-0.00000777,-0.00001436,-0.00000335,-0.00000262,0
 .00000166,-0.00000397,-0.00000033,-0.00000388,-0.00000356,0.00000503,0
 .00000055,0.00000231,-0.00000406,-0.00000420,0.00000128,-0.00000141,0.
 00000440,0.00000106,0.00000510,0.00000189,0.00000077,-0.00000008,0.000
 00059,0.00000138,-0.00000006,-0.00000251,-0.00000353,0.00000283,0.0000
 0046,-0.00000008,-0.00000245,0.00000114,0.00000223,0.00000196,-0.00000
 375,-0.00000081,0.00000067,-0.00000109,-0.00000048,-0.00000356,-0.0000
 0263,0.00000142,-0.00000523,0.00000108,-0.00000598,0.00000749,0.000000
 46,-0.00000080,0.00000571,0.00000007,0.00000298,-0.00000619,0.00001026
 ,-0.00000003,-0.00000434,0.00000860,0.00000053,0.00000717,0.00001284,0
 .00000590,-0.00000129,0.00000614,0.00000657,0.00000731,0.00000624,-0.0
 0001590,0.00000075,0.00000286,0.00000168\\\@
 The archive entry for this job was punched.


 NATURE REVEALS EVERY SECRET ONCE.
                    - RALPH WALDO EMERSON
 Job cpu time:       0 days 23 hours 40 minutes 38.1 seconds.
 Elapsed time:       0 days  1 hours 30 minutes 36.3 seconds.
 File lengths (MBytes):  RWF=   4941 Int=      0 D2E=      0 Chk=     36 Scr=      1
 Normal termination of Gaussian 16 at Sat Dec  7 20:19:39 2024.
