/mnt/lustre/scratch/nvme/SLURM/9663599/usccqdma.dLCjtoJ8m7
OMP_STACKSIZE=0m
GAUSS_PDEF=16
GAUSS_MDEF=65536MB
GAUSS_RDEF=SCF=Direct
 Entering Gaussian System, Link 0=g16.exe
 Initial command:
 /opt/cesga/2020/software/Core/g16/c1/l1.exe "/mnt/lustre/scratch/nvme/SLURM/9663599/usccqdma.dLCjtoJ8m7/Gau-2726808.inp" -scrdir="/mnt/lustre/scratch/nvme/SLURM/9663599/usccqdma.dLCjtoJ8m7/"
 Default is to use a total of  16 processors:
                               16 via shared-memory
                                1 via Linda
 Entering Link 1 = /opt/cesga/2020/software/Core/g16/c1/l1.exe PID=   2726834.
  
 Copyright (c) 1988-2019, Gaussian, Inc.  All Rights Reserved.
  
 This is part of the Gaussian(R) 16 program.  It is based on
 the Gaussian(R) 09 system (copyright 2009, Gaussian, Inc.),
 the Gaussian(R) 03 system (copyright 2003, Gaussian, Inc.),
 the Gaussian(R) 98 system (copyright 1998, Gaussian, Inc.),
 the Gaussian(R) 94 system (copyright 1995, Gaussian, Inc.),
 the Gaussian 92(TM) system (copyright 1992, Gaussian, Inc.),
 the Gaussian 90(TM) system (copyright 1990, Gaussian, Inc.),
 the Gaussian 88(TM) system (copyright 1988, Gaussian, Inc.),
 the Gaussian 86(TM) system (copyright 1986, Carnegie Mellon
 University), and the Gaussian 82(TM) system (copyright 1983,
 Carnegie Mellon University). Gaussian is a federally registered
 trademark of Gaussian, Inc.
  
 This software contains proprietary and confidential information,
 including trade secrets, belonging to Gaussian, Inc.
  
 This software is provided under written license and may be
 used, copied, transmitted, or stored only in accord with that
 written license.
  
 The following legend is applicable only to US Government
 contracts under FAR:
  
                    RESTRICTED RIGHTS LEGEND
  
 Use, reproduction and disclosure by the US Government is
 subject to restrictions as set forth in subparagraphs (a)
 and (c) of the Commercial Computer Software - Restricted
 Rights clause in FAR 52.227-19.
  
 Gaussian, Inc.
 340 Quinnipiac St., Bldg. 40, Wallingford CT 06492
  
  
 ---------------------------------------------------------------
 Warning -- This program may not be used in any manner that
 competes with the business of Gaussian, Inc. or will provide
 assistance to any competitor of Gaussian, Inc.  The licensee
 of this program is prohibited from giving any competitor of
 Gaussian, Inc. access to this program.  By using this program,
 the user acknowledges that Gaussian, Inc. is engaged in the
 business of creating and licensing software in the field of
 computational chemistry and represents and warrants to the
 licensee that it is not a competitor of Gaussian, Inc. and that
 it will not use this program in any manner prohibited above.
 ---------------------------------------------------------------
  

 Cite this work as:
 Gaussian 16, Revision C.01,
 M. J. Frisch, G. W. Trucks, H. B. Schlegel, G. E. Scuseria, 
 M. A. Robb, J. R. Cheeseman, G. Scalmani, V. Barone, 
 G. A. Petersson, H. Nakatsuji, X. Li, M. Caricato, A. V. Marenich, 
 J. Bloino, B. G. Janesko, R. Gomperts, B. Mennucci, H. P. Hratchian, 
 J. V. Ortiz, A. F. Izmaylov, J. L. Sonnenberg, D. Williams-Young, 
 F. Ding, F. Lipparini, F. Egidi, J. Goings, B. Peng, A. Petrone, 
 T. Henderson, D. Ranasinghe, V. G. Zakrzewski, J. Gao, N. Rega, 
 G. Zheng, W. Liang, M. Hada, M. Ehara, K. Toyota, R. Fukuda, 
 J. Hasegawa, M. Ishida, T. Nakajima, Y. Honda, O. Kitao, H. Nakai, 
 T. Vreven, K. Throssell, J. A. Montgomery, Jr., J. E. Peralta, 
 F. Ogliaro, M. J. Bearpark, J. J. Heyd, E. N. Brothers, K. N. Kudin, 
 V. N. Staroverov, T. A. Keith, R. Kobayashi, J. Normand, 
 K. Raghavachari, A. P. Rendell, J. C. Burant, S. S. Iyengar, 
 J. Tomasi, M. Cossi, J. M. Millam, M. Klene, C. Adamo, R. Cammi, 
 J. W. Ochterski, R. L. Martin, K. Morokuma, O. Farkas, 
 J. B. Foresman, and D. J. Fox, Gaussian, Inc., Wallingford CT, 2019.
 
 ******************************************
 Gaussian 16:  ES64L-G16RevC.01  3-Jul-2019
                 7-Dec-2024 
 ******************************************
 Default route: SCF=Direct
 ----------------------------------------------------
 # m06/genecp scf=tight int=ultrafine 5d freq=noraman
 ----------------------------------------------------
 1/10=4,30=1,38=1/1,3;
 2/12=2,17=6,18=5,40=1/2;
 3/5=7,8=1,11=2,16=1,17=8,25=1,30=1,71=2,74=-54,75=-5,140=1/1,2,3;
 4//1;
 5/5=2,32=2,38=5,98=1/2;
 8/6=4,10=90,11=11/1;
 11/6=1,8=1,9=11,15=111,16=1/1,2,10;
 10/6=1/2;
 6/7=2,8=2,9=2,10=2,28=1/1;
 7/8=1,10=1,25=1/1,2,3,16;
 1/10=4,30=1/3;
 99//99;
 ------
 OPT-TS
 ------
 Symbolic Z-matrix:
 Charge =  0 Multiplicity = 1
 C                    -3.45385  -1.32874   0.00633 
 H                    -3.73456  -0.27718  -0.08136 
 C                    -4.38321  -2.36323   0.03886 
 C                    -3.93949  -3.67227   0.16922 
 H                    -4.65435  -4.49157   0.19572 
 C                    -2.57339  -3.91389   0.26766 
 C                     0.4379   -2.83213   1.5269 
 C                     1.82191  -2.89756   1.53288 
 H                     2.38428  -2.81496   2.46168 
 C                     2.48765  -3.05132   0.32229 
 C                     1.74681  -3.13849  -0.85116 
 H                     2.24224  -3.22943  -1.81652 
 C                    -0.21846  -2.95291   0.29851 
 C                    -1.70579  -2.83313   0.22373 
 C                    -3.17485   2.96233  -0.16445 
 C                    -1.91517   3.7647    0.26842 
 C                    -3.50082   3.12044  -1.64322 
 H                    -2.60945   2.96158  -2.26386 
 H                    -3.91154   4.11424  -1.86635 
 H                    -4.25044   2.37007  -1.92605 
 C                    -4.4151    3.20436   0.67098 
 H                    -5.24212   2.58399   0.29973 
 H                    -4.72853   4.25633   0.60853 
 H                    -4.24927   2.95082   1.72361 
 C                    -1.72495   5.09135  -0.43853 
 H                    -0.80623   5.56937  -0.07431 
 H                    -2.56628   5.77011  -0.23664 
 H                    -1.62643   4.96229  -1.52184 
 C                    -1.83083   3.96299   1.77706 
 H                    -1.96598   3.01519   2.31329 
 H                    -2.5729    4.68946   2.13557 
 H                    -0.82929   4.33656   2.02563 
 C                     1.95362   2.22384   2.46444 
 C                     2.93381   1.03245   2.25831 
 C                     2.25157   3.40916   1.55289 
 H                     2.33528   3.09223   0.50434 
 H                     3.16562   3.93993   1.85325 
 H                     1.40813   4.11078   1.60586 
 C                     1.81173   2.69048   3.8991 
 H                     1.09926   3.52424   3.94723 
 H                     2.77506   3.04626   4.2925 
 H                     1.43842   1.89332   4.55169 
 C                     4.35313   1.43262   1.90954 
 H                     4.96426   0.53508   1.75196 
 H                     4.80563   2.01789   2.72318 
 H                     4.38804   2.03046   0.99108 
 C                     2.94378   0.05676   3.42757 
 H                     1.922    -0.25224   3.6898 
 H                     3.42089   0.48353   4.31982 
 H                     3.51343  -0.83435   3.13207 
 B                    -1.33755   1.59603  -0.05963 
 B                     1.00202   0.70848   1.06557 
 N                    -2.14468  -1.5674    0.09752 
 N                     0.41313  -3.10858  -0.8689 
 O                    -2.73672   1.60459   0.03315 
 O                    -0.8509    2.88389  -0.10823 
 O                     0.70925   1.66499   2.02663 
 O                     2.35129   0.34475   1.13825 
 Ir                   -0.38217  -0.14762  -0.10465 
 B                     1.08703   0.59367  -1.26284 
 O                     1.54983   1.87138  -1.52497 
 O                     1.76596  -0.34402  -2.0435 
 C                     2.39625   1.80741  -2.68056 
 C                     2.87147   0.32473  -2.67314 
 C                     1.52846   2.15223  -3.88406 
 C                     3.50231   2.83281  -2.5308 
 C                     3.09493  -0.28259  -4.04373 
 C                     4.09319   0.0914   -1.7973 
 H                     0.72481   1.41557  -4.01448 
 H                     2.11234   2.20436  -4.81298 
 H                     1.06286   3.13046  -3.71056 
 H                     3.06989   3.84167  -2.52109 
 H                     4.21176   2.77251  -3.36881 
 H                     4.05629   2.69462  -1.59458 
 H                     3.41162  -1.3287   -3.93472 
 H                     3.88718   0.25381  -4.58601 
 H                     2.18268  -0.2686   -4.64989 
 H                     3.93311   0.49435  -0.78973 
 H                     5.00049   0.53453  -2.23028 
 H                     4.25591  -0.98962  -1.70149 
 H                    -2.18083  -4.92289   0.36788 
 H                    -0.13024  -2.67861   2.44271 
 C                    -5.83532  -2.01879  -0.09974 
 F                    -6.10345  -1.56589  -1.3277 
 F                    -6.18483  -1.05718   0.75881 
 F                    -6.61807  -3.07718   0.12449 
 C                     3.98107  -3.12756   0.33358 
 F                     4.39603  -4.1564    1.08683 
 F                     4.52505  -2.02485   0.8576 
 F                     4.48942  -3.29505  -0.89044 
 

 GradGradGradGradGradGradGradGradGradGradGradGradGradGradGradGradGradGrad
 Berny optimization.
 Initialization pass.
 Trust Radius=3.00D-01 FncErr=1.00D-07 GrdErr=1.00D-07 EigMax=2.50D+02 EigMin=1.00D-04
 Number of steps in this run=      2 maximum allowed number of steps=      2.
 GradGradGradGradGradGradGradGradGradGradGradGradGradGradGradGradGradGrad

 Stoichiometry    C30H42B3F6IrN2O6
 Framework group  C1[X(C30H42B3F6IrN2O6)]
 Deg. of freedom   264
 Full point group                 C1      NOp   1
 Largest Abelian subgroup         C1      NOp   1
 Largest concise Abelian subgroup C1      NOp   1
                         Standard orientation:                         
 ---------------------------------------------------------------------
 Center     Atomic      Atomic             Coordinates (Angstroms)
 Number     Number       Type             X           Y           Z
 ---------------------------------------------------------------------
      1          6           0        3.453849   -1.328741   -0.006330
      2          1           0        3.734559   -0.277181    0.081360
      3          6           0        4.383209   -2.363231   -0.038860
      4          6           0        3.939489   -3.672271   -0.169220
      5          1           0        4.654349   -4.491571   -0.195720
      6          6           0        2.573389   -3.913891   -0.267660
      7          6           0       -0.437901   -2.832130   -1.526900
      8          6           0       -1.821911   -2.897560   -1.532880
      9          1           0       -2.384281   -2.814960   -2.461680
     10          6           0       -2.487651   -3.051320   -0.322290
     11          6           0       -1.746811   -3.138490    0.851160
     12          1           0       -2.242241   -3.229430    1.816520
     13          6           0        0.218459   -2.952910   -0.298510
     14          6           0        1.705789   -2.833131   -0.223730
     15          6           0        3.174850    2.962329    0.164450
     16          6           0        1.915170    3.764699   -0.268420
     17          6           0        3.500820    3.120439    1.643220
     18          1           0        2.609450    2.961579    2.263860
     19          1           0        3.911540    4.114239    1.866350
     20          1           0        4.250440    2.370069    1.926050
     21          6           0        4.415100    3.204359   -0.670980
     22          1           0        5.242120    2.583989   -0.299730
     23          1           0        4.728530    4.256329   -0.608530
     24          1           0        4.249270    2.950819   -1.723610
     25          6           0        1.724951    5.091349    0.438530
     26          1           0        0.806231    5.569369    0.074310
     27          1           0        2.566281    5.770109    0.236640
     28          1           0        1.626431    4.962289    1.521840
     29          6           0        1.830830    3.962989   -1.777060
     30          1           0        1.965980    3.015189   -2.313290
     31          1           0        2.572901    4.689459   -2.135570
     32          1           0        0.829290    4.336559   -2.025630
     33          6           0       -1.953620    2.223840   -2.464440
     34          6           0       -2.933810    1.032450   -2.258310
     35          6           0       -2.251570    3.409160   -1.552890
     36          1           0       -2.335280    3.092230   -0.504340
     37          1           0       -3.165620    3.939930   -1.853250
     38          1           0       -1.408130    4.110780   -1.605860
     39          6           0       -1.811730    2.690480   -3.899100
     40          1           0       -1.099260    3.524240   -3.947230
     41          1           0       -2.775060    3.046260   -4.292500
     42          1           0       -1.438420    1.893320   -4.551690
     43          6           0       -4.353130    1.432621   -1.909540
     44          1           0       -4.964260    0.535081   -1.751960
     45          1           0       -4.805630    2.017891   -2.723180
     46          1           0       -4.388040    2.030461   -0.991080
     47          6           0       -2.943780    0.056760   -3.427570
     48          1           0       -1.922001   -0.252240   -3.689800
     49          1           0       -3.420890    0.483530   -4.319820
     50          1           0       -3.513431   -0.834350   -3.132070
     51          5           0        1.337550    1.596029    0.059630
     52          5           0       -1.002020    0.708480   -1.065570
     53          7           0        2.144679   -1.567401   -0.097520
     54          7           0       -0.413131   -3.108580    0.868900
     55          8           0        2.736720    1.604589   -0.033150
     56          8           0        0.850900    2.883889    0.108230
     57          8           0       -0.709250    1.664990   -2.026630
     58          8           0       -2.351290    0.344750   -1.138250
     59         77           0        0.382169   -0.147620    0.104650
     60          5           0       -1.087030    0.593670    1.262840
     61          8           0       -1.549830    1.871380    1.524970
     62          8           0       -1.765961   -0.344020    2.043500
     63          6           0       -2.396250    1.807410    2.680560
     64          6           0       -2.871470    0.324730    2.673140
     65          6           0       -1.528460    2.152230    3.884060
     66          6           0       -3.502310    2.832810    2.530800
     67          6           0       -3.094931   -0.282590    4.043730
     68          6           0       -4.093190    0.091401    1.797300
     69          1           0       -0.724810    1.415570    4.014480
     70          1           0       -2.112340    2.204360    4.812980
     71          1           0       -1.062860    3.130460    3.710560
     72          1           0       -3.069890    3.841670    2.521090
     73          1           0       -4.211760    2.772511    3.368810
     74          1           0       -4.056290    2.694621    1.594580
     75          1           0       -3.411621   -1.328700    3.934720
     76          1           0       -3.887180    0.253810    4.586010
     77          1           0       -2.182681   -0.268600    4.649890
     78          1           0       -3.933110    0.494351    0.789730
     79          1           0       -5.000490    0.534531    2.230280
     80          1           0       -4.255911   -0.989619    1.701490
     81          1           0        2.180828   -4.922891   -0.367880
     82          1           0        0.130239   -2.678610   -2.442710
     83          6           0        5.835319   -2.018792    0.099740
     84          9           0        6.103449   -1.565892    1.327700
     85          9           0        6.184829   -1.057182   -0.758810
     86          9           0        6.618069   -3.077182   -0.124490
     87          6           0       -3.981071   -3.127559   -0.333580
     88          9           0       -4.396031   -4.156399   -1.086830
     89          9           0       -4.525051   -2.024849   -0.857600
     90          9           0       -4.489421   -3.295049    0.890440
 ---------------------------------------------------------------------
 Rotational constants (GHZ):           0.0779532           0.0528009           0.0417771
 General basis read from cards:  (5D, 7F)
 ======================================================================================================
                                       Pseudopotential Parameters
 ======================================================================================================
  Center     Atomic      Valence      Angular      Power
  Number     Number     Electrons     Momentum     of R      Exponent        Coefficient   SO-Coeffient
 ======================================================================================================
    1          6
                                   No pseudopotential on this center.
    2          1
                                   No pseudopotential on this center.
    3          6
                                   No pseudopotential on this center.
    4          6
                                   No pseudopotential on this center.
    5          1
                                   No pseudopotential on this center.
    6          6
                                   No pseudopotential on this center.
    7          6
                                   No pseudopotential on this center.
    8          6
                                   No pseudopotential on this center.
    9          1
                                   No pseudopotential on this center.
   10          6
                                   No pseudopotential on this center.
   11          6
                                   No pseudopotential on this center.
   12          1
                                   No pseudopotential on this center.
   13          6
                                   No pseudopotential on this center.
   14          6
                                   No pseudopotential on this center.
   15          6
                                   No pseudopotential on this center.
   16          6
                                   No pseudopotential on this center.
   17          6
                                   No pseudopotential on this center.
   18          1
                                   No pseudopotential on this center.
   19          1
                                   No pseudopotential on this center.
   20          1
                                   No pseudopotential on this center.
   21          6
                                   No pseudopotential on this center.
   22          1
                                   No pseudopotential on this center.
   23          1
                                   No pseudopotential on this center.
   24          1
                                   No pseudopotential on this center.
   25          6
                                   No pseudopotential on this center.
   26          1
                                   No pseudopotential on this center.
   27          1
                                   No pseudopotential on this center.
   28          1
                                   No pseudopotential on this center.
   29          6
                                   No pseudopotential on this center.
   30          1
                                   No pseudopotential on this center.
   31          1
                                   No pseudopotential on this center.
   32          1
                                   No pseudopotential on this center.
   33          6
                                   No pseudopotential on this center.
   34          6
                                   No pseudopotential on this center.
   35          6
                                   No pseudopotential on this center.
   36          1
                                   No pseudopotential on this center.
   37          1
                                   No pseudopotential on this center.
   38          1
                                   No pseudopotential on this center.
   39          6
                                   No pseudopotential on this center.
   40          1
                                   No pseudopotential on this center.
   41          1
                                   No pseudopotential on this center.
   42          1
                                   No pseudopotential on this center.
   43          6
                                   No pseudopotential on this center.
   44          1
                                   No pseudopotential on this center.
   45          1
                                   No pseudopotential on this center.
   46          1
                                   No pseudopotential on this center.
   47          6
                                   No pseudopotential on this center.
   48          1
                                   No pseudopotential on this center.
   49          1
                                   No pseudopotential on this center.
   50          1
                                   No pseudopotential on this center.
   51          5
                                   No pseudopotential on this center.
   52          5
                                   No pseudopotential on this center.
   53          7
                                   No pseudopotential on this center.
   54          7
                                   No pseudopotential on this center.
   55          8
                                   No pseudopotential on this center.
   56          8
                                   No pseudopotential on this center.
   57          8
                                   No pseudopotential on this center.
   58          8
                                   No pseudopotential on this center.
   59         77           17
                                      G and up 
                                                     1      823.5880147       -0.15780140    0.00000000
                                                     2      364.6613336    -1517.52704460    0.00000000
                                                     2       55.7082801     -316.53065290    0.00000000
                                                     2       12.0464544      -91.88809410    0.00000000
                                                     2        3.5120610       -9.22417730    0.00000000
                                      S - G
                                                     0      188.0490770        3.15780140    0.00000000
                                                     1      340.4194712       26.83225770    0.00000000
                                                     2      128.2373673      800.42500070    0.00000000
                                                     2       33.8644961      369.40506830    0.00000000
                                                     2        4.7560005      242.41718990    0.00000000
                                                     2        3.9649974     -118.21732820    0.00000000
                                      P - G
                                                     0      289.7291139        2.15780140    0.00000000
                                                     1       87.4633789       61.96786100    0.00000000
                                                     2       30.4363766      269.05819860    0.00000000
                                                     2        4.0553412      231.16547930    0.00000000
                                                     2        3.5525341     -133.69526670    0.00000000
                                      D - G
                                                     0      136.4017106        3.15780140    0.00000000
                                                     1       95.0776925       45.93498030    0.00000000
                                                     2       49.2258410      359.03446680    0.00000000
                                                     2       15.0874145      176.47401190    0.00000000
                                                     2        4.0405764       54.51552860    0.00000000
                                      F - G
                                                     0      127.3507908        3.95461970    0.00000000
                                                     1       66.2364374       52.97736550    0.00000000
                                                     2       34.4299229      274.86433830    0.00000000
                                                     2       10.1995721      137.20473380    0.00000000
                                                     2        2.5409702       14.86333050    0.00000000
   60          5
                                   No pseudopotential on this center.
   61          8
                                   No pseudopotential on this center.
   62          8
                                   No pseudopotential on this center.
   63          6
                                   No pseudopotential on this center.
   64          6
                                   No pseudopotential on this center.
   65          6
                                   No pseudopotential on this center.
   66          6
                                   No pseudopotential on this center.
   67          6
                                   No pseudopotential on this center.
   68          6
                                   No pseudopotential on this center.
   69          1
                                   No pseudopotential on this center.
   70          1
                                   No pseudopotential on this center.
   71          1
                                   No pseudopotential on this center.
   72          1
                                   No pseudopotential on this center.
   73          1
                                   No pseudopotential on this center.
   74          1
                                   No pseudopotential on this center.
   75          1
                                   No pseudopotential on this center.
   76          1
                                   No pseudopotential on this center.
   77          1
                                   No pseudopotential on this center.
   78          1
                                   No pseudopotential on this center.
   79          1
                                   No pseudopotential on this center.
   80          1
                                   No pseudopotential on this center.
   81          1
                                   No pseudopotential on this center.
   82          1
                                   No pseudopotential on this center.
   83          6
                                   No pseudopotential on this center.
   84          9
                                   No pseudopotential on this center.
   85          9
                                   No pseudopotential on this center.
   86          9
                                   No pseudopotential on this center.
   87          6
                                   No pseudopotential on this center.
   88          9
                                   No pseudopotential on this center.
   89          9
                                   No pseudopotential on this center.
   90          9
                                   No pseudopotential on this center.
 ======================================================================================================
 There are   813 symmetry adapted cartesian basis functions of A   symmetry.
 There are   764 symmetry adapted basis functions of A   symmetry.
   764 basis functions,  1527 primitive gaussians,   813 cartesian basis functions
   185 alpha electrons      185 beta electrons
       nuclear repulsion energy      7548.7784016138 Hartrees.
 NAtoms=   90 NActive=   90 NUniq=   90 SFac= 1.00D+00 NAtFMM=   60 NAOKFM=T Big=T
 Integral buffers will be    131072 words long.
 Raffenetti 2 integral format.
 Two-electron integral symmetry is turned on.
 One-electron integrals computed using PRISM.
   1 Symmetry operations used in ECPInt.
 ECPInt:  NShTT=   39340 NPrTT=  247034 LenC2=   29754 LenP2D=   95054.
 LDataN:  DoStor=T MaxTD1= 6 Len=  172
 NBasis=   764 RedAO= T EigKep=  6.18D-04  NBF=   764
 NBsUse=   764 1.00D-06 EigRej= -1.00D+00 NBFU=   764
 Defaulting to unpruned grid for atomic number  77.
 ExpMin= 2.90D-02 ExpMax= 7.00D+03 ExpMxC= 1.05D+03 IAcc=3 IRadAn=         5 AccDes= 0.00D+00
 Harris functional with IExCor= 1009 and IRadAn=       5 diagonalized for initial guess.
 HarFok:  IExCor= 1009 AccDes= 0.00D+00 IRadAn=         5 IDoV= 1 UseB2=F ITyADJ=14
 ICtDFT=  3500011 ScaDFX=  1.000000  1.000000  1.000000  1.000000
 Defaulting to unpruned grid for atomic number  77.
 FoFCou: FMM=F IPFlag=           0 FMFlag=      100000 FMFlg1=        2001
         NFxFlg=           0 DoJE=T BraDBF=F KetDBF=T FulRan=T
         wScrn=  0.000000 ICntrl=       500 IOpCl=  0 I1Cent=   200000004 NGrid=           0
         NMat0=    1 NMatS0=      1 NMatT0=    0 NMatD0=    1 NMtDS0=    0 NMtDT0=    0
 Petite list used in FoFCou.
 Requested convergence on RMS density matrix=1.00D-08 within 128 cycles.
 Requested convergence on MAX density matrix=1.00D-06.
 Requested convergence on             energy=1.00D-06.
 No special actions if energy rises.
 Defaulting to unpruned grid for atomic number  77.
 Defaulting to unpruned grid for atomic number  77.
 Defaulting to unpruned grid for atomic number  77.
 Defaulting to unpruned grid for atomic number  77.
 Defaulting to unpruned grid for atomic number  77.
 Defaulting to unpruned grid for atomic number  77.
 Defaulting to unpruned grid for atomic number  77.
 Defaulting to unpruned grid for atomic number  77.
 Defaulting to unpruned grid for atomic number  77.
 Defaulting to unpruned grid for atomic number  77.
 Defaulting to unpruned grid for atomic number  77.
 Defaulting to unpruned grid for atomic number  77.
 Defaulting to unpruned grid for atomic number  77.
 Defaulting to unpruned grid for atomic number  77.
 Defaulting to unpruned grid for atomic number  77.
 Defaulting to unpruned grid for atomic number  77.
 SCF Done:  E(RM06) =  -2506.61926475     A.U. after   15 cycles
            NFock= 15  Conv=0.61D-08     -V/T= 2.0353
 DoSCS=F DFT=T ScalE2(SS,OS)=  1.000000  1.000000
 Range of M.O.s used for correlation:     1   764
 NBasis=   764 NAE=   185 NBE=   185 NFC=     0 NFV=     0
 NROrb=    764 NOA=   185 NOB=   185 NVA=   579 NVB=   579
   1 Symmetry operations used in ECPInt.
 ECPInt:  NShTT=   39340 NPrTT=  247034 LenC2=   29754 LenP2D=   95054.
 LDataN:  DoStor=T MaxTD1= 7 Len=  274
 Number of processors reduced to   9 by ecpmxn.
 Symmetrizing basis deriv contribution to polar:
 IMax=3 JMax=2 DiffMx= 0.00D+00
 G2DrvN: will do    91 centers at a time, making    1 passes.
 Calling FoFCou, ICntrl=  3107 FMM=T I1Cent=   0 AccDes= 0.00D+00.
 Defaulting to unpruned grid for atomic number  77.
 Defaulting to unpruned grid for atomic number  77.
 Defaulting to unpruned grid for atomic number  77.
 Defaulting to unpruned grid for atomic number  77.
 Defaulting to unpruned grid for atomic number  77.
 Defaulting to unpruned grid for atomic number  77.
 Defaulting to unpruned grid for atomic number  77.
 Defaulting to unpruned grid for atomic number  77.
 Defaulting to unpruned grid for atomic number  77.
 Defaulting to unpruned grid for atomic number  77.
 Defaulting to unpruned grid for atomic number  77.
 Defaulting to unpruned grid for atomic number  77.
 Defaulting to unpruned grid for atomic number  77.
 Defaulting to unpruned grid for atomic number  77.
 Defaulting to unpruned grid for atomic number  77.
 Defaulting to unpruned grid for atomic number  77.
 End of G2Drv F.D. properties file   721 does not exist.
 End of G2Drv F.D. properties file   722 does not exist.
 End of G2Drv F.D. properties file   788 does not exist.
          IDoAtm=11111111111111111111111111111111111111111111111111
          IDoAtm=1111111111111111111111111111111111111111
          Differentiating once with respect to electric field.
                with respect to dipole field.
          Differentiating once with respect to nuclear coordinates.
 Defaulting to unpruned grid for atomic number  77.
 CalDSu exits because no D1Ps are significant.
 Defaulting to unpruned grid for atomic number  77.
 Defaulting to unpruned grid for atomic number  77.
 Defaulting to unpruned grid for atomic number  77.
 Defaulting to unpruned grid for atomic number  77.
 Defaulting to unpruned grid for atomic number  77.
 Defaulting to unpruned grid for atomic number  77.
 Defaulting to unpruned grid for atomic number  77.
 Defaulting to unpruned grid for atomic number  77.
 Defaulting to unpruned grid for atomic number  77.
 Defaulting to unpruned grid for atomic number  77.
 Defaulting to unpruned grid for atomic number  77.
 Defaulting to unpruned grid for atomic number  77.
 Defaulting to unpruned grid for atomic number  77.
 Defaulting to unpruned grid for atomic number  77.
 Defaulting to unpruned grid for atomic number  77.
 Defaulting to unpruned grid for atomic number  77.
          There are   273 degrees of freedom in the 1st order CPHF.  IDoFFX=6 NUNeed=     3.
    270 vectors produced by pass  0 Test12= 1.07D-13 1.00D-09 XBig12= 3.98D+02 4.35D+00.
 AX will form    72 AO Fock derivatives at one time.
    270 vectors produced by pass  1 Test12= 1.07D-13 1.00D-09 XBig12= 8.59D+01 1.28D+00.
    270 vectors produced by pass  2 Test12= 1.07D-13 1.00D-09 XBig12= 1.33D+00 1.61D-01.
    270 vectors produced by pass  3 Test12= 1.07D-13 1.00D-09 XBig12= 1.04D-02 1.05D-02.
    270 vectors produced by pass  4 Test12= 1.07D-13 1.00D-09 XBig12= 4.13D-05 6.38D-04.
    257 vectors produced by pass  5 Test12= 1.07D-13 1.00D-09 XBig12= 1.00D-07 2.42D-05.
     77 vectors produced by pass  6 Test12= 1.07D-13 1.00D-09 XBig12= 1.72D-10 7.51D-07.
      3 vectors produced by pass  7 Test12= 1.07D-13 1.00D-09 XBig12= 2.38D-13 2.79D-08.
      3 vectors produced by pass  8 Test12= 1.07D-13 1.00D-09 XBig12= 3.58D-16 1.27D-09.
 InvSVY:  IOpt=1 It=  1 EMax= 1.78D-14
 Solved reduced A of dimension  1690 with   273 vectors.
 Isotropic polarizability for W=    0.000000      410.85 Bohr**3.
 End of Minotr F.D. properties file   721 does not exist.
 End of Minotr F.D. properties file   722 does not exist.
 End of Minotr F.D. properties file   788 does not exist.

 **********************************************************************

            Population analysis using the SCF Density.

 **********************************************************************

 Orbital symmetries:
       Occupied  (A) (A) (A) (A) (A) (A) (A) (A) (A) (A) (A) (A)
                 (A) (A) (A) (A) (A) (A) (A) (A) (A) (A) (A) (A)
                 (A) (A) (A) (A) (A) (A) (A) (A) (A) (A) (A) (A)
                 (A) (A) (A) (A) (A) (A) (A) (A) (A) (A) (A) (A)
                 (A) (A) (A) (A) (A) (A) (A) (A) (A) (A) (A) (A)
                 (A) (A) (A) (A) (A) (A) (A) (A) (A) (A) (A) (A)
                 (A) (A) (A) (A) (A) (A) (A) (A) (A) (A) (A) (A)
                 (A) (A) (A) (A) (A) (A) (A) (A) (A) (A) (A) (A)
                 (A) (A) (A) (A) (A) (A) (A) (A) (A) (A) (A) (A)
                 (A) (A) (A) (A) (A) (A) (A) (A) (A) (A) (A) (A)
                 (A) (A) (A) (A) (A) (A) (A) (A) (A) (A) (A) (A)
                 (A) (A) (A) (A) (A) (A) (A) (A) (A) (A) (A) (A)
                 (A) (A) (A) (A) (A) (A) (A) (A) (A) (A) (A) (A)
                 (A) (A) (A) (A) (A) (A) (A) (A) (A) (A) (A) (A)
                 (A) (A) (A) (A) (A) (A) (A) (A) (A) (A) (A) (A)
                 (A) (A) (A) (A) (A)
       Virtual   (A) (A) (A) (A) (A) (A) (A) (A) (A) (A) (A) (A)
                 (A) (A) (A) (A) (A) (A) (A) (A) (A) (A) (A) (A)
                 (A) (A) (A) (A) (A) (A) (A) (A) (A) (A) (A) (A)
                 (A) (A) (A) (A) (A) (A) (A) (A) (A) (A) (A) (A)
                 (A) (A) (A) (A) (A) (A) (A) (A) (A) (A) (A) (A)
                 (A) (A) (A) (A) (A) (A) (A) (A) (A) (A) (A) (A)
                 (A) (A) (A) (A) (A) (A) (A) (A) (A) (A) (A) (A)
                 (A) (A) (A) (A) (A) (A) (A) (A) (A) (A) (A) (A)
                 (A) (A) (A) (A) (A) (A) (A) (A) (A) (A) (A) (A)
                 (A) (A) (A) (A) (A) (A) (A) (A) (A) (A) (A) (A)
                 (A) (A) (A) (A) (A) (A) (A) (A) (A) (A) (A) (A)
                 (A) (A) (A) (A) (A) (A) (A) (A) (A) (A) (A) (A)
                 (A) (A) (A) (A) (A) (A) (A) (A) (A) (A) (A) (A)
                 (A) (A) (A) (A) (A) (A) (A) (A) (A) (A) (A) (A)
                 (A) (A) (A) (A) (A) (A) (A) (A) (A) (A) (A) (A)
                 (A) (A) (A) (A) (A) (A) (A) (A) (A) (A) (A) (A)
                 (A) (A) (A) (A) (A) (A) (A) (A) (A) (A) (A) (A)
                 (A) (A) (A) (A) (A) (A) (A) (A) (A) (A) (A) (A)
                 (A) (A) (A) (A) (A) (A) (A) (A) (A) (A) (A) (A)
                 (A) (A) (A) (A) (A) (A) (A) (A) (A) (A) (A) (A)
                 (A) (A) (A) (A) (A) (A) (A) (A) (A) (A) (A) (A)
                 (A) (A) (A) (A) (A) (A) (A) (A) (A) (A) (A) (A)
                 (A) (A) (A) (A) (A) (A) (A) (A) (A) (A) (A) (A)
                 (A) (A) (A) (A) (A) (A) (A) (A) (A) (A) (A) (A)
                 (A) (A) (A) (A) (A) (A) (A) (A) (A) (A) (A) (A)
                 (A) (A) (A) (A) (A) (A) (A) (A) (A) (A) (A) (A)
                 (A) (A) (A) (A) (A) (A) (A) (A) (A) (A) (A) (A)
                 (A) (A) (A) (A) (A) (A) (A) (A) (A) (A) (A) (A)
                 (A) (A) (A) (A) (A) (A) (A) (A) (A) (A) (A) (A)
                 (A) (A) (A) (A) (A) (A) (A) (A) (A) (A) (A) (A)
                 (A) (A) (A) (A) (A) (A) (A) (A) (A) (A) (A) (A)
                 (A) (A) (A) (A) (A) (A) (A) (A) (A) (A) (A) (A)
                 (A) (A) (A) (A) (A) (A) (A) (A) (A) (A) (A) (A)
                 (A) (A) (A) (A) (A) (A) (A) (A) (A) (A) (A) (A)
                 (A) (A) (A) (A) (A) (A) (A) (A) (A) (A) (A) (A)
                 (A) (A) (A) (A) (A) (A) (A) (A) (A) (A) (A) (A)
                 (A) (A) (A) (A) (A) (A) (A) (A) (A) (A) (A) (A)
                 (A) (A) (A) (A) (A) (A) (A) (A) (A) (A) (A) (A)
                 (A) (A) (A) (A) (A) (A) (A) (A) (A) (A) (A) (A)
                 (A) (A) (A) (A) (A) (A) (A) (A) (A) (A) (A) (A)
                 (A) (A) (A) (A) (A) (A) (A) (A) (A) (A) (A) (A)
                 (A) (A) (A) (A) (A) (A) (A) (A) (A) (A) (A) (A)
                 (A) (A) (A) (A) (A) (A) (A) (A) (A) (A) (A) (A)
                 (A) (A) (A) (A) (A) (A) (A) (A) (A) (A) (A) (A)
                 (A) (A) (A) (A) (A) (A) (A) (A) (A) (A) (A) (A)
                 (A) (A) (A) (A) (A) (A) (A) (A) (A) (A) (A) (A)
                 (A) (A) (A) (A) (A) (A) (A) (A) (A) (A) (A) (A)
                 (A) (A) (A) (A) (A) (A) (A) (A) (A) (A) (A) (A)
                 (A) (A) (A)
 The electronic state is 1-A.
 Alpha  occ. eigenvalues --  -24.84178 -24.83581 -24.83397 -24.83182 -24.82465
 Alpha  occ. eigenvalues --  -24.82446 -19.20960 -19.20443 -19.19895 -19.19757
 Alpha  occ. eigenvalues --  -19.19693 -19.19650 -14.46955 -14.43092 -10.52347
 Alpha  occ. eigenvalues --  -10.51162 -10.34115 -10.32726 -10.32718 -10.31598
 Alpha  occ. eigenvalues --  -10.31146 -10.30777 -10.30103 -10.29746 -10.29607
 Alpha  occ. eigenvalues --  -10.29379 -10.29180 -10.29136 -10.29014 -10.28969
 Alpha  occ. eigenvalues --  -10.28951 -10.28863 -10.23060 -10.22993 -10.22700
 Alpha  occ. eigenvalues --  -10.22636 -10.22599 -10.22518 -10.22482 -10.22446
 Alpha  occ. eigenvalues --  -10.22021 -10.21933 -10.21421 -10.21246  -6.80249
 Alpha  occ. eigenvalues --   -6.80214  -6.79658  -3.60598  -2.03683  -2.02711
 Alpha  occ. eigenvalues --   -2.01970  -1.36688  -1.35550  -1.28205  -1.27626
 Alpha  occ. eigenvalues --   -1.27102  -1.26466  -1.06364  -1.06027  -1.05693
 Alpha  occ. eigenvalues --   -1.01637  -0.99431  -0.99063  -0.98883  -0.98404
 Alpha  occ. eigenvalues --   -0.87613  -0.85910  -0.84368  -0.81022  -0.80449
 Alpha  occ. eigenvalues --   -0.80256  -0.79976  -0.76004  -0.74900  -0.74676
 Alpha  occ. eigenvalues --   -0.74443  -0.72827  -0.70392  -0.70310  -0.69948
 Alpha  occ. eigenvalues --   -0.69228  -0.69117  -0.67617  -0.67481  -0.67378
 Alpha  occ. eigenvalues --   -0.67148  -0.65474  -0.62729  -0.62612  -0.61958
 Alpha  occ. eigenvalues --   -0.61600  -0.61544  -0.61518  -0.61298  -0.60910
 Alpha  occ. eigenvalues --   -0.59813  -0.56950  -0.54853  -0.54713  -0.54583
 Alpha  occ. eigenvalues --   -0.54205  -0.53726  -0.53136  -0.53091  -0.52738
 Alpha  occ. eigenvalues --   -0.50237  -0.49985  -0.49461  -0.49185  -0.49080
 Alpha  occ. eigenvalues --   -0.48852  -0.48112  -0.47939  -0.47046  -0.46874
 Alpha  occ. eigenvalues --   -0.46709  -0.46540  -0.46420  -0.46083  -0.45895
 Alpha  occ. eigenvalues --   -0.45836  -0.45382  -0.45247  -0.44820  -0.44402
 Alpha  occ. eigenvalues --   -0.44348  -0.43938  -0.43871  -0.43760  -0.43566
 Alpha  occ. eigenvalues --   -0.43491  -0.43290  -0.43109  -0.42907  -0.42841
 Alpha  occ. eigenvalues --   -0.41047  -0.40948  -0.40084  -0.40064  -0.39980
 Alpha  occ. eigenvalues --   -0.39839  -0.39729  -0.39480  -0.39366  -0.39135
 Alpha  occ. eigenvalues --   -0.38971  -0.38958  -0.38755  -0.38565  -0.37611
 Alpha  occ. eigenvalues --   -0.37334  -0.37159  -0.37040  -0.36673  -0.36099
 Alpha  occ. eigenvalues --   -0.36071  -0.35988  -0.35972  -0.35574  -0.35069
 Alpha  occ. eigenvalues --   -0.34882  -0.34698  -0.34313  -0.33574  -0.32706
 Alpha  occ. eigenvalues --   -0.32370  -0.32254  -0.31655  -0.31435  -0.31249
 Alpha  occ. eigenvalues --   -0.31109  -0.30829  -0.30379  -0.30076  -0.29722
 Alpha  occ. eigenvalues --   -0.29412  -0.28986  -0.28603  -0.27684  -0.26308
 Alpha  occ. eigenvalues --   -0.25770  -0.25347  -0.21940  -0.21237  -0.20756
 Alpha virt. eigenvalues --   -0.07266  -0.05332  -0.05041  -0.03374  -0.00778
 Alpha virt. eigenvalues --    0.01196   0.03738   0.05092   0.06715   0.07255
 Alpha virt. eigenvalues --    0.07752   0.09038   0.09275   0.09848   0.10105
 Alpha virt. eigenvalues --    0.10527   0.11018   0.11791   0.11898   0.12252
 Alpha virt. eigenvalues --    0.12570   0.12757   0.13185   0.13622   0.14144
 Alpha virt. eigenvalues --    0.14598   0.14863   0.15029   0.15286   0.15435
 Alpha virt. eigenvalues --    0.15638   0.15715   0.16131   0.16249   0.16424
 Alpha virt. eigenvalues --    0.16975   0.17169   0.17447   0.17635   0.17842
 Alpha virt. eigenvalues --    0.17928   0.18306   0.18440   0.18795   0.19022
 Alpha virt. eigenvalues --    0.19068   0.19431   0.19675   0.19848   0.20110
 Alpha virt. eigenvalues --    0.20319   0.20514   0.20751   0.20805   0.20888
 Alpha virt. eigenvalues --    0.21427   0.21805   0.22192   0.22366   0.22640
 Alpha virt. eigenvalues --    0.22863   0.23231   0.23580   0.23618   0.23882
 Alpha virt. eigenvalues --    0.24133   0.24442   0.24536   0.24689   0.25071
 Alpha virt. eigenvalues --    0.25408   0.25489   0.25903   0.26323   0.26547
 Alpha virt. eigenvalues --    0.26739   0.26792   0.27243   0.27461   0.27723
 Alpha virt. eigenvalues --    0.27956   0.28511   0.29086   0.29908   0.30195
 Alpha virt. eigenvalues --    0.30446   0.31232   0.31721   0.32053   0.32461
 Alpha virt. eigenvalues --    0.33204   0.33613   0.33988   0.34540   0.35102
 Alpha virt. eigenvalues --    0.35927   0.36483   0.37250   0.38261   0.38681
 Alpha virt. eigenvalues --    0.39275   0.40002   0.41493   0.43144   0.44105
 Alpha virt. eigenvalues --    0.44515   0.45092   0.46398   0.47267   0.47541
 Alpha virt. eigenvalues --    0.48599   0.48788   0.49505   0.49523   0.49980
 Alpha virt. eigenvalues --    0.50663   0.50836   0.51063   0.51648   0.51873
 Alpha virt. eigenvalues --    0.52156   0.52397   0.52871   0.54057   0.54710
 Alpha virt. eigenvalues --    0.54945   0.55251   0.55363   0.56057   0.56303
 Alpha virt. eigenvalues --    0.56556   0.56877   0.57161   0.57469   0.57725
 Alpha virt. eigenvalues --    0.58013   0.58222   0.58534   0.58757   0.59052
 Alpha virt. eigenvalues --    0.59555   0.59768   0.59940   0.60107   0.60340
 Alpha virt. eigenvalues --    0.61065   0.61757   0.61955   0.62612   0.63417
 Alpha virt. eigenvalues --    0.63550   0.64104   0.64567   0.65052   0.65454
 Alpha virt. eigenvalues --    0.65748   0.66392   0.66720   0.67083   0.67295
 Alpha virt. eigenvalues --    0.67434   0.67939   0.68680   0.69109   0.69744
 Alpha virt. eigenvalues --    0.69905   0.70242   0.70535   0.70941   0.71381
 Alpha virt. eigenvalues --    0.71518   0.72068   0.72466   0.72652   0.73092
 Alpha virt. eigenvalues --    0.73594   0.73828   0.74298   0.74449   0.74714
 Alpha virt. eigenvalues --    0.75097   0.75399   0.75612   0.76371   0.76706
 Alpha virt. eigenvalues --    0.76734   0.77718   0.77997   0.78437   0.78984
 Alpha virt. eigenvalues --    0.79524   0.79794   0.80563   0.81022   0.81463
 Alpha virt. eigenvalues --    0.82448   0.82701   0.83087   0.83478   0.83721
 Alpha virt. eigenvalues --    0.84228   0.84552   0.84709   0.84773   0.85131
 Alpha virt. eigenvalues --    0.85762   0.85882   0.86079   0.86282   0.86949
 Alpha virt. eigenvalues --    0.87362   0.88137   0.88358   0.88548   0.88938
 Alpha virt. eigenvalues --    0.89122   0.89466   0.89710   0.89802   0.89939
 Alpha virt. eigenvalues --    0.90328   0.90702   0.90920   0.91187   0.91289
 Alpha virt. eigenvalues --    0.91825   0.91969   0.92432   0.92496   0.93063
 Alpha virt. eigenvalues --    0.93378   0.93604   0.93901   0.94357   0.94671
 Alpha virt. eigenvalues --    0.94878   0.95705   0.96041   0.96310   0.96918
 Alpha virt. eigenvalues --    0.97094   0.97197   0.98114   0.98338   0.98588
 Alpha virt. eigenvalues --    0.98870   0.99540   1.00366   1.00767   1.00946
 Alpha virt. eigenvalues --    1.01704   1.02233   1.03208   1.04193   1.04636
 Alpha virt. eigenvalues --    1.05398   1.05851   1.06292   1.07489   1.08604
 Alpha virt. eigenvalues --    1.09188   1.09913   1.10273   1.11008   1.12081
 Alpha virt. eigenvalues --    1.12794   1.13100   1.13258   1.14311   1.14861
 Alpha virt. eigenvalues --    1.15294   1.15992   1.16299   1.16722   1.17172
 Alpha virt. eigenvalues --    1.17679   1.18514   1.19422   1.19728   1.19956
 Alpha virt. eigenvalues --    1.19999   1.20730   1.21535   1.21840   1.22461
 Alpha virt. eigenvalues --    1.23036   1.23194   1.23985   1.24360   1.25622
 Alpha virt. eigenvalues --    1.26325   1.26455   1.27686   1.28835   1.29433
 Alpha virt. eigenvalues --    1.29709   1.30223   1.31134   1.31579   1.32222
 Alpha virt. eigenvalues --    1.32977   1.33296   1.33759   1.33989   1.34757
 Alpha virt. eigenvalues --    1.35442   1.36053   1.36388   1.37080   1.37382
 Alpha virt. eigenvalues --    1.37514   1.38103   1.38406   1.38708   1.39103
 Alpha virt. eigenvalues --    1.40307   1.40414   1.41404   1.41917   1.42589
 Alpha virt. eigenvalues --    1.42899   1.43590   1.43796   1.44232   1.45135
 Alpha virt. eigenvalues --    1.45718   1.46355   1.46782   1.47402   1.47603
 Alpha virt. eigenvalues --    1.48652   1.49161   1.49439   1.49653   1.50371
 Alpha virt. eigenvalues --    1.50770   1.52064   1.53295   1.55437   1.56186
 Alpha virt. eigenvalues --    1.57224   1.57328   1.58411   1.58806   1.60790
 Alpha virt. eigenvalues --    1.61142   1.62088   1.62404   1.63572   1.63946
 Alpha virt. eigenvalues --    1.64235   1.64841   1.65723   1.65964   1.66715
 Alpha virt. eigenvalues --    1.67418   1.67927   1.68734   1.69008   1.69487
 Alpha virt. eigenvalues --    1.69743   1.70034   1.70724   1.70902   1.71449
 Alpha virt. eigenvalues --    1.72487   1.73831   1.73983   1.74320   1.75319
 Alpha virt. eigenvalues --    1.76497   1.76783   1.77151   1.77740   1.78152
 Alpha virt. eigenvalues --    1.78870   1.79433   1.80063   1.81126   1.81380
 Alpha virt. eigenvalues --    1.81871   1.82130   1.82729   1.83624   1.84047
 Alpha virt. eigenvalues --    1.84504   1.84765   1.85353   1.85530   1.86309
 Alpha virt. eigenvalues --    1.86645   1.86873   1.87249   1.88006   1.88194
 Alpha virt. eigenvalues --    1.89119   1.89949   1.90166   1.90952   1.90975
 Alpha virt. eigenvalues --    1.91636   1.91710   1.92196   1.92365   1.92670
 Alpha virt. eigenvalues --    1.92786   1.93027   1.93299   1.93982   1.94018
 Alpha virt. eigenvalues --    1.94624   1.95450   1.96070   1.96766   1.97406
 Alpha virt. eigenvalues --    1.97986   1.98680   1.99178   1.99885   2.00471
 Alpha virt. eigenvalues --    2.01171   2.01774   2.02110   2.02173   2.02569
 Alpha virt. eigenvalues --    2.02706   2.03164   2.03608   2.04205   2.04453
 Alpha virt. eigenvalues --    2.04763   2.05434   2.06336   2.06812   2.07042
 Alpha virt. eigenvalues --    2.07112   2.07431   2.07811   2.08351   2.08724
 Alpha virt. eigenvalues --    2.08877   2.08924   2.09509   2.09683   2.10065
 Alpha virt. eigenvalues --    2.10339   2.10632   2.11028   2.11768   2.12009
 Alpha virt. eigenvalues --    2.13335   2.13951   2.14061   2.14325   2.14888
 Alpha virt. eigenvalues --    2.15211   2.15491   2.16235   2.16651   2.17687
 Alpha virt. eigenvalues --    2.18083   2.18396   2.18751   2.19244   2.19351
 Alpha virt. eigenvalues --    2.19750   2.19904   2.20309   2.20956   2.21942
 Alpha virt. eigenvalues --    2.22186   2.22312   2.22688   2.23226   2.23982
 Alpha virt. eigenvalues --    2.24126   2.24714   2.25021   2.25567   2.26145
 Alpha virt. eigenvalues --    2.26485   2.27080   2.27632   2.27753   2.29767
 Alpha virt. eigenvalues --    2.30081   2.30455   2.31043   2.31497   2.31984
 Alpha virt. eigenvalues --    2.32015   2.32249   2.32656   2.33511   2.33972
 Alpha virt. eigenvalues --    2.34515   2.34966   2.35327   2.35856   2.37278
 Alpha virt. eigenvalues --    2.38707   2.39328   2.39915   2.42997   2.44198
 Alpha virt. eigenvalues --    2.44449   2.45585   2.47478   2.47968   2.48480
 Alpha virt. eigenvalues --    2.48759   2.48844   2.49168   2.49687   2.50208
 Alpha virt. eigenvalues --    2.51323   2.52958   2.55335   2.58074   2.59169
 Alpha virt. eigenvalues --    2.59473   2.60305   2.61044   2.61349   2.62938
 Alpha virt. eigenvalues --    2.63106   2.64296   2.64574   2.65628   2.66254
 Alpha virt. eigenvalues --    2.67510   2.71899   2.73079   2.75250   2.76261
 Alpha virt. eigenvalues --    2.76513   2.77513   2.77917   2.78054   2.78123
 Alpha virt. eigenvalues --    2.79292   2.79922   2.80724   2.80771   2.81128
 Alpha virt. eigenvalues --    2.81377   2.82160   2.82582   2.83176   2.84820
 Alpha virt. eigenvalues --    2.86374   2.88168   2.88559   2.90130   2.91010
 Alpha virt. eigenvalues --    2.91383   2.93606   2.94758   2.96306   2.97416
 Alpha virt. eigenvalues --    2.97897   2.99832   3.02627   3.04163   3.04473
 Alpha virt. eigenvalues --    3.06203   3.06378   3.08593   3.11115   3.11305
 Alpha virt. eigenvalues --    3.11872   3.12610   3.13496   3.15323   3.15995
 Alpha virt. eigenvalues --    3.16838   3.35700   3.39785   9.13446
          Condensed to atoms (all electrons):
 Mulliken charges:
               1
     1  C    0.033941
     2  H    0.250353
     3  C   -0.083290
     4  C   -0.138428
     5  H    0.208564
     6  C   -0.185479
     7  C   -0.141426
     8  C   -0.128685
     9  H    0.192516
    10  C   -0.030674
    11  C    0.013099
    12  H    0.192115
    13  C    0.070351
    14  C    0.309899
    15  C    0.301373
    16  C    0.290935
    17  C   -0.514005
    18  H    0.184449
    19  H    0.153521
    20  H    0.166066
    21  C   -0.512763
    22  H    0.164608
    23  H    0.154004
    24  H    0.175065
    25  C   -0.507989
    26  H    0.170223
    27  H    0.146895
    28  H    0.172441
    29  C   -0.498185
    30  H    0.183826
    31  H    0.144085
    32  H    0.162523
    33  C    0.291292
    34  C    0.301648
    35  C   -0.498079
    36  H    0.192157
    37  H    0.139323
    38  H    0.157832
    39  C   -0.511638
    40  H    0.167344
    41  H    0.149127
    42  H    0.166039
    43  C   -0.506309
    44  H    0.169942
    45  H    0.151714
    46  H    0.166378
    47  C   -0.505070
    48  H    0.160831
    49  H    0.156368
    50  H    0.151660
    51  B    0.530072
    52  B    0.466901
    53  N   -0.508934
    54  N   -0.340121
    55  O   -0.544943
    56  O   -0.490913
    57  O   -0.501109
    58  O   -0.530334
    59  Ir  -0.111014
    60  B    0.480528
    61  O   -0.509439
    62  O   -0.521267
    63  C    0.292793
    64  C    0.292835
    65  C   -0.512222
    66  C   -0.506678
    67  C   -0.505351
    68  C   -0.496157
    69  H    0.175359
    70  H    0.148117
    71  H    0.174470
    72  H    0.171746
    73  H    0.149703
    74  H    0.163106
    75  H    0.160363
    76  H    0.149765
    77  H    0.171479
    78  H    0.180756
    79  H    0.145165
    80  H    0.139963
    81  H    0.200497
    82  H    0.199500
    83  C    0.971438
    84  F   -0.303960
    85  F   -0.307559
    86  F   -0.316449
    87  C    0.972106
    88  F   -0.317465
    89  F   -0.299727
    90  F   -0.313506
 Sum of Mulliken charges =  -0.00000
 Mulliken charges with hydrogens summed into heavy atoms:
               1
     1  C    0.284294
     3  C   -0.083290
     4  C    0.070135
     6  C    0.015018
     7  C    0.058074
     8  C    0.063831
    10  C   -0.030674
    11  C    0.205214
    13  C    0.070351
    14  C    0.309899
    15  C    0.301373
    16  C    0.290935
    17  C   -0.009969
    21  C   -0.019087
    25  C   -0.018430
    29  C   -0.007750
    33  C    0.291292
    34  C    0.301648
    35  C   -0.008767
    39  C   -0.029128
    43  C   -0.018276
    47  C   -0.036211
    51  B    0.530072
    52  B    0.466901
    53  N   -0.508934
    54  N   -0.340121
    55  O   -0.544943
    56  O   -0.490913
    57  O   -0.501109
    58  O   -0.530334
    59  Ir  -0.111014
    60  B    0.480528
    61  O   -0.509439
    62  O   -0.521267
    63  C    0.292793
    64  C    0.292835
    65  C   -0.014277
    66  C   -0.022123
    67  C   -0.023745
    68  C   -0.030273
    83  C    0.971438
    84  F   -0.303960
    85  F   -0.307559
    86  F   -0.316449
    87  C    0.972106
    88  F   -0.317465
    89  F   -0.299727
    90  F   -0.313506
 APT charges:
               1
     1  C    0.142478
     2  H    0.166048
     3  C   -0.282462
     4  C    0.142853
     5  H    0.068506
     6  C   -0.203274
     7  C   -0.189101
     8  C    0.112673
     9  H    0.064038
    10  C   -0.217068
    11  C    0.211036
    12  H    0.049301
    13  C    0.303287
    14  C    0.302465
    15  C    0.523736
    16  C    0.515664
    17  C   -0.040892
    18  H    0.011250
    19  H   -0.018315
    20  H   -0.003764
    21  C   -0.015978
    22  H   -0.004847
    23  H   -0.016081
    24  H    0.007403
    25  C   -0.011201
    26  H    0.001351
    27  H   -0.018436
    28  H    0.003762
    29  C   -0.037467
    30  H    0.015799
    31  H   -0.027242
    32  H    0.001067
    33  C    0.478479
    34  C    0.485979
    35  C   -0.028060
    36  H    0.027821
    37  H   -0.026865
    38  H   -0.004087
    39  C    0.000158
    40  H   -0.002180
    41  H   -0.015553
    42  H   -0.003570
    43  C   -0.012891
    44  H    0.007644
    45  H   -0.017755
    46  H    0.002074
    47  C   -0.039162
    48  H    0.000351
    49  H   -0.017552
    50  H   -0.001319
    51  B    1.278365
    52  B    1.125116
    53  N   -0.394629
    54  N   -0.418382
    55  O   -1.065359
    56  O   -0.965961
    57  O   -0.920579
    58  O   -0.950707
    59  Ir  -0.440872
    60  B    1.171163
    61  O   -0.946010
    62  O   -0.974174
    63  C    0.495269
    64  C    0.491501
    65  C   -0.031577
    66  C   -0.001230
    67  C   -0.007119
    68  C   -0.040990
    69  H    0.004292
    70  H   -0.023111
    71  H    0.001755
    72  H    0.001763
    73  H   -0.018252
    74  H   -0.001438
    75  H   -0.008934
    76  H   -0.017121
    77  H    0.003335
    78  H    0.033556
    79  H   -0.023133
    80  H    0.000324
    81  H    0.055054
    82  H    0.062006
    83  C    1.781455
    84  F   -0.565113
    85  F   -0.552930
    86  F   -0.585837
    87  C    1.758960
    88  F   -0.609658
    89  F   -0.548600
    90  F   -0.542304
 Sum of APT charges =  -0.00000
 APT charges with hydrogens summed into heavy atoms:
               1
     1  C    0.308526
     3  C   -0.282462
     4  C    0.211359
     6  C   -0.148219
     7  C   -0.127095
     8  C    0.176711
    10  C   -0.217068
    11  C    0.260337
    13  C    0.303287
    14  C    0.302465
    15  C    0.523736
    16  C    0.515664
    17  C   -0.051721
    21  C   -0.029503
    25  C   -0.024525
    29  C   -0.047844
    33  C    0.478479
    34  C    0.485979
    35  C   -0.031191
    39  C   -0.021145
    43  C   -0.020928
    47  C   -0.057681
    51  B    1.278365
    52  B    1.125116
    53  N   -0.394629
    54  N   -0.418382
    55  O   -1.065359
    56  O   -0.965961
    57  O   -0.920579
    58  O   -0.950707
    59  Ir  -0.440872
    60  B    1.171163
    61  O   -0.946010
    62  O   -0.974174
    63  C    0.495269
    64  C    0.491501
    65  C   -0.048641
    66  C   -0.019157
    67  C   -0.029838
    68  C   -0.030242
    83  C    1.781455
    84  F   -0.565113
    85  F   -0.552930
    86  F   -0.585837
    87  C    1.758960
    88  F   -0.609658
    89  F   -0.548600
    90  F   -0.542304
 Electronic spatial extent (au):  <R**2>=          27337.0113
 Charge=              0.0000 electrons
 Dipole moment (field-independent basis, Debye):
    X=              1.5975    Y=             -2.9173    Z=             -1.8704  Tot=              3.8159
 Quadrupole moment (field-independent basis, Debye-Ang):
   XX=           -293.1085   YY=           -270.9331   ZZ=           -286.7056
   XY=            -10.6480   XZ=             -1.0094   YZ=              7.1372
 Traceless Quadrupole moment (field-independent basis, Debye-Ang):
   XX=             -9.5261   YY=             12.6493   ZZ=             -3.1232
   XY=            -10.6480   XZ=             -1.0094   YZ=              7.1372
 Octapole moment (field-independent basis, Debye-Ang**2):
  XXX=             47.2729  YYY=           -130.6536  ZZZ=              7.8801  XYY=            108.6551
  XXY=              4.2338  XXZ=              7.0003  XZZ=            -14.5986  YZZ=            -20.1542
  YYZ=            -17.2885  XYZ=             11.5535
 Hexadecapole moment (field-independent basis, Debye-Ang**3):
 XXXX=         -17514.4875 YYYY=         -11014.9973 ZZZZ=          -5616.3182 XXXY=            -62.4528
 XXXZ=              6.2538 YYYX=           -165.6832 YYYZ=             27.0806 ZZZX=             33.4790
 ZZZY=             59.7722 XXYY=          -4538.5272 XXZZ=          -3687.8104 YYZZ=          -2838.6691
 XXYZ=             -4.7903 YYXZ=            -17.5302 ZZXY=            -11.2671
 N-N= 7.548778401614D+03 E-N=-2.094329280446D+04  KE= 2.421077203420D+03
  Exact polarizability:     475.679       3.385     409.343       1.357       1.659     347.518
 Approx polarizability:     660.143      10.881     589.769       2.147      -2.036     548.146
   1 Symmetry operations used in ECPInt.
 ECPInt:  NShTT=   39340 NPrTT=  247034 LenC2=   29754 LenP2D=   95054.
 LDataN:  DoStor=T MaxTD1= 8 Len=  415
 Calling FoFJK, ICntrl=    100127 FMM=F ISym2X=0 I1Cent= 0 IOpClX= 0 NMat=1 NMatS=1 NMatT=0.
 Defaulting to unpruned grid for atomic number  77.
 Defaulting to unpruned grid for atomic number  77.
 Defaulting to unpruned grid for atomic number  77.
 Defaulting to unpruned grid for atomic number  77.
 Defaulting to unpruned grid for atomic number  77.
 Defaulting to unpruned grid for atomic number  77.
 Defaulting to unpruned grid for atomic number  77.
 Defaulting to unpruned grid for atomic number  77.
 Defaulting to unpruned grid for atomic number  77.
 Defaulting to unpruned grid for atomic number  77.
 Defaulting to unpruned grid for atomic number  77.
 Defaulting to unpruned grid for atomic number  77.
 Defaulting to unpruned grid for atomic number  77.
 Defaulting to unpruned grid for atomic number  77.
 Defaulting to unpruned grid for atomic number  77.
 Defaulting to unpruned grid for atomic number  77.
 Full mass-weighted force constant matrix:
 Low frequencies ---  -64.7236  -11.7598   -0.0007   -0.0004    0.0006    2.2852
 Low frequencies ---    8.4887   14.5177   21.3249
 ******    1 imaginary frequencies (negative Signs) ****** 
 Diagonal vibrational polarizability:
       73.3674739      74.6280214      66.5467523
 Harmonic frequencies (cm**-1), IR intensities (KM/Mole), Raman scattering
 activities (A**4/AMU), depolarization ratios for plane and unpolarized
 incident light, reduced masses (AMU), force constants (mDyne/A),
 and normal coordinates:
                      1                      2                      3
                      A                      A                      A
 Frequencies --    -64.7084                13.5847                19.7841
 Red. masses --      5.4643                 5.1515                 4.5457
 Frc consts  --      0.0135                 0.0006                 0.0010
 IR Inten    --      1.0699                 0.0337                 0.0321
  Atom AN      X      Y      Z        X      Y      Z        X      Y      Z
     1   6    -0.00  -0.00   0.06     0.00  -0.00  -0.05    -0.01  -0.00  -0.01
     2   1    -0.01  -0.01   0.14     0.01  -0.00  -0.05    -0.01   0.00  -0.00
     3   6    -0.00   0.00  -0.03     0.00  -0.00  -0.07    -0.00   0.00  -0.01
     4   6     0.00   0.01  -0.16    -0.00  -0.01  -0.04     0.00   0.00  -0.02
     5   1     0.01   0.02  -0.23    -0.00  -0.01  -0.05     0.00   0.00  -0.02
     6   6     0.01   0.02  -0.21    -0.01  -0.00  -0.00     0.00  -0.00  -0.03
     7   6    -0.01  -0.22  -0.12    -0.01   0.02   0.03    -0.01  -0.02  -0.01
     8   6    -0.01  -0.20  -0.08    -0.01   0.02   0.03    -0.01  -0.01   0.00
     9   1    -0.02  -0.35  -0.09    -0.01   0.03   0.03    -0.02  -0.01   0.01
    10   6    -0.00  -0.00  -0.05    -0.00   0.00   0.03    -0.00  -0.00   0.01
    11   6     0.01   0.20  -0.04     0.00  -0.01   0.03     0.01   0.00   0.00
    12   1     0.02   0.35  -0.02     0.00  -0.03   0.03     0.02   0.01   0.01
    13   6     0.00   0.01  -0.10    -0.00  -0.00   0.02    -0.00  -0.01  -0.02
    14   6     0.00   0.01  -0.10    -0.00  -0.00   0.01    -0.00  -0.01  -0.03
    15   6     0.00  -0.00  -0.01    -0.02   0.02   0.14    -0.03   0.03   0.07
    16   6     0.00  -0.00  -0.01     0.00  -0.01   0.02    -0.02   0.00  -0.01
    17   6     0.00  -0.01  -0.01    -0.13   0.07   0.16    -0.11   0.05   0.08
    18   1    -0.00  -0.01  -0.01    -0.17   0.09   0.10    -0.14   0.05   0.04
    19   1     0.00  -0.01  -0.01    -0.15   0.08   0.15    -0.13   0.06   0.09
    20   1    -0.00  -0.01  -0.01    -0.15   0.09   0.24    -0.12   0.07   0.13
    21   6     0.00  -0.00  -0.01     0.04   0.00   0.22     0.01   0.03   0.13
    22   1    -0.00  -0.01  -0.01     0.02   0.03   0.30     0.00   0.06   0.18
    23   1     0.00  -0.00  -0.00     0.02   0.01   0.20    -0.01   0.04   0.12
    24   1     0.00  -0.00  -0.01     0.12  -0.04   0.22     0.07   0.01   0.12
    25   6     0.00  -0.00  -0.00    -0.05   0.02  -0.05    -0.07   0.01  -0.05
    26   1     0.00  -0.00  -0.00    -0.03   0.00  -0.13    -0.05  -0.00  -0.11
    27   1     0.00  -0.00  -0.00    -0.04   0.01  -0.02    -0.06   0.02  -0.02
    28   1     0.00  -0.00  -0.01    -0.13   0.06  -0.05    -0.12   0.04  -0.05
    29   6     0.00   0.00  -0.01     0.10  -0.07   0.01     0.05  -0.03  -0.02
    30   1    -0.00   0.00  -0.01     0.15  -0.09   0.05     0.09  -0.04   0.01
    31   1     0.00  -0.00  -0.01     0.11  -0.07   0.02     0.05  -0.03  -0.00
    32   1     0.00   0.00  -0.01     0.11  -0.10  -0.07     0.05  -0.06  -0.07
    33   6     0.01  -0.04   0.01     0.04  -0.03  -0.04    -0.02  -0.01  -0.01
    34   6     0.02  -0.04   0.01     0.03  -0.02  -0.03    -0.02  -0.01  -0.00
    35   6     0.01  -0.03  -0.00     0.05  -0.01  -0.07    -0.02  -0.01  -0.00
    36   1     0.00  -0.03  -0.00     0.03   0.01  -0.06    -0.02  -0.01  -0.00
    37   1     0.01  -0.04  -0.01     0.06  -0.00  -0.09    -0.01  -0.01   0.00
    38   1     0.00  -0.03  -0.00     0.06  -0.02  -0.07    -0.01  -0.02  -0.00
    39   6     0.02  -0.04   0.00     0.06  -0.06  -0.05    -0.03  -0.01  -0.01
    40   1     0.02  -0.04   0.01     0.06  -0.07  -0.06    -0.04  -0.01  -0.01
    41   1     0.02  -0.05   0.00     0.06  -0.06  -0.06    -0.04  -0.01   0.00
    42   1     0.02  -0.04   0.01     0.05  -0.07  -0.03    -0.03  -0.01  -0.01
    43   6     0.02  -0.04  -0.00     0.03   0.00  -0.03    -0.02  -0.01  -0.00
    44   1     0.01  -0.03  -0.01     0.03   0.01  -0.02    -0.02  -0.01   0.02
    45   1     0.03  -0.03  -0.01     0.04  -0.00  -0.04    -0.03  -0.03  -0.02
    46   1     0.01  -0.04  -0.00     0.04   0.01  -0.04    -0.03   0.01  -0.02
    47   6     0.03  -0.04   0.01     0.02  -0.03  -0.01    -0.02  -0.01  -0.00
    48   1     0.03  -0.03   0.00     0.02  -0.05  -0.00    -0.02  -0.01   0.00
    49   1     0.02  -0.05   0.01     0.03  -0.04  -0.02    -0.02  -0.01  -0.00
    50   1     0.05  -0.05   0.01     0.01  -0.02   0.01    -0.02  -0.01  -0.00
    51   5    -0.00  -0.00  -0.01    -0.00   0.00   0.05    -0.01   0.00  -0.00
    52   5     0.01  -0.03   0.02     0.02  -0.01  -0.01    -0.02  -0.01  -0.01
    53   7    -0.00   0.00   0.03     0.00  -0.00  -0.01    -0.00  -0.00  -0.02
    54   7     0.01   0.23  -0.06     0.00  -0.02   0.02     0.01   0.00  -0.01
    55   8    -0.00  -0.00  -0.01     0.00   0.01   0.15    -0.00   0.02   0.07
    56   8     0.00  -0.00  -0.01    -0.01  -0.00  -0.02    -0.02  -0.01  -0.05
    57   8     0.01  -0.03   0.02     0.04  -0.03  -0.02    -0.02  -0.01  -0.01
    58   8     0.02  -0.04   0.01     0.02  -0.00  -0.01    -0.02  -0.01   0.00
    59  77     0.00  -0.00   0.05     0.00  -0.00   0.02     0.00  -0.00  -0.03
    60   5    -0.01   0.02   0.03    -0.02   0.00  -0.00     0.03   0.00  -0.00
    61   8    -0.01   0.02   0.01    -0.04   0.00  -0.04     0.10   0.02   0.05
    62   8    -0.01   0.03   0.04    -0.01   0.01   0.01    -0.02   0.00  -0.05
    63   6    -0.02   0.03   0.01    -0.04   0.02  -0.04     0.09   0.00   0.05
    64   6    -0.02   0.04   0.02    -0.02   0.01   0.00     0.01   0.03  -0.03
    65   6    -0.02   0.04   0.01    -0.05   0.07  -0.04     0.10  -0.11   0.07
    66   6    -0.02   0.03  -0.01    -0.06  -0.00  -0.07     0.15   0.08   0.10
    67   6    -0.04   0.05   0.02     0.00   0.04   0.02    -0.06  -0.03  -0.07
    68   6    -0.01   0.03  -0.00    -0.02  -0.03   0.02     0.02   0.16  -0.08
    69   1    -0.02   0.04   0.02    -0.04   0.09  -0.02     0.06  -0.16   0.04
    70   1    -0.02   0.05   0.00    -0.06   0.08  -0.05     0.10  -0.13   0.07
    71   1    -0.02   0.04   0.00    -0.08   0.08  -0.07     0.15  -0.12   0.13
    72   1    -0.02   0.03  -0.01    -0.07   0.00  -0.10     0.20   0.05   0.16
    73   1    -0.02   0.04  -0.01    -0.06   0.01  -0.07     0.13   0.07   0.08
    74   1    -0.01   0.03  -0.01    -0.05  -0.04  -0.07     0.15   0.16   0.08
    75   1    -0.04   0.05   0.02     0.02   0.03   0.05    -0.13   0.00  -0.14
    76   1    -0.04   0.05   0.01    -0.01   0.04   0.01    -0.03  -0.00  -0.06
    77   1    -0.04   0.05   0.03     0.00   0.08   0.02    -0.07  -0.12  -0.05
    78   1     0.01   0.02   0.00    -0.04  -0.07  -0.00     0.08   0.23  -0.04
    79   1    -0.01   0.03  -0.02    -0.02  -0.03   0.01     0.03   0.16  -0.07
    80   1    -0.00   0.03  -0.00    -0.01  -0.04   0.06    -0.02   0.17  -0.17
    81   1     0.01   0.03  -0.32    -0.01  -0.01   0.02     0.01  -0.00  -0.04
    82   1    -0.02  -0.38  -0.15    -0.01   0.03   0.03    -0.02  -0.02  -0.02
    83   6    -0.00  -0.00  -0.00     0.01  -0.00  -0.12    -0.00   0.00   0.02
    84   9    -0.02  -0.01   0.00     0.05   0.03  -0.14    -0.02  -0.05   0.04
    85   9     0.01   0.01   0.01    -0.02  -0.02  -0.15    -0.00   0.04   0.07
    86   9     0.00   0.00   0.00    -0.00  -0.01  -0.12     0.00   0.01  -0.02
    87   6    -0.00  -0.00  -0.02    -0.00   0.01   0.03    -0.00  -0.01   0.02
    88   9    -0.02  -0.01   0.00    -0.01   0.03   0.01    -0.00  -0.09   0.12
    89   9    -0.01  -0.01  -0.01     0.00   0.02   0.05    -0.01  -0.07  -0.08
    90   9     0.03   0.01  -0.00    -0.00  -0.01   0.02     0.01   0.10   0.04
                      4                      5                      6
                      A                      A                      A
 Frequencies --     23.8611                28.1662                36.0528
 Red. masses --     11.3330                 6.0928                 4.5851
 Frc consts  --      0.0038                 0.0028                 0.0035
 IR Inten    --      0.0645                 0.0379                 0.1270
  Atom AN      X      Y      Z        X      Y      Z        X      Y      Z
     1   6    -0.00  -0.01   0.01     0.00  -0.01  -0.01     0.00  -0.01  -0.03
     2   1     0.01  -0.01  -0.00     0.01  -0.01   0.01    -0.00  -0.01  -0.03
     3   6    -0.00  -0.01   0.02    -0.01  -0.02   0.03     0.00  -0.01  -0.01
     4   6    -0.00  -0.01   0.04    -0.02  -0.01  -0.00     0.01  -0.01  -0.01
     5   1    -0.00  -0.01   0.05    -0.02  -0.02   0.03     0.01  -0.01  -0.00
     6   6    -0.00  -0.01   0.05    -0.01   0.00  -0.06     0.01  -0.01  -0.03
     7   6     0.01  -0.03   0.01    -0.02   0.01  -0.07    -0.02  -0.04  -0.01
     8   6     0.01  -0.02  -0.00    -0.02   0.01  -0.05    -0.02  -0.03   0.02
     9   1     0.02  -0.04  -0.01    -0.04  -0.00  -0.04    -0.03  -0.05   0.03
    10   6    -0.00  -0.00  -0.01    -0.01   0.01  -0.04     0.00  -0.00   0.03
    11   6    -0.01   0.01   0.00     0.01   0.02  -0.05     0.02   0.02   0.02
    12   1    -0.03   0.03  -0.00     0.02   0.02  -0.04     0.04   0.04   0.03
    13   6    -0.00  -0.01   0.02    -0.01   0.02  -0.07     0.00  -0.01  -0.02
    14   6    -0.00  -0.01   0.03    -0.00   0.01  -0.07     0.01  -0.01  -0.04
    15   6     0.00  -0.00  -0.00    -0.02   0.04   0.03    -0.03   0.00   0.06
    16   6    -0.01   0.01   0.05    -0.00   0.00  -0.07    -0.04   0.02   0.12
    17   6     0.03  -0.05  -0.01    -0.10   0.10   0.04    -0.03  -0.11   0.07
    18   1     0.05  -0.07   0.01    -0.13   0.12  -0.00    -0.02  -0.17   0.06
    19   1     0.04  -0.05   0.01    -0.12   0.11   0.02    -0.04  -0.12   0.15
    20   1     0.04  -0.05  -0.05    -0.11   0.12   0.11    -0.02  -0.12   0.01
    21   6    -0.02   0.03  -0.03     0.02   0.02   0.08    -0.03   0.09   0.08
    22   1    -0.01   0.02  -0.06     0.02   0.06   0.16    -0.02   0.07   0.03
    23   1    -0.03   0.03  -0.00    -0.01   0.03   0.05    -0.05   0.09   0.16
    24   1    -0.04   0.05  -0.03     0.08  -0.04   0.09    -0.03   0.17   0.06
    25   6    -0.00  -0.02   0.10    -0.05   0.04  -0.15    -0.06  -0.04   0.23
    26   1    -0.01  -0.01   0.13    -0.03   0.02  -0.22    -0.07  -0.03   0.27
    27   1    -0.01  -0.01   0.10    -0.04   0.03  -0.14    -0.07  -0.00   0.28
    28   1     0.02  -0.05   0.09    -0.10   0.09  -0.14    -0.05  -0.13   0.22
    29   6    -0.04   0.06   0.06     0.06  -0.08  -0.08    -0.04   0.14   0.14
    30   1    -0.05   0.07   0.02     0.10  -0.10  -0.03    -0.03   0.18   0.06
    31   1    -0.05   0.07   0.07     0.06  -0.08  -0.09    -0.05   0.18   0.19
    32   1    -0.05   0.07   0.09     0.06  -0.11  -0.14    -0.04   0.15   0.16
    33   6     0.01   0.00   0.01    -0.04   0.01   0.01    -0.01  -0.01  -0.03
    34   6     0.01  -0.01  -0.01    -0.04   0.01   0.04    -0.01  -0.01  -0.02
    35   6    -0.01  -0.01   0.02    -0.01   0.01   0.02    -0.02  -0.01  -0.03
    36   1    -0.02  -0.02   0.02     0.02   0.02   0.02    -0.02  -0.00  -0.03
    37   1    -0.01  -0.01   0.02    -0.01   0.02   0.04    -0.02  -0.01  -0.03
    38   1    -0.01  -0.00   0.04    -0.01   0.01  -0.01    -0.02  -0.00  -0.03
    39   6     0.02   0.02   0.02    -0.07   0.01   0.01    -0.02  -0.01  -0.03
    40   1     0.02   0.02   0.04    -0.07   0.01  -0.01    -0.02  -0.01  -0.03
    41   1     0.02   0.01   0.01    -0.08   0.01   0.03    -0.02  -0.01  -0.02
    42   1     0.03   0.03   0.02    -0.09   0.01  -0.00    -0.02  -0.01  -0.03
    43   6     0.00  -0.01  -0.03    -0.02   0.02   0.08    -0.01  -0.02  -0.01
    44   1     0.01  -0.02  -0.03    -0.03   0.02   0.08    -0.00  -0.02  -0.01
    45   1     0.01  -0.02  -0.04    -0.04   0.04   0.10    -0.02  -0.02  -0.01
    46   1    -0.02  -0.01  -0.03     0.01   0.00   0.09    -0.01  -0.02  -0.01
    47   6     0.04   0.00  -0.01    -0.07   0.02   0.04    -0.01  -0.02  -0.02
    48   1     0.04   0.01   0.00    -0.08   0.02   0.00    -0.01  -0.01  -0.02
    49   1     0.05   0.00  -0.02    -0.10   0.02   0.05    -0.02  -0.02  -0.01
    50   1     0.04  -0.00  -0.03    -0.06   0.02   0.05    -0.01  -0.02  -0.00
    51   5     0.00  -0.00   0.00     0.00   0.01  -0.01    -0.01  -0.01  -0.02
    52   5    -0.00  -0.00   0.01    -0.01   0.01  -0.01    -0.00  -0.01  -0.03
    53   7    -0.00  -0.01   0.02     0.00   0.01  -0.06     0.00  -0.01  -0.04
    54   7    -0.01   0.01   0.01     0.01   0.02  -0.06     0.02   0.01  -0.00
    55   8    -0.00   0.00  -0.03     0.01   0.02   0.06    -0.01   0.01  -0.04
    56   8    -0.00  -0.01   0.04    -0.01   0.01  -0.07    -0.03  -0.02   0.05
    57   8     0.01   0.01   0.02    -0.03   0.00  -0.02    -0.01   0.00  -0.03
    58   8     0.00  -0.01  -0.00    -0.01   0.01   0.02    -0.00  -0.01  -0.02
    59  77     0.00  -0.01   0.01     0.01   0.01  -0.03     0.00  -0.02  -0.05
    60   5     0.01   0.00   0.01     0.02  -0.01  -0.00     0.02  -0.00  -0.04
    61   8     0.05   0.01   0.04    -0.00  -0.02  -0.00     0.01   0.00  -0.07
    62   8    -0.04  -0.00  -0.03     0.07  -0.02   0.03     0.03   0.02   0.00
    63   6     0.03  -0.00   0.03     0.03  -0.03   0.02     0.03   0.04  -0.06
    64   6    -0.03   0.02  -0.04     0.07  -0.04   0.05     0.04   0.04   0.00
    65   6     0.02  -0.08   0.06     0.05   0.02  -0.01     0.04   0.09  -0.08
    66   6     0.07   0.05   0.05    -0.01  -0.06   0.04     0.02   0.02  -0.08
    67   6    -0.10  -0.02  -0.07     0.13  -0.03   0.07     0.08   0.08   0.03
    68   6    -0.01   0.10  -0.09     0.04  -0.09   0.10     0.03  -0.01   0.04
    69   1    -0.01  -0.12   0.05     0.08   0.04  -0.02     0.06   0.11  -0.07
    70   1     0.00  -0.09   0.05     0.07   0.01   0.01     0.06   0.11  -0.08
    71   1     0.06  -0.09   0.10     0.02   0.03  -0.03     0.02   0.10  -0.12
    72   1     0.10   0.03   0.10    -0.03  -0.05   0.01     0.01   0.03  -0.13
    73   1     0.05   0.04   0.03     0.02  -0.07   0.06     0.03   0.05  -0.06
    74   1     0.08   0.11   0.03    -0.03  -0.09   0.06    -0.00  -0.02  -0.06
    75   1    -0.15  -0.00  -0.11     0.17  -0.04   0.10     0.09   0.07   0.07
    76   1    -0.09  -0.01  -0.07     0.13  -0.05   0.09     0.08   0.09   0.03
    77   1    -0.11  -0.09  -0.04     0.15   0.01   0.04     0.09   0.11   0.01
    78   1     0.05   0.15  -0.06    -0.00  -0.12   0.08    -0.00  -0.04   0.02
    79   1    -0.01   0.10  -0.09     0.05  -0.10   0.12     0.03   0.00   0.04
    80   1    -0.03   0.11  -0.15     0.06  -0.10   0.13     0.03  -0.01   0.08
    81   1    -0.01  -0.01   0.06    -0.02   0.01  -0.07     0.01  -0.01  -0.03
    82   1     0.02  -0.04   0.01    -0.03   0.01  -0.07    -0.03  -0.06  -0.02
    83   6    -0.00   0.02  -0.05    -0.01  -0.03   0.09    -0.00  -0.01   0.03
    84   9    -0.03   0.40  -0.19    -0.09   0.08   0.07    -0.03  -0.01   0.03
    85   9     0.02  -0.26  -0.35     0.06  -0.12   0.03     0.02  -0.02   0.03
    86   9    -0.01  -0.06   0.29    -0.01  -0.07   0.24     0.00  -0.01   0.05
    87   6    -0.00  -0.01  -0.02    -0.01   0.01  -0.01     0.00   0.01   0.06
    88   9     0.01  -0.06   0.04    -0.02   0.06  -0.07    -0.02   0.01   0.08
    89   9     0.00  -0.05  -0.10    -0.02   0.04   0.08     0.00   0.02   0.07
    90   9    -0.02   0.07  -0.02     0.02  -0.08  -0.01     0.02   0.02   0.07
                      7                      8                      9
                      A                      A                      A
 Frequencies --     44.9826                55.9250                58.5515
 Red. masses --      7.0209                 6.5867                 5.8393
 Frc consts  --      0.0084                 0.0121                 0.0118
 IR Inten    --      0.1952                 1.7469                 0.1377
  Atom AN      X      Y      Z        X      Y      Z        X      Y      Z
     1   6    -0.03   0.03   0.05     0.03   0.00  -0.03    -0.05   0.01  -0.11
     2   1    -0.07   0.04   0.10     0.04  -0.01   0.03    -0.07   0.01  -0.15
     3   6     0.00   0.07  -0.00     0.01  -0.01  -0.07    -0.04   0.02  -0.03
     4   6     0.05   0.06  -0.08    -0.00   0.00  -0.17    -0.01   0.00   0.04
     5   1     0.08   0.09  -0.12    -0.01  -0.00  -0.20    -0.00   0.01   0.10
     6   6     0.06   0.02  -0.10    -0.00   0.03  -0.20    -0.01  -0.02   0.03
     7   6    -0.00  -0.01  -0.01    -0.05   0.17  -0.03    -0.04   0.00  -0.04
     8   6    -0.00   0.01   0.01    -0.05   0.15   0.03    -0.04   0.03  -0.03
     9   1    -0.02   0.05   0.02    -0.09   0.24   0.07    -0.05   0.06  -0.02
    10   6     0.01  -0.00   0.02     0.01   0.02   0.05    -0.04   0.01  -0.02
    11   6     0.03  -0.05   0.00     0.07  -0.09   0.00    -0.02  -0.05  -0.04
    12   1     0.05  -0.06   0.01     0.12  -0.18   0.02    -0.02  -0.07  -0.03
    13   6     0.02  -0.05  -0.03     0.01   0.04  -0.07    -0.03  -0.05  -0.05
    14   6     0.02  -0.02  -0.04     0.01   0.04  -0.12    -0.03  -0.04  -0.05
    15   6     0.05  -0.12   0.02     0.01   0.02  -0.02    -0.04   0.04  -0.03
    16   6     0.09  -0.08  -0.00    -0.00   0.02   0.00    -0.07   0.01  -0.00
    17   6     0.04  -0.13   0.03     0.06   0.04  -0.04    -0.00   0.04  -0.04
    18   1     0.02  -0.09   0.01     0.08   0.06  -0.00     0.02   0.02  -0.02
    19   1     0.07  -0.15   0.03     0.07   0.05  -0.07    -0.03   0.05  -0.05
    20   1    -0.00  -0.16   0.04     0.07   0.05  -0.05     0.02   0.06  -0.06
    21   6     0.08  -0.19   0.04    -0.02  -0.00  -0.07    -0.06   0.07  -0.06
    22   1     0.03  -0.25   0.05    -0.01   0.00  -0.09    -0.04   0.10  -0.08
    23   1     0.15  -0.22   0.06    -0.01  -0.00  -0.10    -0.09   0.08  -0.07
    24   1     0.08  -0.18   0.04    -0.06  -0.03  -0.06    -0.08   0.07  -0.06
    25   6     0.14  -0.06  -0.02     0.02   0.02  -0.00    -0.09  -0.00   0.02
    26   1     0.17  -0.02  -0.04     0.01   0.02   0.02    -0.12  -0.03   0.05
    27   1     0.18  -0.10  -0.02     0.01   0.02  -0.03    -0.12   0.03   0.01
    28   1     0.12  -0.05  -0.02     0.05   0.03   0.00    -0.07  -0.02   0.02
    29   6     0.12  -0.10  -0.01    -0.04   0.01   0.00    -0.09   0.03   0.00
    30   1     0.09  -0.11   0.01    -0.06   0.00   0.01    -0.09   0.04  -0.01
    31   1     0.15  -0.13  -0.01    -0.03  -0.00  -0.02    -0.09   0.04   0.01
    32   1     0.14  -0.06  -0.03    -0.04   0.02   0.02    -0.09   0.04   0.02
    33   6     0.01   0.03  -0.01     0.04  -0.01  -0.03     0.11  -0.05  -0.07
[...]
 0.00003931,-0.00000170,0.00011778,0.00041415,-0.00031267,0.00033411,0.
 00005646,0.00005545,0.00001050,-0.00035349,0.00015972,-0.00132370,0.00
 008324,0.00009296,0.00000058,-0.00016036,-0.00000400,0.00014178,0.0007
 7557,-0.00020204,0.00006837,-0.00022691,0.00010316,-0.00014590,-0.0002
 2417,0.00015689,0.00006709,-0.00022491,-0.00004181,0.00000193,-0.13727
 030,-0.08726139,-0.03914002,0.01869560,0.00026312,0.00437373,0.1360448
 5,-0.00018755,0.00001436,-0.00000922,-0.00006274,-0.00009988,-0.000009
 44,-0.00004707,0.00022811,0.00000668,0.00018128,-0.00013160,0.00000201
 ,-0.00001504,-0.00000239,-0.00000147,-0.00039605,0.00003534,-0.0000223
 7,-0.00074236,0.00068485,0.00000640,0.00099236,-0.00013597,-0.00214124
 ,-0.00025937,-0.00101871,0.00068184,-0.01439615,-0.00848048,-0.0107216
 9,-0.00195643,-0.00097310,0.00261494,0.00021540,-0.00018273,0.00024065
 ,0.00043058,-0.00042238,0.00010293,0.00075702,-0.00025767,0.00015224,-
 0.00000618,-0.00008072,0.00000173,-0.00002768,0.00000420,-0.00005987,-
 0.00000396,0.00001369,0.00000285,-0.00000467,-0.00001050,-0.00000738,-
 0.00000416,0.00000256,-0.00000250,0.00002263,0.00000665,0.00000869,-0.
 00000237,0.00001187,-0.00000271,0.00002268,0.00000459,0.00001314,-0.00
 000540,0.00000561,-0.00000236,-0.00001141,-0.00001315,-0.00000034,-0.0
 0001577,-0.00000416,0.00001468,0.00001122,0.00002741,0.00000505,0.0000
 1317,0.00000019,-0.00000723,-0.00000979,-0.00000291,0.00000535,-0.0000
 3593,-0.00001429,-0.00000282,-0.00003793,-0.00000498,-0.00000662,0.000
 02381,-0.00001028,0.00001579,0.00001645,0.00005577,0.00000483,-0.00048
 527,0.00023172,-0.00006628,-0.00051209,0.00078690,0.00037450,0.0001608
 3,-0.00004947,-0.00002952,-0.00006971,0.00001416,-0.00005634,0.0000106
 4,0.00006246,0.00002122,0.00006125,-0.00010420,-0.00001048,0.00014001,
 -0.00008529,0.00005350,0.00005305,-0.00009782,-0.00004235,-0.00000294,
 0.00005517,0.00004432,-0.00004898,0.00002956,0.00001837,-0.00005167,0.
 00054584,0.00004157,-0.00143502,-0.00377665,-0.00116340,0.00007745,-0.
 00018150,-0.00015454,0.00003833,0.00001560,0.00005732,-0.00033942,0.00
 069936,-0.00012453,0.00029083,-0.00020579,-0.00015110,0.00009304,-0.00
 017049,-0.00009482,0.00304204,-0.00358232,-0.00139223,0.00000663,-0.00
 039323,-0.00016950,-0.00354450,-0.00054757,-0.00141787,-0.00001319,0.0
 0033947,-0.00017077,-0.00156811,0.00082400,-0.00093645,0.00014464,0.00
 016077,0.00001430,0.00011040,0.00028710,0.00009865,0.00127642,-0.00020
 549,0.00015979,0.00927996,-0.00895597,-0.00111557,0.00047876,0.0000728
 0,0.00067462,-0.00112912,-0.00030106,0.00002222,0.00047109,0.00023316,
 0.00001949,0.00085029,0.00039491,-0.00007616,-0.00001595,0.00016571,0.
 00014456,-0.00131089,-0.00031161,-0.00015353,0.00005429,-0.00009186,-0
 .00005019,-0.00003413,0.00000370,-0.00010129,0.00038345,-0.00020165,0.
 00007493,0.00058459,-0.00018758,0.00005663,0.00002670,0.00002384,0.000
 01570,-0.00001461,-0.00000201,0.00001495,0.00002253,-0.00002953,0.0000
 3057,0.00003806,-0.00002930,0.00002057,0.00000847,0.00002295,0.0000005
 9,0.00004336,0.00006538,0.00006598,-0.00006744,0.00004330,-0.00001772,
 -0.00000029,0.00003212,-0.00003872,0.00004714,0.00004429,0.00016583,-0
 .00141545,0.00221715,-0.00007667,0.00005348,-0.00011341,0.00030655,0.0
 0052372,-0.00238913,0.00192956,0.00006007,0.00006384,-0.00000345,-0.00
 017301,-0.00005098,0.00008930,0.00029578,-0.00017030,0.00000922,-0.000
 09333,0.00006235,-0.00006076,-0.00009930,0.00010738,0.00004768,-0.0000
 5763,0.00002753,-0.00000239,-0.08783030,-0.21050187,-0.06347080,-0.012
 82337,-0.08655665,0.00398684,0.11034391,0.33991037,-0.00005987,-0.0000
 0090,-0.00001362,-0.00002354,-0.00003776,-0.00000577,-0.00003831,0.000
 09295,0.00000612,0.00007298,-0.00008080,-0.00000092,-0.00001389,-0.000
 00008,-0.00000314,-0.00024271,0.00004478,-0.00001255,-0.00103259,0.001
 24043,0.00030691,0.00014051,-0.00032966,-0.00262829,-0.00051292,-0.000
 92033,0.00117143,-0.00842679,-0.01061221,0.00575734,0.00002530,-0.0000
 9174,-0.00036712,0.00038646,-0.00038973,0.00046549,0.00001677,-0.00017
 736,0.00053644,0.00042082,-0.00022581,0.00013295,0.00000883,-0.0000724
 9,-0.00000185,0.00003284,-0.00003930,-0.00006208,0.00000425,0.00001493
 ,-0.00000015,-0.00000255,-0.00000631,0.00000068,-0.00000413,0.00000573
 ,-0.00000354,0.00000972,0.00000073,0.00000493,-0.00000337,0.00000881,-
 0.00000316,0.00000827,-0.00000005,0.00000502,-0.00000522,0.00000656,-0
 .00000061,-0.00000452,-0.00000705,0.00000390,-0.00001280,0.00000235,0.
 00000686,0.00000850,0.00001089,-0.00000240,0.00000001,0.00000522,-0.00
 000169,0.00000157,-0.00000466,0.00000912,-0.00002420,-0.00000287,0.000
 00618,-0.00001791,-0.00000756,-0.00000611,0.00000686,0.00000088,0.0000
 1267,0.00001165,0.00002777,-0.00000134,-0.00041375,0.00011429,0.000006
 39,-0.00046803,0.00033607,-0.00049398,0.00013880,-0.00005883,-0.000031
 39,-0.00004288,-0.00000272,-0.00002952,0.00001284,0.00004268,0.0000127
 0,0.00002646,-0.00006912,0.00000800,0.00007250,-0.00002399,0.00002519,
 0.00002837,-0.00006101,-0.00000630,0.00000959,0.00004333,0.00002846,-0
 .00005268,0.00000745,0.00003327,-0.00013131,0.00027286,0.00000154,-0.0
 0035580,-0.00180221,-0.00048067,0.00005642,-0.00008206,-0.00003754,0.0
 0002128,-0.00010329,0.00005623,-0.00031607,0.00050792,0.00012470,0.000
 16035,-0.00013782,-0.00007906,0.00008290,-0.00014743,-0.00002704,0.003
 40928,-0.00344363,-0.00314572,0.00014409,-0.00031407,-0.00009621,-0.00
 138891,-0.00028140,-0.00086341,-0.00005060,0.00012659,-0.00008442,-0.0
 0008629,0.00075954,0.00031899,-0.00003240,0.00014125,0.00001559,-0.000
 01374,0.00023071,0.00009271,0.00061332,0.00011602,0.00038778,0.0012948
 0,-0.00074607,-0.00000369,0.00007334,0.00008824,0.00046375,0.00012606,
 -0.00032422,-0.00044422,0.00000276,0.00022784,0.00021925,-0.00028534,0
 .00035841,0.00024877,-0.00000018,-0.00015375,-0.00014771,0.00015518,0.
 00017911,0.00005538,-0.00001466,0.00006989,0.00002858,-0.00005973,0.00
 003444,-0.00003820,0.00006945,-0.00012990,0.00002760,0.00004166,-0.000
 67992,-0.00036619,0.00002363,-0.00000478,0.00000315,-0.00000201,-0.000
 01551,0.00001264,-0.00002162,0.00002619,-0.00001254,-0.00000692,0.0000
 3127,-0.00000785,0.00000015,-0.00001294,0.00002389,0.00002560,-0.00002
 186,-0.00000747,-0.00000980,0.00007382,0.00006684,0.00000401,0.0000288
 2,-0.00000151,-0.00001816,0.00002620,0.00000449,0.00050572,-0.00001063
 ,-0.00009381,-0.00003182,0.00013536,-0.00008194,-0.00074877,0.00256824
 ,-0.00522009,0.00002598,0.00002979,-0.00000841,-0.00019597,0.00001869,
 0.00000793,0.00019704,-0.00007149,-0.00002141,-0.00005513,0.00002624,-
 0.00002101,-0.00006235,0.00005566,0.00003354,-0.00005389,-0.00000319,0
 .00000611,-0.04078168,-0.06557459,-0.10569300,0.00665158,0.01740351,0.
 01704164,0.05165801,0.11462686,0.14180606,-0.00010013,-0.00002575,0.00
 001002,-0.00004199,-0.00006004,-0.00000003,-0.00015217,0.00022500,-0.0
 0000350,0.00022819,-0.00018442,0.00001887,-0.00003495,-0.00000202,0.00
 000314,-0.00058985,0.00007097,-0.00005236,-0.00136645,0.00025623,0.002
 18603,-0.00749166,-0.00003616,-0.00456362,0.00034971,-0.00008347,0.000
 00756,-0.01735019,0.00636237,0.04565900,-0.00122435,0.00008476,0.00109
 297,-0.00217372,0.00017704,0.00036285,0.00012808,-0.00017219,0.0007526
 4,0.00106277,-0.00001778,0.00000883,0.00009168,-0.00026192,0.00007722,
 0.00013907,-0.00014012,-0.00005487,-0.00001840,0.00003189,-0.00001263,
 0.00000505,-0.00001496,0.00001441,-0.00001461,0.00002932,-0.00001364,0
 .00001074,-0.00000981,0.00000842,-0.00001753,0.00003195,-0.00001474,0.
 00000624,-0.00001363,0.00000652,-0.00001554,0.00002721,0.00000447,0.00
 000506,-0.00001220,-0.00000758,-0.00001187,0.00001754,0.00001956,0.000
 01558,0.00000827,0.00000724,-0.00000997,0.00001990,-0.00000494,-0.0000
 0551,-0.00000866,-0.00000931,-0.00002963,0.00001444,0.00001001,0.00000
 768,-0.00000143,-0.00002043,-0.00001545,0.00001681,0.00001807,0.000013
 35,-0.00000108,0.00000044,-0.00020511,-0.00009851,-0.00005297,-0.00026
 144,-0.00022145,-0.00010625,0.00000519,0.00002514,0.00000806,-0.000024
 24,-0.00000702,0.00000392,0.00003381,0.00003477,0.00001299,-0.00000016
 ,-0.00000596,-0.00001499,0.00000753,0.00001682,0.00000828,-0.00001039,
 0.00000395,-0.00000291,0.00002139,0.00001207,0.00002157,0.00000419,-0.
 00000126,-0.00002426,-0.00002671,0.00005480,-0.00000103,0.00000583,-0.
 00005253,0.00005425,0.00003844,0.00000603,-0.00001299,-0.00000464,0.00
 006753,-0.00002784,0.00007715,0.00001955,0.00001254,0.00009093,-0.0000
 5428,-0.00008001,0.00001623,0.00007698,0.00003622,-0.00014850,-0.00003
 266,0.00003665,0.00050141,-0.00096543,-0.00026086,-0.00052156,-0.00046
 989,-0.00040091,-0.00028537,0.00021599,-0.00009053,-0.00056885,0.00011
 747,0.00024603,-0.00031486,0.00047088,0.00000993,-0.00012557,0.0006195
 7,0.00003799,0.00031708,0.00031585,0.00029781,0.00057520,0.00046613,0.
 00009320,0.00015276,0.00024738,0.00017757,-0.00127810,-0.00047130,0.00
 084560,0.00070914,0.00034836,-0.00055711,0.00118993,0.00033059,-0.0008
 4506,-0.00017027,0.00019152,0.00042034,-0.00107378,-0.00049396,0.00019
 666,0.00005268,-0.00010796,-0.00007546,0.00002548,-0.00000354,-0.00004
 653,0.00010412,0.00017221,-0.00001328,0.00048041,0.00046354,0.00006682
 ,0.00000077,0.00002062,0.00003815,0.00001399,0.00002588,-0.00005247,0.
 00002043,-0.00003948,0.00003072,0.00002684,-0.00002588,0.00002681,0.00
 003158,0.00003369,-0.00004999,-0.00001081,0.00004560,0.00005497,-0.000
 10419,-0.00013937,-0.00003824,0.00002836,0.00002936,-0.00006857,0.0000
 5285,-0.00006318,0.00007533,-0.00005170,-0.00014935,0.00006122,0.00007
 588,0.00010295,-0.00002261,-0.00089405,0.00074842,-0.00019268,0.000063
 44,0.00006870,0.00001089,-0.00080866,0.00001241,0.00000235,0.00066767,
 -0.00013559,0.00010309,-0.00019660,0.00008459,-0.00014062,-0.00018483,
 0.00011068,0.00003594,-0.00020134,-0.00005149,-0.00000419,-0.13802562,
 0.01378868,0.08930898,0.01765378,-0.00431497,-0.00402440,0.01924581,-0
 .00039407,-0.01066069,0.13180784,-0.00005931,0.00001464,0.00000021,-0.
 00001397,-0.00002605,-0.00000084,0.00002707,0.00003729,0.00000104,0.00
 001719,0.00000024,-0.00000481,0.00000586,-0.00000087,-0.00000032,0.000
 00946,-0.00001522,0.00000342,-0.00014134,-0.00055458,-0.00025488,0.001
 13697,0.00144672,0.00014538,-0.00005086,-0.00004707,0.00004235,0.00246
 420,0.00830983,-0.00522533,-0.00040335,-0.00064203,-0.00067800,0.00005
 177,-0.00036694,0.00039214,-0.00001956,-0.00001597,0.00015193,0.000013
 57,-0.00003202,0.00003568,-0.00002634,0.00004023,-0.00001187,-0.000057
 38,0.00004799,0.00000932,-0.00000090,-0.00000540,0.00000494,-0.0000023
 1,0.00000036,-0.00000666,0.00000235,-0.00000719,0.00000271,0.00000523,
 0.00000673,0.00000053,0.00000355,-0.00000314,0.00000209,0.00000733,0.0
 0000570,0.00000345,0.00000219,-0.00000540,-0.00000171,-0.00000527,-0.0
 0000071,-0.00000045,-0.00000046,-0.00000710,0.00000195,-0.00000087,0.0
 0000895,0.00000331,0.00000985,-0.00000618,-0.00000297,-0.00000627,0.00
 000256,-0.00000033,-0.00000262,-0.00000776,-0.00000606,-0.00001163,0.0
 0000096,0.00000280,0.00001236,-0.00000927,-0.00000127,0.00000093,0.000
 01633,0.00000351,-0.00008553,0.00008173,0.00002897,-0.00008147,0.00011
 804,0.00009440,0.00003088,-0.00001241,-0.00000032,-0.00001523,0.000013
 31,-0.00001025,-0.00000350,0.00001320,0.00000376,0.00002087,-0.0000246
 9,-0.00000562,0.00003197,-0.00001798,0.00000624,0.00001585,-0.00002503
 ,-0.00000742,-0.00000591,0.00001061,0.00000860,-0.00000897,0.00001151,
 0.00000261,-0.00014767,0.00008257,-0.00000507,0.00013308,0.00002957,0.
 00006074,0.00003782,-0.00006676,-0.00005420,0.00001687,0.00001752,0.00
 000373,-0.00006509,0.00016839,-0.00004577,0.00006195,-0.00004102,-0.00
 002841,0.00001337,-0.00005004,-0.00003150,0.00000604,-0.00009207,0.000
 23300,-0.00014912,0.00011560,-0.00002066,-0.00069648,0.00000235,-0.000
 15289,0.00007927,0.00008868,-0.00003170,0.00010780,0.00020811,0.000140
 82,0.00015463,-0.00006790,0.00000171,0.00009194,-0.00006464,-0.0000011
 6,0.00024717,-0.00010263,-0.00002964,0.00061355,-0.00016205,-0.0000172
 2,0.00013067,-0.00006144,0.00006399,-0.00052831,0.00005711,0.00022219,
 0.00020013,-0.00004153,-0.00005547,0.00052197,0.00001356,-0.00007580,0
 .00005167,0.00018365,0.00018973,-0.00068193,-0.00050663,-0.00035483,0.
 00005584,-0.00011314,-0.00005334,0.00002952,-0.00003047,-0.00004533,0.
 00016258,-0.00009173,0.00001960,-0.00004341,0.00090926,0.00050355,0.00
 000766,0.00001655,0.00000229,-0.00001428,0.00000100,0.00001447,0.00003
 216,-0.00002942,0.00003624,0.00003138,-0.00003803,0.00002240,-0.000004
 09,0.00001956,-0.00000610,0.00001877,0.00005177,0.00005205,-0.00002537
 ,0.00003598,-0.00006693,-0.00001081,0.00000114,-0.00000901,0.00003329,
 0.00002317,0.00008909,-0.00004057,0.00002470,0.00001077,0.00005566,-0.
 00040270,0.00011730,0.00105572,-0.00406796,0.00003602,0.00000902,0.000
 00769,-0.00000343,0.00007876,-0.00017681,0.00003986,-0.00007208,-0.000
 03669,-0.00001320,0.00001688,0.00000445,0.00000820,0.00001275,0.000012
 29,0.00000619,0.00003706,0.00002984,-0.00000230,0.01543075,-0.07908850
 ,-0.02550520,-0.01011218,0.00254579,0.04320804,0.00756689,-0.01749942,
 -0.05288621,-0.01737761,0.08982733,0.00005460,-0.00000833,-0.00003530,
 0.00002585,0.00002954,-0.00000608,0.00007350,-0.00011015,0.00000980,-0
 .00010467,0.00009645,-0.00002123,0.00002029,0.00000087,-0.00000661,0.0
 0031637,-0.00004223,0.00002744,-0.00025643,-0.00007064,-0.00088767,0.0
 0433518,-0.00019230,0.00206780,-0.00058104,0.00021195,0.00066811,0.012
 21231,-0.00362164,-0.01736034,-0.00218445,0.00009995,-0.00668535,0.000
 34089,0.00018582,0.00307931,-0.00028019,0.00022811,0.00052569,-0.00063
 328,0.00004223,0.00021523,-0.00005566,0.00012260,-0.00006788,-0.000057
 72,0.00004937,-0.00002109,0.00002202,-0.00000765,0.00000813,-0.0000077
 8,0.00000561,-0.00000726,0.00000659,-0.00001429,0.00000643,-0.00000112
 ,0.00000660,-0.00000272,0.00000970,-0.00001677,0.00000964,-0.00000070,
 0.00000856,-0.00000308,0.00000650,-0.00001300,-0.00000374,-0.00000592,
 0.00000377,0.00001180,0.00000005,-0.00000959,-0.00001325,-0.00000363,-
 0.00000110,-0.00001066,0.00000194,-0.00000903,0.00000484,0.00001004,0.
 00000098,0.00001855,0.00000429,-0.00001159,0.00000190,-0.00001833,-0.0
 0000712,0.00000880,0.00001224,-0.00000771,-0.00000235,0.00000044,0.000
 02000,-0.00000361,-0.00014447,0.00017574,0.00001877,-0.00012676,0.0002
 4497,-0.00035627,0.00009764,-0.00007120,-0.00003599,-0.00001677,-0.000
 00508,-0.00003305,-0.00000920,0.00001145,0.00000305,0.00001931,-0.0000
 4348,0.00001850,0.00004008,-0.00003270,0.00001183,0.00002711,-0.000046
 02,-0.00000278,-0.00000371,0.00002608,0.00000606,-0.00004400,0.0000023
 8,0.00004696,-0.00021745,0.00021584,0.00001518,0.00019683,0.00010699,-
 0.00005552,0.00002813,-0.00007840,0.00000952,0.00004192,-0.00019932,0.
 00004278,-0.00023311,0.00030245,0.00006176,0.00002488,-0.00005434,-0.0
 0000194,0.00003457,-0.00012037,-0.00001953,0.00014957,-0.00018956,0.00
 022347,-0.00029083,0.00040697,0.00017101,-0.00073948,0.00007841,-0.000
 42684,0.00016949,-0.00015098,0.00001334,0.00029217,0.00010335,0.001793
 54,0.00014221,-0.00021161,0.00000988,0.00006292,-0.00027731,0.00005793
 ,0.00027459,-0.00011448,0.00011716,0.00058907,-0.00045181,0.00065441,0
 .00008106,-0.00009475,0.00025321,0.00161376,0.00002123,-0.00150288,-0.
 00075294,0.00001785,0.00079292,-0.00165236,0.00021581,0.00124548,0.000
 15816,-0.00041648,-0.00054120,0.00122010,0.00055282,-0.00003924,-0.000
 08727,0.00020526,0.00010963,-0.00009836,0.00006652,0.00002884,-0.00000
 097,-0.00039995,0.00005933,0.00011658,-0.00140306,0.00000357,0.0000331
 8,-0.00003250,-0.00003299,-0.00001127,-0.00004825,0.00005994,-0.000051
 76,0.00008224,-0.00004619,-0.00004456,0.00007867,-0.00004182,-0.000028
 87,-0.00005755,0.00006781,0.00002517,-0.00008761,-0.00007441,0.0001004
 8,0.00004971,0.00031775,-0.00001017,0.00004383,0.00005560,-0.00008703,
 0.00010173,-0.00007763,-0.00010722,0.00074369,-0.00016762,-0.00011081,
 0.00024086,-0.00002119,-0.00001675,0.00031854,-0.00013853,-0.00003657,
 -0.00004062,-0.00002381,0.00042702,0.00001447,0.00001114,-0.00032088,0
 .00006627,-0.00012600,0.00010221,-0.00005071,0.00010662,0.00008408,-0.
 00004063,0.00000651,0.00009361,0.00001974,0.00001580,0.09673277,-0.024
 57646,-0.24557633,0.00815722,0.03105218,-0.06792018,0.00082383,-0.0429
 2129,-0.04892855,-0.11997807,0.03968119,0.37825592\\0.00000287,0.00000
 352,0.00000114,-0.00000011,-0.00000078,-0.00000125,-0.00000306,0.00000
 268,0.00000034,-0.00000494,0.00000272,0.00000101,-0.00000470,-0.000002
 87,-0.00000074,0.00000378,-0.00000010,-0.00000044,-0.00000335,0.000000
 01,-0.00000360,0.00000407,0.00000008,0.00000625,-0.00000355,0.,-0.0000
 0389,0.00000173,0.00000056,0.00000574,-0.00000453,-0.00000029,0.000004
 94,0.00000132,-0.00000119,-0.00000013,0.00000221,0.00000117,-0.0000040
 3,-0.00000392,0.00000884,0.00000499,0.00000413,0.00000261,0.00000201,0
 .00000200,0.00000287,-0.00000354,-0.00000277,-0.00000569,-0.00000695,0
 .00000057,-0.00000009,0.00000048,0.00000044,0.00000195,-0.00000106,0.0
 0000525,0.00000437,-0.00000011,-0.00000380,0.00000254,-0.00000441,0.00
 000508,0.00000399,-0.00000065,0.00000091,-0.00000085,-0.00000108,0.000
 00061,0.00000145,-0.00000366,-0.00000126,-0.00000170,0.00000096,0.0000
 0149,-0.00000015,-0.00000093,0.00000301,-0.00000094,-0.00000261,0.0000
 0106,0.00000043,-0.00000281,0.00000413,0.00000701,-0.00000760,0.000000
 52,-0.00000130,-0.00000058,0.00000135,0.00000019,-0.00000094,-0.000003
 18,-0.00000152,-0.00000151,-0.00000336,-0.00000014,-0.00000714,-0.0000
 0094,0.00000243,-0.00000121,-0.00000195,-0.00000366,0.00000487,0.00000
 144,-0.00000144,-0.00000290,0.00000217,0.00000135,-0.00000047,-0.00000
 033,0.00000130,-0.00000060,0.00000342,-0.00000311,-0.00000033,-0.00000
 242,0.00000362,-0.00000026,-0.00000260,-0.00000016,-0.00000044,0.00000
 022,0.00000297,-0.00000098,-0.00000293,0.00000385,0.00000517,0.0000023
 0,-0.00000492,-0.00000003,-0.00000076,-0.00000121,-0.00000063,0.000000
 13,0.00000026,-0.00000146,-0.00000043,-0.00000447,-0.00000179,-0.00000
 276,-0.00000017,0.00000085,0.00000084,0.00000211,0.00000233,-0.0000006
 7,0.00000121,-0.00000018,0.00000204,0.00000490,-0.00000105,0.00000025,
 -0.00000090,-0.00000060,0.00000145,-0.00000487,0.00000181,-0.00000526,
 -0.00000131,0.00000756,0.00000396,0.00000182,-0.00000430,-0.00000368,-
 0.00000474,-0.00000117,0.00000490,0.00000379,0.00000187,-0.00000094,0.
 00000163,0.00000368,0.00000042,0.00000032,-0.00000220,-0.00000327,-0.0
 0000047,0.00000375,0.00000406,0.00000260,-0.00000275,0.00000520,-0.000
 00403,-0.00000253,0.00000195,-0.00000492,0.00000191,-0.00000022,-0.000
 00326,0.00000154,0.00000575,-0.00000722,-0.00000031,-0.00000448,-0.000
 00196,-0.00000290,-0.00000671,-0.00000422,0.00000273,0.00000146,0.0000
 0240,0.00000449,0.00000223,0.00000138,0.00000042,-0.00000001,-0.000000
 83,0.00000157,0.00000024,0.00000027,-0.00000050,0.00000297,-0.00000418
 ,-0.00000037,0.00000073,-0.00000094,0.00000216,0.00000153,-0.00000176,
 0.00000076,0.00000166,-0.00000236,0.00000093,0.00000516,0.00000059,-0.
 00000157,0.00000256,-0.00000112,0.00000134,-0.00000060,-0.00000007,-0.
 00000422,-0.00000282,-0.00000386,0.00000304,0.00000012,-0.00000132,-0.
 00000034,-0.00000244,0.00000353,0.00000142,-0.00000175,0.00000078,0.00
 000194,-0.00000019,-0.00000130,-0.00000290,-0.00000113,0.00000497,-0.0
 0000637,0.00000087,0.00000568,0.00000020,-0.00000446,0.00000069,0.0000
 0187,-0.00000983,-0.00000568,0.00000258,-0.00000192,-0.00000190,0.0000
 0732,0.00000059,0.00000059,0.00000803,0.00000088,-0.00000207,0.0000010
 2\\\@
 The archive entry for this job was punched.


 IT IS BY EATING THE LIGHT OF A STAR THAT WE EXIST, 
 IN THE FINAL ANALYSIS, 
 JUST AS IT IS BY PERCEIVING THE LIGHT OF STARS
 THAT WE DEFINE THE WORLD AROUND US.

                                    -- GILBERT GROSVENOR
 Job cpu time:       1 days  4 hours 16 minutes 57.3 seconds.
 Elapsed time:       0 days  1 hours 48 minutes 18.1 seconds.
 File lengths (MBytes):  RWF=   6117 Int=      0 D2E=      0 Chk=     41 Scr=      1
 Normal termination of Gaussian 16 at Sat Dec  7 20:40:12 2024.
