/mnt/lustre/scratch/nvme/SLURM/9698471/usccqdma.Ef12snwX1H
OMP_STACKSIZE=0m
GAUSS_PDEF=16
GAUSS_MDEF=65536MB
GAUSS_RDEF=SCF=Direct
 Entering Gaussian System, Link 0=g16.exe
 Initial command:
 /opt/cesga/2020/software/Core/g16/c1/l1.exe "/mnt/lustre/scratch/nvme/SLURM/9698471/usccqdma.Ef12snwX1H/Gau-1045374.inp" -scrdir="/mnt/lustre/scratch/nvme/SLURM/9698471/usccqdma.Ef12snwX1H/"
 Default is to use a total of  16 processors:
                               16 via shared-memory
                                1 via Linda
 Entering Link 1 = /opt/cesga/2020/software/Core/g16/c1/l1.exe PID=   1045400.
  
 Copyright (c) 1988-2019, Gaussian, Inc.  All Rights Reserved.
  
 This is part of the Gaussian(R) 16 program.  It is based on
 the Gaussian(R) 09 system (copyright 2009, Gaussian, Inc.),
 the Gaussian(R) 03 system (copyright 2003, Gaussian, Inc.),
 the Gaussian(R) 98 system (copyright 1998, Gaussian, Inc.),
 the Gaussian(R) 94 system (copyright 1995, Gaussian, Inc.),
 the Gaussian 92(TM) system (copyright 1992, Gaussian, Inc.),
 the Gaussian 90(TM) system (copyright 1990, Gaussian, Inc.),
 the Gaussian 88(TM) system (copyright 1988, Gaussian, Inc.),
 the Gaussian 86(TM) system (copyright 1986, Carnegie Mellon
 University), and the Gaussian 82(TM) system (copyright 1983,
 Carnegie Mellon University). Gaussian is a federally registered
 trademark of Gaussian, Inc.
  
 This software contains proprietary and confidential information,
 including trade secrets, belonging to Gaussian, Inc.
  
 This software is provided under written license and may be
 used, copied, transmitted, or stored only in accord with that
 written license.
  
 The following legend is applicable only to US Government
 contracts under FAR:
  
                    RESTRICTED RIGHTS LEGEND
  
 Use, reproduction and disclosure by the US Government is
 subject to restrictions as set forth in subparagraphs (a)
 and (c) of the Commercial Computer Software - Restricted
 Rights clause in FAR 52.227-19.
  
 Gaussian, Inc.
 340 Quinnipiac St., Bldg. 40, Wallingford CT 06492
  
  
 ---------------------------------------------------------------
 Warning -- This program may not be used in any manner that
 competes with the business of Gaussian, Inc. or will provide
 assistance to any competitor of Gaussian, Inc.  The licensee
 of this program is prohibited from giving any competitor of
 Gaussian, Inc. access to this program.  By using this program,
 the user acknowledges that Gaussian, Inc. is engaged in the
 business of creating and licensing software in the field of
 computational chemistry and represents and warrants to the
 licensee that it is not a competitor of Gaussian, Inc. and that
 it will not use this program in any manner prohibited above.
 ---------------------------------------------------------------
  

 Cite this work as:
 Gaussian 16, Revision C.01,
 M. J. Frisch, G. W. Trucks, H. B. Schlegel, G. E. Scuseria, 
 M. A. Robb, J. R. Cheeseman, G. Scalmani, V. Barone, 
 G. A. Petersson, H. Nakatsuji, X. Li, M. Caricato, A. V. Marenich, 
 J. Bloino, B. G. Janesko, R. Gomperts, B. Mennucci, H. P. Hratchian, 
 J. V. Ortiz, A. F. Izmaylov, J. L. Sonnenberg, D. Williams-Young, 
 F. Ding, F. Lipparini, F. Egidi, J. Goings, B. Peng, A. Petrone, 
 T. Henderson, D. Ranasinghe, V. G. Zakrzewski, J. Gao, N. Rega, 
 G. Zheng, W. Liang, M. Hada, M. Ehara, K. Toyota, R. Fukuda, 
 J. Hasegawa, M. Ishida, T. Nakajima, Y. Honda, O. Kitao, H. Nakai, 
 T. Vreven, K. Throssell, J. A. Montgomery, Jr., J. E. Peralta, 
 F. Ogliaro, M. J. Bearpark, J. J. Heyd, E. N. Brothers, K. N. Kudin, 
 V. N. Staroverov, T. A. Keith, R. Kobayashi, J. Normand, 
 K. Raghavachari, A. P. Rendell, J. C. Burant, S. S. Iyengar, 
 J. Tomasi, M. Cossi, J. M. Millam, M. Klene, C. Adamo, R. Cammi, 
 J. W. Ochterski, R. L. Martin, K. Morokuma, O. Farkas, 
 J. B. Foresman, and D. J. Fox, Gaussian, Inc., Wallingford CT, 2019.
 
 ******************************************
 Gaussian 16:  ES64L-G16RevC.01  3-Jul-2019
                10-Dec-2024 
 ******************************************
 Default route: SCF=Direct
 ----------------------------------------------------
 # m06/genecp scf=tight int=ultrafine 5d freq=noraman
 ----------------------------------------------------
 1/10=4,30=1,38=1/1,3;
 2/12=2,17=6,18=5,40=1/2;
 3/5=7,8=1,11=2,16=1,17=8,25=1,30=1,71=2,74=-54,75=-5,140=1/1,2,3;
 4//1;
 5/5=2,32=2,38=5,98=1/2;
 8/6=4,10=90,11=11/1;
 11/6=1,8=1,9=11,15=111,16=1/1,2,10;
 10/6=1/2;
 6/7=2,8=2,9=2,10=2,28=1/1;
 7/8=1,10=1,25=1/1,2,3,16;
 1/10=4,30=1/3;
 99//99;
 ------
 OPT-TS
 ------
 Symbolic Z-matrix:
 Charge =  0 Multiplicity = 1
 C                    -1.78456  -0.45304   2.17129 
 C                    -2.23672  -1.49897   0.15663 
 C                    -3.28169  -2.22642   0.71729 
 C                    -3.57838  -2.04934   2.06153 
 C                    -2.81635  -1.15601   2.79721 
 C                    -0.91563   0.49763   2.898 
 C                     0.92908   1.90844   2.79844 
 C                     0.81416   2.23014   4.14457 
 C                    -0.21439   1.65902   4.88207 
 C                    -1.08599   0.78241   4.25326 
 H                    -1.95052  -1.61088  -0.8934 
 H                    -4.39053  -2.60346   2.52567 
 H                    -3.02991  -1.01482   3.85277 
 H                     1.72375   2.30789   2.16669 
 H                    -0.33813   1.88843   5.93847 
 H                    -1.89257   0.32582   4.82017 
 N                    -1.5165   -0.63077   0.86362 
 N                     0.08086   1.06949   2.19139 
 Ir                    0.29996   0.52027   0.0146 
 O                     2.56904   1.4889   -1.78919 
 O                     1.98881  -1.37507  -1.79934 
 O                     2.87272  -0.77747   1.24057 
 B                     0.75809  -0.83478  -1.45861 
 B                     2.00367   1.46854  -0.52355 
 B                     1.55686  -0.95582   0.85445 
 O                     1.08425  -2.19121   1.28998 
 O                     2.76795   2.24572   0.34981 
 C                     3.83023   2.85828  -0.40259 
 C                     3.92404   1.92738  -1.64485 
 C                     3.36385  -2.03209   1.74236 
 C                     2.05339  -2.72633   2.20739 
 C                     1.81408  -2.12764  -3.00909 
 C                     0.32584  -2.55419  -2.90359 
 O                    -0.25107  -1.42318  -2.22316 
 C                     4.36843   2.60525  -2.92463 
 H                     5.37875   3.02581  -2.81633 
 H                     4.394     1.86848  -3.73841 
 H                     3.68303   3.40686  -3.22086 
 C                     4.76856   0.68307  -1.38955 
 H                     4.59553  -0.03173  -2.20591 
 H                     5.84161   0.91604  -1.34642 
 H                     4.46231   0.19064  -0.45682 
 C                     3.3844    4.27094  -0.75229 
 H                     3.12063   4.8       0.17333 
 H                     4.17891   4.83853  -1.25538 
 H                     2.49899   4.25746  -1.40164 
 C                     5.07622   2.89906   0.45886 
 H                     5.94302   3.2477   -0.12108 
 H                     4.93041   3.59427   1.29635 
 H                     5.30303   1.91082   0.87479 
 C                     2.08412  -1.17547  -4.16739 
 H                     3.09178  -0.75554  -4.04992 
 H                     2.03151  -1.68539  -5.13886 
 H                     1.3773   -0.33587  -4.16472 
 C                     2.80927  -3.26912  -3.03582 
 H                     2.68329  -3.87485  -3.94468 
 H                     3.83074  -2.86456  -3.0339 
 H                     2.70683  -3.92674  -2.16492 
 C                    -0.38186  -2.75022  -4.22728 
 H                     0.09874  -3.54865  -4.81082 
 H                    -1.42574  -3.04152  -4.05282 
 H                    -0.38298  -1.83144  -4.82357 
 C                     0.11795  -3.76504  -2.00292 
 H                    -0.95624  -3.88555  -1.8118 
 H                     0.48394  -4.69086  -2.4671 
 H                     0.61749  -3.62665  -1.03259 
 C                     2.05359  -4.23756   2.10613 
 H                     1.08822  -4.63347   2.44715 
 H                     2.20847  -4.57249   1.07418 
 H                     2.8416   -4.67346   2.73716 
 C                     1.61613  -2.29647   3.60336 
 H                     0.58844  -2.6451    3.77397 
 H                     2.25784  -2.72034   4.38757 
 H                     1.62353  -1.20077   3.70008 
 C                     4.37256  -1.75501   2.83804 
 H                     4.71951  -2.69035   3.30065 
 H                     5.24523  -1.24465   2.40923 
 H                     3.95781  -1.10796   3.61905 
 C                     4.0352   -2.7536    0.58244 
 H                     4.83166  -2.11632   0.17669 
 H                     4.48312  -3.70593   0.89707 
 H                     3.31876  -2.93587  -0.22756 
 H                     1.52474   2.91646   4.59786 
 C                    -3.27974   3.09848  -0.81266 
 C                    -2.81147   4.38699  -0.54989 
 C                    -2.38122   2.02784  -0.80163 
 C                    -1.46995   4.58512  -0.25256 
 C                    -1.02802   2.20256  -0.49189 
 H                    -2.74025   1.03323  -1.07549 
 C                    -0.58644   3.50768  -0.23433 
 H                    -1.10301   5.59025  -0.04522 
 H                    -0.19495   1.17401  -1.41673 
 H                    -3.50983   5.21981  -0.60689 
 C                    -4.71223   2.96067  -1.22036 
 O                    -5.24102   3.81824  -1.9149 
 N                    -5.39917   1.8313   -0.82759 
 C                    -5.06352   0.98245   0.29246 
 H                    -4.1535    1.32874   0.78968 
 H                    -5.88474   0.99437   1.02769 
 H                    -4.91595  -0.06079  -0.03003 
 C                    -6.73331   1.63098  -1.34939 
 H                    -6.86349   2.2475   -2.2409 
 H                    -6.87392   0.57064  -1.60211 
 H                    -7.49959   1.91529  -0.61041 
 H                     0.46652   3.68255  -0.00325 
 C                    -4.07622  -3.14014  -0.16254 
 F                    -4.6854   -2.4521   -1.13653 
 F                    -5.0179   -3.79426   0.5221 
 F                    -3.29863  -4.05031  -0.75665 
 

 GradGradGradGradGradGradGradGradGradGradGradGradGradGradGradGradGradGrad
 Berny optimization.
 Initialization pass.
 Trust Radius=3.00D-01 FncErr=1.00D-07 GrdErr=1.00D-07 EigMax=2.50D+02 EigMin=1.00D-04
 Number of steps in this run=      2 maximum allowed number of steps=      2.
 GradGradGradGradGradGradGradGradGradGradGradGradGradGradGradGradGradGrad

 Stoichiometry    C38H54B3F3IrN3O7
 Framework group  C1[X(C38H54B3F3IrN3O7)]
 Deg. of freedom   321
 Full point group                 C1      NOp   1
 Largest Abelian subgroup         C1      NOp   1
 Largest concise Abelian subgroup C1      NOp   1
                         Standard orientation:                         
 ---------------------------------------------------------------------
 Center     Atomic      Atomic             Coordinates (Angstroms)
 Number     Number       Type             X           Y           Z
 ---------------------------------------------------------------------
      1          6           0       -1.784560   -0.453040    2.171289
      2          6           0       -2.236720   -1.498970    0.156629
      3          6           0       -3.281691   -2.226419    0.717289
      4          6           0       -3.578381   -2.049339    2.061529
      5          6           0       -2.816350   -1.156009    2.797209
      6          6           0       -0.915630    0.497630    2.897999
      7          6           0        0.929080    1.908440    2.798439
      8          6           0        0.814160    2.230140    4.144569
      9          6           0       -0.214390    1.659020    4.882069
     10          6           0       -1.085990    0.782410    4.253259
     11          1           0       -1.950521   -1.610880   -0.893401
     12          1           0       -4.390531   -2.603459    2.525669
     13          1           0       -3.029910   -1.014819    3.852769
     14          1           0        1.723750    2.307890    2.166689
     15          1           0       -0.338130    1.888430    5.938469
     16          1           0       -1.892570    0.325820    4.820169
     17          7           0       -1.516500   -0.630770    0.863619
     18          7           0        0.080860    1.069490    2.191389
     19         77           0        0.299960    0.520270    0.014599
     20          8           0        2.569040    1.488899   -1.789191
     21          8           0        1.988810   -1.375070   -1.799341
     22          8           0        2.872720   -0.777471    1.240569
     23          5           0        0.758090   -0.834780   -1.458611
     24          5           0        2.003670    1.468540   -0.523551
     25          5           0        1.556860   -0.955820    0.854449
     26          8           0        1.084249   -2.191210    1.289979
     27          8           0        2.767950    2.245719    0.349809
     28          6           0        3.830230    2.858279   -0.402591
     29          6           0        3.924040    1.927379   -1.644851
     30          6           0        3.363849   -2.032091    1.742359
     31          6           0        2.053389   -2.726330    2.207389
     32          6           0        1.814079   -2.127640   -3.009091
     33          6           0        0.325839   -2.554190   -2.903591
     34          8           0       -0.251070   -1.423180   -2.223161
     35          6           0        4.368430    2.605249   -2.924631
     36          1           0        5.378751    3.025809   -2.816331
     37          1           0        4.394000    1.868479   -3.738411
     38          1           0        3.683031    3.406859   -3.220861
     39          6           0        4.768560    0.683069   -1.389551
     40          1           0        4.595530   -0.031731   -2.205911
     41          1           0        5.841610    0.916039   -1.346421
     42          1           0        4.462310    0.190639   -0.456821
     43          6           0        3.384401    4.270939   -0.752291
     44          1           0        3.120631    4.799999    0.173329
     45          1           0        4.178911    4.838529   -1.255381
     46          1           0        2.498991    4.257459   -1.401641
     47          6           0        5.076220    2.899059    0.458859
     48          1           0        5.943021    3.247699   -0.121081
     49          1           0        4.930411    3.594269    1.296349
     50          1           0        5.303030    1.910819    0.874789
     51          6           0        2.084120   -1.175470   -4.167391
     52          1           0        3.091780   -0.755541   -4.049921
     53          1           0        2.031509   -1.685390   -5.138861
     54          1           0        1.377300   -0.335870   -4.164721
     55          6           0        2.809269   -3.269121   -3.035821
     56          1           0        2.683289   -3.874851   -3.944681
     57          1           0        3.830739   -2.864561   -3.033901
     58          1           0        2.706829   -3.926741   -2.164921
     59          6           0       -0.381861   -2.750220   -4.227281
     60          1           0        0.098739   -3.548650   -4.810821
     61          1           0       -1.425741   -3.041520   -4.052821
     62          1           0       -0.382981   -1.831440   -4.823571
     63          6           0        0.117949   -3.765040   -2.002921
     64          1           0       -0.956241   -3.885550   -1.811801
     65          1           0        0.483939   -4.690860   -2.467101
     66          1           0        0.617489   -3.626650   -1.032591
     67          6           0        2.053589   -4.237560    2.106129
     68          1           0        1.088219   -4.633470    2.447149
     69          1           0        2.208469   -4.572491    1.074179
     70          1           0        2.841599   -4.673461    2.737159
     71          6           0        1.616129   -2.296470    3.603359
     72          1           0        0.588439   -2.645100    3.773969
     73          1           0        2.257839   -2.720341    4.387569
     74          1           0        1.623530   -1.200770    3.700079
     75          6           0        4.372559   -1.755011    2.838039
     76          1           0        4.719509   -2.690351    3.300649
     77          1           0        5.245230   -1.244651    2.409229
     78          1           0        3.957810   -1.107961    3.619049
     79          6           0        4.035199   -2.753601    0.582439
     80          1           0        4.831659   -2.116321    0.176689
     81          1           0        4.483119   -3.705931    0.897069
     82          1           0        3.318759   -2.935871   -0.227561
     83          1           0        1.524741    2.916460    4.597859
     84          6           0       -3.279739    3.098481   -0.812661
     85          6           0       -2.811469    4.386991   -0.549891
     86          6           0       -2.381220    2.027841   -0.801631
     87          6           0       -1.469949    4.585120   -0.252561
     88          6           0       -1.028020    2.202560   -0.491891
     89          1           0       -2.740250    1.033231   -1.075491
     90          6           0       -0.586439    3.507680   -0.234331
     91          1           0       -1.103009    5.590250   -0.045221
     92          1           0       -0.194950    1.174010   -1.416731
     93          1           0       -3.509829    5.219811   -0.606891
     94          6           0       -4.712229    2.960671   -1.220361
     95          8           0       -5.241019    3.818241   -1.914901
     96          7           0       -5.399170    1.831301   -0.827591
     97          6           0       -5.063520    0.982451    0.292459
     98          1           0       -4.153500    1.328741    0.789679
     99          1           0       -5.884740    0.994371    1.027689
    100          1           0       -4.915950   -0.060789   -0.030031
    101          6           0       -6.733310    1.630981   -1.349391
    102          1           0       -6.863490    2.247502   -2.240901
    103          1           0       -6.873920    0.570642   -1.602111
    104          1           0       -7.499590    1.915292   -0.610411
    105          1           0        0.466521    3.682550   -0.003251
    106          6           0       -4.076221   -3.140139   -0.162541
    107          9           0       -4.685401   -2.452099   -1.136531
    108          9           0       -5.017901   -3.794259    0.522099
    109          9           0       -3.298631   -4.050309   -0.756651
 ---------------------------------------------------------------------
 Rotational constants (GHZ):           0.0608662           0.0457377           0.0403993
 General basis read from cards:  (5D, 7F)
 ======================================================================================================
                                       Pseudopotential Parameters
 ======================================================================================================
  Center     Atomic      Valence      Angular      Power
  Number     Number     Electrons     Momentum     of R      Exponent        Coefficient   SO-Coeffient
 ======================================================================================================
    1          6
                                   No pseudopotential on this center.
    2          6
                                   No pseudopotential on this center.
    3          6
                                   No pseudopotential on this center.
    4          6
                                   No pseudopotential on this center.
    5          6
                                   No pseudopotential on this center.
    6          6
                                   No pseudopotential on this center.
    7          6
                                   No pseudopotential on this center.
    8          6
                                   No pseudopotential on this center.
    9          6
                                   No pseudopotential on this center.
   10          6
                                   No pseudopotential on this center.
   11          1
                                   No pseudopotential on this center.
   12          1
                                   No pseudopotential on this center.
   13          1
                                   No pseudopotential on this center.
   14          1
                                   No pseudopotential on this center.
   15          1
                                   No pseudopotential on this center.
   16          1
                                   No pseudopotential on this center.
   17          7
                                   No pseudopotential on this center.
   18          7
                                   No pseudopotential on this center.
   19         77           17
                                      G and up 
                                                     1      823.5880147       -0.15780140    0.00000000
                                                     2      364.6613336    -1517.52704460    0.00000000
                                                     2       55.7082801     -316.53065290    0.00000000
                                                     2       12.0464544      -91.88809410    0.00000000
                                                     2        3.5120610       -9.22417730    0.00000000
                                      S - G
                                                     0      188.0490770        3.15780140    0.00000000
                                                     1      340.4194712       26.83225770    0.00000000
                                                     2      128.2373673      800.42500070    0.00000000
                                                     2       33.8644961      369.40506830    0.00000000
                                                     2        4.7560005      242.41718990    0.00000000
                                                     2        3.9649974     -118.21732820    0.00000000
                                      P - G
                                                     0      289.7291139        2.15780140    0.00000000
                                                     1       87.4633789       61.96786100    0.00000000
                                                     2       30.4363766      269.05819860    0.00000000
                                                     2        4.0553412      231.16547930    0.00000000
                                                     2        3.5525341     -133.69526670    0.00000000
                                      D - G
                                                     0      136.4017106        3.15780140    0.00000000
                                                     1       95.0776925       45.93498030    0.00000000
                                                     2       49.2258410      359.03446680    0.00000000
                                                     2       15.0874145      176.47401190    0.00000000
                                                     2        4.0405764       54.51552860    0.00000000
                                      F - G
                                                     0      127.3507908        3.95461970    0.00000000
                                                     1       66.2364374       52.97736550    0.00000000
                                                     2       34.4299229      274.86433830    0.00000000
                                                     2       10.1995721      137.20473380    0.00000000
                                                     2        2.5409702       14.86333050    0.00000000
   20          8
                                   No pseudopotential on this center.
   21          8
                                   No pseudopotential on this center.
   22          8
                                   No pseudopotential on this center.
   23          5
                                   No pseudopotential on this center.
   24          5
                                   No pseudopotential on this center.
   25          5
                                   No pseudopotential on this center.
   26          8
                                   No pseudopotential on this center.
   27          8
                                   No pseudopotential on this center.
   28          6
                                   No pseudopotential on this center.
   29          6
                                   No pseudopotential on this center.
   30          6
                                   No pseudopotential on this center.
   31          6
                                   No pseudopotential on this center.
   32          6
                                   No pseudopotential on this center.
   33          6
                                   No pseudopotential on this center.
   34          8
                                   No pseudopotential on this center.
   35          6
                                   No pseudopotential on this center.
   36          1
                                   No pseudopotential on this center.
   37          1
                                   No pseudopotential on this center.
   38          1
                                   No pseudopotential on this center.
   39          6
                                   No pseudopotential on this center.
   40          1
                                   No pseudopotential on this center.
   41          1
                                   No pseudopotential on this center.
   42          1
                                   No pseudopotential on this center.
   43          6
                                   No pseudopotential on this center.
   44          1
                                   No pseudopotential on this center.
   45          1
                                   No pseudopotential on this center.
   46          1
                                   No pseudopotential on this center.
   47          6
                                   No pseudopotential on this center.
   48          1
                                   No pseudopotential on this center.
   49          1
                                   No pseudopotential on this center.
   50          1
                                   No pseudopotential on this center.
   51          6
                                   No pseudopotential on this center.
   52          1
                                   No pseudopotential on this center.
   53          1
                                   No pseudopotential on this center.
   54          1
                                   No pseudopotential on this center.
   55          6
                                   No pseudopotential on this center.
   56          1
                                   No pseudopotential on this center.
   57          1
                                   No pseudopotential on this center.
   58          1
                                   No pseudopotential on this center.
   59          6
                                   No pseudopotential on this center.
   60          1
                                   No pseudopotential on this center.
   61          1
                                   No pseudopotential on this center.
   62          1
                                   No pseudopotential on this center.
   63          6
                                   No pseudopotential on this center.
   64          1
                                   No pseudopotential on this center.
   65          1
                                   No pseudopotential on this center.
   66          1
                                   No pseudopotential on this center.
   67          6
                                   No pseudopotential on this center.
   68          1
                                   No pseudopotential on this center.
   69          1
                                   No pseudopotential on this center.
   70          1
                                   No pseudopotential on this center.
   71          6
                                   No pseudopotential on this center.
   72          1
                                   No pseudopotential on this center.
   73          1
                                   No pseudopotential on this center.
   74          1
                                   No pseudopotential on this center.
   75          6
                                   No pseudopotential on this center.
   76          1
                                   No pseudopotential on this center.
   77          1
                                   No pseudopotential on this center.
   78          1
                                   No pseudopotential on this center.
   79          6
                                   No pseudopotential on this center.
   80          1
                                   No pseudopotential on this center.
   81          1
                                   No pseudopotential on this center.
   82          1
                                   No pseudopotential on this center.
   83          1
                                   No pseudopotential on this center.
   84          6
                                   No pseudopotential on this center.
   85          6
                                   No pseudopotential on this center.
   86          6
                                   No pseudopotential on this center.
   87          6
                                   No pseudopotential on this center.
   88          6
                                   No pseudopotential on this center.
   89          1
                                   No pseudopotential on this center.
   90          6
                                   No pseudopotential on this center.
   91          1
                                   No pseudopotential on this center.
   92          1
                                   No pseudopotential on this center.
   93          1
                                   No pseudopotential on this center.
   94          6
                                   No pseudopotential on this center.
   95          8
                                   No pseudopotential on this center.
   96          7
                                   No pseudopotential on this center.
   97          6
                                   No pseudopotential on this center.
   98          1
                                   No pseudopotential on this center.
   99          1
                                   No pseudopotential on this center.
  100          1
                                   No pseudopotential on this center.
  101          6
                                   No pseudopotential on this center.
  102          1
                                   No pseudopotential on this center.
  103          1
                                   No pseudopotential on this center.
  104          1
                                   No pseudopotential on this center.
  105          1
                                   No pseudopotential on this center.
  106          6
                                   No pseudopotential on this center.
  107          9
                                   No pseudopotential on this center.
  108          9
                                   No pseudopotential on this center.
  109          9
                                   No pseudopotential on this center.
 ======================================================================================================
 There are   942 symmetry adapted cartesian basis functions of A   symmetry.
 There are   886 symmetry adapted basis functions of A   symmetry.
   886 basis functions,  1771 primitive gaussians,   942 cartesian basis functions
   209 alpha electrons      209 beta electrons
       nuclear repulsion energy      9334.4571632061 Hartrees.
 NAtoms=  109 NActive=  109 NUniq=  109 SFac= 1.00D+00 NAtFMM=   60 NAOKFM=T Big=T
 Integral buffers will be    131072 words long.
 Raffenetti 2 integral format.
 Two-electron integral symmetry is turned on.
 One-electron integrals computed using PRISM.
   1 Symmetry operations used in ECPInt.
 ECPInt:  NShTT=   55278 NPrTT=  342696 LenC2=   41373 LenP2D=  127318.
 LDataN:  DoStor=T MaxTD1= 6 Len=  172
 NBasis=   886 RedAO= T EigKep=  4.49D-04  NBF=   886
 NBsUse=   886 1.00D-06 EigRej= -1.00D+00 NBFU=   886
 Defaulting to unpruned grid for atomic number  77.
 ExpMin= 2.90D-02 ExpMax= 7.00D+03 ExpMxC= 1.05D+03 IAcc=3 IRadAn=         5 AccDes= 0.00D+00
 Harris functional with IExCor= 1009 and IRadAn=       5 diagonalized for initial guess.
 HarFok:  IExCor= 1009 AccDes= 0.00D+00 IRadAn=         5 IDoV= 1 UseB2=F ITyADJ=14
 ICtDFT=  3500011 ScaDFX=  1.000000  1.000000  1.000000  1.000000
 Defaulting to unpruned grid for atomic number  77.
 FoFCou: FMM=F IPFlag=           0 FMFlag=      100000 FMFlg1=        2001
         NFxFlg=           0 DoJE=T BraDBF=F KetDBF=T FulRan=T
         wScrn=  0.000000 ICntrl=       500 IOpCl=  0 I1Cent=   200000004 NGrid=           0
         NMat0=    1 NMatS0=      1 NMatT0=    0 NMatD0=    1 NMtDS0=    0 NMtDT0=    0
 Petite list used in FoFCou.
 Requested convergence on RMS density matrix=1.00D-08 within 128 cycles.
 Requested convergence on MAX density matrix=1.00D-06.
 Requested convergence on             energy=1.00D-06.
 No special actions if energy rises.
 Defaulting to unpruned grid for atomic number  77.
 Defaulting to unpruned grid for atomic number  77.
 Defaulting to unpruned grid for atomic number  77.
 Defaulting to unpruned grid for atomic number  77.
 Defaulting to unpruned grid for atomic number  77.
 Defaulting to unpruned grid for atomic number  77.
 Defaulting to unpruned grid for atomic number  77.
 Defaulting to unpruned grid for atomic number  77.
 Defaulting to unpruned grid for atomic number  77.
 Defaulting to unpruned grid for atomic number  77.
 Defaulting to unpruned grid for atomic number  77.
 Defaulting to unpruned grid for atomic number  77.
 Defaulting to unpruned grid for atomic number  77.
 Defaulting to unpruned grid for atomic number  77.
 Defaulting to unpruned grid for atomic number  77.
 Defaulting to unpruned grid for atomic number  77.
 SCF Done:  E(RM06) =  -2648.90482988     A.U. after   15 cycles
            NFock= 15  Conv=0.62D-08     -V/T= 2.0341
 DoSCS=F DFT=T ScalE2(SS,OS)=  1.000000  1.000000
 Range of M.O.s used for correlation:     1   886
 NBasis=   886 NAE=   209 NBE=   209 NFC=     0 NFV=     0
 NROrb=    886 NOA=   209 NOB=   209 NVA=   677 NVB=   677

 **** Warning!!: The largest alpha MO coefficient is  0.12971038D+02

   1 Symmetry operations used in ECPInt.
 ECPInt:  NShTT=   55278 NPrTT=  342696 LenC2=   41373 LenP2D=  127318.
 LDataN:  DoStor=T MaxTD1= 7 Len=  274
 Number of processors reduced to   7 by ecpmxn.
 Symmetrizing basis deriv contribution to polar:
 IMax=3 JMax=2 DiffMx= 0.00D+00
 G2DrvN: will do   110 centers at a time, making    1 passes.
 Calling FoFCou, ICntrl=  3107 FMM=T I1Cent=   0 AccDes= 0.00D+00.
 Defaulting to unpruned grid for atomic number  77.
 Defaulting to unpruned grid for atomic number  77.
 Defaulting to unpruned grid for atomic number  77.
 Defaulting to unpruned grid for atomic number  77.
 Defaulting to unpruned grid for atomic number  77.
 Defaulting to unpruned grid for atomic number  77.
 Defaulting to unpruned grid for atomic number  77.
 Defaulting to unpruned grid for atomic number  77.
 Defaulting to unpruned grid for atomic number  77.
 Defaulting to unpruned grid for atomic number  77.
 Defaulting to unpruned grid for atomic number  77.
 Defaulting to unpruned grid for atomic number  77.
 Defaulting to unpruned grid for atomic number  77.
 Defaulting to unpruned grid for atomic number  77.
 Defaulting to unpruned grid for atomic number  77.
 Defaulting to unpruned grid for atomic number  77.
 End of G2Drv F.D. properties file   721 does not exist.
 End of G2Drv F.D. properties file   722 does not exist.
 End of G2Drv F.D. properties file   788 does not exist.
          IDoAtm=11111111111111111111111111111111111111111111111111
          IDoAtm=11111111111111111111111111111111111111111111111111
          IDoAtm=111111111
          Differentiating once with respect to electric field.
                with respect to dipole field.
          Differentiating once with respect to nuclear coordinates.
 Defaulting to unpruned grid for atomic number  77.
 CalDSu exits because no D1Ps are significant.
 Defaulting to unpruned grid for atomic number  77.
 Defaulting to unpruned grid for atomic number  77.
 Defaulting to unpruned grid for atomic number  77.
 Defaulting to unpruned grid for atomic number  77.
 Defaulting to unpruned grid for atomic number  77.
 Defaulting to unpruned grid for atomic number  77.
 Defaulting to unpruned grid for atomic number  77.
 Defaulting to unpruned grid for atomic number  77.
 Defaulting to unpruned grid for atomic number  77.
 Defaulting to unpruned grid for atomic number  77.
 Defaulting to unpruned grid for atomic number  77.
 Defaulting to unpruned grid for atomic number  77.
 Defaulting to unpruned grid for atomic number  77.
 Defaulting to unpruned grid for atomic number  77.
 Defaulting to unpruned grid for atomic number  77.
 Defaulting to unpruned grid for atomic number  77.
          There are   330 degrees of freedom in the 1st order CPHF.  IDoFFX=6 NUNeed=     3.
    327 vectors produced by pass  0 Test12= 1.41D-13 1.00D-09 XBig12= 4.84D+02 5.15D+00.
 AX will form    72 AO Fock derivatives at one time.
    327 vectors produced by pass  1 Test12= 1.41D-13 1.00D-09 XBig12= 7.63D+01 9.02D-01.
    327 vectors produced by pass  2 Test12= 1.41D-13 1.00D-09 XBig12= 8.86D-01 9.52D-02.
    327 vectors produced by pass  3 Test12= 1.41D-13 1.00D-09 XBig12= 5.99D-03 5.45D-03.
    327 vectors produced by pass  4 Test12= 1.41D-13 1.00D-09 XBig12= 1.98D-05 4.04D-04.
    300 vectors produced by pass  5 Test12= 1.41D-13 1.00D-09 XBig12= 3.87D-08 1.28D-05.
     94 vectors produced by pass  6 Test12= 1.41D-13 1.00D-09 XBig12= 5.88D-11 4.95D-07.
      3 vectors produced by pass  7 Test12= 1.41D-13 1.00D-09 XBig12= 8.38D-14 1.86D-08.
 InvSVY:  IOpt=1 It=  1 EMax= 2.49D-14
 Solved reduced A of dimension  2032 with   330 vectors.
 Isotropic polarizability for W=    0.000000      516.38 Bohr**3.
 End of Minotr F.D. properties file   721 does not exist.
 End of Minotr F.D. properties file   722 does not exist.
 End of Minotr F.D. properties file   788 does not exist.
 Hyperfine terms turned off by default for NAtoms > 100.

 **********************************************************************

            Population analysis using the SCF Density.

 **********************************************************************

 Orbital symmetries:
       Occupied  (A) (A) (A) (A) (A) (A) (A) (A) (A) (A) (A) (A)
                 (A) (A) (A) (A) (A) (A) (A) (A) (A) (A) (A) (A)
                 (A) (A) (A) (A) (A) (A) (A) (A) (A) (A) (A) (A)
                 (A) (A) (A) (A) (A) (A) (A) (A) (A) (A) (A) (A)
                 (A) (A) (A) (A) (A) (A) (A) (A) (A) (A) (A) (A)
                 (A) (A) (A) (A) (A) (A) (A) (A) (A) (A) (A) (A)
                 (A) (A) (A) (A) (A) (A) (A) (A) (A) (A) (A) (A)
                 (A) (A) (A) (A) (A) (A) (A) (A) (A) (A) (A) (A)
                 (A) (A) (A) (A) (A) (A) (A) (A) (A) (A) (A) (A)
                 (A) (A) (A) (A) (A) (A) (A) (A) (A) (A) (A) (A)
                 (A) (A) (A) (A) (A) (A) (A) (A) (A) (A) (A) (A)
                 (A) (A) (A) (A) (A) (A) (A) (A) (A) (A) (A) (A)
                 (A) (A) (A) (A) (A) (A) (A) (A) (A) (A) (A) (A)
                 (A) (A) (A) (A) (A) (A) (A) (A) (A) (A) (A) (A)
                 (A) (A) (A) (A) (A) (A) (A) (A) (A) (A) (A) (A)
                 (A) (A) (A) (A) (A) (A) (A) (A) (A) (A) (A) (A)
                 (A) (A) (A) (A) (A) (A) (A) (A) (A) (A) (A) (A)
                 (A) (A) (A) (A) (A)
       Virtual   (A) (A) (A) (A) (A) (A) (A) (A) (A) (A) (A) (A)
                 (A) (A) (A) (A) (A) (A) (A) (A) (A) (A) (A) (A)
                 (A) (A) (A) (A) (A) (A) (A) (A) (A) (A) (A) (A)
                 (A) (A) (A) (A) (A) (A) (A) (A) (A) (A) (A) (A)
                 (A) (A) (A) (A) (A) (A) (A) (A) (A) (A) (A) (A)
                 (A) (A) (A) (A) (A) (A) (A) (A) (A) (A) (A) (A)
                 (A) (A) (A) (A) (A) (A) (A) (A) (A) (A) (A) (A)
                 (A) (A) (A) (A) (A) (A) (A) (A) (A) (A) (A) (A)
                 (A) (A) (A) (A) (A) (A) (A) (A) (A) (A) (A) (A)
                 (A) (A) (A) (A) (A) (A) (A) (A) (A) (A) (A) (A)
                 (A) (A) (A) (A) (A) (A) (A) (A) (A) (A) (A) (A)
                 (A) (A) (A) (A) (A) (A) (A) (A) (A) (A) (A) (A)
                 (A) (A) (A) (A) (A) (A) (A) (A) (A) (A) (A) (A)
                 (A) (A) (A) (A) (A) (A) (A) (A) (A) (A) (A) (A)
                 (A) (A) (A) (A) (A) (A) (A) (A) (A) (A) (A) (A)
                 (A) (A) (A) (A) (A) (A) (A) (A) (A) (A) (A) (A)
                 (A) (A) (A) (A) (A) (A) (A) (A) (A) (A) (A) (A)
                 (A) (A) (A) (A) (A) (A) (A) (A) (A) (A) (A) (A)
                 (A) (A) (A) (A) (A) (A) (A) (A) (A) (A) (A) (A)
                 (A) (A) (A) (A) (A) (A) (A) (A) (A) (A) (A) (A)
                 (A) (A) (A) (A) (A) (A) (A) (A) (A) (A) (A) (A)
                 (A) (A) (A) (A) (A) (A) (A) (A) (A) (A) (A) (A)
                 (A) (A) (A) (A) (A) (A) (A) (A) (A) (A) (A) (A)
                 (A) (A) (A) (A) (A) (A) (A) (A) (A) (A) (A) (A)
                 (A) (A) (A) (A) (A) (A) (A) (A) (A) (A) (A) (A)
                 (A) (A) (A) (A) (A) (A) (A) (A) (A) (A) (A) (A)
                 (A) (A) (A) (A) (A) (A) (A) (A) (A) (A) (A) (A)
                 (A) (A) (A) (A) (A) (A) (A) (A) (A) (A) (A) (A)
                 (A) (A) (A) (A) (A) (A) (A) (A) (A) (A) (A) (A)
                 (A) (A) (A) (A) (A) (A) (A) (A) (A) (A) (A) (A)
                 (A) (A) (A) (A) (A) (A) (A) (A) (A) (A) (A) (A)
                 (A) (A) (A) (A) (A) (A) (A) (A) (A) (A) (A) (A)
                 (A) (A) (A) (A) (A) (A) (A) (A) (A) (A) (A) (A)
                 (A) (A) (A) (A) (A) (A) (A) (A) (A) (A) (A) (A)
                 (A) (A) (A) (A) (A) (A) (A) (A) (A) (A) (A) (A)
                 (A) (A) (A) (A) (A) (A) (A) (A) (A) (A) (A) (A)
                 (A) (A) (A) (A) (A) (A) (A) (A) (A) (A) (A) (A)
                 (A) (A) (A) (A) (A) (A) (A) (A) (A) (A) (A) (A)
                 (A) (A) (A) (A) (A) (A) (A) (A) (A) (A) (A) (A)
                 (A) (A) (A) (A) (A) (A) (A) (A) (A) (A) (A) (A)
                 (A) (A) (A) (A) (A) (A) (A) (A) (A) (A) (A) (A)
                 (A) (A) (A) (A) (A) (A) (A) (A) (A) (A) (A) (A)
                 (A) (A) (A) (A) (A) (A) (A) (A) (A) (A) (A) (A)
                 (A) (A) (A) (A) (A) (A) (A) (A) (A) (A) (A) (A)
                 (A) (A) (A) (A) (A) (A) (A) (A) (A) (A) (A) (A)
                 (A) (A) (A) (A) (A) (A) (A) (A) (A) (A) (A) (A)
                 (A) (A) (A) (A) (A) (A) (A) (A) (A) (A) (A) (A)
                 (A) (A) (A) (A) (A) (A) (A) (A) (A) (A) (A) (A)
                 (A) (A) (A) (A) (A) (A) (A) (A) (A) (A) (A) (A)
                 (A) (A) (A) (A) (A) (A) (A) (A) (A) (A) (A) (A)
                 (A) (A) (A) (A) (A) (A) (A) (A) (A) (A) (A) (A)
                 (A) (A) (A) (A) (A) (A) (A) (A) (A) (A) (A) (A)
                 (A) (A) (A) (A) (A) (A) (A) (A) (A) (A) (A) (A)
                 (A) (A) (A) (A) (A) (A) (A) (A) (A) (A) (A) (A)
                 (A) (A) (A) (A) (A) (A) (A) (A) (A) (A) (A) (A)
                 (A) (A) (A) (A) (A) (A) (A) (A) (A) (A) (A) (A)
                 (A) (A) (A) (A) (A)
 The electronic state is 1-A.
 Alpha  occ. eigenvalues --  -24.84050 -24.83496 -24.83440 -19.21122 -19.20870
 Alpha  occ. eigenvalues --  -19.20819 -19.20417 -19.20341 -19.19362 -19.17429
 Alpha  occ. eigenvalues --  -14.46103 -14.45692 -14.41694 -10.52176 -10.33691
 Alpha  occ. eigenvalues --  -10.33362 -10.33222 -10.31861 -10.30807 -10.30754
 Alpha  occ. eigenvalues --  -10.30213 -10.30112 -10.29871 -10.29835 -10.29787
 Alpha  occ. eigenvalues --  -10.29532 -10.29415 -10.29374 -10.29193 -10.28775
 Alpha  occ. eigenvalues --  -10.28625 -10.27386 -10.25889 -10.24468 -10.24095
 Alpha  occ. eigenvalues --  -10.23687 -10.23577 -10.23552 -10.23439 -10.23337
 Alpha  occ. eigenvalues --  -10.23275 -10.23264 -10.23024 -10.22833 -10.22704
 Alpha  occ. eigenvalues --  -10.22452 -10.22439 -10.22330 -10.22300 -10.22078
 Alpha  occ. eigenvalues --  -10.21300  -6.81039  -6.80376  -6.79280  -3.63713
 Alpha  occ. eigenvalues --   -2.06239  -2.06027  -2.04662  -1.36554  -1.28058
 Alpha  occ. eigenvalues --   -1.27513  -1.06891  -1.06594  -1.05878  -1.03512
 Alpha  occ. eigenvalues --   -1.01224  -0.99885  -0.99634  -0.98906  -0.98733
 Alpha  occ. eigenvalues --   -0.93474  -0.87058  -0.85000  -0.84811  -0.84339
 Alpha  occ. eigenvalues --   -0.81077  -0.80555  -0.80092  -0.79961  -0.75531
 Alpha  occ. eigenvalues --   -0.75450  -0.75015  -0.74595  -0.74476  -0.73564
 Alpha  occ. eigenvalues --   -0.71883  -0.71105  -0.70408  -0.70074  -0.69613
 Alpha  occ. eigenvalues --   -0.69508  -0.68867  -0.68297  -0.67727  -0.67245
 Alpha  occ. eigenvalues --   -0.66211  -0.65254  -0.62525  -0.62436  -0.62395
 Alpha  occ. eigenvalues --   -0.61750  -0.61278  -0.61157  -0.60767  -0.59204
 Alpha  occ. eigenvalues --   -0.58020  -0.55240  -0.55049  -0.54749  -0.54525
 Alpha  occ. eigenvalues --   -0.54287  -0.53943  -0.53503  -0.53174  -0.52920
 Alpha  occ. eigenvalues --   -0.51810  -0.51240  -0.49981  -0.49923  -0.49604
 Alpha  occ. eigenvalues --   -0.48372  -0.48325  -0.48104  -0.47527  -0.47451
 Alpha  occ. eigenvalues --   -0.47278  -0.47002  -0.46862  -0.46699  -0.46618
 Alpha  occ. eigenvalues --   -0.46497  -0.46097  -0.45878  -0.45716  -0.45293
 Alpha  occ. eigenvalues --   -0.45139  -0.44834  -0.44633  -0.44279  -0.44208
 Alpha  occ. eigenvalues --   -0.44000  -0.43886  -0.43780  -0.43310  -0.43266
 Alpha  occ. eigenvalues --   -0.43028  -0.41868  -0.40885  -0.40729  -0.40551
 Alpha  occ. eigenvalues --   -0.40503  -0.40366  -0.40271  -0.40163  -0.40087
 Alpha  occ. eigenvalues --   -0.40067  -0.39879  -0.39783  -0.39768  -0.39598
 Alpha  occ. eigenvalues --   -0.39501  -0.39071  -0.38777  -0.38665  -0.38374
 Alpha  occ. eigenvalues --   -0.38153  -0.37712  -0.37376  -0.37244  -0.37235
 Alpha  occ. eigenvalues --   -0.36867  -0.36802  -0.36613  -0.36424  -0.36154
 Alpha  occ. eigenvalues --   -0.36008  -0.35746  -0.35648  -0.35363  -0.35195
 Alpha  occ. eigenvalues --   -0.34596  -0.34432  -0.34386  -0.33957  -0.33667
 Alpha  occ. eigenvalues --   -0.33136  -0.33025  -0.32623  -0.32370  -0.32147
 Alpha  occ. eigenvalues --   -0.31754  -0.31430  -0.30868  -0.30384  -0.30052
 Alpha  occ. eigenvalues --   -0.29871  -0.28102  -0.28034  -0.27028  -0.26579
 Alpha  occ. eigenvalues --   -0.26213  -0.25737  -0.25344  -0.24135  -0.23741
 Alpha  occ. eigenvalues --   -0.23464  -0.22845  -0.22523  -0.21103
 Alpha virt. eigenvalues --   -0.08590  -0.05271  -0.04116  -0.00676  -0.00105
 Alpha virt. eigenvalues --    0.01142   0.03359   0.04592   0.05712   0.06159
 Alpha virt. eigenvalues --    0.06768   0.06952   0.07538   0.07717   0.08606
 Alpha virt. eigenvalues --    0.09307   0.09482   0.09833   0.10387   0.10400
 Alpha virt. eigenvalues --    0.11098   0.11527   0.11561   0.12148   0.12476
 Alpha virt. eigenvalues --    0.12562   0.12881   0.13294   0.13421   0.14095
 Alpha virt. eigenvalues --    0.14335   0.14611   0.14861   0.14946   0.15109
 Alpha virt. eigenvalues --    0.15232   0.15343   0.15506   0.15664   0.15816
 Alpha virt. eigenvalues --    0.15891   0.16119   0.16296   0.16484   0.16767
 Alpha virt. eigenvalues --    0.16944   0.17218   0.17526   0.17708   0.17846
 Alpha virt. eigenvalues --    0.18015   0.18353   0.18526   0.18593   0.18686
 Alpha virt. eigenvalues --    0.18948   0.19328   0.19396   0.19667   0.19790
 Alpha virt. eigenvalues --    0.19907   0.20037   0.20107   0.20373   0.20596
 Alpha virt. eigenvalues --    0.20708   0.21002   0.21083   0.21352   0.21803
 Alpha virt. eigenvalues --    0.21996   0.22077   0.22304   0.22439   0.22671
 Alpha virt. eigenvalues --    0.22876   0.23158   0.23491   0.23734   0.23828
 Alpha virt. eigenvalues --    0.23979   0.24394   0.24622   0.24856   0.25077
 Alpha virt. eigenvalues --    0.25391   0.25762   0.25910   0.26297   0.26701
 Alpha virt. eigenvalues --    0.26753   0.27060   0.27361   0.27797   0.27982
 Alpha virt. eigenvalues --    0.28372   0.28792   0.29435   0.30093   0.30502
 Alpha virt. eigenvalues --    0.30700   0.30842   0.31330   0.32014   0.32615
 Alpha virt. eigenvalues --    0.33005   0.33190   0.33784   0.34187   0.34231
 Alpha virt. eigenvalues --    0.35262   0.35464   0.35742   0.35928   0.36114
 Alpha virt. eigenvalues --    0.36914   0.38223   0.38521   0.38951   0.40147
 Alpha virt. eigenvalues --    0.40831   0.41425   0.43177   0.43508   0.45080
 Alpha virt. eigenvalues --    0.45884   0.46729   0.46808   0.48073   0.48600
 Alpha virt. eigenvalues --    0.48734   0.48941   0.49305   0.49574   0.50112
 Alpha virt. eigenvalues --    0.50227   0.50785   0.51177   0.51261   0.51584
 Alpha virt. eigenvalues --    0.51967   0.52152   0.52752   0.53092   0.53734
 Alpha virt. eigenvalues --    0.54021   0.54488   0.54784   0.55295   0.55642
 Alpha virt. eigenvalues --    0.55822   0.55943   0.56190   0.56615   0.56877
 Alpha virt. eigenvalues --    0.57054   0.57309   0.57396   0.57666   0.57846
 Alpha virt. eigenvalues --    0.58266   0.58475   0.58509   0.58719   0.59044
 Alpha virt. eigenvalues --    0.59105   0.59396   0.59426   0.59885   0.60096
 Alpha virt. eigenvalues --    0.60492   0.60722   0.60988   0.61178   0.61328
 Alpha virt. eigenvalues --    0.62018   0.62348   0.62772   0.62976   0.63449
 Alpha virt. eigenvalues --    0.63763   0.64044   0.64443   0.64936   0.65105
 Alpha virt. eigenvalues --    0.65543   0.65696   0.66168   0.66568   0.66783
 Alpha virt. eigenvalues --    0.67150   0.67589   0.67725   0.67993   0.68606
 Alpha virt. eigenvalues --    0.69225   0.69564   0.69623   0.69743   0.70299
 Alpha virt. eigenvalues --    0.70589   0.71170   0.71482   0.71602   0.71811
 Alpha virt. eigenvalues --    0.72274   0.72517   0.72709   0.73076   0.73585
 Alpha virt. eigenvalues --    0.73679   0.73820   0.74378   0.74564   0.75111
 Alpha virt. eigenvalues --    0.75236   0.75641   0.76132   0.76227   0.76379
 Alpha virt. eigenvalues --    0.77071   0.77112   0.77495   0.78076   0.78172
 Alpha virt. eigenvalues --    0.78319   0.79274   0.79390   0.79783   0.80292
 Alpha virt. eigenvalues --    0.80821   0.81251   0.81786   0.82039   0.82341
 Alpha virt. eigenvalues --    0.82779   0.82845   0.83337   0.83387   0.83510
 Alpha virt. eigenvalues --    0.83803   0.84140   0.84579   0.84725   0.84914
 Alpha virt. eigenvalues --    0.85147   0.85362   0.85494   0.85919   0.86108
 Alpha virt. eigenvalues --    0.86226   0.86397   0.86605   0.86767   0.87061
 Alpha virt. eigenvalues --    0.87463   0.87763   0.88311   0.88529   0.88821
 Alpha virt. eigenvalues --    0.89088   0.89335   0.89454   0.89926   0.90031
 Alpha virt. eigenvalues --    0.90118   0.90320   0.90518   0.90797   0.90968
 Alpha virt. eigenvalues --    0.91253   0.91542   0.91654   0.91880   0.91954
 Alpha virt. eigenvalues --    0.92236   0.93046   0.93429   0.93652   0.94116
 Alpha virt. eigenvalues --    0.94450   0.94617   0.94957   0.95028   0.95614
 Alpha virt. eigenvalues --    0.95970   0.96117   0.96367   0.96482   0.96671
 Alpha virt. eigenvalues --    0.97042   0.97568   0.97957   0.98313   0.98821
 Alpha virt. eigenvalues --    0.99036   0.99491   1.00065   1.00972   1.01128
 Alpha virt. eigenvalues --    1.01215   1.02018   1.02404   1.02656   1.03276
 Alpha virt. eigenvalues --    1.03619   1.03771   1.04058   1.04640   1.04932
 Alpha virt. eigenvalues --    1.05487   1.06087   1.06538   1.07263   1.08073
 Alpha virt. eigenvalues --    1.08422   1.08730   1.09370   1.09528   1.09824
 Alpha virt. eigenvalues --    1.11618   1.11668   1.12372   1.12670   1.12768
 Alpha virt. eigenvalues --    1.13571   1.14295   1.15248   1.15863   1.16602
 Alpha virt. eigenvalues --    1.16800   1.17260   1.17842   1.18244   1.18541
 Alpha virt. eigenvalues --    1.18637   1.19612   1.19773   1.20045   1.20802
 Alpha virt. eigenvalues --    1.21062   1.21235   1.22336   1.22435   1.23231
 Alpha virt. eigenvalues --    1.23964   1.24279   1.24672   1.24979   1.26132
 Alpha virt. eigenvalues --    1.26373   1.27172   1.27616   1.27833   1.28264
 Alpha virt. eigenvalues --    1.28836   1.30159   1.30382   1.31924   1.31981
 Alpha virt. eigenvalues --    1.32481   1.33185   1.33906   1.34643   1.35418
 Alpha virt. eigenvalues --    1.35617   1.36156   1.36283   1.37080   1.37546
 Alpha virt. eigenvalues --    1.38154   1.38550   1.38747   1.39413   1.39869
 Alpha virt. eigenvalues --    1.40774   1.40892   1.40989   1.41417   1.41776
 Alpha virt. eigenvalues --    1.42103   1.43452   1.44005   1.44073   1.44827
 Alpha virt. eigenvalues --    1.45140   1.45469   1.45802   1.46006   1.46727
 Alpha virt. eigenvalues --    1.47132   1.47386   1.48189   1.48764   1.48957
 Alpha virt. eigenvalues --    1.49766   1.50496   1.50674   1.51043   1.51172
 Alpha virt. eigenvalues --    1.51969   1.52516   1.52670   1.53197   1.53710
 Alpha virt. eigenvalues --    1.55422   1.55624   1.56711   1.57344   1.58063
 Alpha virt. eigenvalues --    1.58572   1.59953   1.60147   1.61378   1.62070
 Alpha virt. eigenvalues --    1.62580   1.63707   1.64201   1.64951   1.65249
 Alpha virt. eigenvalues --    1.65428   1.66022   1.66610   1.67434   1.67888
 Alpha virt. eigenvalues --    1.68849   1.69455   1.70142   1.70310   1.71039
 Alpha virt. eigenvalues --    1.71464   1.71951   1.72821   1.72948   1.74695
 Alpha virt. eigenvalues --    1.74897   1.76063   1.76612   1.76943   1.77447
 Alpha virt. eigenvalues --    1.77662   1.78168   1.78572   1.79094   1.79593
 Alpha virt. eigenvalues --    1.80332   1.81059   1.81412   1.81633   1.81895
 Alpha virt. eigenvalues --    1.82233   1.82527   1.83072   1.83638   1.83936
 Alpha virt. eigenvalues --    1.84344   1.84699   1.85567   1.85940   1.86221
 Alpha virt. eigenvalues --    1.86702   1.87230   1.87439   1.87795   1.87989
 Alpha virt. eigenvalues --    1.88432   1.89135   1.89655   1.89698   1.90267
 Alpha virt. eigenvalues --    1.90920   1.91250   1.91647   1.91743   1.91890
 Alpha virt. eigenvalues --    1.92099   1.92327   1.92607   1.92921   1.93066
 Alpha virt. eigenvalues --    1.93523   1.93809   1.93967   1.94639   1.95597
 Alpha virt. eigenvalues --    1.95614   1.96054   1.97087   1.97310   1.97448
 Alpha virt. eigenvalues --    1.97890   1.98366   1.99541   2.00004   2.00942
 Alpha virt. eigenvalues --    2.01282   2.01433   2.01853   2.02202   2.02336
 Alpha virt. eigenvalues --    2.02602   2.03107   2.03931   2.04425   2.04823
 Alpha virt. eigenvalues --    2.04952   2.05364   2.05766   2.05958   2.06373
 Alpha virt. eigenvalues --    2.06535   2.07135   2.07435   2.07630   2.07761
 Alpha virt. eigenvalues --    2.08537   2.08882   2.09148   2.09838   2.10009
 Alpha virt. eigenvalues --    2.10420   2.10550   2.10963   2.11180   2.11745
 Alpha virt. eigenvalues --    2.11869   2.12294   2.12571   2.13302   2.13811
 Alpha virt. eigenvalues --    2.14181   2.14478   2.14934   2.15092   2.15351
 Alpha virt. eigenvalues --    2.15738   2.16003   2.16358   2.16812   2.16927
 Alpha virt. eigenvalues --    2.17540   2.17854   2.18215   2.18454   2.18493
 Alpha virt. eigenvalues --    2.19251   2.19621   2.19875   2.20297   2.20582
 Alpha virt. eigenvalues --    2.20976   2.21539   2.21786   2.22513   2.23113
 Alpha virt. eigenvalues --    2.23268   2.23854   2.24064   2.24530   2.25263
 Alpha virt. eigenvalues --    2.25342   2.25517   2.26236   2.26699   2.27005
 Alpha virt. eigenvalues --    2.27606   2.27929   2.28355   2.29017   2.29547
 Alpha virt. eigenvalues --    2.30737   2.31259   2.31386   2.31806   2.32142
 Alpha virt. eigenvalues --    2.32891   2.33072   2.33329   2.33731   2.34766
 Alpha virt. eigenvalues --    2.34982   2.36009   2.36777   2.37397   2.37943
 Alpha virt. eigenvalues --    2.38199   2.38653   2.39537   2.40509   2.40842
 Alpha virt. eigenvalues --    2.40874   2.43257   2.44806   2.45061   2.46102
 Alpha virt. eigenvalues --    2.47458   2.47677   2.47968   2.48698   2.49095
 Alpha virt. eigenvalues --    2.49360   2.49620   2.50538   2.50978   2.52265
 Alpha virt. eigenvalues --    2.53046   2.55817   2.56757   2.58574   2.59449
 Alpha virt. eigenvalues --    2.59694   2.60066   2.60394   2.60540   2.61793
 Alpha virt. eigenvalues --    2.62160   2.63759   2.64060   2.64901   2.65087
 Alpha virt. eigenvalues --    2.65240   2.66170   2.67469   2.67689   2.68539
 Alpha virt. eigenvalues --    2.69467   2.70524   2.72173   2.75844   2.76285
 Alpha virt. eigenvalues --    2.77086   2.77802   2.78314   2.78795   2.79019
 Alpha virt. eigenvalues --    2.79711   2.79987   2.80460   2.80578   2.81119
 Alpha virt. eigenvalues --    2.81468   2.81766   2.82290   2.83288   2.83743
 Alpha virt. eigenvalues --    2.84809   2.85780   2.87988   2.88435   2.88944
 Alpha virt. eigenvalues --    2.90856   2.91227   2.92964   2.93909   2.94707
 Alpha virt. eigenvalues --    2.95565   2.96298   2.97166   2.98438   3.02398
 Alpha virt. eigenvalues --    3.03235   3.04867   3.06219   3.06265   3.08291
 Alpha virt. eigenvalues --    3.09078   3.11151   3.11834   3.13035   3.15097
 Alpha virt. eigenvalues --    3.15311   3.21213   3.26148   3.30517   3.39327
 Alpha virt. eigenvalues --    3.44064  14.59138
          Condensed to atoms (all electrons):
 Mulliken charges:
               1
     1  C    0.306128
     2  C    0.025677
     3  C   -0.080204
     4  C   -0.155705
     5  C   -0.193757
     6  C    0.299720
     7  C    0.049299
     8  C   -0.172601
     9  C   -0.138088
    10  C   -0.183166
    11  H    0.239126
    12  H    0.201305
    13  H    0.178495
    14  H    0.245938
    15  H    0.186492
    16  H    0.172434
    17  N   -0.459026
    18  N   -0.497862
    19  Ir  -0.247749
    20  O   -0.504159
    21  O   -0.524187
    22  O   -0.500128
    23  B    0.505215
    24  B    0.520767
    25  B    0.513906
    26  O   -0.522526
    27  O   -0.545785
    28  C    0.304734
    29  C    0.286876
    30  C    0.288478
    31  C    0.296192
    32  C    0.290673
    33  C    0.299493
    34  O   -0.525513
    35  C   -0.512939
    36  H    0.146977
    37  H    0.167791
    38  H    0.173030
    39  C   -0.497884
    40  H    0.157450
    41  H    0.138569
    42  H    0.185174
    43  C   -0.511730
    44  H    0.159178
    45  H    0.153921
    46  H    0.179455
    47  C   -0.508856
    48  H    0.150499
    49  H    0.158917
    50  H    0.175805
    51  C   -0.502337
    52  H    0.164040
    53  H    0.147606
    54  H    0.189606
    55  C   -0.506345
    56  H    0.154455
    57  H    0.166843
    58  H    0.161277
    59  C   -0.515476
    60  H    0.151760
    61  H    0.169867
    62  H    0.179416
    63  C   -0.516809
    64  H    0.157998
    65  H    0.151555
    66  H    0.181583
    67  C   -0.508937
    68  H    0.167793
    69  H    0.169953
    70  H    0.152325
    71  C   -0.498452
    72  H    0.157945
    73  H    0.155064
    74  H    0.156005
    75  C   -0.509113
    76  H    0.150044
    77  H    0.169046
    78  H    0.166606
    79  C   -0.496480
    80  H    0.166206
    81  H    0.145797
    82  H    0.174137
    83  H    0.188599
    84  C    0.053138
    85  C   -0.184536
    86  C   -0.182814
    87  C   -0.154573
    88  C   -0.127137
    89  H    0.145113
    90  C   -0.164810
    91  H    0.148881
    92  H    0.266228
    93  H    0.172488
    94  C    0.507476
    95  O   -0.507280
    96  N   -0.399938
    97  C   -0.363477
    98  H    0.190150
    99  H    0.163315
   100  H    0.150282
   101  C   -0.368984
   102  H    0.217555
   103  H    0.166359
   104  H    0.163304
   105  H    0.139808
   106  C    0.971679
   107  F   -0.302011
   108  F   -0.316162
   109  F   -0.301479
 Sum of Mulliken charges =  -0.00000
 Mulliken charges with hydrogens summed into heavy atoms:
               1
     1  C    0.306128
     2  C    0.264804
     3  C   -0.080204
     4  C    0.045600
     5  C   -0.015262
     6  C    0.299720
     7  C    0.295237
     8  C    0.015998
     9  C    0.048404
    10  C   -0.010732
    17  N   -0.459026
    18  N   -0.497862
    19  Ir  -0.247749
    20  O   -0.504159
    21  O   -0.524187
    22  O   -0.500128
    23  B    0.505215
    24  B    0.520767
    25  B    0.513906
    26  O   -0.522526
    27  O   -0.545785
    28  C    0.304734
    29  C    0.286876
    30  C    0.288478
    31  C    0.296192
    32  C    0.290673
    33  C    0.299493
    34  O   -0.525513
    35  C   -0.025141
    39  C   -0.016691
    43  C   -0.019175
    47  C   -0.023635
    51  C   -0.001085
    55  C   -0.023770
    59  C   -0.014433
    63  C   -0.025674
    67  C   -0.018867
    71  C   -0.029438
    75  C   -0.023417
    79  C   -0.010340
    84  C    0.053138
    85  C   -0.012048
    86  C   -0.037701
    87  C   -0.005692
    88  C    0.139091
    90  C   -0.025002
    94  C    0.507476
    95  O   -0.507280
    96  N   -0.399938
    97  C    0.140270
   101  C    0.178234
   106  C    0.971679
   107  F   -0.302011
   108  F   -0.316162
   109  F   -0.301479
 APT charges:
               1
     1  C    0.251109
     2  C    0.070108
     3  C   -0.224335
     4  C    0.107793
     5  C   -0.189850
     6  C    0.149298
     7  C    0.024217
     8  C   -0.051473
     9  C    0.108290
    10  C   -0.167250
    11  H    0.146985
    12  H    0.069171
    13  H    0.043067
    14  H    0.156467
    15  H    0.033271
    16  H    0.041626
    17  N   -0.237911
    18  N   -0.119065
    19  Ir  -1.131275
    20  O   -0.956259
    21  O   -0.996854
    22  O   -0.944418
    23  B    1.329796
    24  B    1.286131
    25  B    1.228295
    26  O   -0.930036
    27  O   -1.033627
    28  C    0.525283
    29  C    0.482272
    30  C    0.467821
    31  C    0.448725
    32  C    0.488109
    33  C    0.491218
    34  O   -0.980496
    35  C    0.000108
    36  H   -0.020261
    37  H   -0.002681
    38  H    0.001251
    39  C   -0.033050
    40  H   -0.000348
    41  H   -0.032371
    42  H    0.030863
    43  C   -0.035232
    44  H   -0.000373
    45  H   -0.026231
    46  H    0.011755
    47  C   -0.016824
    48  H   -0.018268
    49  H   -0.006334
    50  H    0.007021
    51  C   -0.021096
    52  H   -0.007409
    53  H   -0.028535
    54  H    0.012142
    55  C   -0.010424
    56  H   -0.017285
    57  H    0.004258
    58  H   -0.000382
    59  C   -0.010916
    60  H   -0.014684
    61  H   -0.000045
    62  H    0.008042
    63  C   -0.034338
    64  H    0.006696
    65  H   -0.018969
    66  H    0.013040
    67  C   -0.002137
    68  H   -0.001444
    69  H    0.003821
    70  H   -0.016807
    71  C   -0.029991
    72  H   -0.008361
    73  H   -0.017525
    74  H   -0.004216
    75  C   -0.007482
    76  H   -0.015666
    77  H    0.005237
    78  H   -0.001359
    79  C   -0.028578
    80  H    0.004799
    81  H   -0.028838
    82  H    0.024610
    83  H    0.042174
    84  C   -0.148572
    85  C   -0.060557
    86  C   -0.119965
    87  C   -0.011627
    88  C    0.219666
    89  H    0.037149
    90  C   -0.110998
    91  H   -0.012116
    92  H    0.335508
    93  H    0.044842
    94  C    1.160582
    95  O   -0.848297
    96  N   -0.756677
    97  C    0.268278
    98  H    0.017118
    99  H   -0.052434
   100  H   -0.021461
   101  C    0.334108
   102  H    0.063197
   103  H   -0.030186
   104  H   -0.062492
   105  H    0.036852
   106  C    1.792497
   107  F   -0.567782
   108  F   -0.579526
   109  F   -0.570661
 Sum of APT charges =  -0.00000
 APT charges with hydrogens summed into heavy atoms:
               1
     1  C    0.251109
     2  C    0.217093
     3  C   -0.224335
     4  C    0.176964
     5  C   -0.146784
     6  C    0.149298
     7  C    0.180684
     8  C   -0.009300
     9  C    0.141560
    10  C   -0.125625
    17  N   -0.237911
    18  N   -0.119065
    19  Ir  -1.131275
    20  O   -0.956259
    21  O   -0.996854
    22  O   -0.944418
    23  B    1.329796
    24  B    1.286131
    25  B    1.228295
    26  O   -0.930036
    27  O   -1.033627
    28  C    0.525283
    29  C    0.482272
    30  C    0.467821
    31  C    0.448725
    32  C    0.488109
    33  C    0.491218
    34  O   -0.980496
    35  C   -0.021583
    39  C   -0.034905
    43  C   -0.050082
    47  C   -0.034405
    51  C   -0.044899
    55  C   -0.023834
    59  C   -0.017604
    63  C   -0.033572
    67  C   -0.016567
    71  C   -0.060094
    75  C   -0.019270
    79  C   -0.028008
    84  C   -0.148572
    85  C   -0.015714
    86  C   -0.082815
    87  C   -0.023742
    88  C    0.555174
    90  C   -0.074146
    94  C    1.160582
    95  O   -0.848297
    96  N   -0.756677
    97  C    0.211501
   101  C    0.304626
   106  C    1.792497
   107  F   -0.567782
   108  F   -0.579526
   109  F   -0.570661
 Electronic spatial extent (au):  <R**2>=          31762.4120
 Charge=             -0.0000 electrons
 Dipole moment (field-independent basis, Debye):
    X=              1.6315    Y=             -3.7888    Z=              8.7878  Tot=              9.7079
 Quadrupole moment (field-independent basis, Debye-Ang):
   XX=           -335.4843   YY=           -344.2261   ZZ=           -308.1114
   XY=             20.5393   XZ=            -21.9250   YZ=             16.2966
 Traceless Quadrupole moment (field-independent basis, Debye-Ang):
   XX=             -6.2104   YY=            -14.9522   ZZ=             21.1625
   XY=             20.5393   XZ=            -21.9250   YZ=             16.2966
 Octapole moment (field-independent basis, Debye-Ang**2):
  XXX=             18.8410  YYY=            -41.2105  ZZZ=            123.3501  XYY=            130.0831
  XXY=            -89.5841  XXZ=             80.9581  XZZ=             -3.5149  YZZ=            -26.3866
  YYZ=             53.1345  XYZ=            -34.1999
 Hexadecapole moment (field-independent basis, Debye-Ang**3):
 XXXX=         -19135.1682 YYYY=         -12641.9556 ZZZZ=          -8718.4812 XXXY=            798.8072
 XXXZ=           -323.2194 YYYX=            580.9619 YYYZ=            236.3311 ZZZX=           -123.8439
 ZZZY=            353.0362 XXYY=          -5748.3974 XXZZ=          -4773.5863 YYZZ=          -3609.9746
 XXYZ=            135.2097 YYXZ=           -196.7472 ZZXY=            241.3286
 N-N= 9.334457163206D+03 E-N=-2.482749972252D+04  KE= 2.561548808267D+03
  Exact polarizability:     560.926      27.764     506.373       2.441      13.444     481.835
 Approx polarizability:     780.868      79.192     751.235       9.900      30.513     724.951
   1 Symmetry operations used in ECPInt.
 ECPInt:  NShTT=   55278 NPrTT=  342696 LenC2=   41373 LenP2D=  127318.
 LDataN:  DoStor=T MaxTD1= 8 Len=  415
 Calling FoFJK, ICntrl=    100127 FMM=F ISym2X=0 I1Cent= 0 IOpClX= 0 NMat=1 NMatS=1 NMatT=0.
 Defaulting to unpruned grid for atomic number  77.
 Defaulting to unpruned grid for atomic number  77.
 Defaulting to unpruned grid for atomic number  77.
 Defaulting to unpruned grid for atomic number  77.
 Defaulting to unpruned grid for atomic number  77.
 Defaulting to unpruned grid for atomic number  77.
 Defaulting to unpruned grid for atomic number  77.
 Defaulting to unpruned grid for atomic number  77.
 Defaulting to unpruned grid for atomic number  77.
 Defaulting to unpruned grid for atomic number  77.
 Defaulting to unpruned grid for atomic number  77.
 Defaulting to unpruned grid for atomic number  77.
 Defaulting to unpruned grid for atomic number  77.
 Defaulting to unpruned grid for atomic number  77.
 Defaulting to unpruned grid for atomic number  77.
 Defaulting to unpruned grid for atomic number  77.
 Full mass-weighted force constant matrix:
 Low frequencies --- -734.8887   -6.4143   -4.1669   -0.0003    0.0004    0.0006
 Low frequencies ---    7.4843   15.6136   18.7808
 ******    1 imaginary frequencies (negative Signs) ****** 
 Diagonal vibrational polarizability:
      117.1751390     115.9673098      97.9755369
 Harmonic frequencies (cm**-1), IR intensities (KM/Mole), Raman scattering
 activities (A**4/AMU), depolarization ratios for plane and unpolarized
 incident light, reduced masses (AMU), force constants (mDyne/A),
 and normal coordinates:
                      1                      2                      3
                      A                      A                      A
 Frequencies --   -734.8886                15.2948                18.7057
 Red. masses --      1.1441                 6.9862                 6.2322
 Frc consts  --      0.3640                 0.0010                 0.0013
 IR Inten    --    712.0419                 0.3305                 0.1625
  Atom AN      X      Y      Z        X      Y      Z        X      Y      Z
     1   6     0.00   0.00   0.00    -0.01   0.03   0.01    -0.02  -0.00  -0.05
     2   6     0.00  -0.00   0.00     0.01  -0.01   0.03     0.01  -0.02  -0.04
     3   6     0.00  -0.00  -0.00     0.03  -0.03   0.05     0.02  -0.03  -0.04
     4   6     0.00  -0.00  -0.00     0.03  -0.01   0.04     0.01  -0.04  -0.04
     5   6     0.00   0.00  -0.00     0.01   0.02   0.03    -0.01  -0.02  -0.05
     6   6    -0.00   0.00   0.00    -0.01   0.04   0.00    -0.04   0.02  -0.05
     7   6    -0.00   0.00   0.00     0.01   0.01  -0.00    -0.04   0.02  -0.04
     8   6     0.00  -0.00   0.00     0.01   0.03  -0.01    -0.07   0.05  -0.05
     9   6    -0.00   0.00   0.00    -0.01   0.06  -0.01    -0.09   0.07  -0.06
    10   6    -0.00  -0.00   0.00    -0.02   0.07  -0.01    -0.07   0.05  -0.06
    11   1     0.01  -0.00   0.00     0.01  -0.01   0.03     0.01  -0.02  -0.04
    12   1     0.00  -0.00   0.00     0.05  -0.03   0.06     0.02  -0.05  -0.04
    13   1     0.00  -0.00   0.00     0.01   0.03   0.02    -0.01  -0.03  -0.04
    14   1    -0.01   0.00   0.00     0.03  -0.01   0.00    -0.03   0.01  -0.03
    15   1    -0.00   0.00   0.00    -0.02   0.08  -0.01    -0.11   0.09  -0.07
    16   1     0.00  -0.00   0.01    -0.04   0.09  -0.01    -0.09   0.07  -0.07
    17   7     0.00   0.00   0.00    -0.01   0.02   0.01    -0.01  -0.01  -0.04
    18   7    -0.01   0.02   0.01     0.01   0.02   0.00    -0.03   0.01  -0.04
    19  77     0.01  -0.01   0.00    -0.00   0.01  -0.00    -0.01  -0.00  -0.04
    20   8     0.00   0.00  -0.00     0.00   0.00   0.00     0.02  -0.04  -0.02
    21   8    -0.00  -0.00  -0.00    -0.03   0.01  -0.02     0.03  -0.02   0.01
    22   8    -0.00   0.00  -0.00    -0.02  -0.02  -0.01    -0.02   0.02   0.00
    23   5    -0.01   0.03  -0.02    -0.02   0.02  -0.01     0.02  -0.02  -0.02
    24   5     0.00  -0.01  -0.00     0.00  -0.00   0.00    -0.00  -0.01  -0.03
    25   5    -0.01   0.01   0.00    -0.02  -0.01  -0.01    -0.01   0.01  -0.01
    26   8    -0.00   0.00  -0.00    -0.03  -0.00  -0.01    -0.01   0.01   0.01
    27   8     0.00   0.00  -0.00     0.01  -0.02   0.01    -0.02   0.01  -0.03
    28   6     0.00  -0.00   0.00     0.02  -0.02   0.01    -0.00  -0.01  -0.02
    29   6     0.00   0.00  -0.00     0.01  -0.01   0.00     0.02  -0.04  -0.00
    30   6    -0.00   0.00  -0.00    -0.03  -0.03  -0.02    -0.02   0.03   0.03
    31   6    -0.00   0.00  -0.00    -0.04  -0.01  -0.01    -0.02   0.03   0.03
    32   6    -0.00   0.00   0.00    -0.04   0.02  -0.03     0.05  -0.04   0.02
    33   6    -0.00   0.00  -0.00    -0.04   0.03  -0.03     0.05  -0.04   0.00
    34   8    -0.00  -0.00  -0.00    -0.03   0.03  -0.01     0.04  -0.04  -0.02
    35   6     0.00   0.00  -0.00     0.01  -0.00   0.01     0.05  -0.06  -0.01
    36   1     0.00   0.00  -0.00     0.01  -0.01   0.01     0.04  -0.06   0.01
    37   1    -0.00  -0.00   0.00     0.00   0.00   0.00     0.07  -0.08   0.01
    38   1     0.00   0.00  -0.00     0.02   0.00   0.01     0.05  -0.07  -0.04
    39   6     0.00   0.00  -0.00    -0.00  -0.02  -0.01     0.02  -0.03   0.04
    40   1    -0.00  -0.00   0.00    -0.01  -0.01  -0.01     0.03  -0.05   0.05
    41   1     0.00  -0.00  -0.00    -0.00  -0.03  -0.01     0.02  -0.03   0.05
    42   1    -0.00   0.00  -0.00    -0.01  -0.02  -0.01     0.00  -0.01   0.04
    43   6     0.00   0.00  -0.00     0.02  -0.01   0.02     0.01  -0.02  -0.06
    44   1     0.00   0.00   0.00     0.03  -0.02   0.03    -0.01   0.00  -0.08
    45   1    -0.00   0.00   0.00     0.02  -0.01   0.02     0.02  -0.03  -0.06
    46   1     0.00  -0.00  -0.00     0.02  -0.00   0.03     0.02  -0.03  -0.08
    47   6     0.00   0.00  -0.00     0.02  -0.03   0.01    -0.02   0.00   0.00
    48   1     0.00   0.00   0.00     0.02  -0.03   0.01    -0.01  -0.01   0.01
    49   1     0.00  -0.00   0.00     0.02  -0.04   0.01    -0.03   0.02  -0.02
    50   1    -0.00   0.00  -0.00     0.01  -0.04  -0.00    -0.03   0.01   0.03
    51   6    -0.00  -0.00   0.00    -0.03   0.03  -0.02     0.07  -0.06   0.01
    52   1    -0.00  -0.00   0.00    -0.03   0.02  -0.02     0.07  -0.05   0.02
    53   1     0.00  -0.00  -0.00    -0.04   0.04  -0.02     0.09  -0.07   0.02
    54   1    -0.00  -0.00   0.00    -0.02   0.04  -0.01     0.07  -0.06  -0.01
    55   6    -0.00  -0.00   0.00    -0.04   0.02  -0.04     0.06  -0.04   0.06
    56   1     0.00  -0.00  -0.00    -0.05   0.03  -0.04     0.08  -0.05   0.06
    57   1    -0.00   0.00   0.00    -0.04   0.01  -0.04     0.06  -0.03   0.07
    58   1     0.00  -0.00  -0.00    -0.05   0.01  -0.04     0.04  -0.03   0.06
    59   6     0.00  -0.00  -0.00    -0.04   0.06  -0.03     0.08  -0.07  -0.01
    60   1    -0.00  -0.00  -0.00    -0.05   0.06  -0.04     0.09  -0.07   0.01
    61   1    -0.00  -0.00  -0.00    -0.04   0.06  -0.03     0.07  -0.07  -0.02
    62   1     0.00  -0.00  -0.00    -0.04   0.06  -0.02     0.08  -0.08  -0.02
    63   6     0.00   0.00  -0.00    -0.05   0.02  -0.04     0.04  -0.03   0.02
    64   1    -0.00  -0.00   0.00    -0.05   0.02  -0.05     0.04  -0.03   0.00
    65   1    -0.00  -0.00   0.00    -0.05   0.03  -0.06     0.05  -0.04   0.04
    66   1     0.00   0.00  -0.00    -0.05   0.01  -0.04     0.03  -0.02   0.02
    67   6    -0.00   0.00  -0.00    -0.06  -0.01  -0.01    -0.01   0.03   0.05
    68   1    -0.00   0.00  -0.00    -0.06  -0.00  -0.01    -0.02   0.03   0.04
    69   1    -0.00   0.00  -0.00    -0.07  -0.02  -0.01    -0.00   0.01   0.06
    70   1     0.00   0.00  -0.00    -0.06  -0.02  -0.01    -0.02   0.04   0.06
    71   6    -0.00   0.00  -0.00    -0.03  -0.01  -0.01    -0.04   0.05   0.01
    72   1    -0.00   0.00  -0.00    -0.03   0.00  -0.01    -0.04   0.04   0.01
    73   1     0.00  -0.00  -0.00    -0.03  -0.01  -0.01    -0.04   0.07   0.03
    74   1    -0.00   0.00  -0.00    -0.02  -0.01  -0.01    -0.05   0.05  -0.00
    75   6    -0.00   0.00  -0.00    -0.02  -0.05  -0.02    -0.04   0.05   0.04
    76   1    -0.00  -0.00  -0.00    -0.04  -0.05  -0.02    -0.04   0.07   0.06
    77   1    -0.00   0.00  -0.00    -0.02  -0.06  -0.02    -0.03   0.05   0.04
    78   1    -0.00   0.00  -0.00    -0.01  -0.04  -0.02    -0.05   0.07   0.02
    79   6    -0.00   0.00  -0.00    -0.05  -0.04  -0.02    -0.00   0.01   0.05
    80   1    -0.00   0.00  -0.00    -0.04  -0.05  -0.03     0.00   0.01   0.05
    81   1    -0.00   0.00   0.00    -0.05  -0.04  -0.02    -0.00   0.02   0.08
    82   1    -0.00   0.00  -0.00    -0.05  -0.03  -0.02     0.01  -0.00   0.05
    83   1     0.00  -0.00   0.01     0.01   0.02  -0.01    -0.08   0.06  -0.05
    84   6    -0.01  -0.00   0.01     0.01   0.03   0.01    -0.00   0.04   0.10
    85   6     0.00  -0.00   0.00     0.00   0.02   0.08     0.02   0.03   0.11
    86   6    -0.02   0.00  -0.01     0.01   0.03  -0.02    -0.01   0.03   0.04
    87   6     0.00  -0.01   0.01    -0.00   0.01   0.10     0.04   0.01   0.05
    88   6    -0.00   0.00  -0.08     0.00   0.02   0.02     0.00   0.01  -0.01
    89   1     0.00   0.01  -0.05     0.02   0.04  -0.07    -0.03   0.04   0.03
    90   6     0.01  -0.00  -0.02    -0.00   0.01   0.07     0.03  -0.00  -0.01
    91   1     0.00  -0.01   0.02    -0.01   0.00   0.15     0.06   0.00   0.06
    92   1    -0.46   0.81   0.35     0.01   0.03   0.00    -0.02  -0.00  -0.03
    93   1     0.01   0.00  -0.01    -0.00   0.02   0.10     0.03   0.04   0.16
    94   6    -0.01  -0.00   0.00     0.01   0.06  -0.01    -0.03   0.08   0.17
    95   8     0.00   0.00  -0.00     0.02   0.12   0.06    -0.05   0.13   0.25
    96   7    -0.00   0.00   0.00     0.00   0.02  -0.13    -0.02   0.06   0.13
    97   6     0.00  -0.00   0.00    -0.01  -0.10  -0.22     0.03  -0.03   0.05
    98   1    -0.00  -0.00   0.00    -0.01  -0.16  -0.17     0.05  -0.07   0.03
    99   1     0.00  -0.00  -0.00    -0.02  -0.18  -0.23     0.06  -0.09   0.09
   100   1     0.00   0.00  -0.00    -0.01  -0.07  -0.33     0.01  -0.00  -0.04
   101   6    -0.00  -0.00  -0.00     0.00   0.09  -0.15    -0.06   0.12   0.20
   102   1    -0.00  -0.00  -0.00     0.01   0.18  -0.09    -0.10   0.20   0.25
   103   1     0.00  -0.00   0.00    -0.02   0.12  -0.26    -0.09   0.15   0.12
   104   1     0.00   0.00   0.00     0.00   0.03  -0.12    -0.01   0.08   0.26
   105   1     0.01  -0.01  -0.05    -0.00   0.01   0.09     0.04  -0.02  -0.05
   106   6     0.00  -0.00   0.00     0.09  -0.11   0.08     0.03  -0.04  -0.05
   107   9    -0.00   0.00  -0.00     0.16  -0.20  -0.03     0.02  -0.04  -0.04
   108   9    -0.00   0.00  -0.00     0.04  -0.04   0.07     0.04  -0.05  -0.05
   109   9    -0.00   0.00  -0.00     0.13  -0.17   0.22     0.04  -0.03  -0.05
                      4                      5                      6
                      A                      A                      A
 Frequencies --     24.4059                28.7383                34.7236
 Red. masses --      5.0776                 3.9511                 5.0333
 Frc consts  --      0.0018                 0.0019                 0.0036
 IR Inten    --      0.1667                 0.0695                 0.6557
  Atom AN      X      Y      Z        X      Y      Z        X      Y      Z
     1   6    -0.01  -0.02   0.00    -0.01  -0.02  -0.01     0.03  -0.02   0.01
     2   6    -0.01   0.00  -0.01    -0.01  -0.01  -0.01    -0.00   0.03  -0.01
     3   6    -0.04   0.03  -0.02    -0.02  -0.01  -0.02     0.01   0.02  -0.01
     4   6    -0.05   0.03  -0.03    -0.01  -0.02  -0.02     0.03  -0.02  -0.00
     5   6    -0.04   0.01  -0.01    -0.01  -0.03  -0.01     0.04  -0.03   0.01
     6   6     0.01  -0.05   0.02    -0.02  -0.02  -0.00     0.04  -0.04   0.01
     7   6     0.03  -0.07   0.03    -0.03  -0.01   0.01     0.02   0.00   0.00
     8   6     0.06  -0.10   0.04    -0.05   0.01   0.00     0.06  -0.05   0.02
     9   6     0.06  -0.11   0.04    -0.06   0.02  -0.01     0.09  -0.10   0.03
    10   6     0.04  -0.08   0.03    -0.05   0.00  -0.01     0.09  -0.09   0.03
    11   1    -0.00   0.00  -0.00    -0.01   0.00  -0.02    -0.02   0.06  -0.02
    12   1    -0.08   0.06  -0.04    -0.01  -0.02  -0.02     0.04  -0.03  -0.00
[...]
 434,0.00001651,0.00000168,-0.00002018,0.00000691,-0.00005776,0.0000111
 0,-0.00000550,0.00004018,-0.00003751,-0.00004988,-0.00000902,0.0000049
 3,-0.00001513,-0.09289535,-0.14522788,0.04519624,-0.01294117,-0.024609
 43,0.04321178,0.12305415,0.16715754,-0.00031694,-0.00012967,0.00035482
 ,0.00064035,-0.00048248,-0.00145559,-0.00611428,-0.00532906,0.00920265
 ,-0.00024665,-0.00165732,-0.00453981,-0.00053713,0.00000408,0.00166267
 ,0.00001482,0.00006244,0.00025186,-0.00001308,-0.00001440,-0.00000099,
 -0.00001835,-0.00001802,0.00000588,-0.00001607,-0.00000104,0.00003759,
 0.00001092,-0.00001949,-0.00004796,-0.00039264,-0.00029400,0.00011205,
 -0.00234488,-0.00158229,0.00110099,0.00010445,0.00010564,0.00003460,0.
 00001171,-0.00000177,-0.00003404,0.00000035,0.00000181,-0.00000342,-0.
 00000774,0.00001638,0.00005510,-0.00097251,-0.00067563,-0.00012254,-0.
 00017039,-0.00010813,0.00000943,-0.00010073,0.00013643,0.00020965,-0.0
 0005829,0.00001116,0.00010390,0.00013062,0.00023801,0.00026970,-0.0000
 1794,0.00000900,0.00005600,-0.00021030,-0.00054290,-0.00065520,0.00008
 467,-0.00003924,-0.00014255,0.00012011,-0.00003079,-0.00012044,-0.0000
 3657,0.00003240,0.00014380,-0.00005390,-0.00001307,0.00007666,0.000017
 01,0.00001525,-0.00003023,0.00000014,-0.00001445,-0.00000378,0.0000270
 7,-0.00000441,-0.00003361,-0.00001884,-0.00000135,-0.00007446,-0.00017
 927,-0.00005058,-0.00013364,0.00008017,-0.00034535,-0.00003419,0.00027
 013,0.00051884,0.00047248,-0.00000266,-0.00000241,-0.00000853,0.000003
 03,0.00000099,0.00000459,-0.00000712,0.00000316,0.00000987,-0.00000123
 ,-0.00000290,-0.00000219,-0.00000484,-0.00001277,-0.00001312,-0.000009
 13,0.00000504,0.00001397,0.00000247,0.00000743,0.00000137,0.00000259,-
 0.00000127,-0.00000414,-0.00000637,-0.00000198,0.00000203,-0.00000190,
 0.00000445,0.00000370,-0.00000065,-0.00000392,0.00000039,0.00000260,-0
 .00000040,0.00000096,-0.00000432,-0.00000322,0.00000614,-0.00000414,-0
 .00000238,-0.00000015,0.00000049,0.00000679,0.00000388,0.00000145,-0.0
 0000284,-0.00000358,0.00005933,0.00002264,0.00003314,0.00004295,0.0000
 2020,-0.00001457,-0.00001587,0.00000325,0.00002071,-0.00001658,-0.0000
 1669,-0.00000923,0.00003099,0.00002953,0.00002286,-0.00001834,0.000007
 79,0.00001662,0.00003504,0.00001506,-0.00001494,-0.00003672,-0.0000014
 9,-0.00001813,-0.00015417,-0.00001559,0.00000985,0.00004950,-0.0000035
 0,0.00001054,0.00007477,0.00003559,0.00005607,0.00001048,0.00001840,-0
 .00001670,-0.00042470,0.00001891,-0.00001531,-0.00004259,0.00003751,0.
 00013487,0.00007249,0.00002351,-0.00003589,0.00008509,-0.00000032,-0.0
 0000796,0.00003204,-0.00000327,-0.00002286,-0.00000843,-0.00000725,-0.
 00001393,-0.00002782,0.00001267,0.00001867,0.00000680,0.00000417,0.000
 01089,0.00003280,0.00002038,0.00000643,-0.00001980,-0.00001319,0.00000
 250,-0.00000247,0.00000066,0.00000880,0.00000239,0.00000489,0.00000393
 ,-0.00000689,0.00000503,0.00000600,0.00000314,-0.00000270,-0.00000141,
 -0.00000515,-0.00000205,0.00000071,0.00000288,0.00001016,0.00001087,-0
 .00003275,-0.00001039,-0.00001133,-0.00000460,0.00000023,0.00000497,0.
 00000331,-0.00000045,0.00000470,0.00000517,0.00000708,-0.00000342,-0.0
 0000652,-0.00000082,-0.00000009,0.00006174,0.00003308,0.00002001,0.000
 01137,-0.00002348,0.00000104,-0.00003640,-0.00016013,0.00000741,-0.000
 00767,0.00000028,0.00001375,0.00003136,0.00010659,-0.00007280,-0.00002
 538,0.00002852,-0.00006756,0.00006018,-0.00002104,0.00001467,0.0000097
 9,0.00000340,-0.00000270,-0.00004001,0.00001526,-0.00003191,-0.0000022
 7,0.00000146,-0.00001001,-0.00020077,-0.00027282,0.00005370,0.00004483
 ,0.00011480,-0.00001362,0.00004883,0.00021477,0.00009996,0.00014074,-0
 .00040836,-0.00009596,0.00000297,0.00011549,0.00003517,-0.00008515,0.0
 0015069,0.00007453,-0.00003017,-0.00001704,-0.00028772,-0.00001032,-0.
 00018739,-0.00007817,0.00000749,-0.00001267,0.00001222,0.00009287,0.00
 004631,-0.00001724,-0.00000945,0.00007451,0.00005360,0.00000922,0.0000
 1319,-0.00000656,0.06976183,0.04998933,-0.12001300,0.02132502,0.049242
 23,-0.04344035,-0.12843994,-0.08764263,0.17861183,0.00020876,0.0000749
 5,-0.00093535,-0.00159935,-0.00131758,0.00115971,0.00963325,-0.0017202
 8,-0.00269064,0.00002214,-0.00029959,0.00124199,-0.00066240,-0.0002152
 3,-0.00045777,0.00001390,0.00009812,-0.00005123,0.00001069,0.00000672,
 -0.00001625,-0.00000942,-0.00001587,0.00000821,0.00004206,0.00000983,0
 .00000628,-0.00003150,-0.00006373,-0.00002279,0.00000348,0.00135917,-0
 .00036896,-0.00000974,-0.00013270,-0.00064466,-0.00005056,0.00002859,-
 0.00001598,-0.00001674,0.00001210,0.00001514,-0.00000649,0.00000151,-0
 .00000729,-0.00001080,0.00002073,-0.00002240,0.00138861,0.00075935,0.0
 0047067,0.00004773,0.00005043,-0.00005074,0.00016509,-0.00062225,-0.00
 012683,0.00000269,-0.00009243,-0.00005459,-0.00015131,-0.00040475,-0.0
 0027881,-0.00007312,-0.00017835,-0.00001071,0.00027690,0.00099292,0.00
 079083,0.00000580,0.00017296,0.00008186,-0.00001075,0.00050222,0.00001
 953,-0.00011844,-0.00040837,-0.00011255,-0.00003138,-0.00010248,-0.000
 04857,0.00000844,0.00004179,0.00000018,0.00001568,0.00005050,-0.000000
 13,0.00002131,0.00005521,0.00001336,0.00007547,0.00002827,0.00012836,0
 .00031889,0.00000937,0.00023838,-0.00032063,0.00097487,-0.00030155,-0.
 00021766,-0.00101964,-0.00043581,-0.00000010,0.00000492,0.00001334,-0.
 00000783,-0.00000410,-0.00000417,0.00000882,0.00000094,-0.00001386,0.0
 0000542,-0.00000726,0.00000546,0.00000680,0.00000853,0.00001391,0.0000
 1728,-0.00000436,-0.00002617,-0.00000971,-0.00001317,-0.00000223,0.000
 00385,0.00000892,0.00000952,-0.00000177,-0.00000792,-0.00000971,-0.000
 00019,-0.00000716,-0.00001278,0.00000006,-0.00000353,0.00000440,-0.000
 00212,0.00000702,0.00001121,-0.00000012,-0.00000354,-0.00000346,-0.000
 00209,0.00000156,0.00000337,0.00000084,-0.00000702,-0.00001003,0.00000
 666,-0.00000137,0.00000850,-0.00015194,-0.00005482,-0.00006947,-0.0000
 6526,-0.00004857,0.00004502,0.00001376,0.00000918,-0.00000605,0.000026
 09,0.00000632,0.00000602,-0.00005478,-0.00004325,-0.00005922,0.0000293
 4,-0.00000072,-0.00001935,-0.00006354,-0.00003869,0.00003153,0.0000840
 1,-0.00002430,0.00006014,0.00012360,-0.00012505,0.00002862,-0.00001980
 ,0.00000265,-0.00001864,-0.00010312,0.00007014,-0.00016692,-0.00004875
 ,-0.00007304,0.00011263,0.00074345,-0.00008940,0.00033794,-0.00142389,
 -0.00117782,-0.00015265,-0.00026542,-0.00004119,0.00013251,-0.00003009
 ,-0.00000273,0.00001545,0.00000345,0.00003764,0.00000690,-0.00000847,-
 0.00001950,0.00008308,0.00007455,-0.00002062,-0.00003685,-0.00004292,-
 0.00002290,-0.00003126,0.00001177,-0.00002202,-0.00001519,-0.00000647,
 0.00001754,0.00002085,-0.00001149,0.00000439,-0.00001255,-0.00000637,-
 0.00002313,-0.00001058,-0.00000290,-0.00002276,0.00000250,0.00000666,0
 .00000459,0.00000449,-0.00001224,-0.00000367,0.00000373,0.00000457,-0.
 00000701,-0.00001644,0.00003599,-0.00000413,0.00003012,-0.00001487,-0.
 00001132,-0.00000278,0.00000830,-0.00000120,-0.00000699,0.00000214,0.0
 0000263,-0.00001364,-0.00000644,0.00000679,-0.00000294,0.00012662,0.00
 005241,0.00000928,0.00004540,-0.00009232,-0.00000042,0.00004217,-0.000
 10375,-0.00005619,0.00001128,-0.00000545,0.00002321,-0.00007745,0.0002
 0194,-0.00010451,-0.00007556,0.00005032,0.00000332,0.00011324,-0.00004
 606,0.00000167,0.00001535,-0.00000303,0.00000283,-0.00015994,0.0002258
 6,0.00006501,-0.00001040,-0.00001589,-0.00001243,-0.00073728,-0.000802
 88,0.00026177,0.00018078,0.00037110,-0.00019345,0.00039138,0.00069108,
 -0.00019092,0.00023879,-0.00071716,0.00016309,-0.00003360,0.00014469,0
 .00005332,0.00001604,0.00006003,-0.00003298,-0.00022903,0.00007803,-0.
 00014903,-0.00010958,-0.00018487,-0.00015445,-0.00000196,0.00000828,0.
 00001273,0.00008586,0.00006499,0.00008325,0.00003323,0.00002894,0.0000
 2779,0.00000888,0.00002092,-0.00000100,-0.13225950,0.07658047,0.052672
 48,-0.02845729,0.05032036,-0.00487760,-0.04874572,0.01852898,0.0478972
 9,0.20179295,0.00078155,0.00012635,-0.00023861,0.00104881,0.00063062,-
 0.00087379,0.01937170,-0.02299825,-0.02835492,-0.00332033,-0.00457914,
 0.00194481,-0.00137178,0.00004439,-0.00181726,0.00024411,0.00015339,0.
 00036578,-0.00003569,-0.00016741,-0.00036196,-0.00024867,-0.00013043,0
 .00018642,0.00011707,0.00012186,0.00020627,-0.00028878,-0.00027859,-0.
 00022780,0.00063438,-0.00025358,-0.00036757,0.00049945,-0.00028118,0.0
 0017911,-0.00041622,-0.00022290,-0.00036784,0.00006080,-0.00001352,-0.
 00008900,0.00000002,-0.00002462,-0.00004227,-0.00000403,0.00004795,0.0
 0011440,-0.00040410,0.00028916,-0.00044994,-0.00005032,-0.00009991,-0.
 00016249,-0.00050513,0.00072582,0.00040517,-0.00041492,-0.00003813,0.0
 0033933,-0.00017601,0.00080818,0.00067852,-0.00031729,0.00043296,-0.00
 013433,0.00027724,-0.00134237,-0.00129760,0.00061445,0.00001364,-0.000
 45144,0.00072920,-0.00083717,0.00011148,-0.00025116,0.00078945,-0.0000
 5799,-0.00042565,-0.00013464,0.00021133,0.00016604,0.00008472,-0.00012
 696,0.00016612,-0.00001885,-0.00000434,0.00006688,-0.00022912,0.000015
 80,0.00013568,-0.00024999,0.00002305,-0.00035924,-0.00014814,-0.000462
 64,0.00057140,-0.00148818,-0.00006037,-0.00018221,0.00148508,0.0010690
 2,-0.00001966,-0.00000186,-0.00001126,-0.00001151,-0.00000840,0.000008
 69,-0.00000629,0.00001075,0.00002855,0.00000204,0.00000538,-0.00001221
 ,-0.00003241,-0.00001276,-0.00002189,-0.00000722,0.00001326,0.00003511
 ,-0.00002117,0.00001220,-0.00000010,0.00001639,-0.00001686,-0.00000915
 ,-0.00001972,-0.00001214,0.00002559,0.00001188,0.00002224,0.00001347,-
 0.00002299,-0.00001803,0.00001141,0.00000740,0.00000487,-0.00002757,-0
 .00002167,-0.00001486,0.00001450,-0.00002624,-0.00001095,0.00000687,0.
 00000876,0.00001497,0.00000237,0.00000680,0.00000268,-0.00001337,0.000
 15930,0.00006490,0.00009881,0.00007468,0.00004531,-0.00005343,-0.00002
 171,0.00000630,0.00005293,-0.00003293,0.00000467,-0.00003450,0.0000285
 2,0.00003315,0.00008427,-0.00003632,0.00002169,0.00005525,0.00005524,0
 .00004597,-0.00004323,-0.00009679,0.00001540,-0.00008003,-0.00018379,0
 .00017775,-0.00000239,-0.00001864,0.00002232,0.00007635,0.00017948,-0.
 00014410,0.00007890,0.00006907,0.00007891,-0.00012265,-0.00102244,0.00
 037901,-0.00026426,-0.00078974,-0.00075637,0.00065526,0.00004976,0.000
 10814,-0.00001749,0.00010461,-0.00004863,-0.00003312,-0.00004155,-0.00
 001683,-0.00000276,0.00003886,-0.00000688,-0.00010953,-0.00009205,0.00
 001811,0.00006999,0.00002566,0.00004849,0.00001803,-0.00001843,0.00004
 796,-0.00000759,-0.00000618,-0.00007194,0.00000144,-0.00003381,0.00001
 080,-0.00001406,0.00004965,0.00005864,0.00003005,-0.00001148,0.0000246
 6,-0.00000674,-0.00001945,0.00001783,-0.00002083,0.00000345,-0.0000088
 5,0.00000090,0.00000533,0.00000902,0.00003556,-0.00005471,0.00001879,-
 0.00003150,0.00001424,0.00000496,0.00001112,-0.00003291,0.00003420,-0.
 00000002,0.00001236,-0.00002419,0.00001285,-0.00002397,-0.00000906,-0.
 00000333,-0.00006387,-0.00000479,0.00000843,-0.00003698,0.00001911,-0.
 00001242,0.00002193,0.00005924,0.00011401,0.00001067,-0.00000544,0.000
 01032,0.00011347,-0.00001324,-0.00008691,0.00000750,-0.00000117,-0.000
 11384,-0.00000942,0.00002754,0.00003992,-0.00001128,-0.00002586,-0.000
 01422,0.00010296,-0.00011258,-0.00010698,0.00001316,-0.00000482,-0.000
 00084,0.00034478,0.00074914,-0.00034890,0.00006959,-0.00044254,0.00033
 026,-0.00009884,-0.00062165,0.00027955,-0.00027180,0.00074013,-0.00015
 831,0.00004225,0.00000675,-0.00003839,0.00001041,-0.00009907,-0.000003
 23,0.00010405,-0.00010332,0.00007708,-0.00012131,0.00005764,0.00008885
 ,0.00000793,-0.00003521,0.00000311,-0.00007863,-0.00000285,-0.00007471
 ,0.00001404,-0.00002334,-0.00004332,-0.00000805,-0.00000523,-0.0000274
 8,0.07541408,-0.19452228,-0.07989687,0.04745509,-0.04174103,0.00848434
 ,0.00442711,0.02166845,-0.00141408,-0.14236992,0.24201839,0.00045037,0
 .00010714,0.00008805,0.00174308,0.00041358,-0.00242307,0.01539029,-0.0
 3011648,-0.01324462,-0.00168650,-0.00200410,0.00175097,-0.00187583,0.0
 0033944,-0.00072913,0.00025745,0.00000372,0.00039697,-0.00004479,-0.00
 017981,-0.00037470,-0.00023982,-0.00013802,0.00018803,0.00009976,0.000
 11774,0.00020732,-0.00025496,-0.00025591,-0.00016275,0.00000853,-0.001
 32102,0.00005378,0.00064094,-0.00032162,0.00060679,-0.00024545,-0.0001
 3970,-0.00024449,0.00005190,-0.00000574,-0.00009726,-0.00000286,-0.000
 01779,-0.00003824,-0.00000902,0.00004802,0.00008908,-0.00132102,0.0005
 0370,-0.00061633,-0.00006708,-0.00006195,-0.00016033,-0.00023050,0.000
 56996,0.00043122,-0.00030362,-0.00002294,0.00030400,0.00003211,0.00067
 048,0.00066002,-0.00024012,0.00022915,-0.00001862,-0.00004819,-0.00125
 146,-0.00137301,0.00042674,0.00000183,-0.00041791,0.00057456,-0.000421
 85,-0.00010467,-0.00023752,0.00040666,0.00010504,-0.00031242,-0.000103
 36,0.00021602,0.00012809,0.00007731,-0.00010860,0.00010286,-0.00001913
 ,-0.00000816,0.00008421,-0.00013704,-0.00002597,0.00008639,-0.00013232
 ,-0.00002270,-0.00035772,-0.00012744,-0.00037637,0.00028650,-0.0010848
 6,-0.00009564,0.00015329,0.00129472,0.00110331,-0.00001312,-0.00000284
 ,-0.00001212,-0.00000555,-0.00000469,0.00000861,-0.00000953,0.00001013
 ,0.00002564,0.00000132,-0.00000064,-0.00000877,-0.00002178,-0.00001898
 ,-0.00002497,-0.00001094,0.00001308,0.00003141,-0.00001223,0.00001235,
 0.00000112,0.00001393,-0.00000946,-0.00000882,-0.00001790,-0.00001174,
 0.00001576,0.00000728,0.00001886,0.00001005,-0.00001601,-0.00001541,0.
 00000887,0.00000784,0.00000313,-0.00001472,-0.00001792,-0.00001203,0.0
 0001266,-0.00002077,-0.00000910,0.00000602,0.00000724,0.00001618,0.000
 00363,0.00000835,-0.00000150,-0.00001129,0.00013660,0.00005159,0.00008
 158,0.00007964,0.00004133,-0.00004071,-0.00002813,0.00000906,0.0000532
 7,-0.00003293,-0.00001553,-0.00002895,0.00004595,0.00005005,0.00006195
 ,-0.00003605,0.00002138,0.00004663,0.00006122,0.00003488,-0.00003655,-
 0.00007869,0.00000341,-0.00005626,-0.00030786,0.00003764,0.00002422,0.
 00005421,0.00001172,0.00004324,0.00010181,-0.00003311,0.00021606,0.000
 05893,0.00005762,-0.00007632,-0.00081082,0.00009132,-0.00005970,0.0004
 3826,0.00028303,0.00026112,0.00014012,0.00007492,-0.00004779,0.0002125
 6,-0.00001704,-0.00002300,0.00001282,-0.00000346,-0.00003207,0.0000131
 4,-0.00001800,-0.00004289,-0.00005913,0.00002268,0.00004774,0.00000481
 ,0.00002582,0.00001396,0.00002133,0.00003137,-0.00000233,-0.00002851,-
 0.00005094,0.00001380,-0.00002938,0.00001095,-0.00000253,0.00003694,0.
 00003477,0.00001891,-0.00001579,0.00001402,0.00000233,-0.00000707,0.00
 001069,-0.00001250,-0.00000674,-0.00000946,0.00000180,0.00000818,0.000
 01301,0.00003095,-0.00006312,-0.00000074,-0.00002684,-0.00000014,-0.00
 000069,0.00001171,-0.00001310,0.00002055,0.00000471,0.00001423,-0.0000
 0443,-0.00000029,-0.00002509,-0.00000023,-0.00000264,0.00003438,0.0000
 3044,0.00002164,-0.00000653,-0.00002532,-0.00000773,-0.00001929,-0.000
 09339,0.00007330,0.00000245,-0.00000521,0.00002356,0.00009124,0.000068
 78,-0.00014415,-0.00002399,0.00004006,-0.00013189,0.00006246,-0.000007
 69,0.00004023,0.00000326,-0.00001457,-0.00001110,0.00001227,-0.0000254
 3,-0.00008549,0.00000431,-0.00000656,-0.00001115,-0.00010134,0.0001125
 8,-0.00013578,0.00012485,-0.00012395,0.00016644,0.00008177,-0.00008744
 ,0.00019593,0.00000100,0.00000936,-0.00010686,0.00002346,0.00013610,0.
 00001367,-0.00003229,0.00003674,0.00003275,-0.00013745,-0.00012333,-0.
 00023010,-0.00011980,-0.00013532,-0.00003378,0.00001215,-0.00002959,0.
 00001290,0.00003343,0.00004189,-0.00003611,0.00001268,0.00003984,0.000
 01427,0.00000678,0.00000846,-0.00002831,0.05367952,-0.08185870,-0.1291
 9067,-0.01693038,0.02322150,0.01967573,0.04363924,-0.01143369,-0.02180
 018,-0.09329226,0.10251799,0.14563912\\0.00000920,0.00000884,0.0000043
 4,0.00000115,-0.00000171,-0.00000510,0.00000002,0.00000279,-0.00000415
 ,-0.00000675,-0.00000278,0.00000862,-0.00000664,-0.00000257,0.00000594
 ,-0.00000037,-0.00000401,0.00000175,0.00000179,0.00000189,0.00000435,-
 0.00000151,-0.00000372,-0.00000446,0.00000701,0.00000065,0.00000006,-0
 .00000241,-0.00000120,-0.00000210,-0.00000207,0.00000175,0.00000397,0.
 00000467,0.00000566,-0.00000131,0.00000214,0.00000131,-0.00000342,0.00
 000243,-0.00000121,0.00000072,0.00000202,-0.00000014,0.00000081,0.0000
 0348,0.00000125,-0.00000080,-0.00000044,0.00000181,-0.00000072,-0.0000
 0169,-0.00000090,-0.00000117,0.00000294,0.00000185,0.00000298,-0.00000
 030,-0.00000130,-0.00000314,-0.00000334,-0.00000063,-0.00000110,0.0000
 0476,0.00000157,-0.00000066,-0.00000242,-0.00000379,-0.00000418,-0.000
 00431,-0.00000271,-0.00000054,-0.00000749,-0.00000472,-0.00000125,0.00
 000231,0.00000236,-0.00000078,0.00000556,0.00000119,0.00000151,0.00000
 199,-0.00000112,0.00000338,0.00000434,-0.00000409,-0.00000398,0.000001
 50,-0.00000214,0.00000251,-0.00000366,0.00000110,-0.00000004,-0.000006
 63,-0.00000359,0.00000454,0.00000157,0.00000485,-0.00000216,0.00000194
 ,0.00000139,0.00000287,0.00000054,0.00000281,0.00000309,-0.00000161,-0
 .00000389,-0.00000171,0.00000062,-0.00000284,-0.00000144,0.00000132,-0
 .00000183,-0.00000043,-0.00000236,0.00000151,-0.00000146,-0.00000043,-
 0.00000145,-0.00000151,0.00000172,-0.00000250,-0.00000115,-0.00000026,
 -0.00000263,0.00000040,0.00000182,-0.00000041,0.00000324,0.00000214,-0
 .00000223,-0.00000084,0.00000362,-0.00000085,-0.00000197,0.00000101,-0
 .00000120,-0.00000097,-0.00000291,-0.00000867,-0.00000173,0.00000414,-
 0.00000111,-0.00000219,0.00000203,-0.00000075,0.00000054,0.00000045,0.
 00000068,-0.00000221,0.00000458,0.00000776,-0.00000163,-0.00000620,-0.
 00000287,-0.00000159,-0.00000297,-0.00000132,-0.00000225,-0.00000037,-
 0.00000200,-0.00000098,0.00000083,-0.00000095,-0.00000182,-0.00000312,
 -0.00000080,-0.00000092,-0.00000311,-0.00000142,-0.00000123,-0.0000028
 8,-0.00000122,-0.00000076,-0.00000555,-0.00000002,0.00000314,-0.000001
 96,-0.00000094,-0.00000168,-0.00000094,0.00000192,-0.00000100,-0.00000
 194,0.00000194,-0.00000016,0.00000213,0.00000326,0.00000223,-0.0000059
 2,0.00000014,0.00000062,-0.00000243,-0.00000130,-0.00000167,-0.0000033
 0,-0.00000011,-0.00000241,0.00000333,-0.00000422,0.00000678,-0.0000030
 5,-0.00000031,-0.00000036,-0.00000089,-0.00000234,-0.00000619,-0.00000
 483,0.00000079,-0.00000424,0.00000047,-0.00000171,0.00000129,0.0000012
 4,-0.00000013,-0.00000065,-0.00000166,-0.00000066,-0.00000240,0.000000
 31,-0.00000195,-0.00000063,-0.00000622,-0.00000418,0.00000371,-0.00000
 073,-0.00000071,-0.00000253,0.00000284,-0.00000090,-0.00000289,0.00000
 250,-0.00000428,-0.00000401,0.00000417,0.00000268,-0.00000362,-0.00000
 466,-0.00000472,-0.00000030,-0.00000118,-0.00000389,-0.00000068,-0.000
 00223,-0.00000181,-0.00000340,0.00000424,0.00000030,0.00000178,0.00000
 710,-0.00000433,0.00000245,-0.00000406,0.00000583,0.00000056,-0.000008
 10,0.00000353,-0.00000048,0.00000359,-0.00000623,0.00000078,0.00000244
 ,-0.00000471,-0.00000023,0.00000130,0.00000255,0.00000137,0.00000288,0
 .00000797,0.00000218,0.00000370,0.00000281,0.00000149,0.00000049,0.000
 00106,-0.00000066,0.00000347,0.00000156,0.00000179,0.00000609,0.000004
 47,0.00000458,-0.00000091,0.00000619,-0.00000137,-0.00000072,-0.000000
 46,0.00000480,-0.00000081,0.00000010,-0.00000135,0.00000500,0.00000392
 ,0.00000331,-0.00000081,0.00000380,0.00000253,-0.00000041,0.00000267,0
 .00000092,-0.00000048,-0.00000111,-0.00000104,-0.00000030,0.00000353,0
 .00000383,-0.00000012,0.00000741,0.00000284,0.00000179,0.00000400,0.00
 000155,0.00000265,-0.00000005,0.00000051,-0.00000207,0.00000589,-0.000
 00348,0.00000042,0.00000096,0.00000398,-0.00000334,0.00000110,0.000002
 36,-0.00000192,0.00000095,0.00000026\\\@
 The archive entry for this job was punched.


 THERE IS MORE TO LIFE THAN INCREASING ITS SPEED.

                                       -- GANDHI
 Job cpu time:       2 days  1 hours 16 minutes 51.8 seconds.
 Elapsed time:       0 days  3 hours  8 minutes 17.5 seconds.
 File lengths (MBytes):  RWF=   9709 Int=      0 D2E=      0 Chk=     55 Scr=      1
 Normal termination of Gaussian 16 at Tue Dec 10 04:01:43 2024.
