/mnt/lustre/scratch/nvme/SLURM/9663506/usccqdma.4xBu6FQpUs
OMP_STACKSIZE=0m
GAUSS_PDEF=16
GAUSS_MDEF=65536MB
GAUSS_RDEF=SCF=Direct
 Entering Gaussian System, Link 0=g16.exe
 Initial command:
 /opt/cesga/2020/software/Core/g16/c1/l1.exe "/mnt/lustre/scratch/nvme/SLURM/9663506/usccqdma.4xBu6FQpUs/Gau-1914979.inp" -scrdir="/mnt/lustre/scratch/nvme/SLURM/9663506/usccqdma.4xBu6FQpUs/"
 Default is to use a total of  16 processors:
                               16 via shared-memory
                                1 via Linda
 Entering Link 1 = /opt/cesga/2020/software/Core/g16/c1/l1.exe PID=   1915005.
  
 Copyright (c) 1988-2019, Gaussian, Inc.  All Rights Reserved.
  
 This is part of the Gaussian(R) 16 program.  It is based on
 the Gaussian(R) 09 system (copyright 2009, Gaussian, Inc.),
 the Gaussian(R) 03 system (copyright 2003, Gaussian, Inc.),
 the Gaussian(R) 98 system (copyright 1998, Gaussian, Inc.),
 the Gaussian(R) 94 system (copyright 1995, Gaussian, Inc.),
 the Gaussian 92(TM) system (copyright 1992, Gaussian, Inc.),
 the Gaussian 90(TM) system (copyright 1990, Gaussian, Inc.),
 the Gaussian 88(TM) system (copyright 1988, Gaussian, Inc.),
 the Gaussian 86(TM) system (copyright 1986, Carnegie Mellon
 University), and the Gaussian 82(TM) system (copyright 1983,
 Carnegie Mellon University). Gaussian is a federally registered
 trademark of Gaussian, Inc.
  
 This software contains proprietary and confidential information,
 including trade secrets, belonging to Gaussian, Inc.
  
 This software is provided under written license and may be
 used, copied, transmitted, or stored only in accord with that
 written license.
  
 The following legend is applicable only to US Government
 contracts under FAR:
  
                    RESTRICTED RIGHTS LEGEND
  
 Use, reproduction and disclosure by the US Government is
 subject to restrictions as set forth in subparagraphs (a)
 and (c) of the Commercial Computer Software - Restricted
 Rights clause in FAR 52.227-19.
  
 Gaussian, Inc.
 340 Quinnipiac St., Bldg. 40, Wallingford CT 06492
  
  
 ---------------------------------------------------------------
 Warning -- This program may not be used in any manner that
 competes with the business of Gaussian, Inc. or will provide
 assistance to any competitor of Gaussian, Inc.  The licensee
 of this program is prohibited from giving any competitor of
 Gaussian, Inc. access to this program.  By using this program,
 the user acknowledges that Gaussian, Inc. is engaged in the
 business of creating and licensing software in the field of
 computational chemistry and represents and warrants to the
 licensee that it is not a competitor of Gaussian, Inc. and that
 it will not use this program in any manner prohibited above.
 ---------------------------------------------------------------
  

 Cite this work as:
 Gaussian 16, Revision C.01,
 M. J. Frisch, G. W. Trucks, H. B. Schlegel, G. E. Scuseria, 
 M. A. Robb, J. R. Cheeseman, G. Scalmani, V. Barone, 
 G. A. Petersson, H. Nakatsuji, X. Li, M. Caricato, A. V. Marenich, 
 J. Bloino, B. G. Janesko, R. Gomperts, B. Mennucci, H. P. Hratchian, 
 J. V. Ortiz, A. F. Izmaylov, J. L. Sonnenberg, D. Williams-Young, 
 F. Ding, F. Lipparini, F. Egidi, J. Goings, B. Peng, A. Petrone, 
 T. Henderson, D. Ranasinghe, V. G. Zakrzewski, J. Gao, N. Rega, 
 G. Zheng, W. Liang, M. Hada, M. Ehara, K. Toyota, R. Fukuda, 
 J. Hasegawa, M. Ishida, T. Nakajima, Y. Honda, O. Kitao, H. Nakai, 
 T. Vreven, K. Throssell, J. A. Montgomery, Jr., J. E. Peralta, 
 F. Ogliaro, M. J. Bearpark, J. J. Heyd, E. N. Brothers, K. N. Kudin, 
 V. N. Staroverov, T. A. Keith, R. Kobayashi, J. Normand, 
 K. Raghavachari, A. P. Rendell, J. C. Burant, S. S. Iyengar, 
 J. Tomasi, M. Cossi, J. M. Millam, M. Klene, C. Adamo, R. Cammi, 
 J. W. Ochterski, R. L. Martin, K. Morokuma, O. Farkas, 
 J. B. Foresman, and D. J. Fox, Gaussian, Inc., Wallingford CT, 2019.
 
 ******************************************
 Gaussian 16:  ES64L-G16RevC.01  3-Jul-2019
                 7-Dec-2024 
 ******************************************
 Default route: SCF=Direct
 ----------------------------------------------------
 # m06/genecp scf=tight int=ultrafine 5d freq=noraman
 ----------------------------------------------------
 1/10=4,30=1,38=1/1,3;
 2/12=2,17=6,18=5,40=1/2;
 3/5=7,8=1,11=2,16=1,17=8,25=1,30=1,71=2,74=-54,75=-5,140=1/1,2,3;
 4//1;
 5/5=2,32=2,38=5,98=1/2;
 8/6=4,10=90,11=11/1;
 11/6=1,8=1,9=11,15=111,16=1/1,2,10;
 10/6=1/2;
 6/7=2,8=2,9=2,10=2,28=1/1;
 7/8=1,10=1,25=1/1,2,3,16;
 1/10=4,30=1/3;
 99//99;
 ------
 OPT-TS
 ------
 Symbolic Z-matrix:
 Charge =  0 Multiplicity = 1
 C                     0.12476  -2.68944  -0.47805 
 C                     1.88542  -1.43057   0.36334 
 C                     2.74345  -2.51614   0.31136 
 C                     2.26405  -3.7355   -0.15044 
 C                     0.93908  -3.81856  -0.5425 
 C                    -1.28947  -2.70002  -0.89353 
 C                    -3.22345  -1.43446  -1.13621 
 C                    -3.92993  -2.52996  -1.60626 
 C                    -3.2766   -3.75564  -1.72066 
 C                    -1.94385  -3.84239  -1.36536 
 H                     2.21712  -0.44739   0.69611 
 H                     2.91907  -4.60158  -0.21323 
 H                     0.54804  -4.76011  -0.91678 
 H                    -3.67148  -0.44532  -1.04874 
 H                    -3.81387  -4.62751  -2.09043 
 H                    -1.4202   -4.78969  -1.45802 
 N                     0.60965  -1.51107  -0.02536 
 N                    -1.93928  -1.5264   -0.7831 
 Ir                   -0.7121    0.1905    0.05239 
 O                    -0.07402  -0.78578   2.92173 
 O                    -1.05506   3.13027  -0.8681 
 O                     0.11711   2.41563   1.98612 
 B                    -1.52991   1.82468  -0.91761 
 B                    -1.06766  -0.38913   2.03535 
 B                     0.48876   1.51268   0.99938 
 O                     1.87324   1.56312   0.80404 
 O                    -2.31889  -0.51373   2.61342 
 C                    -2.16112  -1.25815   3.83195 
 C                    -0.68788  -0.94939   4.21466 
 C                     1.25107   3.24388   2.27919 
 C                     2.44228   2.32724   1.88013 
 C                    -2.15623   3.99261  -1.18982 
 C                    -3.01894   3.08618  -2.11583 
 O                    -2.75383   1.77526  -1.58406 
 C                    -0.53566   0.37113   4.95802 
 H                    -0.97306   0.32656   5.96433 
 H                     0.53407   0.59642   5.06582 
 H                    -0.99712   1.19612   4.39856 
 C                     0.02932  -2.05324   4.96365 
 H                     0.0597   -2.98407   4.38667 
 H                     1.06506  -1.74904   5.16414 
 H                    -0.45837  -2.25337   5.92867 
 C                    -3.19644  -0.79504   4.83561 
 H                    -3.16479   0.29124   4.9716 
 H                    -4.20079  -1.06066   4.48193 
 H                    -3.04093  -1.27836   5.81105 
 C                    -2.38922  -2.72416   3.48287 
 H                    -2.36336  -3.37112   4.3701 
 H                    -3.37548  -2.82307   3.01177 
 H                    -1.63521  -3.07968   2.76625 
 C                    -2.85066   4.33656   0.12193 
 H                    -3.66117   5.06417  -0.0193 
 H                    -3.26241   3.44053   0.60478 
 H                    -2.1096    4.76708   0.80707 
 C                    -1.61607   5.2516   -1.83623 
 H                    -1.01144   5.80612  -1.10633 
 H                    -0.97743   5.02387  -2.6976 
 H                    -2.43376   5.90714  -2.16815 
 C                    -4.51083   3.3441   -2.04965 
 H                    -5.03596   2.66488  -2.7337 
 H                    -4.90489   3.17738  -1.04138 
 H                    -4.74305   4.37529  -2.35216 
 C                    -2.55836   3.11264  -3.56704 
 H                    -3.02415   2.27568  -4.10251 
 H                    -2.85048   4.04669  -4.06559 
 H                    -1.46886   3.00652  -3.65339 
 C                     3.6733    3.04612   1.36728 
 H                     3.4457    3.68428   0.5058 
 H                     4.12162   3.66979   2.15399 
 H                     4.42257   2.30568   1.05355 
 C                     2.83681   1.33528   2.96901 
 H                     1.96834   0.75135   3.3059 
 H                     3.57277   0.63013   2.55778 
 H                     3.29723   1.83284   3.83325 
 C                     1.21728   3.63724   3.74188 
 H                     0.33658   4.2629    3.93605 
 H                     1.15742   2.76011   4.39566 
 H                     2.11214   4.21657   4.01217 
 C                     1.13775   4.48661   1.40436 
 H                     1.94511   5.20499   1.60189 
 H                     1.13706   4.22199   0.33861 
 H                     0.17973   4.97818   1.62025 
 H                    -1.89627   1.14041   0.61899 
 C                     2.17711  -0.25344  -2.50549 
 O                     1.7572   -1.3971   -2.68502 
 C                     3.66678   0.04446  -2.48932 
 H                     3.901     0.82232  -3.23331 
 H                     3.92068   0.49278  -1.51126 
 C                    -0.07858   0.57469  -2.14203 
 H                    -0.59083   1.2885   -2.79998 
 H                    -0.29362  -0.41456  -2.55706 
 N                     1.34863   0.80265  -2.26939 
 C                     1.82767   2.17074  -2.21333 
 H                     2.19702   2.50974  -3.19396 
 H                     0.99632   2.81592  -1.91044 
 H                     2.62196   2.2917   -1.46706 
 C                     4.50859  -1.19918  -2.72302 
 H                     4.14082  -2.00398  -2.07032 
 H                     4.34002  -1.56359  -3.74844 
 C                     5.99538  -0.98128  -2.48006 
 H                     6.15401  -0.67937  -1.43019 
 H                     6.52109  -1.94375  -2.59522 
 C                     6.6431    0.04359  -3.40176 
 H                     6.41089  -0.21335  -4.44899 
 H                     6.1987    1.03666  -3.22932 
 C                     8.14832   0.12381  -3.20832 
 H                     8.60991   0.87193  -3.86492 
 H                     8.39686   0.39129  -2.17155 
 H                     8.62478  -0.84418  -3.41788 
 C                     4.15392  -2.36137   0.78921 
 F                     4.26127  -2.64958   2.09049 
 F                     4.98482  -3.17672   0.1309 
 F                     4.59818  -1.10825   0.62567 
 C                    -5.37118  -2.43662  -1.99756 
 F                    -6.11727  -3.26835  -1.25978 
 F                    -5.85798  -1.20641  -1.84936 
 F                    -5.54052  -2.79768  -3.27535 
 

 GradGradGradGradGradGradGradGradGradGradGradGradGradGradGradGradGradGrad
 Berny optimization.
 Initialization pass.
 Trust Radius=3.00D-01 FncErr=1.00D-07 GrdErr=1.00D-07 EigMax=2.50D+02 EigMin=1.00D-04
 Number of steps in this run=      2 maximum allowed number of steps=      2.
 GradGradGradGradGradGradGradGradGradGradGradGradGradGradGradGradGradGrad

 Stoichiometry    C38H59B3F6IrN3O7
 Framework group  C1[X(C38H59B3F6IrN3O7)]
 Deg. of freedom   345
 Full point group                 C1      NOp   1
 Largest Abelian subgroup         C1      NOp   1
 Largest concise Abelian subgroup C1      NOp   1
                         Standard orientation:                         
 ---------------------------------------------------------------------
 Center     Atomic      Atomic             Coordinates (Angstroms)
 Number     Number       Type             X           Y           Z
 ---------------------------------------------------------------------
      1          6           0        0.124760   -2.689440   -0.478051
      2          6           0        1.885419   -1.430570    0.363339
      3          6           0        2.743449   -2.516140    0.311359
      4          6           0        2.264050   -3.735500   -0.150441
      5          6           0        0.939080   -3.818560   -0.542501
      6          6           0       -1.289470   -2.700020   -0.893531
      7          6           0       -3.223451   -1.434460   -1.136211
      8          6           0       -3.929931   -2.529960   -1.606261
      9          6           0       -3.276600   -3.755640   -1.720661
     10          6           0       -1.943850   -3.842390   -1.365361
     11          1           0        2.217119   -0.447390    0.696109
     12          1           0        2.919070   -4.601580   -0.213231
     13          1           0        0.548040   -4.760110   -0.916781
     14          1           0       -3.671481   -0.445320   -1.048741
     15          1           0       -3.813870   -4.627510   -2.090431
     16          1           0       -1.420200   -4.789690   -1.458021
     17          7           0        0.609649   -1.511070   -0.025361
     18          7           0       -1.939281   -1.526400   -0.783101
     19         77           0       -0.712101    0.190500    0.052389
     20          8           0       -0.074021   -0.785780    2.921729
     21          8           0       -1.055061    3.130270   -0.868101
     22          8           0        0.117109    2.415630    1.986119
     23          5           0       -1.529911    1.824680   -0.917611
     24          5           0       -1.067661   -0.389130    2.035349
     25          5           0        0.488759    1.512680    0.999379
     26          8           0        1.873239    1.563120    0.804039
     27          8           0       -2.318891   -0.513730    2.613419
     28          6           0       -2.161121   -1.258150    3.831949
     29          6           0       -0.687881   -0.949390    4.214659
     30          6           0        1.251069    3.243880    2.279189
     31          6           0        2.442279    2.327240    1.880129
     32          6           0       -2.156231    3.992610   -1.189821
     33          6           0       -3.018941    3.086180   -2.115831
     34          8           0       -2.753831    1.775260   -1.584061
     35          6           0       -0.535661    0.371130    4.958019
     36          1           0       -0.973061    0.326560    5.964329
     37          1           0        0.534069    0.596420    5.065819
     38          1           0       -0.997121    1.196120    4.398559
     39          6           0        0.029319   -2.053240    4.963649
     40          1           0        0.059700   -2.984070    4.386669
     41          1           0        1.065059   -1.749040    5.164139
     42          1           0       -0.458371   -2.253370    5.928669
     43          6           0       -3.196441   -0.795040    4.835609
     44          1           0       -3.164791    0.291240    4.971599
     45          1           0       -4.200791   -1.060660    4.481929
     46          1           0       -3.040931   -1.278360    5.811049
     47          6           0       -2.389220   -2.724160    3.482869
     48          1           0       -2.363360   -3.371120    4.370099
     49          1           0       -3.375480   -2.823070    3.011769
     50          1           0       -1.635210   -3.079680    2.766249
     51          6           0       -2.850661    4.336560    0.121929
     52          1           0       -3.661171    5.064170   -0.019301
     53          1           0       -3.262411    3.440530    0.604779
     54          1           0       -2.109601    4.767080    0.807069
     55          6           0       -1.616071    5.251600   -1.836231
     56          1           0       -1.011441    5.806120   -1.106331
     57          1           0       -0.977431    5.023870   -2.697601
     58          1           0       -2.433761    5.907140   -2.168151
     59          6           0       -4.510831    3.344100   -2.049651
     60          1           0       -5.035961    2.664880   -2.733701
     61          1           0       -4.904891    3.177380   -1.041381
     62          1           0       -4.743051    4.375290   -2.352161
     63          6           0       -2.558361    3.112640   -3.567041
     64          1           0       -3.024151    2.275680   -4.102511
     65          1           0       -2.850481    4.046690   -4.065591
     66          1           0       -1.468861    3.006520   -3.653391
     67          6           0        3.673299    3.046120    1.367279
     68          1           0        3.445699    3.684280    0.505799
     69          1           0        4.121619    3.669791    2.153989
     70          1           0        4.422569    2.305681    1.053549
     71          6           0        2.836809    1.335280    2.969009
     72          1           0        1.968339    0.751350    3.305899
     73          1           0        3.572769    0.630130    2.557779
     74          1           0        3.297229    1.832840    3.833249
     75          6           0        1.217279    3.637240    3.741879
     76          1           0        0.336579    4.262900    3.936049
     77          1           0        1.157419    2.760110    4.395659
     78          1           0        2.112139    4.216570    4.012169
     79          6           0        1.137749    4.486610    1.404359
     80          1           0        1.945109    5.204990    1.601889
     81          1           0        1.137059    4.221990    0.338609
     82          1           0        0.179729    4.978180    1.620249
     83          1           0       -1.896271    1.140410    0.618989
     84          6           0        2.177109   -0.253440   -2.505491
     85          8           0        1.757199   -1.397100   -2.685021
     86          6           0        3.666779    0.044460   -2.489321
     87          1           0        3.900999    0.822320   -3.233311
     88          1           0        3.920679    0.492780   -1.511261
     89          6           0       -0.078581    0.574690   -2.142031
     90          1           0       -0.590831    1.288500   -2.799981
     91          1           0       -0.293621   -0.414560   -2.557061
     92          7           0        1.348629    0.802650   -2.269391
     93          6           0        1.827669    2.170740   -2.213331
     94          1           0        2.197019    2.509740   -3.193961
     95          1           0        0.996319    2.815920   -1.910441
     96          1           0        2.621959    2.291700   -1.467061
     97          6           0        4.508589   -1.199179   -2.723021
     98          1           0        4.140819   -2.003979   -2.070321
     99          1           0        4.340019   -1.563589   -3.748441
    100          6           0        5.995379   -0.981279   -2.480061
    101          1           0        6.154009   -0.679369   -1.430191
    102          1           0        6.521089   -1.943749   -2.595221
    103          6           0        6.643099    0.043591   -3.401761
    104          1           0        6.410889   -0.213349   -4.448991
    105          1           0        6.198699    1.036661   -3.229321
    106          6           0        8.148319    0.123811   -3.208321
    107          1           0        8.609909    0.871931   -3.864921
    108          1           0        8.396859    0.391291   -2.171551
    109          1           0        8.624779   -0.844179   -3.417881
    110          6           0        4.153919   -2.361369    0.789209
    111          9           0        4.261270   -2.649579    2.090489
    112          9           0        4.984820   -3.176719    0.130899
    113          9           0        4.598179   -1.108249    0.625669
    114          6           0       -5.371181   -2.436620   -1.997561
    115          9           0       -6.117270   -3.268350   -1.259781
    116          9           0       -5.857981   -1.206410   -1.849361
    117          9           0       -5.540520   -2.797680   -3.275351
 ---------------------------------------------------------------------
 Rotational constants (GHZ):           0.0519279           0.0363642           0.0350812
 General basis read from cards:  (5D, 7F)
 ======================================================================================================
                                       Pseudopotential Parameters
 ======================================================================================================
  Center     Atomic      Valence      Angular      Power
  Number     Number     Electrons     Momentum     of R      Exponent        Coefficient   SO-Coeffient
 ======================================================================================================
    1          6
                                   No pseudopotential on this center.
    2          6
                                   No pseudopotential on this center.
    3          6
                                   No pseudopotential on this center.
    4          6
                                   No pseudopotential on this center.
    5          6
                                   No pseudopotential on this center.
    6          6
                                   No pseudopotential on this center.
    7          6
                                   No pseudopotential on this center.
    8          6
                                   No pseudopotential on this center.
    9          6
                                   No pseudopotential on this center.
   10          6
                                   No pseudopotential on this center.
   11          1
                                   No pseudopotential on this center.
   12          1
                                   No pseudopotential on this center.
   13          1
                                   No pseudopotential on this center.
   14          1
                                   No pseudopotential on this center.
   15          1
                                   No pseudopotential on this center.
   16          1
                                   No pseudopotential on this center.
   17          7
                                   No pseudopotential on this center.
   18          7
                                   No pseudopotential on this center.
   19         77           17
                                      G and up 
                                                     1      823.5880147       -0.15780140    0.00000000
                                                     2      364.6613336    -1517.52704460    0.00000000
                                                     2       55.7082801     -316.53065290    0.00000000
                                                     2       12.0464544      -91.88809410    0.00000000
                                                     2        3.5120610       -9.22417730    0.00000000
                                      S - G
                                                     0      188.0490770        3.15780140    0.00000000
                                                     1      340.4194712       26.83225770    0.00000000
                                                     2      128.2373673      800.42500070    0.00000000
                                                     2       33.8644961      369.40506830    0.00000000
                                                     2        4.7560005      242.41718990    0.00000000
                                                     2        3.9649974     -118.21732820    0.00000000
                                      P - G
                                                     0      289.7291139        2.15780140    0.00000000
                                                     1       87.4633789       61.96786100    0.00000000
                                                     2       30.4363766      269.05819860    0.00000000
                                                     2        4.0553412      231.16547930    0.00000000
                                                     2        3.5525341     -133.69526670    0.00000000
                                      D - G
                                                     0      136.4017106        3.15780140    0.00000000
                                                     1       95.0776925       45.93498030    0.00000000
                                                     2       49.2258410      359.03446680    0.00000000
                                                     2       15.0874145      176.47401190    0.00000000
                                                     2        4.0405764       54.51552860    0.00000000
                                      F - G
                                                     0      127.3507908        3.95461970    0.00000000
                                                     1       66.2364374       52.97736550    0.00000000
                                                     2       34.4299229      274.86433830    0.00000000
                                                     2       10.1995721      137.20473380    0.00000000
                                                     2        2.5409702       14.86333050    0.00000000
   20          8
                                   No pseudopotential on this center.
   21          8
                                   No pseudopotential on this center.
   22          8
                                   No pseudopotential on this center.
   23          5
                                   No pseudopotential on this center.
   24          5
                                   No pseudopotential on this center.
   25          5
                                   No pseudopotential on this center.
   26          8
                                   No pseudopotential on this center.
   27          8
                                   No pseudopotential on this center.
   28          6
                                   No pseudopotential on this center.
   29          6
                                   No pseudopotential on this center.
   30          6
                                   No pseudopotential on this center.
   31          6
                                   No pseudopotential on this center.
   32          6
                                   No pseudopotential on this center.
   33          6
                                   No pseudopotential on this center.
   34          8
                                   No pseudopotential on this center.
   35          6
                                   No pseudopotential on this center.
   36          1
                                   No pseudopotential on this center.
   37          1
                                   No pseudopotential on this center.
   38          1
                                   No pseudopotential on this center.
   39          6
                                   No pseudopotential on this center.
   40          1
                                   No pseudopotential on this center.
   41          1
                                   No pseudopotential on this center.
   42          1
                                   No pseudopotential on this center.
   43          6
                                   No pseudopotential on this center.
   44          1
                                   No pseudopotential on this center.
   45          1
                                   No pseudopotential on this center.
   46          1
                                   No pseudopotential on this center.
   47          6
                                   No pseudopotential on this center.
   48          1
                                   No pseudopotential on this center.
   49          1
                                   No pseudopotential on this center.
   50          1
                                   No pseudopotential on this center.
   51          6
                                   No pseudopotential on this center.
   52          1
                                   No pseudopotential on this center.
   53          1
                                   No pseudopotential on this center.
   54          1
                                   No pseudopotential on this center.
   55          6
                                   No pseudopotential on this center.
   56          1
                                   No pseudopotential on this center.
   57          1
                                   No pseudopotential on this center.
   58          1
                                   No pseudopotential on this center.
   59          6
                                   No pseudopotential on this center.
   60          1
                                   No pseudopotential on this center.
   61          1
                                   No pseudopotential on this center.
   62          1
                                   No pseudopotential on this center.
   63          6
                                   No pseudopotential on this center.
   64          1
                                   No pseudopotential on this center.
   65          1
                                   No pseudopotential on this center.
   66          1
                                   No pseudopotential on this center.
   67          6
                                   No pseudopotential on this center.
   68          1
                                   No pseudopotential on this center.
   69          1
                                   No pseudopotential on this center.
   70          1
                                   No pseudopotential on this center.
   71          6
                                   No pseudopotential on this center.
   72          1
                                   No pseudopotential on this center.
   73          1
                                   No pseudopotential on this center.
   74          1
                                   No pseudopotential on this center.
   75          6
                                   No pseudopotential on this center.
   76          1
                                   No pseudopotential on this center.
   77          1
                                   No pseudopotential on this center.
   78          1
                                   No pseudopotential on this center.
   79          6
                                   No pseudopotential on this center.
   80          1
                                   No pseudopotential on this center.
   81          1
                                   No pseudopotential on this center.
   82          1
                                   No pseudopotential on this center.
   83          1
                                   No pseudopotential on this center.
   84          6
                                   No pseudopotential on this center.
   85          8
                                   No pseudopotential on this center.
   86          6
                                   No pseudopotential on this center.
   87          1
                                   No pseudopotential on this center.
   88          1
                                   No pseudopotential on this center.
   89          6
                                   No pseudopotential on this center.
   90          1
                                   No pseudopotential on this center.
   91          1
                                   No pseudopotential on this center.
   92          7
                                   No pseudopotential on this center.
   93          6
                                   No pseudopotential on this center.
   94          1
                                   No pseudopotential on this center.
   95          1
                                   No pseudopotential on this center.
   96          1
                                   No pseudopotential on this center.
   97          6
                                   No pseudopotential on this center.
   98          1
                                   No pseudopotential on this center.
   99          1
                                   No pseudopotential on this center.
  100          6
                                   No pseudopotential on this center.
  101          1
                                   No pseudopotential on this center.
  102          1
                                   No pseudopotential on this center.
  103          6
                                   No pseudopotential on this center.
  104          1
                                   No pseudopotential on this center.
  105          1
                                   No pseudopotential on this center.
  106          6
                                   No pseudopotential on this center.
  107          1
                                   No pseudopotential on this center.
  108          1
                                   No pseudopotential on this center.
  109          1
                                   No pseudopotential on this center.
  110          6
                                   No pseudopotential on this center.
  111          9
                                   No pseudopotential on this center.
  112          9
                                   No pseudopotential on this center.
  113          9
                                   No pseudopotential on this center.
  114          6
                                   No pseudopotential on this center.
  115          9
                                   No pseudopotential on this center.
  116          9
                                   No pseudopotential on this center.
  117          9
                                   No pseudopotential on this center.
 ======================================================================================================
 There are   997 symmetry adapted cartesian basis functions of A   symmetry.
 There are   938 symmetry adapted basis functions of A   symmetry.
   938 basis functions,  1875 primitive gaussians,   997 cartesian basis functions
   225 alpha electrons      225 beta electrons
       nuclear repulsion energy     10479.2689107298 Hartrees.
 NAtoms=  117 NActive=  117 NUniq=  117 SFac= 1.00D+00 NAtFMM=   60 NAOKFM=T Big=T
 Integral buffers will be    131072 words long.
 Raffenetti 2 integral format.
 Two-electron integral symmetry is turned on.
 One-electron integrals computed using PRISM.
   1 Symmetry operations used in ECPInt.
 ECPInt:  NShTT=   62835 NPrTT=  387974 LenC2=   45274 LenP2D=  137867.
 LDataN:  DoStor=T MaxTD1= 6 Len=  172
 NBasis=   938 RedAO= T EigKep=  4.30D-04  NBF=   938
 NBsUse=   938 1.00D-06 EigRej= -1.00D+00 NBFU=   938
 Defaulting to unpruned grid for atomic number  77.
 ExpMin= 2.90D-02 ExpMax= 7.00D+03 ExpMxC= 1.05D+03 IAcc=3 IRadAn=         5 AccDes= 0.00D+00
 Harris functional with IExCor= 1009 and IRadAn=       5 diagonalized for initial guess.
 HarFok:  IExCor= 1009 AccDes= 0.00D+00 IRadAn=         5 IDoV= 1 UseB2=F ITyADJ=14
 ICtDFT=  3500011 ScaDFX=  1.000000  1.000000  1.000000  1.000000
 Defaulting to unpruned grid for atomic number  77.
 FoFCou: FMM=F IPFlag=           0 FMFlag=      100000 FMFlg1=        2001
         NFxFlg=           0 DoJE=T BraDBF=F KetDBF=T FulRan=T
         wScrn=  0.000000 ICntrl=       500 IOpCl=  0 I1Cent=   200000004 NGrid=           0
         NMat0=    1 NMatS0=      1 NMatT0=    0 NMatD0=    1 NMtDS0=    0 NMtDT0=    0
 Petite list used in FoFCou.
 Requested convergence on RMS density matrix=1.00D-08 within 128 cycles.
 Requested convergence on MAX density matrix=1.00D-06.
 Requested convergence on             energy=1.00D-06.
 No special actions if energy rises.
 Defaulting to unpruned grid for atomic number  77.
 Defaulting to unpruned grid for atomic number  77.
 Defaulting to unpruned grid for atomic number  77.
 Defaulting to unpruned grid for atomic number  77.
 Defaulting to unpruned grid for atomic number  77.
 Defaulting to unpruned grid for atomic number  77.
 Defaulting to unpruned grid for atomic number  77.
 Defaulting to unpruned grid for atomic number  77.
 Defaulting to unpruned grid for atomic number  77.
 Defaulting to unpruned grid for atomic number  77.
 Defaulting to unpruned grid for atomic number  77.
 Defaulting to unpruned grid for atomic number  77.
 Defaulting to unpruned grid for atomic number  77.
 Defaulting to unpruned grid for atomic number  77.
 Defaulting to unpruned grid for atomic number  77.
 Defaulting to unpruned grid for atomic number  77.
 SCF Done:  E(RM06) =  -2951.38948887     A.U. after   14 cycles
            NFock= 14  Conv=0.97D-08     -V/T= 2.0310
 DoSCS=F DFT=T ScalE2(SS,OS)=  1.000000  1.000000
 Range of M.O.s used for correlation:     1   938
 NBasis=   938 NAE=   225 NBE=   225 NFC=     0 NFV=     0
 NROrb=    938 NOA=   225 NOB=   225 NVA=   713 NVB=   713

 **** Warning!!: The largest alpha MO coefficient is  0.11974338D+02


 **** Warning!!: The smallest alpha delta epsilon is  0.99720577D-01

   1 Symmetry operations used in ECPInt.
 ECPInt:  NShTT=   62835 NPrTT=  387974 LenC2=   45274 LenP2D=  137867.
 LDataN:  DoStor=T MaxTD1= 7 Len=  274
 Number of processors reduced to   6 by ecpmxn.
 Symmetrizing basis deriv contribution to polar:
 IMax=3 JMax=2 DiffMx= 0.00D+00
 G2DrvN: will do   118 centers at a time, making    1 passes.
 Calling FoFCou, ICntrl=  3107 FMM=T I1Cent=   0 AccDes= 0.00D+00.
 Defaulting to unpruned grid for atomic number  77.
 Defaulting to unpruned grid for atomic number  77.
 Defaulting to unpruned grid for atomic number  77.
 Defaulting to unpruned grid for atomic number  77.
 Defaulting to unpruned grid for atomic number  77.
 Defaulting to unpruned grid for atomic number  77.
 Defaulting to unpruned grid for atomic number  77.
 Defaulting to unpruned grid for atomic number  77.
 Defaulting to unpruned grid for atomic number  77.
 Defaulting to unpruned grid for atomic number  77.
 Defaulting to unpruned grid for atomic number  77.
 Defaulting to unpruned grid for atomic number  77.
 Defaulting to unpruned grid for atomic number  77.
 Defaulting to unpruned grid for atomic number  77.
 Defaulting to unpruned grid for atomic number  77.
 Defaulting to unpruned grid for atomic number  77.
 End of G2Drv F.D. properties file   721 does not exist.
 End of G2Drv F.D. properties file   722 does not exist.
 End of G2Drv F.D. properties file   788 does not exist.
          IDoAtm=11111111111111111111111111111111111111111111111111
          IDoAtm=11111111111111111111111111111111111111111111111111
          IDoAtm=11111111111111111
          Differentiating once with respect to electric field.
                with respect to dipole field.
          Differentiating once with respect to nuclear coordinates.
 Defaulting to unpruned grid for atomic number  77.
 CalDSu exits because no D1Ps are significant.
 Defaulting to unpruned grid for atomic number  77.
 Defaulting to unpruned grid for atomic number  77.
 Defaulting to unpruned grid for atomic number  77.
 Defaulting to unpruned grid for atomic number  77.
 Defaulting to unpruned grid for atomic number  77.
 Defaulting to unpruned grid for atomic number  77.
 Defaulting to unpruned grid for atomic number  77.
 Defaulting to unpruned grid for atomic number  77.
 Defaulting to unpruned grid for atomic number  77.
 Defaulting to unpruned grid for atomic number  77.
 Defaulting to unpruned grid for atomic number  77.
 Defaulting to unpruned grid for atomic number  77.
 Defaulting to unpruned grid for atomic number  77.
 Defaulting to unpruned grid for atomic number  77.
 Defaulting to unpruned grid for atomic number  77.
 Defaulting to unpruned grid for atomic number  77.
          There are   354 degrees of freedom in the 1st order CPHF.  IDoFFX=6 NUNeed=     3.
    351 vectors produced by pass  0 Test12= 1.60D-13 1.00D-09 XBig12= 5.27D+02 1.13D+01.
 AX will form    72 AO Fock derivatives at one time.
    351 vectors produced by pass  1 Test12= 1.60D-13 1.00D-09 XBig12= 8.98D+01 1.22D+00.
    351 vectors produced by pass  2 Test12= 1.60D-13 1.00D-09 XBig12= 1.04D+00 9.97D-02.
    351 vectors produced by pass  3 Test12= 1.60D-13 1.00D-09 XBig12= 7.89D-03 5.72D-03.
    351 vectors produced by pass  4 Test12= 1.60D-13 1.00D-09 XBig12= 3.25D-05 2.97D-04.
    307 vectors produced by pass  5 Test12= 1.60D-13 1.00D-09 XBig12= 7.07D-08 1.25D-05.
     82 vectors produced by pass  6 Test12= 1.60D-13 1.00D-09 XBig12= 9.92D-11 5.06D-07.
      3 vectors produced by pass  7 Test12= 1.60D-13 1.00D-09 XBig12= 1.27D-13 1.91D-08.
      1 vectors produced by pass  8 Test12= 1.60D-13 1.00D-09 XBig12= 1.67D-16 1.00D-09.
 InvSVY:  IOpt=1 It=  1 EMax= 1.78D-14
 Solved reduced A of dimension  2148 with   354 vectors.
 Isotropic polarizability for W=    0.000000      524.09 Bohr**3.
 End of Minotr F.D. properties file   721 does not exist.
 End of Minotr F.D. properties file   722 does not exist.
 End of Minotr F.D. properties file   788 does not exist.
 Hyperfine terms turned off by default for NAtoms > 100.

 **********************************************************************

            Population analysis using the SCF Density.

 **********************************************************************

 Orbital symmetries:
       Occupied  (A) (A) (A) (A) (A) (A) (A) (A) (A) (A) (A) (A)
                 (A) (A) (A) (A) (A) (A) (A) (A) (A) (A) (A) (A)
                 (A) (A) (A) (A) (A) (A) (A) (A) (A) (A) (A) (A)
                 (A) (A) (A) (A) (A) (A) (A) (A) (A) (A) (A) (A)
                 (A) (A) (A) (A) (A) (A) (A) (A) (A) (A) (A) (A)
                 (A) (A) (A) (A) (A) (A) (A) (A) (A) (A) (A) (A)
                 (A) (A) (A) (A) (A) (A) (A) (A) (A) (A) (A) (A)
                 (A) (A) (A) (A) (A) (A) (A) (A) (A) (A) (A) (A)
                 (A) (A) (A) (A) (A) (A) (A) (A) (A) (A) (A) (A)
                 (A) (A) (A) (A) (A) (A) (A) (A) (A) (A) (A) (A)
                 (A) (A) (A) (A) (A) (A) (A) (A) (A) (A) (A) (A)
                 (A) (A) (A) (A) (A) (A) (A) (A) (A) (A) (A) (A)
                 (A) (A) (A) (A) (A) (A) (A) (A) (A) (A) (A) (A)
                 (A) (A) (A) (A) (A) (A) (A) (A) (A) (A) (A) (A)
                 (A) (A) (A) (A) (A) (A) (A) (A) (A) (A) (A) (A)
                 (A) (A) (A) (A) (A) (A) (A) (A) (A) (A) (A) (A)
                 (A) (A) (A) (A) (A) (A) (A) (A) (A) (A) (A) (A)
                 (A) (A) (A) (A) (A) (A) (A) (A) (A) (A) (A) (A)
                 (A) (A) (A) (A) (A) (A) (A) (A) (A)
       Virtual   (A) (A) (A) (A) (A) (A) (A) (A) (A) (A) (A) (A)
                 (A) (A) (A) (A) (A) (A) (A) (A) (A) (A) (A) (A)
                 (A) (A) (A) (A) (A) (A) (A) (A) (A) (A) (A) (A)
                 (A) (A) (A) (A) (A) (A) (A) (A) (A) (A) (A) (A)
                 (A) (A) (A) (A) (A) (A) (A) (A) (A) (A) (A) (A)
                 (A) (A) (A) (A) (A) (A) (A) (A) (A) (A) (A) (A)
                 (A) (A) (A) (A) (A) (A) (A) (A) (A) (A) (A) (A)
                 (A) (A) (A) (A) (A) (A) (A) (A) (A) (A) (A) (A)
                 (A) (A) (A) (A) (A) (A) (A) (A) (A) (A) (A) (A)
                 (A) (A) (A) (A) (A) (A) (A) (A) (A) (A) (A) (A)
                 (A) (A) (A) (A) (A) (A) (A) (A) (A) (A) (A) (A)
                 (A) (A) (A) (A) (A) (A) (A) (A) (A) (A) (A) (A)
                 (A) (A) (A) (A) (A) (A) (A) (A) (A) (A) (A) (A)
                 (A) (A) (A) (A) (A) (A) (A) (A) (A) (A) (A) (A)
                 (A) (A) (A) (A) (A) (A) (A) (A) (A) (A) (A) (A)
                 (A) (A) (A) (A) (A) (A) (A) (A) (A) (A) (A) (A)
                 (A) (A) (A) (A) (A) (A) (A) (A) (A) (A) (A) (A)
                 (A) (A) (A) (A) (A) (A) (A) (A) (A) (A) (A) (A)
                 (A) (A) (A) (A) (A) (A) (A) (A) (A) (A) (A) (A)
                 (A) (A) (A) (A) (A) (A) (A) (A) (A) (A) (A) (A)
                 (A) (A) (A) (A) (A) (A) (A) (A) (A) (A) (A) (A)
                 (A) (A) (A) (A) (A) (A) (A) (A) (A) (A) (A) (A)
                 (A) (A) (A) (A) (A) (A) (A) (A) (A) (A) (A) (A)
                 (A) (A) (A) (A) (A) (A) (A) (A) (A) (A) (A) (A)
                 (A) (A) (A) (A) (A) (A) (A) (A) (A) (A) (A) (A)
                 (A) (A) (A) (A) (A) (A) (A) (A) (A) (A) (A) (A)
                 (A) (A) (A) (A) (A) (A) (A) (A) (A) (A) (A) (A)
                 (A) (A) (A) (A) (A) (A) (A) (A) (A) (A) (A) (A)
                 (A) (A) (A) (A) (A) (A) (A) (A) (A) (A) (A) (A)
                 (A) (A) (A) (A) (A) (A) (A) (A) (A) (A) (A) (A)
                 (A) (A) (A) (A) (A) (A) (A) (A) (A) (A) (A) (A)
                 (A) (A) (A) (A) (A) (A) (A) (A) (A) (A) (A) (A)
                 (A) (A) (A) (A) (A) (A) (A) (A) (A) (A) (A) (A)
                 (A) (A) (A) (A) (A) (A) (A) (A) (A) (A) (A) (A)
                 (A) (A) (A) (A) (A) (A) (A) (A) (A) (A) (A) (A)
                 (A) (A) (A) (A) (A) (A) (A) (A) (A) (A) (A) (A)
                 (A) (A) (A) (A) (A) (A) (A) (A) (A) (A) (A) (A)
                 (A) (A) (A) (A) (A) (A) (A) (A) (A) (A) (A) (A)
                 (A) (A) (A) (A) (A) (A) (A) (A) (A) (A) (A) (A)
                 (A) (A) (A) (A) (A) (A) (A) (A) (A) (A) (A) (A)
                 (A) (A) (A) (A) (A) (A) (A) (A) (A) (A) (A) (A)
                 (A) (A) (A) (A) (A) (A) (A) (A) (A) (A) (A) (A)
                 (A) (A) (A) (A) (A) (A) (A) (A) (A) (A) (A) (A)
                 (A) (A) (A) (A) (A) (A) (A) (A) (A) (A) (A) (A)
                 (A) (A) (A) (A) (A) (A) (A) (A) (A) (A) (A) (A)
                 (A) (A) (A) (A) (A) (A) (A) (A) (A) (A) (A) (A)
                 (A) (A) (A) (A) (A) (A) (A) (A) (A) (A) (A) (A)
                 (A) (A) (A) (A) (A) (A) (A) (A) (A) (A) (A) (A)
                 (A) (A) (A) (A) (A) (A) (A) (A) (A) (A) (A) (A)
                 (A) (A) (A) (A) (A) (A) (A) (A) (A) (A) (A) (A)
                 (A) (A) (A) (A) (A) (A) (A) (A) (A) (A) (A) (A)
                 (A) (A) (A) (A) (A) (A) (A) (A) (A) (A) (A) (A)
                 (A) (A) (A) (A) (A) (A) (A) (A) (A) (A) (A) (A)
                 (A) (A) (A) (A) (A) (A) (A) (A) (A) (A) (A) (A)
                 (A) (A) (A) (A) (A) (A) (A) (A) (A) (A) (A) (A)
                 (A) (A) (A) (A) (A) (A) (A) (A) (A) (A) (A) (A)
                 (A) (A) (A) (A) (A) (A) (A) (A) (A) (A) (A) (A)
                 (A) (A) (A) (A) (A) (A) (A) (A) (A) (A) (A) (A)
                 (A) (A) (A) (A) (A) (A) (A) (A) (A) (A) (A) (A)
                 (A) (A) (A) (A) (A)
 The electronic state is 1-A.
 Alpha  occ. eigenvalues --  -24.83418 -24.83309 -24.83260 -24.82863 -24.82855
 Alpha  occ. eigenvalues --  -24.82673 -19.21011 -19.20995 -19.20772 -19.20747
 Alpha  occ. eigenvalues --  -19.20741 -19.19993 -19.16688 -14.46561 -14.45682
 Alpha  occ. eigenvalues --  -14.40684 -10.51642 -10.51563 -10.33429 -10.33180
 Alpha  occ. eigenvalues --  -10.32287 -10.31824 -10.30963 -10.30414 -10.30070
 Alpha  occ. eigenvalues --  -10.29957 -10.29948 -10.29926 -10.29828 -10.29806
 Alpha  occ. eigenvalues --  -10.29623 -10.29565 -10.29450 -10.29293 -10.29145
 Alpha  occ. eigenvalues --  -10.25306 -10.24652 -10.23545 -10.23316 -10.23296
 Alpha  occ. eigenvalues --  -10.23192 -10.23192 -10.23169 -10.23116 -10.23095
 Alpha  occ. eigenvalues --  -10.23066 -10.22768 -10.22726 -10.22627 -10.22620
 Alpha  occ. eigenvalues --  -10.22580 -10.22532 -10.22376 -10.22195  -6.82947
 Alpha  occ. eigenvalues --   -6.80213  -6.79662  -3.64676  -2.07703  -2.06474
 Alpha  occ. eigenvalues --   -2.05465  -1.35996  -1.35887  -1.27520  -1.27349
 Alpha  occ. eigenvalues --   -1.26937  -1.26936  -1.06987  -1.06758  -1.06322
 Alpha  occ. eigenvalues --   -1.02576  -1.01279  -1.00066  -0.99800  -0.99396
 Alpha  occ. eigenvalues --   -0.98823  -0.92126  -0.87022  -0.86135  -0.84567
 Alpha  occ. eigenvalues --   -0.81043  -0.80928  -0.80785  -0.80715  -0.80440
 Alpha  occ. eigenvalues --   -0.76074  -0.75953  -0.75467  -0.75392  -0.74947
 Alpha  occ. eigenvalues --   -0.72755  -0.70936  -0.70891  -0.70572  -0.70404
 Alpha  occ. eigenvalues --   -0.69650  -0.69535  -0.69008  -0.68158  -0.68150
 Alpha  occ. eigenvalues --   -0.67693  -0.66703  -0.65661  -0.65546  -0.62431
 Alpha  occ. eigenvalues --   -0.62191  -0.62088  -0.61970  -0.61919  -0.61667
 Alpha  occ. eigenvalues --   -0.61506  -0.61008  -0.60826  -0.60566  -0.57205
 Alpha  occ. eigenvalues --   -0.56481  -0.55366  -0.55062  -0.54827  -0.54792
 Alpha  occ. eigenvalues --   -0.54525  -0.53847  -0.53395  -0.51968  -0.51771
 Alpha  occ. eigenvalues --   -0.50222  -0.49727  -0.49512  -0.49333  -0.49181
 Alpha  occ. eigenvalues --   -0.49109  -0.48735  -0.48555  -0.48156  -0.47833
 Alpha  occ. eigenvalues --   -0.47450  -0.47350  -0.47238  -0.46941  -0.46816
 Alpha  occ. eigenvalues --   -0.46565  -0.46328  -0.45928  -0.45870  -0.45603
 Alpha  occ. eigenvalues --   -0.45347  -0.45328  -0.45121  -0.45066  -0.44959
 Alpha  occ. eigenvalues --   -0.44709  -0.44486  -0.44164  -0.44092  -0.43804
 Alpha  occ. eigenvalues --   -0.43523  -0.43334  -0.43225  -0.43213  -0.42984
 Alpha  occ. eigenvalues --   -0.42436  -0.41890  -0.40982  -0.40649  -0.40514
 Alpha  occ. eigenvalues --   -0.40470  -0.40416  -0.40315  -0.40244  -0.40201
 Alpha  occ. eigenvalues --   -0.40107  -0.39959  -0.39720  -0.39621  -0.39480
 Alpha  occ. eigenvalues --   -0.39077  -0.39029  -0.38659  -0.38301  -0.38007
 Alpha  occ. eigenvalues --   -0.37972  -0.37721  -0.37666  -0.37169  -0.37142
 Alpha  occ. eigenvalues --   -0.37025  -0.36728  -0.36546  -0.36504  -0.36314
 Alpha  occ. eigenvalues --   -0.36160  -0.35890  -0.35724  -0.35458  -0.35427
 Alpha  occ. eigenvalues --   -0.34986  -0.34628  -0.34169  -0.34167  -0.33686
 Alpha  occ. eigenvalues --   -0.33503  -0.33175  -0.32809  -0.32711  -0.32556
 Alpha  occ. eigenvalues --   -0.32321  -0.31895  -0.31689  -0.31629  -0.31173
 Alpha  occ. eigenvalues --   -0.30905  -0.30862  -0.30389  -0.29724  -0.28175
 Alpha  occ. eigenvalues --   -0.28006  -0.27327  -0.27080  -0.26510  -0.26367
 Alpha  occ. eigenvalues --   -0.25808  -0.24132  -0.23924  -0.22353  -0.18759
 Alpha virt. eigenvalues --   -0.08787  -0.04848  -0.04071  -0.00492   0.02632
 Alpha virt. eigenvalues --    0.03874   0.04992   0.05623   0.06526   0.07114
 Alpha virt. eigenvalues --    0.07309   0.07627   0.08632   0.09028   0.09459
 Alpha virt. eigenvalues --    0.09630   0.10447   0.10721   0.11088   0.11336
 Alpha virt. eigenvalues --    0.11867   0.12019   0.12273   0.12399   0.12660
 Alpha virt. eigenvalues --    0.12835   0.13261   0.13710   0.13849   0.14278
 Alpha virt. eigenvalues --    0.14365   0.14412   0.14617   0.14854   0.14949
 Alpha virt. eigenvalues --    0.15064   0.15264   0.15297   0.15556   0.15685
 Alpha virt. eigenvalues --    0.15979   0.16212   0.16494   0.16638   0.16665
 Alpha virt. eigenvalues --    0.17077   0.17163   0.17404   0.17813   0.18014
 Alpha virt. eigenvalues --    0.18108   0.18309   0.18474   0.18653   0.18932
 Alpha virt. eigenvalues --    0.19193   0.19260   0.19382   0.19424   0.19514
 Alpha virt. eigenvalues --    0.19716   0.19811   0.19904   0.19946   0.20375
 Alpha virt. eigenvalues --    0.20427   0.20588   0.20746   0.20786   0.21024
 Alpha virt. eigenvalues --    0.21305   0.21442   0.21758   0.22020   0.22172
 Alpha virt. eigenvalues --    0.22409   0.22584   0.22667   0.22929   0.23236
 Alpha virt. eigenvalues --    0.23416   0.23664   0.23824   0.24161   0.24477
 Alpha virt. eigenvalues --    0.24640   0.24781   0.25145   0.25266   0.25732
 Alpha virt. eigenvalues --    0.25754   0.26123   0.26345   0.26461   0.26750
 Alpha virt. eigenvalues --    0.26948   0.27232   0.27407   0.27444   0.27713
 Alpha virt. eigenvalues --    0.27786   0.28217   0.28494   0.28758   0.29292
 Alpha virt. eigenvalues --    0.29619   0.30354   0.30690   0.31217   0.31578
 Alpha virt. eigenvalues --    0.31915   0.32186   0.32886   0.33334   0.34064
 Alpha virt. eigenvalues --    0.34611   0.34905   0.35563   0.35847   0.36207
 Alpha virt. eigenvalues --    0.37129   0.37508   0.38092   0.38963   0.39524
 Alpha virt. eigenvalues --    0.39877   0.39916   0.40742   0.41833   0.43712
 Alpha virt. eigenvalues --    0.44373   0.46239   0.47091   0.47324   0.47682
 Alpha virt. eigenvalues --    0.47976   0.48601   0.49098   0.49454   0.49515
 Alpha virt. eigenvalues --    0.50236   0.50628   0.50765   0.50893   0.51122
 Alpha virt. eigenvalues --    0.51163   0.51545   0.52160   0.52413   0.52509
 Alpha virt. eigenvalues --    0.53459   0.53769   0.54120   0.54354   0.54589
 Alpha virt. eigenvalues --    0.54855   0.55236   0.55384   0.55781   0.56001
 Alpha virt. eigenvalues --    0.56387   0.56596   0.56663   0.57083   0.57222
 Alpha virt. eigenvalues --    0.57461   0.57816   0.58061   0.58309   0.58604
 Alpha virt. eigenvalues --    0.58708   0.59018   0.59216   0.59612   0.59817
 Alpha virt. eigenvalues --    0.59954   0.60481   0.60671   0.60949   0.61270
 Alpha virt. eigenvalues --    0.61444   0.62096   0.62288   0.62543   0.62879
 Alpha virt. eigenvalues --    0.63058   0.63969   0.64209   0.64532   0.64570
 Alpha virt. eigenvalues --    0.64836   0.65571   0.65924   0.66004   0.66282
 Alpha virt. eigenvalues --    0.66613   0.67278   0.67604   0.68012   0.68548
 Alpha virt. eigenvalues --    0.68561   0.68955   0.69279   0.69587   0.70048
 Alpha virt. eigenvalues --    0.70373   0.70898   0.70943   0.71187   0.71510
 Alpha virt. eigenvalues --    0.71664   0.71981   0.72320   0.72574   0.72873
 Alpha virt. eigenvalues --    0.73081   0.73173   0.73684   0.73820   0.74089
 Alpha virt. eigenvalues --    0.74374   0.74921   0.75109   0.75529   0.75972
 Alpha virt. eigenvalues --    0.76502   0.77158   0.77348   0.77939   0.77983
 Alpha virt. eigenvalues --    0.78578   0.79175   0.79337   0.79655   0.80058
 Alpha virt. eigenvalues --    0.80361   0.80952   0.81237   0.82001   0.82175
 Alpha virt. eigenvalues --    0.82366   0.82446   0.83330   0.83463   0.83958
 Alpha virt. eigenvalues --    0.84148   0.84331   0.84464   0.84628   0.84710
 Alpha virt. eigenvalues --    0.84986   0.85119   0.85309   0.85597   0.85876
 Alpha virt. eigenvalues --    0.85964   0.86088   0.86451   0.86737   0.86899
 Alpha virt. eigenvalues --    0.87414   0.87878   0.88200   0.88373   0.88516
 Alpha virt. eigenvalues --    0.88662   0.89007   0.89137   0.89358   0.89415
 Alpha virt. eigenvalues --    0.89591   0.89915   0.90032   0.90295   0.90384
 Alpha virt. eigenvalues --    0.90595   0.91126   0.91355   0.91576   0.91621
 Alpha virt. eigenvalues --    0.91794   0.91886   0.92209   0.92516   0.93086
 Alpha virt. eigenvalues --    0.93507   0.93759   0.94021   0.94224   0.94628
 Alpha virt. eigenvalues --    0.94905   0.95210   0.95348   0.95463   0.95538
 Alpha virt. eigenvalues --    0.96184   0.96379   0.97022   0.97048   0.97528
 Alpha virt. eigenvalues --    0.98147   0.98244   0.98450   0.99095   0.99481
 Alpha virt. eigenvalues --    0.99576   1.00349   1.00821   1.01220   1.01358
 Alpha virt. eigenvalues --    1.02322   1.02650   1.02974   1.03408   1.04053
 Alpha virt. eigenvalues --    1.04193   1.04753   1.05186   1.05435   1.06178
 Alpha virt. eigenvalues --    1.06821   1.07238   1.07698   1.08334   1.08953
 Alpha virt. eigenvalues --    1.09062   1.09408   1.09649   1.09912   1.10610
 Alpha virt. eigenvalues --    1.11213   1.11672   1.12074   1.12705   1.13827
 Alpha virt. eigenvalues --    1.14574   1.14717   1.15629   1.16268   1.16609
 Alpha virt. eigenvalues --    1.16737   1.16947   1.17454   1.17618   1.18088
 Alpha virt. eigenvalues --    1.18399   1.18757   1.19350   1.19704   1.19970
 Alpha virt. eigenvalues --    1.20684   1.21085   1.21468   1.21846   1.22350
 Alpha virt. eigenvalues --    1.22545   1.23164   1.23702   1.24356   1.24841
 Alpha virt. eigenvalues --    1.25606   1.26142   1.26701   1.27161   1.27849
 Alpha virt. eigenvalues --    1.28302   1.28817   1.29764   1.30095   1.30457
 Alpha virt. eigenvalues --    1.30621   1.31304   1.32605   1.32775   1.33387
 Alpha virt. eigenvalues --    1.33875   1.34149   1.34531   1.34821   1.35243
 Alpha virt. eigenvalues --    1.35774   1.36378   1.36612   1.36941   1.37810
 Alpha virt. eigenvalues --    1.38085   1.38358   1.38688   1.38780   1.39060
 Alpha virt. eigenvalues --    1.39471   1.40033   1.40473   1.41885   1.42112
 Alpha virt. eigenvalues --    1.42893   1.43164   1.43694   1.44048   1.44464
 Alpha virt. eigenvalues --    1.44515   1.44657   1.45271   1.45464   1.45976
 Alpha virt. eigenvalues --    1.46033   1.46560   1.47262   1.48139   1.48217
 Alpha virt. eigenvalues --    1.48923   1.49493   1.49680   1.50478   1.51257
 Alpha virt. eigenvalues --    1.52352   1.52941   1.53350   1.53553   1.55147
 Alpha virt. eigenvalues --    1.55369   1.55949   1.56157   1.56591   1.58619
 Alpha virt. eigenvalues --    1.58793   1.60669   1.61759   1.62345   1.62622
 Alpha virt. eigenvalues --    1.63379   1.64092   1.64252   1.64568   1.65281
 Alpha virt. eigenvalues --    1.65584   1.66442   1.66935   1.67571   1.67712
 Alpha virt. eigenvalues --    1.68202   1.68555   1.69256   1.69667   1.70263
 Alpha virt. eigenvalues --    1.70702   1.71138   1.72004   1.72349   1.72642
 Alpha virt. eigenvalues --    1.72894   1.73557   1.73884   1.74613   1.74763
 Alpha virt. eigenvalues --    1.75190   1.76046   1.76393   1.76617   1.77281
 Alpha virt. eigenvalues --    1.77465   1.78138   1.78699   1.79232   1.79475
 Alpha virt. eigenvalues --    1.79836   1.81207   1.81345   1.81637   1.82165
 Alpha virt. eigenvalues --    1.82714   1.83239   1.83556   1.83912   1.84334
 Alpha virt. eigenvalues --    1.84567   1.85355   1.85530   1.85916   1.85965
 Alpha virt. eigenvalues --    1.86718   1.86868   1.87123   1.87442   1.87497
 Alpha virt. eigenvalues --    1.87947   1.88281   1.88613   1.89366   1.89632
 Alpha virt. eigenvalues --    1.89918   1.90381   1.90833   1.90881   1.91089
 Alpha virt. eigenvalues --    1.91518   1.91672   1.91934   1.92256   1.92426
 Alpha virt. eigenvalues --    1.92646   1.93078   1.93364   1.93781   1.94029
 Alpha virt. eigenvalues --    1.94187   1.94606   1.94904   1.95054   1.96075
 Alpha virt. eigenvalues --    1.96149   1.96439   1.97158   1.97531   1.98244
 Alpha virt. eigenvalues --    1.98413   1.98483   1.99826   2.00078   2.00459
 Alpha virt. eigenvalues --    2.01058   2.01273   2.01802   2.01904   2.02029
 Alpha virt. eigenvalues --    2.02336   2.02796   2.02911   2.03074   2.03576
 Alpha virt. eigenvalues --    2.03917   2.04281   2.04374   2.04646   2.05195
 Alpha virt. eigenvalues --    2.05775   2.05919   2.06014   2.06436   2.06561
 Alpha virt. eigenvalues --    2.07291   2.07761   2.07915   2.08571   2.09429
 Alpha virt. eigenvalues --    2.09543   2.09633   2.09684   2.09920   2.10397
 Alpha virt. eigenvalues --    2.10435   2.11230   2.11559   2.12058   2.12348
 Alpha virt. eigenvalues --    2.12516   2.13247   2.13393   2.13638   2.13838
 Alpha virt. eigenvalues --    2.14211   2.14448   2.15040   2.15156   2.15282
 Alpha virt. eigenvalues --    2.16400   2.16982   2.17393   2.17546   2.18103
 Alpha virt. eigenvalues --    2.18468   2.18635   2.19209   2.19261   2.19413
 Alpha virt. eigenvalues --    2.19829   2.19903   2.20502   2.20713   2.21076
 Alpha virt. eigenvalues --    2.21553   2.21825   2.22187   2.22505   2.22559
 Alpha virt. eigenvalues --    2.23152   2.23522   2.23950   2.24584   2.24964
 Alpha virt. eigenvalues --    2.25211   2.25416   2.25707   2.26151   2.26592
 Alpha virt. eigenvalues --    2.26727   2.27442   2.27648   2.28129   2.28601
 Alpha virt. eigenvalues --    2.29081   2.30504   2.30967   2.31411   2.31845
 Alpha virt. eigenvalues --    2.32288   2.32299   2.32572   2.33318   2.33936
 Alpha virt. eigenvalues --    2.34159   2.35228   2.35346   2.36501   2.37164
 Alpha virt. eigenvalues --    2.37459   2.38150   2.38482   2.39245   2.39526
 Alpha virt. eigenvalues --    2.40393   2.41454   2.42709   2.43437   2.44043
 Alpha virt. eigenvalues --    2.44397   2.44847   2.45665   2.46744   2.47589
 Alpha virt. eigenvalues --    2.48121   2.48706   2.48981   2.49489   2.50087
 Alpha virt. eigenvalues --    2.50180   2.50937   2.52223   2.53447   2.54584
 Alpha virt. eigenvalues --    2.55751   2.55768   2.58234   2.58712   2.59062
 Alpha virt. eigenvalues --    2.59674   2.60194   2.60551   2.62544   2.63393
 Alpha virt. eigenvalues --    2.64028   2.64480   2.64791   2.66205   2.66690
 Alpha virt. eigenvalues --    2.67502   2.67974   2.69747   2.71471   2.72515
 Alpha virt. eigenvalues --    2.73299   2.75275   2.76673   2.76836   2.77517
 Alpha virt. eigenvalues --    2.77700   2.77990   2.78321   2.79376   2.79692
 Alpha virt. eigenvalues --    2.79990   2.80465   2.80595   2.80889   2.81668
 Alpha virt. eigenvalues --    2.82004   2.82231   2.83550   2.84550   2.85564
 Alpha virt. eigenvalues --    2.86277   2.87772   2.88469   2.90671   2.91621
 Alpha virt. eigenvalues --    2.92311   2.92728   2.94442   2.94860   2.95916
 Alpha virt. eigenvalues --    2.96640   2.98175   3.01467   3.02196   3.03322
 Alpha virt. eigenvalues --    3.04488   3.05007   3.05605   3.07782   3.08440
 Alpha virt. eigenvalues --    3.09251   3.10889   3.11181   3.11401   3.12099
 Alpha virt. eigenvalues --    3.12924   3.14343   3.15680   3.22547   3.26798
 Alpha virt. eigenvalues --    3.32113   3.45459  14.09680
          Condensed to atoms (all electrons):
 Mulliken charges:
               1
     1  C    0.356256
     2  C    0.055580
     3  C   -0.052300
     4  C   -0.148049
     5  C   -0.174758
     6  C    0.295429
     7  C    0.039912
     8  C   -0.078252
     9  C   -0.158427
    10  C   -0.186271
    11  H    0.234170
    12  H    0.201127
    13  H    0.177614
    14  H    0.244660
    15  H    0.202409
    16  H    0.183008
    17  N   -0.560027
    18  N   -0.489156
    19  Ir  -0.077868
    20  O   -0.514197
    21  O   -0.522509
    22  O   -0.517970
    23  B    0.440975
    24  B    0.470574
    25  B    0.458251
    26  O   -0.530924
    27  O   -0.497781
    28  C    0.296653
    29  C    0.292276
    30  C    0.295284
    31  C    0.297247
    32  C    0.288690
    33  C    0.297188
    34  O   -0.531170
    35  C   -0.506879
    36  H    0.152058
    37  H    0.155506
    38  H    0.193151
    39  C   -0.510677
    40  H    0.168819
    41  H    0.170913
    42  H    0.152371
    43  C   -0.515600
    44  H    0.179076
    45  H    0.172194
    46  H    0.149631
    47  C   -0.509553
    48  H    0.152894
    49  H    0.176554
    50  H    0.164474
    51  C   -0.509022
    52  H    0.150691
    53  H    0.186865
    54  H    0.172713
    55  C   -0.511491
    56  H    0.170860
    57  H    0.165820
    58  H    0.154137
    59  C   -0.514291
    60  H    0.171858
    61  H    0.176397
    62  H    0.151684
    63  C   -0.508097
    64  H    0.176963
    65  H    0.155706
    66  H    0.164206
    67  C   -0.510375
    68  H    0.167238
    69  H    0.155271
    70  H    0.164080
    71  C   -0.519693
    72  H    0.184324
    73  H    0.156917
    74  H    0.151711
    75  C   -0.509230
    76  H    0.170364
    77  H    0.164321
    78  H    0.149166
    79  C   -0.493789
    80  H    0.145676
    81  H    0.171325
    82  H    0.160638
    83  H    0.210425
    84  C    0.577310
    85  O   -0.546453
    86  C   -0.398896
    87  H    0.165253
    88  H    0.160511
    89  C   -0.332852
    90  H    0.160572
    91  H    0.202203
    92  N   -0.347679
    93  C   -0.371780
    94  H    0.159281
    95  H    0.198671
    96  H    0.174508
    97  C   -0.263100
    98  H    0.131539
    99  H    0.155660
   100  C   -0.281401
   101  H    0.136370
   102  H    0.141643
   103  C   -0.282221
   104  H    0.145065
   105  H    0.145801
   106  C   -0.496981
   107  H    0.161873
   108  H    0.159135
   109  H    0.158414
   110  C    0.969764
   111  F   -0.303671
   112  F   -0.312843
   113  F   -0.308338
   114  C    0.969901
   115  F   -0.313249
   116  F   -0.307070
   117  F   -0.312882
 Sum of Mulliken charges =  -0.00000
 Mulliken charges with hydrogens summed into heavy atoms:
               1
     1  C    0.356256
     2  C    0.289750
     3  C   -0.052300
     4  C    0.053078
     5  C    0.002856
     6  C    0.295429
     7  C    0.284572
     8  C   -0.078252
     9  C    0.043982
    10  C   -0.003262
    17  N   -0.560027
    18  N   -0.489156
    19  Ir   0.132558
    20  O   -0.514197
    21  O   -0.522509
    22  O   -0.517970
    23  B    0.440975
    24  B    0.470574
    25  B    0.458251
    26  O   -0.530924
    27  O   -0.497781
    28  C    0.296653
    29  C    0.292276
    30  C    0.295284
    31  C    0.297247
    32  C    0.288690
    33  C    0.297188
    34  O   -0.531170
    35  C   -0.006164
    39  C   -0.018573
    43  C   -0.014699
    47  C   -0.015631
    51  C    0.001246
    55  C   -0.020675
    59  C   -0.014352
    63  C   -0.011222
    67  C   -0.023786
    71  C   -0.026742
    75  C   -0.025378
    79  C   -0.016151
    84  C    0.577310
    85  O   -0.546453
    86  C   -0.073133
    89  C    0.029924
    92  N   -0.347679
    93  C    0.160680
    97  C    0.024098
   100  C   -0.003388
   103  C    0.008645
   106  C   -0.017560
   110  C    0.969764
   111  F   -0.303671
   112  F   -0.312843
   113  F   -0.308338
   114  C    0.969901
   115  F   -0.313249
   116  F   -0.307070
   117  F   -0.312882
 APT charges:
               1
     1  C    0.142202
     2  C    0.014268
     3  C   -0.173012
     4  C    0.080973
     5  C   -0.151855
     6  C    0.254315
     7  C    0.055815
     8  C   -0.180807
     9  C    0.092695
    10  C   -0.203945
    11  H    0.159327
    12  H    0.064543
    13  H    0.043622
    14  H    0.113473
    15  H    0.059613
    16  H    0.046953
    17  N   -0.041279
    18  N   -0.162385
    19  Ir  -0.988838
    20  O   -0.948317
    21  O   -1.036426
    22  O   -0.953633
    23  B    1.537478
    24  B    1.257381
    25  B    1.233885
    26  O   -0.963576
    27  O   -0.937627
    28  C    0.451498
    29  C    0.480099
    30  C    0.478967
    31  C    0.476332
    32  C    0.519444
    33  C    0.532787
    34  O   -1.033942
    35  C   -0.048522
    36  H   -0.025025
    37  H    0.002533
    38  H    0.026274
    39  C   -0.011567
    40  H   -0.000640
    41  H    0.004223
    42  H   -0.014615
    43  C   -0.004399
    44  H    0.007697
    45  H   -0.001094
    46  H   -0.018453
    47  C   -0.017788
    48  H   -0.017713
    49  H    0.000403
    50  H   -0.029681
    51  C   -0.036753
    52  H   -0.024374
    53  H    0.010121
    54  H    0.006562
    55  C   -0.006287
    56  H   -0.004922
    57  H    0.004325
    58  H   -0.015623
    59  C   -0.014812
    60  H    0.000286
    61  H    0.008010
    62  H   -0.014445
    63  C   -0.055451
    64  H    0.008276
    65  H   -0.021082
    66  H    0.006992
    67  C   -0.006723
    68  H    0.004139
    69  H   -0.015793
    70  H    0.001628
    71  C   -0.035734
    72  H    0.023139
    73  H   -0.007472
    74  H   -0.017547
    75  C   -0.002792
    76  H   -0.000753
    77  H    0.001888
    78  H   -0.017498
    79  C   -0.026966
    80  H   -0.028249
    81  H    0.019530
    82  H   -0.003119
    83  H    0.043466
    84  C    0.861858
    85  O   -0.687342
    86  C   -0.025957
    87  H   -0.012387
    88  H   -0.017329
    89  C    0.261568
    90  H   -0.061344
    91  H   -0.014408
    92  N   -0.750369
    93  C    0.271700
    94  H   -0.063154
    95  H    0.066107
    96  H   -0.006572
    97  C    0.118117
    98  H   -0.030619
    99  H   -0.037986
   100  C    0.111299
   101  H   -0.030900
   102  H   -0.061885
   103  C    0.100686
   104  H   -0.050800
   105  H   -0.043206
   106  C    0.073076
   107  H   -0.040180
   108  H   -0.017964
   109  H   -0.024620
   110  C    1.755051
   111  F   -0.584264
   112  F   -0.578044
   113  F   -0.526958
   114  C    1.856796
   115  F   -0.621420
   116  F   -0.524666
   117  F   -0.617517
 Sum of APT charges =  -0.00000
 APT charges with hydrogens summed into heavy atoms:
               1
     1  C    0.142202
     2  C    0.173595
     3  C   -0.173012
     4  C    0.145516
     5  C   -0.108233
     6  C    0.254315
     7  C    0.169288
     8  C   -0.180807
     9  C    0.152308
    10  C   -0.156992
    17  N   -0.041279
    18  N   -0.162385
    19  Ir  -0.945372
    20  O   -0.948317
    21  O   -1.036426
    22  O   -0.953633
    23  B    1.537478
    24  B    1.257381
    25  B    1.233885
    26  O   -0.963576
    27  O   -0.937627
    28  C    0.451498
    29  C    0.480099
    30  C    0.478967
    31  C    0.476332
    32  C    0.519444
    33  C    0.532787
    34  O   -1.033942
    35  C   -0.044739
    39  C   -0.022599
    43  C   -0.016250
    47  C   -0.064779
    51  C   -0.044443
    55  C   -0.022507
    59  C   -0.020961
    63  C   -0.061265
    67  C   -0.016748
    71  C   -0.037614
    75  C   -0.019154
    79  C   -0.038804
    84  C    0.861858
    85  O   -0.687342
    86  C   -0.055674
    89  C    0.185816
    92  N   -0.750369
    93  C    0.268081
    97  C    0.049511
   100  C    0.018514
   103  C    0.006680
   106  C   -0.009688
   110  C    1.755051
   111  F   -0.584264
   112  F   -0.578044
   113  F   -0.526958
   114  C    1.856796
   115  F   -0.621420
   116  F   -0.524666
   117  F   -0.617517
 Electronic spatial extent (au):  <R**2>=          37554.6664
 Charge=             -0.0000 electrons
 Dipole moment (field-independent basis, Debye):
    X=             -0.3598    Y=             -2.0185    Z=              0.8687  Tot=              2.2268
 Quadrupole moment (field-independent basis, Debye-Ang):
   XX=           -366.8932   YY=           -319.2145   ZZ=           -353.6922
   XY=              4.3858   XZ=              2.4386   YZ=             -4.0223
 Traceless Quadrupole moment (field-independent basis, Debye-Ang):
   XX=            -20.2932   YY=             27.3854   ZZ=             -7.0922
   XY=              4.3858   XZ=              2.4386   YZ=             -4.0223
 Octapole moment (field-independent basis, Debye-Ang**2):
  XXX=            -95.4735  YYY=           -133.3822  ZZZ=             67.9464  XYY=            -68.3379
  XXY=             41.1516  XXZ=              5.2119  XZZ=            -53.6215  YZZ=             11.1665
  YYZ=            -40.0083  XYZ=             19.9316
 Hexadecapole moment (field-independent basis, Debye-Ang**3):
 XXXX=         -22893.4888 YYYY=         -12486.4413 ZZZZ=         -12324.1622 XXXY=            -94.4562
 XXXZ=            210.5788 YYYX=            -28.2654 YYYZ=            206.2614 ZZZX=            215.8723
 ZZZY=           -107.7368 XXYY=          -5758.3856 XXZZ=          -5768.1689 YYZZ=          -4248.9765
 XXYZ=            -23.7681 YYXZ=            229.5083 ZZXY=             87.7948
 N-N= 1.047926891073D+04 E-N=-2.783768074952D+04  KE= 2.862628412771D+03
  Exact polarizability:     579.698       4.693     539.827      22.823      11.667     452.744
 Approx polarizability:     810.235      -6.870     805.908      51.274      29.988     639.190
   1 Symmetry operations used in ECPInt.
 ECPInt:  NShTT=   62835 NPrTT=  387974 LenC2=   45274 LenP2D=  137867.
 LDataN:  DoStor=T MaxTD1= 8 Len=  415
 Calling FoFJK, ICntrl=    100127 FMM=F ISym2X=0 I1Cent= 0 IOpClX= 0 NMat=1 NMatS=1 NMatT=0.
 Defaulting to unpruned grid for atomic number  77.
 Defaulting to unpruned grid for atomic number  77.
 Defaulting to unpruned grid for atomic number  77.
 Defaulting to unpruned grid for atomic number  77.
 Defaulting to unpruned grid for atomic number  77.
 Defaulting to unpruned grid for atomic number  77.
 Defaulting to unpruned grid for atomic number  77.
 Defaulting to unpruned grid for atomic number  77.
 Defaulting to unpruned grid for atomic number  77.
 Defaulting to unpruned grid for atomic number  77.
 Defaulting to unpruned grid for atomic number  77.
 Defaulting to unpruned grid for atomic number  77.
 Defaulting to unpruned grid for atomic number  77.
 Defaulting to unpruned grid for atomic number  77.
 Defaulting to unpruned grid for atomic number  77.
 Defaulting to unpruned grid for atomic number  77.
 Full mass-weighted force constant matrix:
 Low frequencies ---  -59.1896   -2.3018   -0.0001    0.0004    0.0006    3.2284
 Low frequencies ---    5.7658   11.1071   15.5507
 ******    1 imaginary frequencies (negative Signs) ****** 
 Diagonal vibrational polarizability:
      120.4015322      97.0718116     136.4139981
 Harmonic frequencies (cm**-1), IR intensities (KM/Mole), Raman scattering
 activities (A**4/AMU), depolarization ratios for plane and unpolarized
 incident light, reduced masses (AMU), force constants (mDyne/A),
 and normal coordinates:
                      1                      2                      3
                      A                      A                      A
 Frequencies --    -59.1728                10.3326                15.5264
 Red. masses --      5.9877                 8.1375                12.9360
 Frc consts  --      0.0124                 0.0005                 0.0018
 IR Inten    --      8.9545                 0.0277                 0.0400
  Atom AN      X      Y      Z        X      Y      Z        X      Y      Z
     1   6    -0.01   0.01  -0.01     0.01   0.01  -0.03    -0.01  -0.01  -0.02
     2   6    -0.01   0.01  -0.01     0.01   0.01  -0.03     0.00  -0.02  -0.02
     3   6    -0.01   0.01  -0.01     0.01   0.01  -0.03    -0.00  -0.02  -0.03
     4   6    -0.01   0.01  -0.01     0.02   0.02  -0.05    -0.01  -0.02  -0.04
     5   6    -0.01   0.01  -0.01     0.02   0.02  -0.05    -0.01  -0.01  -0.04
     6   6    -0.01   0.01  -0.00     0.00  -0.00  -0.00    -0.01   0.00  -0.01
     7   6    -0.01   0.00  -0.00    -0.02  -0.03   0.05     0.00   0.02  -0.01
     8   6    -0.01   0.00  -0.00    -0.03  -0.05   0.12    -0.02   0.02   0.01
     9   6    -0.01   0.00  -0.00    -0.02  -0.04   0.11    -0.03   0.01   0.03
    10   6    -0.01   0.01  -0.00    -0.01  -0.02   0.05    -0.03   0.00   0.01
    11   1    -0.01   0.01  -0.01     0.00   0.01  -0.02     0.00  -0.02  -0.01
    12   1    -0.01   0.01  -0.01     0.02   0.02  -0.06    -0.01  -0.02  -0.05
    13   1    -0.01   0.01  -0.01     0.02   0.02  -0.06    -0.02  -0.00  -0.05
    14   1    -0.02   0.00  -0.00    -0.03  -0.03   0.05     0.02   0.03  -0.02
    15   1    -0.01   0.00  -0.00    -0.04  -0.06   0.17    -0.04   0.01   0.04
    16   1    -0.01   0.01  -0.00    -0.01  -0.02   0.06    -0.04  -0.01   0.02
    17   7    -0.01   0.01  -0.00     0.01   0.01  -0.03     0.00  -0.01  -0.02
    18   7    -0.01   0.01  -0.00    -0.00  -0.00  -0.01     0.00   0.01  -0.02
    19  77    -0.01   0.01  -0.03     0.00   0.01  -0.03     0.01  -0.01  -0.02
    20   8     0.00   0.00  -0.01    -0.05  -0.03  -0.03    -0.01  -0.01  -0.01
    21   8    -0.10   0.04   0.15     0.05   0.02  -0.00     0.00  -0.00  -0.02
    22   8     0.00  -0.01  -0.02    -0.01  -0.02   0.01     0.00  -0.01  -0.01
    23   5    -0.15   0.07   0.21     0.03   0.02  -0.03     0.01  -0.01  -0.02
    24   5    -0.01  -0.00  -0.00    -0.03  -0.01  -0.04    -0.00  -0.01  -0.02
    25   5     0.01   0.00  -0.03    -0.01  -0.00  -0.00     0.01  -0.01  -0.01
    26   8     0.01   0.00  -0.02    -0.01  -0.00   0.01     0.01  -0.01   0.00
    27   8    -0.00  -0.01   0.00    -0.04  -0.00  -0.06    -0.01  -0.01  -0.03
    28   6     0.01  -0.01   0.00    -0.07  -0.01  -0.06    -0.02  -0.01  -0.03
    29   6     0.01  -0.01  -0.01    -0.07  -0.03  -0.04    -0.03  -0.01  -0.02
    30   6    -0.00  -0.00  -0.02    -0.02  -0.02   0.03     0.00  -0.01  -0.00
    31   6     0.00   0.00  -0.02    -0.01  -0.02   0.02     0.00  -0.01   0.01
    32   6    -0.05   0.06   0.03     0.07   0.04  -0.02    -0.01  -0.01  -0.02
    33   6    -0.05   0.03   0.06     0.08   0.06  -0.05    -0.00  -0.02  -0.02
    34   8    -0.11   0.05   0.16     0.04   0.05  -0.06     0.01  -0.02  -0.02
    35   6     0.01  -0.01  -0.01    -0.07  -0.04  -0.03    -0.03  -0.01  -0.02
    36   1     0.01  -0.01  -0.00    -0.08  -0.04  -0.03    -0.04  -0.01  -0.02
    37   1     0.01  -0.00  -0.01    -0.07  -0.05  -0.01    -0.03  -0.01  -0.01
    38   1     0.00  -0.01  -0.00    -0.05  -0.03  -0.03    -0.03  -0.01  -0.02
    39   6     0.02  -0.00  -0.01    -0.10  -0.05  -0.04    -0.03  -0.01  -0.01
    40   1     0.02  -0.00  -0.01    -0.10  -0.04  -0.05    -0.03  -0.01  -0.01
    41   1     0.02   0.00  -0.02    -0.10  -0.06  -0.02    -0.03  -0.01   0.00
    42   1     0.03  -0.01  -0.01    -0.11  -0.05  -0.05    -0.04  -0.01  -0.02
    43   6     0.01  -0.02   0.01    -0.08  -0.01  -0.08    -0.03  -0.01  -0.04
    44   1     0.01  -0.02   0.01    -0.07  -0.01  -0.07    -0.03  -0.01  -0.04
    45   1     0.01  -0.02   0.01    -0.08   0.01  -0.09    -0.03  -0.01  -0.05
    46   1     0.02  -0.01   0.01    -0.10  -0.01  -0.08    -0.04  -0.01  -0.04
    47   6     0.01  -0.01   0.00    -0.08  -0.01  -0.08    -0.02  -0.01  -0.03
    48   1     0.02  -0.01   0.00    -0.10  -0.01  -0.08    -0.03  -0.01  -0.03
    49   1     0.01  -0.02   0.01    -0.08   0.01  -0.09    -0.01  -0.02  -0.04
    50   1     0.01  -0.01   0.00    -0.08  -0.01  -0.07    -0.01  -0.02  -0.03
    51   6    -0.09   0.17  -0.02     0.04   0.03  -0.03    -0.01  -0.02  -0.01
    52   1    -0.07   0.18  -0.09     0.06   0.05  -0.05    -0.02  -0.03  -0.01
    53   1    -0.13   0.22   0.03     0.02   0.03  -0.05    -0.00  -0.03  -0.02
    54   1    -0.11   0.21  -0.02     0.03   0.02  -0.01    -0.01  -0.02  -0.02
    55   6     0.02  -0.00  -0.03     0.11   0.03   0.00    -0.02  -0.01  -0.01
    56   1     0.02   0.02  -0.04     0.09   0.02   0.02    -0.02  -0.01  -0.01
    57   1     0.05  -0.09   0.01     0.13   0.03   0.02    -0.02  -0.00  -0.02
    58   1     0.07   0.01  -0.10     0.12   0.05  -0.01    -0.03  -0.01  -0.01
    59   6    -0.05   0.08  -0.01     0.08   0.09  -0.09    -0.00  -0.04  -0.01
    60   1    -0.04   0.05   0.02     0.09   0.13  -0.12     0.00  -0.06  -0.00
    61   1    -0.09   0.16  -0.01     0.05   0.07  -0.10     0.00  -0.04  -0.01
    62   1    -0.00   0.07  -0.08     0.12   0.11  -0.06    -0.02  -0.05  -0.02
    63   6     0.00  -0.08   0.08     0.12   0.07  -0.04    -0.00  -0.01  -0.02
    64   1    -0.01  -0.10   0.11     0.12   0.08  -0.06     0.00  -0.02  -0.02
    65   1     0.06  -0.10   0.01     0.14   0.07  -0.04    -0.01  -0.01  -0.01
    66   1     0.00  -0.13   0.13     0.12   0.05  -0.01    -0.00  -0.00  -0.02
    67   6    -0.00   0.00  -0.01    -0.01  -0.01   0.04     0.01  -0.01   0.02
    68   1    -0.00   0.00  -0.01    -0.00  -0.00   0.05     0.02  -0.01   0.02
    69   1    -0.00   0.01  -0.01    -0.01  -0.02   0.06    -0.00  -0.01   0.03
    70   1     0.00   0.01  -0.01    -0.01  -0.01   0.04     0.01  -0.01   0.03
    71   6    -0.00   0.00  -0.02    -0.03  -0.04   0.01    -0.00  -0.01   0.01
    72   1    -0.00  -0.00  -0.02    -0.03  -0.04  -0.00    -0.01  -0.01   0.00
    73   1     0.00   0.00  -0.01    -0.02  -0.03   0.01    -0.00  -0.01   0.01
    74   1    -0.01   0.00  -0.01    -0.03  -0.05   0.02    -0.01  -0.01   0.01
    75   6    -0.01  -0.01  -0.02    -0.03  -0.05   0.03    -0.01  -0.01  -0.00
    76   1    -0.01  -0.01  -0.02    -0.03  -0.05   0.04    -0.01  -0.01  -0.01
    77   1    -0.01  -0.01  -0.02    -0.03  -0.06   0.02    -0.01  -0.01  -0.00
    78   1    -0.01  -0.00  -0.01    -0.03  -0.05   0.05    -0.01  -0.01   0.00
    79   6    -0.01  -0.00  -0.02    -0.01  -0.01   0.05     0.00  -0.01  -0.00
    80   1    -0.02   0.01   0.00    -0.00  -0.01   0.06    -0.00  -0.01   0.00
    81   1     0.02  -0.00  -0.02    -0.00   0.01   0.04     0.01  -0.02  -0.00
    82   1    -0.02  -0.02  -0.03    -0.01  -0.01   0.05     0.00  -0.02  -0.01
    83   1    -0.01  -0.06   0.11    -0.01   0.01  -0.04     0.02   0.00  -0.02
    84   6     0.10  -0.09  -0.01     0.03   0.02  -0.01     0.03   0.03   0.01
    85   8     0.13  -0.11  -0.01     0.04   0.02  -0.02     0.05   0.03  -0.00
[...]
 77,-0.00001131,0.00009498,-0.00010352,0.00003731,-0.00013174,0.0002083
 6,-0.00001316,-0.00000264,0.00000034,0.00000442,0.00000010,0.00000029,
 -0.00001182,-0.00000315,-0.00000354,0.00000680,0.00000613,0.00000052,-
 0.00001198,-0.00000437,0.00000026,0.00000773,-0.00000295,0.00000115,-0
 .00001104,-0.00000274,-0.00000351,0.00000475,0.00000047,0.00000110,0.0
 0002587,0.00000487,0.00000262,0.00000219,-0.00000387,0.00000277,-0.000
 01885,-0.00000910,0.00001327,-0.00001083,0.00000543,-0.00000998,0.0000
 4972,0.00000330,0.00001133,-0.00001094,-0.00000149,-0.00001719,-0.0000
 2757,-0.00001612,0.00001538,0.00000096,-0.00000129,0.00000261,0.000019
 18,0.00002120,0.00000207,0.00000337,-0.00000478,-0.00000039,-0.0000011
 1,-0.00000327,0.00000571,-0.00000312,0.00000080,0.00000645,0.00000005,
 -0.00000107,0.00000443,0.00000052,0.00000299,0.00000375,-0.00001136,-0
 .00000189,0.00000463,0.00000447,-0.00000661,-0.00000104,-0.00001117,-0
 .00003917,-0.00004285,0.,-0.00009886,-0.00001073,-0.00000057,0.0000363
 3,0.00003667,-0.00000351,-0.00001161,0.00001284,-0.00003926,-0.0000535
 1,-0.00001316,0.00000570,0.00001034,0.00001450,0.00000431,-0.00000314,
 0.00001343,0.00000360,0.00001074,0.00000371,-0.00000199,-0.00000116,-0
 .00000251,0.00000133,-0.00000268,0.00000273,-0.00000262,-0.00000286,-0
 .00000191,-0.00000136,0.00000301,0.00000056,0.00000198,-0.00000284,-0.
 00000408,0.00000113,0.00000172,0.00000444,0.00000070,0.00000194,0.0000
 0235,-0.00000145,-0.00000221,-0.00000419,-0.00000300,-0.00000244,-0.00
 000246,0.00000249,0.00000247,-0.00000036,0.00000398,0.00000022,0.00000
 362,-0.00000525,-0.00000351,-0.00000153,-0.00000253,-0.00000537,0.0000
 0018,-0.00000441,-0.00000550,-0.00000027,0.00000016,0.00000300,0.00000
 071,0.00000229,0.00000135,-0.00000120,0.00001828,0.00002074,0.00000379
 ,0.00003445,-0.00007829,-0.00003049,-0.00000125,0.00003835,0.00006089,
 -0.00000459,0.00000029,-0.00001215,-0.00000253,-0.00000403,0.00000295,
 0.00000105,0.00000478,0.00000327,0.00008411,0.00001037,-0.00005012,-0.
 00001552,-0.00002363,0.00003568,-0.00001145,0.00002066,-0.00001009,-0.
 00008861,0.00002603,0.00005673,0.00000817,0.00002544,-0.00001205,-0.00
 000735,-0.00000590,0.00001044,0.00000258,0.00000216,-0.00000825,0.0000
 0267,-0.00000154,-0.00000267,0.00000167,-0.00000038,-0.00001182,0.0000
 0011,-0.00000602,0.00000091,-0.00000251,0.00000123,0.00000747,0.000001
 91,-0.00000075,-0.00000001,0.00000344,0.00000230,0.00000349,-0.0000031
 0,0.00000149,-0.00000047,-0.00000112,-0.00000033,-0.00000696,0.0000003
 5,0.00000082,0.00000455,0.00000020,0.00000127,-0.00000045,0.00000055,-
 0.00000138,0.00000132,-0.00000263,-0.00000241,0.00000106,0.00000115,0.
 00000085,0.00000118,-0.00000072,0.00000175,-0.00000093,0.00012468,0.00
 000416,-0.00000828,-0.00003183,0.00000090,-0.00001245,-0.00004408,0.00
 001742,0.00001326,-0.00003079,-0.00001718,0.00000171,0.00604226,-0.017
 73769,-0.07830723,-0.00309316,0.03003802,0.00775725,-0.01404218,0.0390
 5118,0.08503088,0.00033490,-0.00011497,-0.00019862,-0.00004023,0.00017
 191,0.00001981,-0.00034193,-0.00020896,-0.00007122,0.00024180,-0.00003
 701,0.00004729,-0.00039608,-0.00001725,-0.00017248,0.00046642,-0.00126
 177,-0.00021143,-0.00084785,0.00455277,-0.00137583,-0.00854748,-0.0114
 9058,-0.04007872,-0.00013970,-0.00167591,-0.00078458,-0.00003269,-0.00
 078152,0.00065818,-0.00000265,0.00007198,0.00001791,-0.00002785,0.0000
 1733,-0.00000785,0.00005163,-0.00004120,0.00002225,-0.00000886,0.00006
 800,-0.00047358,-0.00044156,0.00021976,-0.00052650,-0.00008484,0.00009
 173,-0.00001364,-0.00036286,0.00024394,-0.00006114,-0.00318230,-0.0003
 6832,0.00149442,0.00024338,-0.00010990,-0.00016335,0.00004095,0.000090
 78,-0.00049400,0.00025112,-0.00058747,0.00014859,-0.00015788,-0.000402
 46,-0.00032132,-0.00052843,0.00093651,-0.00031026,-0.00014751,0.000010
 55,0.00084058,0.00024624,0.00048639,0.00044357,-0.00031501,-0.00033982
 ,-0.00024878,0.00021907,0.00009591,-0.00048793,-0.00000772,-0.00011489
 ,0.00021623,-0.00009649,0.00000442,0.00021496,0.00011758,0.00014259,0.
 00003187,0.00008539,0.00011666,0.00016978,-0.00024024,0.00014680,-0.00
 005251,-0.00021618,0.00038793,-0.00018616,0.00047384,-0.00058954,0.000
 37857,0.00001597,-0.00000240,-0.00002706,0.00000769,-0.00000522,-0.000
 03726,-0.00000200,-0.00000157,0.00001044,-0.00001027,0.00000736,0.0000
 1752,0.00000397,0.00000687,-0.00002094,-0.00000562,-0.00001472,0.00001
 291,-0.00000689,0.00000211,0.00001130,0.00000913,0.00000748,-0.0000311
 3,-0.00002136,-0.00000197,-0.00002452,-0.00000443,-0.00001170,-0.00000
 113,0.00002051,0.00000776,0.00001371,0.00000689,0.00000425,-0.00002736
 ,-0.00006148,0.00003969,-0.00000094,-0.00000215,0.00001516,-0.00004666
 ,-0.00001924,-0.00001250,0.00002827,0.00006661,-0.00002988,-0.00001714
 ,0.00003915,-0.00001036,-0.00000280,0.00002749,-0.00004239,-0.00000036
 ,-0.00003391,0.00001217,0.00000503,-0.00000146,0.00001735,0.00000422,0
 .00001391,-0.00002284,-0.00000357,-0.00000789,0.00000590,0.00000275,-0
 .00000718,0.00000916,-0.00000838,0.00001675,-0.00003047,0.00001125,0.0
 0000069,-0.00006094,-0.00002661,0.00000029,0.00001974,0.00005562,-0.00
 001897,-0.00000650,-0.00002783,0.00003203,-0.00001494,0.00000731,0.000
 00572,-0.00009219,0.00002702,-0.00002534,0.00003621,-0.00000741,0.0000
 0842,-0.00004332,0.00002657,0.00004270,0.00003359,-0.00002300,-0.00001
 700,-0.00000961,-0.00002195,0.00000509,0.00000547,0.00001058,-0.000017
 36,-0.00001828,-0.00001578,0.00000894,0.00000676,0.00000859,-0.0000211
 0,-0.00001064,-0.00002474,0.00000097,0.00000725,0.00002506,0.00002295,
 0.00000522,0.00000667,-0.00001422,-0.00001536,-0.00002797,-0.00001193,
 -0.00001877,-0.00000160,0.00001758,-0.00000753,-0.00000423,0.00000063,
 0.00000734,0.00000724,-0.00001604,-0.00001047,-0.00001334,-0.00002210,
 -0.00001639,0.00000123,-0.00001711,-0.00002352,0.00000097,0.00000144,0
 .00001879,-0.00000488,0.00001884,-0.00000392,-0.00000539,0.00008857,-0
 .00000305,0.00002428,0.00025091,-0.00000791,-0.00003439,-0.00017791,-0
 .00007156,0.00016294,-0.00004368,-0.00001438,-0.00003689,-0.00000825,-
 0.00001618,0.00001857,-0.00000486,0.00001994,-0.00000037,0.00046853,0.
 00019879,-0.00019418,-0.00003599,-0.00000255,0.00014374,0.00002708,-0.
 00006104,-0.00000655,-0.00036464,-0.00008944,0.00006228,0.00003151,0.0
 0018214,-0.00003459,-0.00002945,-0.00003800,0.00004050,0.00000436,0.00
 000781,-0.00001327,-0.00002065,-0.00002794,-0.00001275,0.00001464,0.00
 000649,-0.00003743,0.00000624,-0.00003260,0.00001124,-0.00000472,-0.00
 000002,0.00001773,0.00002053,-0.00000534,0.00000726,0.00000940,0.00000
 410,0.00000439,-0.00001788,0.00000981,0.00000097,-0.00000825,0.0000065
 4,-0.00002737,0.00000111,0.00000014,0.00000982,0.00000298,0.00000717,0
 .00000008,0.00000622,-0.00000892,0.00001173,-0.00001665,-0.00001352,0.
 00000923,0.00000261,0.00000325,-0.00000410,-0.00000402,0.00001018,-0.0
 0000342,0.00084624,0.00004841,0.00027498,-0.00023783,0.00001907,-0.000
 23151,-0.00026225,0.00008845,0.00000994,-0.00021032,-0.00013591,-0.000
 05221,-0.09334981,-0.01035279,-0.05133349,0.01150421,-0.00152178,0.035
 10238,0.01379347,0.01095506,0.01809060,0.08108327,-0.00008559,0.000083
 27,-0.00012871,-0.00003502,0.00005910,0.00001012,-0.00006802,-0.000052
 00,-0.00001715,0.00005381,0.00000199,0.00000965,-0.00008370,-0.0000531
 2,-0.00005605,0.00017924,0.00047679,0.00004896,0.00035075,-0.00094632,
 0.00024296,-0.00244201,0.00951716,-0.00759724,0.00024791,-0.00236614,-
 0.00021384,-0.00135429,0.00030201,0.00065189,0.00000406,0.00000101,0.0
 0000275,-0.00000991,0.00000275,-0.00000433,-0.00000318,0.00000701,0.00
 000937,0.00052679,0.00039649,-0.00013313,0.00001468,0.00130446,-0.0004
 4708,-0.00017661,0.00000417,-0.00002683,-0.00000211,0.00014965,0.00004
 138,0.00013070,0.00041660,0.00062724,0.00002202,0.00002557,-0.00005768
 ,-0.00004074,0.00003944,-0.00011239,-0.00014429,-0.00005990,-0.0000520
 3,-0.00005316,-0.00004710,-0.00005242,0.00037251,-0.00004260,0.0001531
 2,0.00007979,-0.00004481,0.00011960,0.00009475,0.00006864,0.00007417,-
 0.00008878,-0.00004750,-0.00004012,-0.00004442,0.00005760,-0.00010791,
 0.00000744,-0.00006988,0.00007663,-0.00001026,-0.00000117,0.00004932,0
 .00003458,0.00002149,0.00001811,0.00002641,0.00001911,0.00003331,0.000
 03745,0.00003532,0.00003599,0.00007851,0.00007073,-0.00005764,-0.00032
 798,-0.00009205,-0.00008545,0.00000248,-0.00000048,-0.00000457,0.00000
 380,-0.00000122,-0.00000625,-0.00000420,-0.00000058,0.00000216,-0.0000
 0012,0.00000548,0.00000263,-0.00000506,-0.00000227,-0.00000574,-0.0000
 0063,0.00000042,0.00000518,-0.00000503,0.00000048,0.00000113,0.0000035
 1,0.00000082,-0.00000678,0.00000957,0.00000980,-0.00000513,0.00000388,
 0.00000424,0.00000836,-0.00000386,-0.00001353,0.00000977,-0.00000688,0
 .00000438,-0.00001321,0.00000471,0.00002270,0.00000316,-0.00000505,0.0
 0000596,-0.00001779,-0.00000252,-0.00002112,0.00000765,-0.00000105,-0.
 00000667,0.00000141,-0.00000669,0.00000687,-0.00001245,0.00000251,0.00
 001016,0.00000515,0.00000937,-0.00000389,0.00002098,-0.00001531,-0.000
 01294,-0.00000658,-0.00001258,-0.00000367,-0.00001282,-0.00001044,-0.0
 0001156,-0.00000841,-0.00000101,0.00000395,0.00000731,0.00000535,0.000
 00676,0.00000028,0.00003951,0.00001080,0.00004793,-0.00001737,0.000034
 29,-0.00010060,0.00000308,0.00005094,0.00004981,-0.00003458,-0.0000510
 3,0.00000269,-0.00001416,0.00002206,0.00002269,0.00001511,0.00000077,-
 0.00003625,0.00000219,-0.00001549,0.00000036,-0.00002704,-0.00000676,0
 .00000299,-0.00000362,-0.00000173,-0.00000171,0.00000325,0.00000134,0.
 00000009,-0.00000249,-0.00000424,-0.00000384,-0.00000124,0.00000443,0.
 00000260,-0.00000376,0.00000030,-0.00000446,0.00000130,0.00000103,0.00
 000514,0.00000107,0.00000389,0.00000289,-0.00000232,-0.00000385,-0.000
 00639,0.00000036,-0.00000179,-0.00000323,0.00000230,0.00000180,0.00000
 210,0.00000143,0.00000266,-0.00000071,-0.00000572,-0.00000348,-0.00000
 186,0.00000010,-0.00000437,-0.00000143,-0.00000864,-0.00000463,-0.0000
 0330,0.00001026,0.00000121,-0.00000375,-0.00000028,0.00000713,0.000008
 10,-0.00000661,0.00001712,0.00003473,0.00008318,-0.00013888,-0.0000344
 8,-0.00002173,0.00008492,0.00005946,-0.00001150,0.00000198,-0.00000730
 ,-0.00000134,-0.00000319,0.00000201,-0.00000091,0.00000476,0.00000292,
 0.00011238,0.00003702,-0.00003845,0.00000261,0.00001329,-0.00000758,-0
 .00000209,-0.00002578,0.00001507,-0.00014524,0.00006348,0.00002857,0.0
 0000590,0.00002165,-0.00001473,-0.00000312,-0.00000483,0.00000880,0.00
 001181,0.00000271,-0.00000247,-0.00000459,-0.00000283,-0.00000432,0.00
 000228,-0.00000553,-0.00001352,0.00000171,-0.00000606,-0.00000010,-0.0
 0000275,0.00000046,0.00000908,0.00000514,-0.00000055,0.00000210,0.0000
 0352,0.00000111,0.00000268,-0.00000803,0.00000478,0.00000017,-0.000001
 24,-0.00000178,-0.00000884,0.00000071,-0.00000014,0.00000382,0.0000000
 2,0.00000496,0.00000038,0.00000173,-0.00000225,0.00000257,-0.00000342,
 -0.00000328,0.00000144,0.00000100,0.00000043,0.00000009,-0.00000216,0.
 00000395,-0.00000074,0.00019082,-0.00002265,0.00004743,-0.00005305,0.0
 0000949,-0.00004563,-0.00006671,0.00003322,0.00000994,-0.00004169,-0.0
 0001253,-0.00001003,-0.01072062,-0.09002705,-0.05229188,-0.00195847,0.
 01262117,0.02945783,0.00403361,-0.03672518,-0.05767541,0.01138398,0.10
 476886,0.00008791,-0.00001112,-0.00018983,-0.00002299,0.00015559,0.000
 01561,-0.00029777,-0.00016333,-0.00004936,0.00019305,-0.00003197,0.000
 03897,-0.00035279,-0.00005582,-0.00014329,0.00086842,-0.00031055,-0.00
 024970,-0.00216396,0.00393025,-0.00155389,-0.01523697,-0.01207851,-0.0
 2910687,0.00107751,-0.00320857,0.00011491,-0.00137964,-0.00028178,0.00
 070521,0.00000613,0.00004553,0.00000303,-0.00002668,0.00001752,-0.0000
 1838,0.00005611,-0.00002188,-0.00001118,0.00039499,0.00040201,-0.00032
 314,0.00008450,0.00111894,-0.00110264,-0.00021357,0.00011528,-0.000104
 19,-0.00025285,0.00029440,-0.00005318,-0.00259783,-0.00098993,0.000699
 00,0.00008783,-0.00007409,0.00010939,-0.00015174,0.00003808,-0.0003080
 1,0.00012620,-0.00052909,0.00017643,-0.00021687,-0.00038079,-0.0002560
 9,-0.00021764,0.00081475,-0.00046140,0.00028528,0.00006096,0.00039748,
 0.00034474,0.00043526,0.00032815,-0.00037145,-0.00030712,-0.00018928,-
 0.00016877,-0.00003398,-0.00024057,0.00001796,-0.00000945,0.00016596,0
 .00001621,0.00000957,0.00015412,0.00013813,0.00014905,0.00001789,0.000
 07900,0.00010509,0.00013292,-0.00019581,0.00011505,-0.00005194,-0.0000
 7024,0.00041229,-0.00032398,0.00018947,-0.00059728,0.00053230,-0.00002
 128,-0.00000706,-0.00001361,0.00001359,-0.00000224,-0.00001911,-0.0000
 2577,-0.00000857,-0.00000183,0.00000780,0.00001533,0.00000961,-0.00001
 972,-0.00000233,-0.00001099,0.00001538,-0.00001556,0.00000865,-0.00002
 678,-0.00000722,-0.00000095,0.00001488,0.00000562,-0.00001325,0.000036
 31,-0.00000084,-0.00000232,0.00000030,-0.00001864,0.00000052,-0.000025
 75,-0.00000450,0.00002605,-0.00001315,0.00001335,-0.00002943,0.0000727
 7,0.00000939,0.00002532,-0.00001780,0.00000146,-0.00005558,-0.00007234
 ,-0.00001288,0.00004048,0.00004353,-0.00001913,-0.00000071,0.00005362,
 0.00002547,0.00000407,0.00002190,-0.00002490,0.00000010,-0.00001992,-0
 .00000398,0.00001879,-0.00001103,0.00000961,0.00001200,0.00000745,-0.0
 0001906,-0.00000177,-0.00000686,0.00000514,0.00000742,-0.00002767,0.00
 000313,0.00000686,0.00001911,-0.00002662,0.00000367,-0.00000487,-0.000
 09076,-0.00003890,0.00003194,0.00005385,-0.00006489,-0.00000876,0.0000
 7304,0.00007501,-0.00000352,-0.00005428,0.00001906,-0.00008764,-0.0001
 4219,0.00000631,0.00002342,0.00003767,-0.00000440,0.00001318,-0.000034
 49,0.00003889,0.00001149,0.00002887,-0.00000787,-0.00001355,-0.0000079
 9,-0.00001843,0.00000664,-0.00000377,0.00001146,-0.00001563,-0.0000167
 0,-0.00001234,0.00000047,0.00001145,0.00000541,-0.00000867,-0.00001319
 ,-0.00002274,0.00000292,0.00000560,0.00002265,0.00001342,0.00000778,0.
 00000883,-0.00001106,-0.00001294,-0.00002523,-0.00001464,-0.00001610,-
 0.00000618,0.00001463,0.00000118,-0.00000281,0.00000885,0.00000474,0.0
 0001125,-0.00002041,-0.00001396,-0.00001171,-0.00001770,-0.00002075,0.
 00000054,-0.00001998,-0.00002549,-0.00000103,0.00000398,0.00001681,-0.
 00000222,0.00001426,0.00000186,-0.00000325,0.00008274,0.00003656,0.000
 02796,0.00022362,-0.00026978,-0.00011209,-0.00007591,0.00011158,0.0002
 7181,-0.00003241,-0.00000244,-0.00004968,-0.00000997,-0.00001915,0.000
 01607,-0.00000061,0.00002343,0.00001113,0.00048592,0.00015085,-0.00022
 231,-0.00004878,-0.00005454,0.00014778,-0.00002214,-0.00000349,-0.0000
 1703,-0.00044995,0.00005564,0.00017630,0.00003441,0.00014901,-0.000054
 83,-0.00003264,-0.00003302,0.00004792,0.00001127,0.00001003,-0.0000271
 7,-0.00000391,-0.00001896,-0.00001204,0.00001091,0.00000248,-0.0000541
 4,0.00000336,-0.00003302,0.00000660,-0.00001087,0.00000269,0.00003212,
 0.00001448,-0.00000468,0.00000428,0.00001497,0.00000914,0.00001251,-0.
 00001764,0.00000904,-0.00000131,-0.00000698,0.00000132,-0.00003318,0.0
 0000151,0.00000226,0.00001811,0.00000178,0.00000739,-0.00000097,0.0000
 0430,-0.00000807,0.00000932,-0.00001475,-0.00001274,0.00000681,0.00000
 455,0.00000387,0.00000190,-0.00000412,0.00000971,-0.00000427,0.0007760
 2,0.00003338,0.00013463,-0.00020856,0.00001178,-0.00015193,-0.00025729
 ,0.00009668,0.00004134,-0.00019309,-0.00011904,-0.00002432,-0.04985125
 ,-0.04953057,-0.27266937,0.02062167,0.01616066,-0.07418762,0.00918074,
 -0.04311409,-0.02343993,0.03971540,0.08749654,0.40124974\\0.00000633,-
 0.00000517,0.00000043,0.00000007,-0.00000249,-0.00000089,0.00000332,0.
 00000783,0.00000385,0.00000654,-0.00000465,-0.00000100,-0.00000674,0.0
 0000635,0.00000152,0.00000099,-0.00000361,0.00000193,-0.00000965,0.000
 00536,-0.00000021,0.00000229,-0.00000096,0.00000275,-0.00000940,-0.000
 00838,-0.00000071,0.00000657,0.00000077,0.00000334,0.00000048,-0.00000
 004,-0.00000071,0.00000041,0.00000142,0.00000068,0.00000086,-0.0000021
 9,0.00000049,0.00000133,-0.00000573,0.00000178,0.00000449,0.00000364,0
 .00000500,0.00000080,0.00000003,0.00000206,-0.00000242,0.00000340,0.00
 000008,0.00000635,-0.00000265,0.00000183,0.00000328,-0.00000267,0.0000
 0305,0.00000559,0.00000080,-0.00000255,-0.00000296,0.00000026,-0.00000
 262,-0.00000172,-0.00000132,-0.00000504,-0.00000221,-0.00000021,0.0000
 0064,-0.00000132,-0.00000006,0.00000067,-0.00000085,0.00000487,0.00000
 281,0.00000050,-0.00000135,-0.00000260,0.00000238,0.00000019,-0.000000
 74,-0.00000219,0.00000028,-0.00000179,0.00000398,-0.00000231,0.0000038
 6,-0.00000063,-0.00000216,0.00000145,-0.00000127,0.00000276,0.00000146
 ,0.00000215,0.00000473,0.00000215,0.00000064,-0.00000442,-0.00000167,-
 0.00000262,0.00000118,-0.00000021,0.00000087,0.00000337,0.00000531,0.0
 0000418,0.00000134,-0.00000285,0.00000024,0.00000062,-0.00000021,0.000
 00147,0.00000034,0.00000022,-0.00000503,0.00000592,0.00000405,0.000002
 89,-0.00000336,-0.00000188,0.00000753,0.00000296,0.00000085,0.00000369
 ,0.00000160,-0.00000096,0.00000115,-0.00000476,0.00000810,0.00000214,0
 .00000422,0.00000073,0.00000150,-0.00000015,0.00000078,0.00000271,0.00
 000113,-0.00000042,0.00000832,-0.00000070,0.00000186,0.00000275,0.0000
 0031,0.00000136,0.00000002,0.00000014,0.00000146,-0.00000024,0.0000004
 6,0.00000355,-0.00000110,-0.00000190,0.00000306,-0.00000237,-0.0000000
 6,-0.00000078,-0.00000055,-0.00000125,0.00000052,-0.00000136,-0.000001
 47,-0.00000116,-0.00000886,-0.00000579,-0.00000452,-0.00000024,0.00000
 139,0.00000244,-0.00000215,-0.00000101,-0.00000147,0.00000047,-0.00000
 324,0.00000090,-0.00000062,-0.00000580,0.00000490,-0.00000119,-0.00000
 104,0.00000204,-0.00000101,-0.00000125,-0.00000172,-0.00000314,-0.0000
 0100,-0.00000001,-0.00000283,-0.00000310,-0.00000273,-0.00000098,-0.00
 000004,0.00000160,-0.00000198,-0.00000372,0.00000119,-0.00000420,-0.00
 000112,0.00000099,0.00000116,0.00000390,0.00000096,-0.00000125,0.00000
 159,-0.00000304,-0.00000132,-0.00000017,-0.00000397,0.00000076,0.00000
 034,-0.00000215,0.00000466,-0.00000424,-0.00000716,0.00000019,0.000000
 72,0.00000034,-0.00000334,0.00000543,0.00000121,0.00000146,0.00000328,
 0.00000077,0.00000032,0.00000246,-0.00000200,0.00000036,0.00000114,-0.
 00000146,0.00000128,-0.00000001,0.00000029,0.00000030,0.00000151,-0.00
 000134,-0.00000271,0.00000268,-0.00000117,-0.00000007,0.00000184,-0.00
 000168,-0.00000034,-0.00000083,-0.00000173,0.00000035,-0.00000042,-0.0
 0000113,-0.00000023,-0.00000040,0.00000058,0.00000610,-0.00000073,-0.0
 0000328,-0.00000197,-0.00000174,0.00000039,-0.00000190,-0.00000364,0.0
 0000719,-0.00000088,0.00000382,-0.00000464,-0.00000133,-0.00000093,-0.
 00000567,0.00000134,-0.00000383,0.00000198,-0.00000235,0.00000168,-0.0
 0000220,-0.00000163,-0.00000237,0.00000046,-0.00000671,0.00000750,0.00
 000164,0.00000691,-0.00000455,-0.00000470,-0.00000314,-0.00000163,0.00
 000197,-0.00000500,0.00000176,0.00000020,-0.00000344,0.00000069,-0.000
 00197,0.00000476,0.00000576,-0.00000334,-0.00000239,-0.00000314,0.0000
 0077,-0.00000090,0.00000027,-0.00000012,-0.00000312,0.00000116,-0.0000
 0186,-0.00000032,0.00000183,-0.00000171,0.00000056,-0.00000012,-0.0000
 0182,-0.00000028,0.00000124,-0.00000180,-0.00000097,0.00000020,-0.0000
 0173,-0.00000157,0.00000160,-0.00000257,-0.00000453,0.00000224,-0.0000
 0551,-0.00000132,0.00000075,-0.00000242,-0.00000023,0.00000324,-0.0000
 0015,0.00000061,-0.00000014,-0.00000301,-0.00000647,-0.00000203,-0.000
 00769,0.00000278,0.00000043,0.00000577,0.00000340,0.00000268,-0.000000
 46,0.00000338,0.00000326,-0.00000105,0.00000053,-0.00000370,0.00000559
 ,0.00000157,-0.00000005,0.00000235,0.00000038,-0.00000558,0.00000163,-
 0.00000094,-0.00000130,0.00000212\\\@
 The archive entry for this job was punched.


 MISERY NO LONGER LOVES COMPANY.  NOWADAYS IT INSISTS ON IT.

                                              -- BAKER'S LAW
 Job cpu time:       2 days  7 hours 22 minutes 15.0 seconds.
 Elapsed time:       0 days  3 hours 31 minutes 40.0 seconds.
 File lengths (MBytes):  RWF=  11754 Int=      0 D2E=      0 Chk=     62 Scr=      1
 Normal termination of Gaussian 16 at Sat Dec  7 22:19:18 2024.
