/mnt/lustre/scratch/nvme/SLURM/9663747/usccqdma.zzs8JZR3HW
OMP_STACKSIZE=0m
GAUSS_PDEF=16
GAUSS_MDEF=65536MB
GAUSS_RDEF=SCF=Direct
 Entering Gaussian System, Link 0=g16.exe
 Initial command:
 /opt/cesga/2020/software/Core/g16/c1/l1.exe "/mnt/lustre/scratch/nvme/SLURM/9663747/usccqdma.zzs8JZR3HW/Gau-1819440.inp" -scrdir="/mnt/lustre/scratch/nvme/SLURM/9663747/usccqdma.zzs8JZR3HW/"
 Default is to use a total of  16 processors:
                               16 via shared-memory
                                1 via Linda
 Entering Link 1 = /opt/cesga/2020/software/Core/g16/c1/l1.exe PID=   1819472.
  
 Copyright (c) 1988-2019, Gaussian, Inc.  All Rights Reserved.
  
 This is part of the Gaussian(R) 16 program.  It is based on
 the Gaussian(R) 09 system (copyright 2009, Gaussian, Inc.),
 the Gaussian(R) 03 system (copyright 2003, Gaussian, Inc.),
 the Gaussian(R) 98 system (copyright 1998, Gaussian, Inc.),
 the Gaussian(R) 94 system (copyright 1995, Gaussian, Inc.),
 the Gaussian 92(TM) system (copyright 1992, Gaussian, Inc.),
 the Gaussian 90(TM) system (copyright 1990, Gaussian, Inc.),
 the Gaussian 88(TM) system (copyright 1988, Gaussian, Inc.),
 the Gaussian 86(TM) system (copyright 1986, Carnegie Mellon
 University), and the Gaussian 82(TM) system (copyright 1983,
 Carnegie Mellon University). Gaussian is a federally registered
 trademark of Gaussian, Inc.
  
 This software contains proprietary and confidential information,
 including trade secrets, belonging to Gaussian, Inc.
  
 This software is provided under written license and may be
 used, copied, transmitted, or stored only in accord with that
 written license.
  
 The following legend is applicable only to US Government
 contracts under FAR:
  
                    RESTRICTED RIGHTS LEGEND
  
 Use, reproduction and disclosure by the US Government is
 subject to restrictions as set forth in subparagraphs (a)
 and (c) of the Commercial Computer Software - Restricted
 Rights clause in FAR 52.227-19.
  
 Gaussian, Inc.
 340 Quinnipiac St., Bldg. 40, Wallingford CT 06492
  
  
 ---------------------------------------------------------------
 Warning -- This program may not be used in any manner that
 competes with the business of Gaussian, Inc. or will provide
 assistance to any competitor of Gaussian, Inc.  The licensee
 of this program is prohibited from giving any competitor of
 Gaussian, Inc. access to this program.  By using this program,
 the user acknowledges that Gaussian, Inc. is engaged in the
 business of creating and licensing software in the field of
 computational chemistry and represents and warrants to the
 licensee that it is not a competitor of Gaussian, Inc. and that
 it will not use this program in any manner prohibited above.
 ---------------------------------------------------------------
  

 Cite this work as:
 Gaussian 16, Revision C.01,
 M. J. Frisch, G. W. Trucks, H. B. Schlegel, G. E. Scuseria, 
 M. A. Robb, J. R. Cheeseman, G. Scalmani, V. Barone, 
 G. A. Petersson, H. Nakatsuji, X. Li, M. Caricato, A. V. Marenich, 
 J. Bloino, B. G. Janesko, R. Gomperts, B. Mennucci, H. P. Hratchian, 
 J. V. Ortiz, A. F. Izmaylov, J. L. Sonnenberg, D. Williams-Young, 
 F. Ding, F. Lipparini, F. Egidi, J. Goings, B. Peng, A. Petrone, 
 T. Henderson, D. Ranasinghe, V. G. Zakrzewski, J. Gao, N. Rega, 
 G. Zheng, W. Liang, M. Hada, M. Ehara, K. Toyota, R. Fukuda, 
 J. Hasegawa, M. Ishida, T. Nakajima, Y. Honda, O. Kitao, H. Nakai, 
 T. Vreven, K. Throssell, J. A. Montgomery, Jr., J. E. Peralta, 
 F. Ogliaro, M. J. Bearpark, J. J. Heyd, E. N. Brothers, K. N. Kudin, 
 V. N. Staroverov, T. A. Keith, R. Kobayashi, J. Normand, 
 K. Raghavachari, A. P. Rendell, J. C. Burant, S. S. Iyengar, 
 J. Tomasi, M. Cossi, J. M. Millam, M. Klene, C. Adamo, R. Cammi, 
 J. W. Ochterski, R. L. Martin, K. Morokuma, O. Farkas, 
 J. B. Foresman, and D. J. Fox, Gaussian, Inc., Wallingford CT, 2019.
 
 ******************************************
 Gaussian 16:  ES64L-G16RevC.01  3-Jul-2019
                 7-Dec-2024 
 ******************************************
 Default route: SCF=Direct
 ----------------------------------------------------
 # m06/genecp scf=tight int=ultrafine 5d freq=noraman
 ----------------------------------------------------
 1/10=4,30=1,38=1/1,3;
 2/12=2,17=6,18=5,40=1/2;
 3/5=7,8=1,11=2,16=1,17=8,25=1,30=1,71=2,74=-54,75=-5,140=1/1,2,3;
 4//1;
 5/5=2,32=2,38=5,98=1/2;
 8/6=4,10=90,11=11/1;
 11/6=1,8=1,9=11,15=111,16=1/1,2,10;
 10/6=1/2;
 6/7=2,8=2,9=2,10=2,28=1/1;
 7/8=1,10=1,25=1/1,2,3,16;
 1/10=4,30=1/3;
 99//99;
 ------
 OPT-TS
 ------
 Symbolic Z-matrix:
 Charge =  0 Multiplicity = 1
 C                    -2.42623  -2.07543  -0.45863 
 C                    -1.00322  -2.67224  -2.18379 
 C                    -1.76576  -3.79044  -2.49435 
 C                    -2.90509  -4.04312  -1.74144 
 C                    -3.23834  -3.18062  -0.70791 
 C                    -2.6983   -1.1059    0.62115 
 C                    -2.00323   0.81248   1.74956 
 C                    -3.06991   0.73873   2.63193 
 C                    -3.98448  -0.2995    2.48737 
 C                    -3.79154  -1.22953   1.47988 
 H                    -0.08496  -2.42992  -2.71609 
 H                    -3.53348  -4.90545  -1.95566 
 H                    -4.13249  -3.36347  -0.11877 
 H                    -1.24113   1.58908   1.81496 
 H                    -4.83942  -0.38682   3.15528 
 H                    -4.49819  -2.04426   1.35117 
 N                    -1.33025  -1.83911  -1.19608 
 N                    -1.82651  -0.08312   0.76433 
 Ir                   -0.22411   0.09436  -0.69199 
 O                     2.8974   -0.14202  -0.43858 
 O                     0.76541  -2.23385   1.23008 
 O                     0.41141   2.6129    0.92429 
 B                     0.73432  -0.87036   0.98248 
 B                     1.70572  -0.67677  -0.91599 
 B                     0.64328   1.86111  -0.23303 
 O                     1.56762   2.51598  -1.03773 
 O                     1.96578  -1.76024  -1.75454 
 C                     3.37602  -2.02737  -1.70669 
 C                     3.94979  -0.64901  -1.27223 
 C                     1.5011    3.5397    1.05031 
 C                     1.90284   3.76817  -0.43476 
 C                     0.84425  -2.41744   2.65587 
 C                     1.47601  -1.07559   3.12956 
 O                     1.02578  -0.15455   2.12523 
 C                     5.23248  -0.70159  -0.46923 
 H                     5.11927  -1.29114   0.4475 
 H                     6.04986  -1.13408  -1.0639 
 H                     5.5241    0.31743  -0.18086 
 C                     4.1011    0.32714  -2.43271 
 H                     4.24615   1.33511  -2.02425 
 H                     4.95829   0.07591  -3.07208 
 H                     3.19495   0.3568   -3.05157 
 C                     3.59897  -3.12289  -0.67368 
 H                     2.9884   -3.99302  -0.94596 
 H                     4.65102  -3.4357   -0.62812 
 H                     3.27465  -2.79667   0.32239 
 C                     3.83676  -2.50235  -3.0703 
 H                     3.544    -1.80501  -3.86264 
 H                     4.9298   -2.62035  -3.09273 
 H                     3.38815  -3.4786   -3.29559 
 C                    -0.58295  -2.61355   3.15205 
 H                    -0.61558  -2.85379   4.22331 
 H                    -1.19342  -1.71691   2.97847 
 H                    -1.03804  -3.44453   2.59644 
 C                     1.66318  -3.65613   2.95668 
 H                     1.78982  -3.7846    4.04147 
 H                     1.14793  -4.54366   2.56765 
 H                     2.65541  -3.61469   2.49435 
 C                     1.00041  -0.58887   4.48422 
 H                     1.2476   -1.31345   5.27357 
 H                     1.49566   0.36      4.72823 
 H                    -0.08177  -0.4137    4.49338 
 C                     2.9974   -1.07423   3.08267 
 H                     3.35167  -0.04565   3.22724 
 H                     3.43521  -1.708     3.86568 
 H                     3.3617   -1.4101    2.10343 
 C                     1.0727    4.84103  -1.12727 
 H                     1.26682   4.79108  -2.20611 
 H                    -0.0012    4.67166  -0.97354 
 H                     1.32332   5.85161  -0.7766 
 C                     3.37894   4.03829  -0.6555 
 H                     3.5725    4.17305  -1.72795 
 H                     3.69769   4.95305  -0.13451 
 H                     3.99383   3.20099  -0.30401 
 C                     2.58874   2.83797   1.85621 
 H                     2.95681   1.94626   1.32888 
 H                     3.43324   3.50766   2.07054 
 H                     2.15556   2.50218   2.80765 
 C                     1.01991   4.776     1.78136 
 H                     1.80564   5.54469   1.80994 
 H                     0.12937   5.20547   1.3073 
 H                     0.76246   4.51896   2.81721 
 H                     0.70491   0.31635  -2.00546 
 C                    -3.97705   1.15077  -1.1936 
 O                    -4.12196  -0.00751  -1.58946 
 C                    -5.14349   1.87884  -0.53137 
 H                    -4.84855   2.1964    0.48197 
 H                    -5.36409   2.80668  -1.08136 
 C                    -1.65236   1.16353  -1.95938 
 H                    -2.05814   0.44237  -2.67902 
 H                    -1.13025   1.95068  -2.52253 
 N                    -2.79619   1.81049  -1.30742 
 C                    -2.56593   3.16298  -0.8575 
 H                    -1.67389   3.1968   -0.21308 
 H                    -2.38821   3.832    -1.71558 
 H                    -3.41085   3.55522  -0.28649 
 C                    -6.37948   1.0035   -0.45653 
 H                    -6.68731   0.67174  -1.45396 
 H                    -6.17987   0.09893   0.13139 
 H                    -3.17443   1.48579   3.41461 
 H                    -1.46738  -4.44427  -3.30993 
 H                    -7.2132    1.54469   0.00796 
 

 GradGradGradGradGradGradGradGradGradGradGradGradGradGradGradGradGradGrad
 Berny optimization.
 Initialization pass.
 Trust Radius=3.00D-01 FncErr=1.00D-07 GrdErr=1.00D-07 EigMax=2.50D+02 EigMin=1.00D-04
 Number of steps in this run=      2 maximum allowed number of steps=      2.
 GradGradGradGradGradGradGradGradGradGradGradGradGradGradGradGradGradGrad

 Stoichiometry    C33H55B3IrN3O7
 Framework group  C1[X(C33H55B3IrN3O7)]
 Deg. of freedom   300
 Full point group                 C1      NOp   1
 Largest Abelian subgroup         C1      NOp   1
 Largest concise Abelian subgroup C1      NOp   1
                         Standard orientation:                         
 ---------------------------------------------------------------------
 Center     Atomic      Atomic             Coordinates (Angstroms)
 Number     Number       Type             X           Y           Z
 ---------------------------------------------------------------------
      1          6           0       -2.426230   -2.075430   -0.458629
      2          6           0       -1.003220   -2.672240   -2.183789
      3          6           0       -1.765760   -3.790440   -2.494349
      4          6           0       -2.905090   -4.043120   -1.741439
      5          6           0       -3.238340   -3.180620   -0.707909
      6          6           0       -2.698301   -1.105900    0.621151
      7          6           0       -2.003231    0.812480    1.749561
      8          6           0       -3.069911    0.738730    2.631931
      9          6           0       -3.984481   -0.299501    2.487371
     10          6           0       -3.791541   -1.229531    1.479881
     11          1           0       -0.084960   -2.429920   -2.716089
     12          1           0       -3.533480   -4.905450   -1.955659
     13          1           0       -4.132490   -3.363471   -0.118769
     14          1           0       -1.241131    1.589080    1.814961
     15          1           0       -4.839421   -0.386821    3.155281
     16          1           0       -4.498190   -2.044261    1.351171
     17          7           0       -1.330251   -1.839110   -1.196079
     18          7           0       -1.826511   -0.083120    0.764331
     19         77           0       -0.224111    0.094360   -0.691989
     20          8           0        2.897399   -0.142019   -0.438579
     21          8           0        0.765410   -2.233850    1.230081
     22          8           0        0.411409    2.612900    0.924291
     23          5           0        0.734319   -0.870360    0.982481
     24          5           0        1.705719   -0.676769   -0.915989
     25          5           0        0.643279    1.861110   -0.233029
     26          8           0        1.567619    2.515981   -1.037729
     27          8           0        1.965779   -1.760239   -1.754539
     28          6           0        3.376019   -2.027369   -1.706689
     29          6           0        3.949789   -0.649009   -1.272229
     30          6           0        1.501098    3.539701    1.050311
     31          6           0        1.902838    3.768171   -0.434759
     32          6           0        0.844250   -2.417440    2.655871
     33          6           0        1.476009   -1.075589    3.129561
     34          8           0        1.025779   -0.154550    2.125231
     35          6           0        5.232479   -0.701589   -0.469229
     36          1           0        5.119269   -1.291139    0.447501
     37          1           0        6.049859   -1.134079   -1.063899
     38          1           0        5.524099    0.317431   -0.180859
     39          6           0        4.101099    0.327141   -2.432709
     40          1           0        4.246149    1.335111   -2.024249
     41          1           0        4.958289    0.075911   -3.072079
     42          1           0        3.194949    0.356801   -3.051569
     43          6           0        3.598970   -3.122889   -0.673679
     44          1           0        2.988400   -3.993019   -0.945959
     45          1           0        4.651020   -3.435699   -0.628119
     46          1           0        3.274650   -2.796669    0.322391
     47          6           0        3.836760   -2.502349   -3.070299
     48          1           0        3.543999   -1.805009   -3.862639
     49          1           0        4.929800   -2.620349   -3.092729
     50          1           0        3.388150   -3.478599   -3.295589
     51          6           0       -0.582950   -2.613550    3.152051
     52          1           0       -0.615580   -2.853790    4.223311
     53          1           0       -1.193421   -1.716910    2.978471
     54          1           0       -1.038040   -3.444530    2.596441
     55          6           0        1.663180   -3.656129    2.956681
     56          1           0        1.789820   -3.784599    4.041471
     57          1           0        1.147930   -4.543660    2.567651
     58          1           0        2.655410   -3.614689    2.494351
     59          6           0        1.000409   -0.588870    4.484221
     60          1           0        1.247599   -1.313450    5.273571
     61          1           0        1.495659    0.360001    4.728231
     62          1           0       -0.081771   -0.413700    4.493381
     63          6           0        2.997399   -1.074229    3.082671
     64          1           0        3.351669   -0.045649    3.227241
     65          1           0        3.435209   -1.707999    3.865681
     66          1           0        3.361699   -1.410099    2.103431
     67          6           0        1.072698    4.841030   -1.127269
     68          1           0        1.266818    4.791080   -2.206109
     69          1           0       -0.001202    4.671660   -0.973539
     70          1           0        1.323318    5.851610   -0.776599
     71          6           0        3.378938    4.038291   -0.655499
     72          1           0        3.572498    4.173051   -1.727949
     73          1           0        3.697688    4.953051   -0.134509
     74          1           0        3.993828    3.200991   -0.304009
     75          6           0        2.588739    2.837971    1.856211
     76          1           0        2.956809    1.946261    1.328881
     77          1           0        3.433238    3.507661    2.070541
     78          1           0        2.155559    2.502181    2.807651
     79          6           0        1.019908    4.776000    1.781361
     80          1           0        1.805638    5.544691    1.809941
     81          1           0        0.129368    5.205470    1.307301
     82          1           0        0.762458    4.518960    2.817211
     83          1           0        0.704909    0.316350   -2.005459
     84          6           0       -3.977051    1.150769   -1.193599
     85          8           0       -4.121961   -0.007511   -1.589459
     86          6           0       -5.143491    1.878839   -0.531369
     87          1           0       -4.848551    2.196399    0.481971
     88          1           0       -5.364091    2.806679   -1.081359
     89          6           0       -1.652361    1.163530   -1.959379
     90          1           0       -2.058141    0.442370   -2.679019
     91          1           0       -1.130251    1.950680   -2.522529
     92          7           0       -2.796191    1.810490   -1.307419
     93          6           0       -2.565932    3.162980   -0.857499
     94          1           0       -1.673892    3.196800   -0.213079
     95          1           0       -2.388212    3.832000   -1.715579
     96          1           0       -3.410852    3.555220   -0.286489
     97          6           0       -6.379481    1.003499   -0.456529
     98          1           0       -6.687311    0.671739   -1.453959
     99          1           0       -6.179871    0.098929    0.131391
    100          1           0       -3.174431    1.485790    3.414611
    101          1           0       -1.467380   -4.444270   -3.309929
    102          1           0       -7.213201    1.544689    0.007961
 ---------------------------------------------------------------------
 Rotational constants (GHZ):           0.0845092           0.0670506           0.0572037
 General basis read from cards:  (5D, 7F)
 ======================================================================================================
                                       Pseudopotential Parameters
 ======================================================================================================
  Center     Atomic      Valence      Angular      Power
  Number     Number     Electrons     Momentum     of R      Exponent        Coefficient   SO-Coeffient
 ======================================================================================================
    1          6
                                   No pseudopotential on this center.
    2          6
                                   No pseudopotential on this center.
    3          6
                                   No pseudopotential on this center.
    4          6
                                   No pseudopotential on this center.
    5          6
                                   No pseudopotential on this center.
    6          6
                                   No pseudopotential on this center.
    7          6
                                   No pseudopotential on this center.
    8          6
                                   No pseudopotential on this center.
    9          6
                                   No pseudopotential on this center.
   10          6
                                   No pseudopotential on this center.
   11          1
                                   No pseudopotential on this center.
   12          1
                                   No pseudopotential on this center.
   13          1
                                   No pseudopotential on this center.
   14          1
                                   No pseudopotential on this center.
   15          1
                                   No pseudopotential on this center.
   16          1
                                   No pseudopotential on this center.
   17          7
                                   No pseudopotential on this center.
   18          7
                                   No pseudopotential on this center.
   19         77           17
                                      G and up 
                                                     1      823.5880147       -0.15780140    0.00000000
                                                     2      364.6613336    -1517.52704460    0.00000000
                                                     2       55.7082801     -316.53065290    0.00000000
                                                     2       12.0464544      -91.88809410    0.00000000
                                                     2        3.5120610       -9.22417730    0.00000000
                                      S - G
                                                     0      188.0490770        3.15780140    0.00000000
                                                     1      340.4194712       26.83225770    0.00000000
                                                     2      128.2373673      800.42500070    0.00000000
                                                     2       33.8644961      369.40506830    0.00000000
                                                     2        4.7560005      242.41718990    0.00000000
                                                     2        3.9649974     -118.21732820    0.00000000
                                      P - G
                                                     0      289.7291139        2.15780140    0.00000000
                                                     1       87.4633789       61.96786100    0.00000000
                                                     2       30.4363766      269.05819860    0.00000000
                                                     2        4.0553412      231.16547930    0.00000000
                                                     2        3.5525341     -133.69526670    0.00000000
                                      D - G
                                                     0      136.4017106        3.15780140    0.00000000
                                                     1       95.0776925       45.93498030    0.00000000
                                                     2       49.2258410      359.03446680    0.00000000
                                                     2       15.0874145      176.47401190    0.00000000
                                                     2        4.0405764       54.51552860    0.00000000
                                      F - G
                                                     0      127.3507908        3.95461970    0.00000000
                                                     1       66.2364374       52.97736550    0.00000000
                                                     2       34.4299229      274.86433830    0.00000000
                                                     2       10.1995721      137.20473380    0.00000000
                                                     2        2.5409702       14.86333050    0.00000000
   20          8
                                   No pseudopotential on this center.
   21          8
                                   No pseudopotential on this center.
   22          8
                                   No pseudopotential on this center.
   23          5
                                   No pseudopotential on this center.
   24          5
                                   No pseudopotential on this center.
   25          5
                                   No pseudopotential on this center.
   26          8
                                   No pseudopotential on this center.
   27          8
                                   No pseudopotential on this center.
   28          6
                                   No pseudopotential on this center.
   29          6
                                   No pseudopotential on this center.
   30          6
                                   No pseudopotential on this center.
   31          6
                                   No pseudopotential on this center.
   32          6
                                   No pseudopotential on this center.
   33          6
                                   No pseudopotential on this center.
   34          8
                                   No pseudopotential on this center.
   35          6
                                   No pseudopotential on this center.
   36          1
                                   No pseudopotential on this center.
   37          1
                                   No pseudopotential on this center.
   38          1
                                   No pseudopotential on this center.
   39          6
                                   No pseudopotential on this center.
   40          1
                                   No pseudopotential on this center.
   41          1
                                   No pseudopotential on this center.
   42          1
                                   No pseudopotential on this center.
   43          6
                                   No pseudopotential on this center.
   44          1
                                   No pseudopotential on this center.
   45          1
                                   No pseudopotential on this center.
   46          1
                                   No pseudopotential on this center.
   47          6
                                   No pseudopotential on this center.
   48          1
                                   No pseudopotential on this center.
   49          1
                                   No pseudopotential on this center.
   50          1
                                   No pseudopotential on this center.
   51          6
                                   No pseudopotential on this center.
   52          1
                                   No pseudopotential on this center.
   53          1
                                   No pseudopotential on this center.
   54          1
                                   No pseudopotential on this center.
   55          6
                                   No pseudopotential on this center.
   56          1
                                   No pseudopotential on this center.
   57          1
                                   No pseudopotential on this center.
   58          1
                                   No pseudopotential on this center.
   59          6
                                   No pseudopotential on this center.
   60          1
                                   No pseudopotential on this center.
   61          1
                                   No pseudopotential on this center.
   62          1
                                   No pseudopotential on this center.
   63          6
                                   No pseudopotential on this center.
   64          1
                                   No pseudopotential on this center.
   65          1
                                   No pseudopotential on this center.
   66          1
                                   No pseudopotential on this center.
   67          6
                                   No pseudopotential on this center.
   68          1
                                   No pseudopotential on this center.
   69          1
                                   No pseudopotential on this center.
   70          1
                                   No pseudopotential on this center.
   71          6
                                   No pseudopotential on this center.
   72          1
                                   No pseudopotential on this center.
   73          1
                                   No pseudopotential on this center.
   74          1
                                   No pseudopotential on this center.
   75          6
                                   No pseudopotential on this center.
   76          1
                                   No pseudopotential on this center.
   77          1
                                   No pseudopotential on this center.
   78          1
                                   No pseudopotential on this center.
   79          6
                                   No pseudopotential on this center.
   80          1
                                   No pseudopotential on this center.
   81          1
                                   No pseudopotential on this center.
   82          1
                                   No pseudopotential on this center.
   83          1
                                   No pseudopotential on this center.
   84          6
                                   No pseudopotential on this center.
   85          8
                                   No pseudopotential on this center.
   86          6
                                   No pseudopotential on this center.
   87          1
                                   No pseudopotential on this center.
   88          1
                                   No pseudopotential on this center.
   89          6
                                   No pseudopotential on this center.
   90          1
                                   No pseudopotential on this center.
   91          1
                                   No pseudopotential on this center.
   92          7
                                   No pseudopotential on this center.
   93          6
                                   No pseudopotential on this center.
   94          1
                                   No pseudopotential on this center.
   95          1
                                   No pseudopotential on this center.
   96          1
                                   No pseudopotential on this center.
   97          6
                                   No pseudopotential on this center.
   98          1
                                   No pseudopotential on this center.
   99          1
                                   No pseudopotential on this center.
  100          1
                                   No pseudopotential on this center.
  101          1
                                   No pseudopotential on this center.
  102          1
                                   No pseudopotential on this center.
 ======================================================================================================
 There are   824 symmetry adapted cartesian basis functions of A   symmetry.
 There are   776 symmetry adapted basis functions of A   symmetry.
   776 basis functions,  1551 primitive gaussians,   824 cartesian basis functions
   181 alpha electrons      181 beta electrons
       nuclear repulsion energy      7558.5622497476 Hartrees.
 NAtoms=  102 NActive=  102 NUniq=  102 SFac= 1.00D+00 NAtFMM=   60 NAOKFM=T Big=T
 Integral buffers will be    131072 words long.
 Raffenetti 2 integral format.
 Two-electron integral symmetry is turned on.
 One-electron integrals computed using PRISM.
   1 Symmetry operations used in ECPInt.
 ECPInt:  NShTT=   45753 NPrTT=  276657 LenC2=   36700 LenP2D=  115181.
 LDataN:  DoStor=T MaxTD1= 6 Len=  172
 NBasis=   776 RedAO= T EigKep=  5.32D-04  NBF=   776
 NBsUse=   776 1.00D-06 EigRej= -1.00D+00 NBFU=   776
 Defaulting to unpruned grid for atomic number  77.
 ExpMin= 2.90D-02 ExpMax= 5.48D+03 ExpMxC= 8.25D+02 IAcc=3 IRadAn=         5 AccDes= 0.00D+00
 Harris functional with IExCor= 1009 and IRadAn=       5 diagonalized for initial guess.
 HarFok:  IExCor= 1009 AccDes= 0.00D+00 IRadAn=         5 IDoV= 1 UseB2=F ITyADJ=14
 ICtDFT=  3500011 ScaDFX=  1.000000  1.000000  1.000000  1.000000
 Defaulting to unpruned grid for atomic number  77.
 FoFCou: FMM=F IPFlag=           0 FMFlag=      100000 FMFlg1=        2001
         NFxFlg=           0 DoJE=T BraDBF=F KetDBF=T FulRan=T
         wScrn=  0.000000 ICntrl=       500 IOpCl=  0 I1Cent=   200000004 NGrid=           0
         NMat0=    1 NMatS0=      1 NMatT0=    0 NMatD0=    1 NMtDS0=    0 NMtDT0=    0
 Petite list used in FoFCou.
 Requested convergence on RMS density matrix=1.00D-08 within 128 cycles.
 Requested convergence on MAX density matrix=1.00D-06.
 Requested convergence on             energy=1.00D-06.
 No special actions if energy rises.
 Defaulting to unpruned grid for atomic number  77.
 Defaulting to unpruned grid for atomic number  77.
 Defaulting to unpruned grid for atomic number  77.
 Defaulting to unpruned grid for atomic number  77.
 Defaulting to unpruned grid for atomic number  77.
 Defaulting to unpruned grid for atomic number  77.
 Defaulting to unpruned grid for atomic number  77.
 Defaulting to unpruned grid for atomic number  77.
 Defaulting to unpruned grid for atomic number  77.
 Defaulting to unpruned grid for atomic number  77.
 Defaulting to unpruned grid for atomic number  77.
 Defaulting to unpruned grid for atomic number  77.
 Defaulting to unpruned grid for atomic number  77.
 Defaulting to unpruned grid for atomic number  77.
 Defaulting to unpruned grid for atomic number  77.
 Defaulting to unpruned grid for atomic number  77.
 SCF Done:  E(RM06) =  -2159.68647410     A.U. after   14 cycles
            NFock= 14  Conv=0.96D-08     -V/T= 2.0409
 DoSCS=F DFT=T ScalE2(SS,OS)=  1.000000  1.000000
 Range of M.O.s used for correlation:     1   776
 NBasis=   776 NAE=   181 NBE=   181 NFC=     0 NFV=     0
 NROrb=    776 NOA=   181 NOB=   181 NVA=   595 NVB=   595

 **** Warning!!: The largest alpha MO coefficient is  0.13657387D+02

   1 Symmetry operations used in ECPInt.
 ECPInt:  NShTT=   45753 NPrTT=  276657 LenC2=   36700 LenP2D=  115181.
 LDataN:  DoStor=T MaxTD1= 7 Len=  274
 Number of processors reduced to   8 by ecpmxn.
 Symmetrizing basis deriv contribution to polar:
 IMax=3 JMax=2 DiffMx= 0.00D+00
 G2DrvN: will do   103 centers at a time, making    1 passes.
 Calling FoFCou, ICntrl=  3107 FMM=T I1Cent=   0 AccDes= 0.00D+00.
 Defaulting to unpruned grid for atomic number  77.
 Defaulting to unpruned grid for atomic number  77.
 Defaulting to unpruned grid for atomic number  77.
 Defaulting to unpruned grid for atomic number  77.
 Defaulting to unpruned grid for atomic number  77.
 Defaulting to unpruned grid for atomic number  77.
 Defaulting to unpruned grid for atomic number  77.
 Defaulting to unpruned grid for atomic number  77.
 Defaulting to unpruned grid for atomic number  77.
 Defaulting to unpruned grid for atomic number  77.
 Defaulting to unpruned grid for atomic number  77.
 Defaulting to unpruned grid for atomic number  77.
 Defaulting to unpruned grid for atomic number  77.
 Defaulting to unpruned grid for atomic number  77.
 Defaulting to unpruned grid for atomic number  77.
 Defaulting to unpruned grid for atomic number  77.
 End of G2Drv F.D. properties file   721 does not exist.
 End of G2Drv F.D. properties file   722 does not exist.
 End of G2Drv F.D. properties file   788 does not exist.
          IDoAtm=11111111111111111111111111111111111111111111111111
          IDoAtm=11111111111111111111111111111111111111111111111111
          IDoAtm=11
          Differentiating once with respect to electric field.
                with respect to dipole field.
          Differentiating once with respect to nuclear coordinates.
 Defaulting to unpruned grid for atomic number  77.
 CalDSu exits because no D1Ps are significant.
 Defaulting to unpruned grid for atomic number  77.
 Defaulting to unpruned grid for atomic number  77.
 Defaulting to unpruned grid for atomic number  77.
 Defaulting to unpruned grid for atomic number  77.
 Defaulting to unpruned grid for atomic number  77.
 Defaulting to unpruned grid for atomic number  77.
 Defaulting to unpruned grid for atomic number  77.
 Defaulting to unpruned grid for atomic number  77.
 Defaulting to unpruned grid for atomic number  77.
 Defaulting to unpruned grid for atomic number  77.
 Defaulting to unpruned grid for atomic number  77.
 Defaulting to unpruned grid for atomic number  77.
 Defaulting to unpruned grid for atomic number  77.
 Defaulting to unpruned grid for atomic number  77.
 Defaulting to unpruned grid for atomic number  77.
 Defaulting to unpruned grid for atomic number  77.
          There are   309 degrees of freedom in the 1st order CPHF.  IDoFFX=6 NUNeed=     3.
    306 vectors produced by pass  0 Test12= 1.08D-13 1.00D-09 XBig12= 4.02D+02 6.40D+00.
 AX will form    72 AO Fock derivatives at one time.
    306 vectors produced by pass  1 Test12= 1.08D-13 1.00D-09 XBig12= 6.67D+01 9.49D-01.
    306 vectors produced by pass  2 Test12= 1.08D-13 1.00D-09 XBig12= 6.45D-01 7.30D-02.
    306 vectors produced by pass  3 Test12= 1.08D-13 1.00D-09 XBig12= 3.74D-03 5.97D-03.
    306 vectors produced by pass  4 Test12= 1.08D-13 1.00D-09 XBig12= 1.09D-05 3.33D-04.
    271 vectors produced by pass  5 Test12= 1.08D-13 1.00D-09 XBig12= 1.98D-08 1.14D-05.
     68 vectors produced by pass  6 Test12= 1.08D-13 1.00D-09 XBig12= 2.81D-11 4.10D-07.
      3 vectors produced by pass  7 Test12= 1.08D-13 1.00D-09 XBig12= 3.91D-14 1.68D-08.
 InvSVY:  IOpt=1 It=  1 EMax= 3.55D-14
 Solved reduced A of dimension  1872 with   309 vectors.
 Isotropic polarizability for W=    0.000000      456.87 Bohr**3.
 End of Minotr F.D. properties file   721 does not exist.
 End of Minotr F.D. properties file   722 does not exist.
 End of Minotr F.D. properties file   788 does not exist.
 Hyperfine terms turned off by default for NAtoms > 100.

 **********************************************************************

            Population analysis using the SCF Density.

 **********************************************************************

 Orbital symmetries:
       Occupied  (A) (A) (A) (A) (A) (A) (A) (A) (A) (A) (A) (A)
                 (A) (A) (A) (A) (A) (A) (A) (A) (A) (A) (A) (A)
                 (A) (A) (A) (A) (A) (A) (A) (A) (A) (A) (A) (A)
                 (A) (A) (A) (A) (A) (A) (A) (A) (A) (A) (A) (A)
                 (A) (A) (A) (A) (A) (A) (A) (A) (A) (A) (A) (A)
                 (A) (A) (A) (A) (A) (A) (A) (A) (A) (A) (A) (A)
                 (A) (A) (A) (A) (A) (A) (A) (A) (A) (A) (A) (A)
                 (A) (A) (A) (A) (A) (A) (A) (A) (A) (A) (A) (A)
                 (A) (A) (A) (A) (A) (A) (A) (A) (A) (A) (A) (A)
                 (A) (A) (A) (A) (A) (A) (A) (A) (A) (A) (A) (A)
                 (A) (A) (A) (A) (A) (A) (A) (A) (A) (A) (A) (A)
                 (A) (A) (A) (A) (A) (A) (A) (A) (A) (A) (A) (A)
                 (A) (A) (A) (A) (A) (A) (A) (A) (A) (A) (A) (A)
                 (A) (A) (A) (A) (A) (A) (A) (A) (A) (A) (A) (A)
                 (A) (A) (A) (A) (A) (A) (A) (A) (A) (A) (A) (A)
                 (A)
       Virtual   (A) (A) (A) (A) (A) (A) (A) (A) (A) (A) (A) (A)
                 (A) (A) (A) (A) (A) (A) (A) (A) (A) (A) (A) (A)
                 (A) (A) (A) (A) (A) (A) (A) (A) (A) (A) (A) (A)
                 (A) (A) (A) (A) (A) (A) (A) (A) (A) (A) (A) (A)
                 (A) (A) (A) (A) (A) (A) (A) (A) (A) (A) (A) (A)
                 (A) (A) (A) (A) (A) (A) (A) (A) (A) (A) (A) (A)
                 (A) (A) (A) (A) (A) (A) (A) (A) (A) (A) (A) (A)
                 (A) (A) (A) (A) (A) (A) (A) (A) (A) (A) (A) (A)
                 (A) (A) (A) (A) (A) (A) (A) (A) (A) (A) (A) (A)
                 (A) (A) (A) (A) (A) (A) (A) (A) (A) (A) (A) (A)
                 (A) (A) (A) (A) (A) (A) (A) (A) (A) (A) (A) (A)
                 (A) (A) (A) (A) (A) (A) (A) (A) (A) (A) (A) (A)
                 (A) (A) (A) (A) (A) (A) (A) (A) (A) (A) (A) (A)
                 (A) (A) (A) (A) (A) (A) (A) (A) (A) (A) (A) (A)
                 (A) (A) (A) (A) (A) (A) (A) (A) (A) (A) (A) (A)
                 (A) (A) (A) (A) (A) (A) (A) (A) (A) (A) (A) (A)
                 (A) (A) (A) (A) (A) (A) (A) (A) (A) (A) (A) (A)
                 (A) (A) (A) (A) (A) (A) (A) (A) (A) (A) (A) (A)
                 (A) (A) (A) (A) (A) (A) (A) (A) (A) (A) (A) (A)
                 (A) (A) (A) (A) (A) (A) (A) (A) (A) (A) (A) (A)
                 (A) (A) (A) (A) (A) (A) (A) (A) (A) (A) (A) (A)
                 (A) (A) (A) (A) (A) (A) (A) (A) (A) (A) (A) (A)
                 (A) (A) (A) (A) (A) (A) (A) (A) (A) (A) (A) (A)
                 (A) (A) (A) (A) (A) (A) (A) (A) (A) (A) (A) (A)
                 (A) (A) (A) (A) (A) (A) (A) (A) (A) (A) (A) (A)
                 (A) (A) (A) (A) (A) (A) (A) (A) (A) (A) (A) (A)
                 (A) (A) (A) (A) (A) (A) (A) (A) (A) (A) (A) (A)
                 (A) (A) (A) (A) (A) (A) (A) (A) (A) (A) (A) (A)
                 (A) (A) (A) (A) (A) (A) (A) (A) (A) (A) (A) (A)
                 (A) (A) (A) (A) (A) (A) (A) (A) (A) (A) (A) (A)
                 (A) (A) (A) (A) (A) (A) (A) (A) (A) (A) (A) (A)
                 (A) (A) (A) (A) (A) (A) (A) (A) (A) (A) (A) (A)
                 (A) (A) (A) (A) (A) (A) (A) (A) (A) (A) (A) (A)
                 (A) (A) (A) (A) (A) (A) (A) (A) (A) (A) (A) (A)
                 (A) (A) (A) (A) (A) (A) (A) (A) (A) (A) (A) (A)
                 (A) (A) (A) (A) (A) (A) (A) (A) (A) (A) (A) (A)
                 (A) (A) (A) (A) (A) (A) (A) (A) (A) (A) (A) (A)
                 (A) (A) (A) (A) (A) (A) (A) (A) (A) (A) (A) (A)
                 (A) (A) (A) (A) (A) (A) (A) (A) (A) (A) (A) (A)
                 (A) (A) (A) (A) (A) (A) (A) (A) (A) (A) (A) (A)
                 (A) (A) (A) (A) (A) (A) (A) (A) (A) (A) (A) (A)
                 (A) (A) (A) (A) (A) (A) (A) (A) (A) (A) (A) (A)
                 (A) (A) (A) (A) (A) (A) (A) (A) (A) (A) (A) (A)
                 (A) (A) (A) (A) (A) (A) (A) (A) (A) (A) (A) (A)
                 (A) (A) (A) (A) (A) (A) (A) (A) (A) (A) (A) (A)
                 (A) (A) (A) (A) (A) (A) (A) (A) (A) (A) (A) (A)
                 (A) (A) (A) (A) (A) (A) (A) (A) (A) (A) (A) (A)
                 (A) (A) (A) (A) (A) (A) (A) (A) (A) (A) (A) (A)
                 (A) (A) (A) (A) (A) (A) (A) (A) (A) (A) (A) (A)
                 (A) (A) (A) (A) (A) (A) (A)
 The electronic state is 1-A.
 Alpha  occ. eigenvalues --  -19.21122 -19.20619 -19.20288 -19.20129 -19.19684
 Alpha  occ. eigenvalues --  -19.19093 -19.16083 -14.45516 -14.43037 -14.40025
 Alpha  occ. eigenvalues --  -10.31910 -10.31796 -10.30846 -10.29964 -10.29893
 Alpha  occ. eigenvalues --  -10.29757 -10.29279 -10.29182 -10.28935 -10.28778
 Alpha  occ. eigenvalues --  -10.28739 -10.28553 -10.27746 -10.27670 -10.27434
 Alpha  occ. eigenvalues --  -10.26998 -10.26528 -10.25557 -10.23854 -10.23280
 Alpha  occ. eigenvalues --  -10.23255 -10.23206 -10.22771 -10.22708 -10.22575
 Alpha  occ. eigenvalues --  -10.22554 -10.22211 -10.22186 -10.22138 -10.21931
 Alpha  occ. eigenvalues --  -10.21809 -10.21650 -10.21293  -6.81645  -6.80934
 Alpha  occ. eigenvalues --   -6.78542  -3.63832  -2.06789  -2.05594  -2.04509
 Alpha  occ. eigenvalues --   -1.06854  -1.06232  -1.05425  -1.01923  -0.99885
 Alpha  occ. eigenvalues --   -0.99457  -0.99273  -0.98457  -0.96718  -0.91398
 Alpha  occ. eigenvalues --   -0.83894  -0.82512  -0.82039  -0.80985  -0.80281
 Alpha  occ. eigenvalues --   -0.79750  -0.77037  -0.76625  -0.75412  -0.74767
 Alpha  occ. eigenvalues --   -0.74220  -0.70939  -0.70162  -0.69843  -0.69328
 Alpha  occ. eigenvalues --   -0.68230  -0.68124  -0.67486  -0.67277  -0.67041
 Alpha  occ. eigenvalues --   -0.67017  -0.63751  -0.62858  -0.62318  -0.61419
 Alpha  occ. eigenvalues --   -0.60914  -0.60602  -0.57023  -0.55273  -0.54923
 Alpha  occ. eigenvalues --   -0.54314  -0.53933  -0.53269  -0.52784  -0.52638
 Alpha  occ. eigenvalues --   -0.52517  -0.50966  -0.50128  -0.48972  -0.48883
 Alpha  occ. eigenvalues --   -0.48315  -0.47594  -0.47195  -0.47022  -0.46790
 Alpha  occ. eigenvalues --   -0.46324  -0.46005  -0.45695  -0.45573  -0.45378
 Alpha  occ. eigenvalues --   -0.45184  -0.44858  -0.44633  -0.44309  -0.43877
 Alpha  occ. eigenvalues --   -0.43712  -0.43555  -0.43120  -0.42976  -0.42851
 Alpha  occ. eigenvalues --   -0.41751  -0.41631  -0.40509  -0.40279  -0.40066
 Alpha  occ. eigenvalues --   -0.39967  -0.39939  -0.39890  -0.39678  -0.39630
 Alpha  occ. eigenvalues --   -0.39534  -0.39075  -0.39011  -0.38807  -0.38596
 Alpha  occ. eigenvalues --   -0.38487  -0.38115  -0.37926  -0.37820  -0.37424
 Alpha  occ. eigenvalues --   -0.37100  -0.37026  -0.36851  -0.36757  -0.36586
 Alpha  occ. eigenvalues --   -0.36277  -0.35936  -0.35910  -0.35372  -0.35262
 Alpha  occ. eigenvalues --   -0.35131  -0.34939  -0.34597  -0.34503  -0.34291
 Alpha  occ. eigenvalues --   -0.34041  -0.33736  -0.33523  -0.33010  -0.32387
 Alpha  occ. eigenvalues --   -0.32076  -0.31794  -0.31331  -0.31187  -0.31058
 Alpha  occ. eigenvalues --   -0.30593  -0.30521  -0.30069  -0.29499  -0.28761
 Alpha  occ. eigenvalues --   -0.27437  -0.26972  -0.26114  -0.25798  -0.25653
 Alpha  occ. eigenvalues --   -0.25220  -0.24411  -0.23515  -0.22793  -0.21550
 Alpha  occ. eigenvalues --   -0.18179
 Alpha virt. eigenvalues --   -0.06201  -0.03288  -0.01863   0.02386   0.02874
 Alpha virt. eigenvalues --    0.04178   0.05598   0.06313   0.06766   0.07142
 Alpha virt. eigenvalues --    0.07711   0.08622   0.09598   0.10179   0.10458
 Alpha virt. eigenvalues --    0.10838   0.11203   0.11814   0.11970   0.12149
 Alpha virt. eigenvalues --    0.12540   0.13034   0.13118   0.13258   0.13846
 Alpha virt. eigenvalues --    0.14312   0.14653   0.14762   0.15032   0.15233
 Alpha virt. eigenvalues --    0.15443   0.15510   0.15647   0.15860   0.16043
 Alpha virt. eigenvalues --    0.16178   0.16290   0.16586   0.16716   0.17162
 Alpha virt. eigenvalues --    0.17270   0.17411   0.17611   0.17823   0.18042
 Alpha virt. eigenvalues --    0.18253   0.18402   0.18667   0.18922   0.19108
 Alpha virt. eigenvalues --    0.19167   0.19350   0.19576   0.19659   0.20017
 Alpha virt. eigenvalues --    0.20203   0.20288   0.20642   0.20995   0.21107
 Alpha virt. eigenvalues --    0.21301   0.21411   0.21738   0.21823   0.22098
 Alpha virt. eigenvalues --    0.22334   0.22666   0.22683   0.22800   0.23321
 Alpha virt. eigenvalues --    0.23631   0.23998   0.24323   0.24403   0.24921
 Alpha virt. eigenvalues --    0.25039   0.25218   0.25530   0.25847   0.26166
 Alpha virt. eigenvalues --    0.26609   0.26713   0.27069   0.27211   0.27469
 Alpha virt. eigenvalues --    0.27803   0.28159   0.28376   0.28567   0.29152
 Alpha virt. eigenvalues --    0.29243   0.29576   0.30161   0.30407   0.30832
 Alpha virt. eigenvalues --    0.31007   0.31614   0.31668   0.32155   0.33075
 Alpha virt. eigenvalues --    0.34080   0.34224   0.35528   0.36544   0.36660
 Alpha virt. eigenvalues --    0.37015   0.38168   0.38732   0.39104   0.39863
 Alpha virt. eigenvalues --    0.40123   0.40913   0.42439   0.42872   0.45235
 Alpha virt. eigenvalues --    0.45689   0.46453   0.47652   0.48619   0.49401
 Alpha virt. eigenvalues --    0.49537   0.49835   0.50391   0.51137   0.51544
 Alpha virt. eigenvalues --    0.51846   0.52177   0.52609   0.52875   0.53159
 Alpha virt. eigenvalues --    0.53447   0.54222   0.54738   0.54867   0.55078
 Alpha virt. eigenvalues --    0.55987   0.56101   0.56178   0.56520   0.56979
 Alpha virt. eigenvalues --    0.57513   0.57864   0.58041   0.58250   0.58467
 Alpha virt. eigenvalues --    0.58906   0.59271   0.59543   0.59851   0.59917
 Alpha virt. eigenvalues --    0.60124   0.60278   0.60362   0.60472   0.60833
 Alpha virt. eigenvalues --    0.61095   0.61679   0.61812   0.62321   0.62498
 Alpha virt. eigenvalues --    0.62920   0.63249   0.63775   0.63876   0.64564
 Alpha virt. eigenvalues --    0.64762   0.65235   0.65306   0.65712   0.65794
 Alpha virt. eigenvalues --    0.66413   0.66667   0.66928   0.67146   0.67686
 Alpha virt. eigenvalues --    0.68860   0.69220   0.69355   0.69664   0.69774
 Alpha virt. eigenvalues --    0.70299   0.70875   0.71061   0.71312   0.71932
 Alpha virt. eigenvalues --    0.72079   0.72632   0.72774   0.72938   0.73279
 Alpha virt. eigenvalues --    0.73745   0.73957   0.74238   0.74943   0.75208
 Alpha virt. eigenvalues --    0.75824   0.76063   0.76736   0.76949   0.77544
 Alpha virt. eigenvalues --    0.77616   0.78380   0.78598   0.78848   0.79463
 Alpha virt. eigenvalues --    0.79796   0.80239   0.80967   0.81433   0.81536
 Alpha virt. eigenvalues --    0.81728   0.82475   0.82893   0.83061   0.83325
 Alpha virt. eigenvalues --    0.83641   0.83764   0.84273   0.84426   0.84633
 Alpha virt. eigenvalues --    0.85132   0.85304   0.85713   0.85908   0.86013
 Alpha virt. eigenvalues --    0.86061   0.86386   0.86607   0.86862   0.87099
 Alpha virt. eigenvalues --    0.87328   0.87859   0.88111   0.88286   0.88634
 Alpha virt. eigenvalues --    0.88907   0.88979   0.89323   0.89483   0.89752
 Alpha virt. eigenvalues --    0.89985   0.90426   0.90506   0.90860   0.90963
 Alpha virt. eigenvalues --    0.90994   0.91537   0.91706   0.91772   0.92118
 Alpha virt. eigenvalues --    0.92394   0.92888   0.92983   0.93189   0.93947
 Alpha virt. eigenvalues --    0.94358   0.94445   0.94666   0.94974   0.95546
 Alpha virt. eigenvalues --    0.95725   0.95978   0.96411   0.96812   0.96832
 Alpha virt. eigenvalues --    0.97725   0.98245   0.98670   0.99090   0.99370
 Alpha virt. eigenvalues --    0.99613   1.00211   1.00258   1.00884   1.01419
 Alpha virt. eigenvalues --    1.01790   1.01993   1.02599   1.03389   1.04020
 Alpha virt. eigenvalues --    1.04586   1.05033   1.05407   1.06100   1.06835
 Alpha virt. eigenvalues --    1.07693   1.08249   1.09095   1.09253   1.09568
 Alpha virt. eigenvalues --    1.10364   1.10539   1.11080   1.11589   1.12241
 Alpha virt. eigenvalues --    1.13438   1.14513   1.14602   1.15229   1.16194
 Alpha virt. eigenvalues --    1.16595   1.16998   1.18010   1.18200   1.18860
 Alpha virt. eigenvalues --    1.19064   1.19984   1.20864   1.21821   1.22113
 Alpha virt. eigenvalues --    1.22855   1.23812   1.24210   1.24304   1.25132
 Alpha virt. eigenvalues --    1.26380   1.26554   1.27104   1.28153   1.28545
 Alpha virt. eigenvalues --    1.28864   1.29530   1.30725   1.31259   1.32287
 Alpha virt. eigenvalues --    1.32731   1.33250   1.33922   1.34653   1.34822
 Alpha virt. eigenvalues --    1.36522   1.36763   1.37825   1.38353   1.39212
 Alpha virt. eigenvalues --    1.39568   1.40444   1.41086   1.41476   1.41872
 Alpha virt. eigenvalues --    1.42578   1.42743   1.43704   1.43866   1.44702
 Alpha virt. eigenvalues --    1.45192   1.45759   1.46173   1.46526   1.47094
 Alpha virt. eigenvalues --    1.47343   1.47502   1.47913   1.48737   1.49454
 Alpha virt. eigenvalues --    1.50001   1.50714   1.50836   1.51983   1.53101
 Alpha virt. eigenvalues --    1.54059   1.54602   1.55955   1.56572   1.57528
 Alpha virt. eigenvalues --    1.59489   1.59908   1.60895   1.62531   1.62883
 Alpha virt. eigenvalues --    1.63669   1.64528   1.64849   1.65115   1.65474
 Alpha virt. eigenvalues --    1.66799   1.67175   1.67978   1.68337   1.69344
 Alpha virt. eigenvalues --    1.69700   1.70147   1.71499   1.71724   1.73671
 Alpha virt. eigenvalues --    1.74860   1.75202   1.76167   1.77022   1.77638
 Alpha virt. eigenvalues --    1.78008   1.78334   1.78952   1.79564   1.80212
 Alpha virt. eigenvalues --    1.80303   1.80863   1.82114   1.82645   1.82992
 Alpha virt. eigenvalues --    1.83289   1.83804   1.83921   1.84764   1.84915
 Alpha virt. eigenvalues --    1.85179   1.85774   1.86419   1.86686   1.87179
 Alpha virt. eigenvalues --    1.88066   1.88517   1.88922   1.89525   1.89839
 Alpha virt. eigenvalues --    1.90556   1.91019   1.91412   1.91532   1.91700
 Alpha virt. eigenvalues --    1.92260   1.92307   1.92494   1.92744   1.92987
 Alpha virt. eigenvalues --    1.93503   1.93722   1.94087   1.94443   1.94710
 Alpha virt. eigenvalues --    1.95057   1.96287   1.96437   1.96807   1.97698
 Alpha virt. eigenvalues --    1.97994   1.98654   1.99599   1.99798   2.00566
 Alpha virt. eigenvalues --    2.00939   2.01302   2.02824   2.03209   2.03518
 Alpha virt. eigenvalues --    2.03671   2.03954   2.05003   2.05381   2.06233
 Alpha virt. eigenvalues --    2.06625   2.07035   2.07259   2.07667   2.07888
 Alpha virt. eigenvalues --    2.08200   2.08957   2.09631   2.10140   2.10845
 Alpha virt. eigenvalues --    2.10959   2.11776   2.12110   2.12567   2.13030
 Alpha virt. eigenvalues --    2.13840   2.14214   2.14592   2.14907   2.15262
 Alpha virt. eigenvalues --    2.15598   2.15771   2.16052   2.16913   2.17633
 Alpha virt. eigenvalues --    2.18195   2.18382   2.18839   2.19250   2.19518
 Alpha virt. eigenvalues --    2.19597   2.19966   2.20361   2.20856   2.21117
 Alpha virt. eigenvalues --    2.22060   2.22127   2.22476   2.22679   2.23078
 Alpha virt. eigenvalues --    2.23528   2.24030   2.24273   2.24810   2.25266
 Alpha virt. eigenvalues --    2.25830   2.26000   2.26295   2.26693   2.27433
 Alpha virt. eigenvalues --    2.27890   2.28053   2.28412   2.29371   2.29976
 Alpha virt. eigenvalues --    2.30460   2.31798   2.32246   2.32472   2.33026
 Alpha virt. eigenvalues --    2.33475   2.33710   2.34544   2.35353   2.35785
 Alpha virt. eigenvalues --    2.36537   2.37454   2.38176   2.39172   2.39446
 Alpha virt. eigenvalues --    2.39657   2.40410   2.40937   2.42992   2.45042
 Alpha virt. eigenvalues --    2.46646   2.46817   2.48232   2.48555   2.48802
 Alpha virt. eigenvalues --    2.49332   2.49591   2.49775   2.50577   2.51601
 Alpha virt. eigenvalues --    2.53349   2.54335   2.54600   2.55465   2.57453
 Alpha virt. eigenvalues --    2.60159   2.60383   2.60720   2.61248   2.61777
 Alpha virt. eigenvalues --    2.62484   2.63161   2.64444   2.64935   2.65600
 Alpha virt. eigenvalues --    2.65939   2.69120   2.69533   2.69812   2.71541
 Alpha virt. eigenvalues --    2.71892   2.73907   2.77535   2.77584   2.78635
 Alpha virt. eigenvalues --    2.78703   2.79003   2.80008   2.80081   2.80927
 Alpha virt. eigenvalues --    2.80970   2.81575   2.81695   2.83411   2.84208
 Alpha virt. eigenvalues --    2.84990   2.86163   2.87760   2.89207   2.91469
 Alpha virt. eigenvalues --    2.93387   2.94362   2.95606   2.97150   2.97462
 Alpha virt. eigenvalues --    2.99888   3.01111   3.01707   3.04851   3.05092
 Alpha virt. eigenvalues --    3.06993   3.09052   3.10634   3.13368   3.14478
 Alpha virt. eigenvalues --    3.23347   3.26218   3.31782   3.45600  14.79043
          Condensed to atoms (all electrons):
 Mulliken charges:
               1
     1  C    0.351640
     2  C    0.055532
     3  C   -0.172197
     4  C   -0.138484
     5  C   -0.172122
     6  C    0.322348
     7  C    0.038494
     8  C   -0.174899
     9  C   -0.147470
    10  C   -0.170835
    11  H    0.217809
    12  H    0.176520
    13  H    0.167997
    14  H    0.243499
    15  H    0.182523
    16  H    0.172680
    17  N   -0.469051
    18  N   -0.543187
    19  Ir  -0.103139
    20  O   -0.519642
    21  O   -0.509009
    22  O   -0.548002
    23  B    0.506161
    24  B    0.435372
    25  B    0.478843
    26  O   -0.507756
    27  O   -0.519289
    28  C    0.298166
    29  C    0.288880
    30  C    0.292674
    31  C    0.300822
    32  C    0.291709
    33  C    0.290334
    34  O   -0.488174
    35  C   -0.509609
    36  H    0.166041
    37  H    0.151973
    38  H    0.167389
    39  C   -0.505787
    40  H    0.174763
    41  H    0.145677
    42  H    0.186481
    43  C   -0.498838
    44  H    0.172493
    45  H    0.146012
    46  H    0.163963
    47  C   -0.514924
    48  H    0.174925
    49  H    0.150457
    50  H    0.166108
    51  C   -0.496739
    52  H    0.152801
    53  H    0.151941
    54  H    0.167705
    55  C   -0.510106
    56  H    0.150995
    57  H    0.172749
    58  H    0.170887
    59  C   -0.506453
    60  H    0.150372
    61  H    0.170624
    62  H    0.161331
    63  C   -0.496638
    64  H    0.171877
    65  H    0.148325
    66  H    0.165538
    67  C   -0.502329
    68  H    0.174463
    69  H    0.155211
    70  H    0.146974
    71  C   -0.501893
    72  H    0.166554
    73  H    0.146257
    74  H    0.164292
    75  C   -0.499714
    76  H    0.190135
    77  H    0.140233
    78  H    0.158173
    79  C   -0.511875
    80  H    0.151033
    81  H    0.162124
    82  H    0.164536
    83  H    0.192231
    84  C    0.581430
    85  O   -0.537038
    86  C   -0.406444
    87  H    0.155405
    88  H    0.173230
    89  C   -0.348547
    90  H    0.190046
    91  H    0.154208
    92  N   -0.358693
    93  C   -0.379878
    94  H    0.185110
    95  H    0.171482
    96  H    0.164608
    97  C   -0.470249
    98  H    0.181510
    99  H    0.149433
   100  H    0.181970
   101  H    0.177411
   102  H    0.147522
 Sum of Mulliken charges =  -0.00000
 Mulliken charges with hydrogens summed into heavy atoms:
               1
     1  C    0.351640
     2  C    0.273342
     3  C    0.005214
     4  C    0.038036
     5  C   -0.004125
     6  C    0.322348
     7  C    0.281994
     8  C    0.007070
     9  C    0.035054
    10  C    0.001844
    17  N   -0.469051
    18  N   -0.543187
    19  Ir   0.089093
    20  O   -0.519642
    21  O   -0.509009
    22  O   -0.548002
    23  B    0.506161
    24  B    0.435372
    25  B    0.478843
    26  O   -0.507756
    27  O   -0.519289
    28  C    0.298166
    29  C    0.288880
    30  C    0.292674
    31  C    0.300822
    32  C    0.291709
    33  C    0.290334
    34  O   -0.488174
    35  C   -0.024206
    39  C    0.001133
    43  C   -0.016370
    47  C   -0.023433
    51  C   -0.024292
    55  C   -0.015477
    59  C   -0.024126
    63  C   -0.010897
    67  C   -0.025681
    71  C   -0.024790
    75  C   -0.011172
    79  C   -0.034182
    84  C    0.581430
    85  O   -0.537038
    86  C   -0.077809
    89  C   -0.004294
    92  N   -0.358693
    93  C    0.141322
    97  C    0.008216
 APT charges:
               1
     1  C    0.190858
     2  C    0.069834
     3  C   -0.064524
     4  C    0.123688
     5  C   -0.158739
     6  C    0.284911
     7  C    0.051435
     8  C   -0.116537
     9  C    0.138157
    10  C   -0.190263
    11  H    0.090646
    12  H    0.024982
    13  H    0.039519
    14  H    0.145158
    15  H    0.033211
    16  H    0.048816
    17  N   -0.240692
    18  N   -0.140600
    19  Ir  -0.688837
    20  O   -1.013159
    21  O   -0.880370
    22  O   -1.012788
    23  B    1.097190
    24  B    1.349956
    25  B    1.254523
    26  O   -0.956250
    27  O   -1.007115
    28  C    0.533171
    29  C    0.509577
    30  C    0.510286
    31  C    0.475106
    32  C    0.434501
    33  C    0.457726
    34  O   -0.866831
    35  C    0.000205
    36  H   -0.004143
    37  H   -0.018864
    38  H    0.000621
    39  C   -0.038599
    40  H    0.001988
    41  H   -0.029924
    42  H    0.015026
    43  C   -0.034044
    44  H    0.002498
    45  H   -0.024906
    46  H    0.004487
    47  C   -0.015372
    48  H    0.005092
    49  H   -0.015610
    50  H   -0.003107
    51  C   -0.014657
    52  H   -0.017992
    53  H   -0.012274
    54  H   -0.000783
    55  C    0.004310
    56  H   -0.016864
    57  H    0.000040
    58  H   -0.000490
    59  C    0.000617
    60  H   -0.014568
    61  H    0.006792
    62  H   -0.000997
    63  C   -0.012717
    64  H    0.000366
    65  H   -0.026958
    66  H    0.005921
    67  C   -0.021904
    68  H    0.001748
    69  H   -0.002587
    70  H   -0.028211
    71  C   -0.001028
    72  H   -0.002360
    73  H   -0.023050
    74  H   -0.001194
    75  C   -0.041007
    76  H    0.032414
    77  H   -0.031801
    78  H   -0.007514
    79  C   -0.007393
    80  H   -0.017423
    81  H   -0.003015
    82  H   -0.002859
    83  H   -0.021154
    84  C    0.882610
    85  O   -0.739354
    86  C    0.015660
    87  H   -0.030067
    88  H   -0.031821
    89  C    0.326382
    90  H   -0.042423
    91  H   -0.066566
    92  N   -0.768491
    93  C    0.269333
    94  H    0.020995
    95  H   -0.037664
    96  H    0.000790
    97  C    0.077723
    98  H    0.008476
    99  H   -0.010449
   100  H    0.040848
   101  H    0.029827
   102  H   -0.039110
 Sum of APT charges =  -0.00000
 APT charges with hydrogens summed into heavy atoms:
               1
     1  C    0.190858
     2  C    0.160481
     3  C   -0.034697
     4  C    0.148669
     5  C   -0.119220
     6  C    0.284911
     7  C    0.196592
     8  C   -0.075690
     9  C    0.171369
    10  C   -0.141447
    17  N   -0.240692
    18  N   -0.140600
    19  Ir  -0.709990
    20  O   -1.013159
    21  O   -0.880370
    22  O   -1.012788
    23  B    1.097190
    24  B    1.349956
    25  B    1.254523
    26  O   -0.956250
    27  O   -1.007115
    28  C    0.533171
    29  C    0.509577
    30  C    0.510286
    31  C    0.475106
    32  C    0.434501
    33  C    0.457726
    34  O   -0.866831
    35  C   -0.022182
    39  C   -0.051509
    43  C   -0.051964
    47  C   -0.028996
    51  C   -0.045706
    55  C   -0.013003
    59  C   -0.008156
    63  C   -0.033388
    67  C   -0.050955
    71  C   -0.027632
    75  C   -0.047909
    79  C   -0.030689
    84  C    0.882610
    85  O   -0.739354
    86  C   -0.046228
    89  C    0.217393
    92  N   -0.768491
    93  C    0.253454
    97  C    0.036640
 Electronic spatial extent (au):  <R**2>=          23068.2044
 Charge=             -0.0000 electrons
 Dipole moment (field-independent basis, Debye):
    X=             -1.3980    Y=             -2.3030    Z=              4.1094  Tot=              4.9138
 Quadrupole moment (field-independent basis, Debye-Ang):
   XX=           -280.4574   YY=           -273.6325   ZZ=           -287.3892
   XY=              4.0073   XZ=            -15.0416   YZ=              5.6957
 Traceless Quadrupole moment (field-independent basis, Debye-Ang):
   XX=              0.0356   YY=              6.8606   ZZ=             -6.8962
   XY=              4.0073   XZ=            -15.0416   YZ=              5.6957
 Octapole moment (field-independent basis, Debye-Ang**2):
  XXX=             -8.8310  YYY=             -8.0963  ZZZ=            -46.4565  XYY=            -55.1441
  XXY=            -21.7573  XXZ=             26.8652  XZZ=             -6.1172  YZZ=            -29.2317
  YYZ=            -56.2361  XYZ=             -4.9989
 Hexadecapole moment (field-independent basis, Debye-Ang**3):
 XXXX=         -14120.2354 YYYY=          -9834.4713 ZZZZ=          -6421.4132 XXXY=             -5.1249
 XXXZ=           -337.0317 YYYX=            240.3550 YYYZ=            168.0814 ZZZX=            -36.1183
 ZZZY=             36.4947 XXYY=          -3793.4188 XXZZ=          -3400.4674 YYZZ=          -2658.0757
 XXYZ=             18.5566 YYXZ=            112.6360 ZZXY=            -27.0653
 N-N= 7.558562249748D+03 E-N=-2.012226710589D+04  KE= 2.074806739042D+03
  Exact polarizability:     496.491      21.766     463.782     -26.294      32.457     410.346
 Approx polarizability:     679.876      48.508     681.394     -53.722      74.732     640.074
   1 Symmetry operations used in ECPInt.
 ECPInt:  NShTT=   45753 NPrTT=  276657 LenC2=   36700 LenP2D=  115181.
 LDataN:  DoStor=T MaxTD1= 8 Len=  415
 Calling FoFJK, ICntrl=    100127 FMM=F ISym2X=0 I1Cent= 0 IOpClX= 0 NMat=1 NMatS=1 NMatT=0.
 Defaulting to unpruned grid for atomic number  77.
 Defaulting to unpruned grid for atomic number  77.
 Defaulting to unpruned grid for atomic number  77.
 Defaulting to unpruned grid for atomic number  77.
 Defaulting to unpruned grid for atomic number  77.
 Defaulting to unpruned grid for atomic number  77.
 Defaulting to unpruned grid for atomic number  77.
 Defaulting to unpruned grid for atomic number  77.
 Defaulting to unpruned grid for atomic number  77.
 Defaulting to unpruned grid for atomic number  77.
 Defaulting to unpruned grid for atomic number  77.
 Defaulting to unpruned grid for atomic number  77.
 Defaulting to unpruned grid for atomic number  77.
 Defaulting to unpruned grid for atomic number  77.
 Defaulting to unpruned grid for atomic number  77.
 Defaulting to unpruned grid for atomic number  77.
 Full mass-weighted force constant matrix:
 Low frequencies ---   -0.0008   -0.0006   -0.0003    3.5779    5.4291    7.9882
 Low frequencies ---   26.9062   29.0931   39.1265
 Diagonal vibrational polarizability:
       88.1575933      69.2094008      68.4408732
 Harmonic frequencies (cm**-1), IR intensities (KM/Mole), Raman scattering
 activities (A**4/AMU), depolarization ratios for plane and unpolarized
 incident light, reduced masses (AMU), force constants (mDyne/A),
 and normal coordinates:
                      1                      2                      3
                      A                      A                      A
 Frequencies --     26.9026                29.0595                38.9907
 Red. masses --      4.8386                 4.4312                 4.0742
 Frc consts  --      0.0021                 0.0022                 0.0036
 IR Inten    --      0.6760                 0.3351                 0.4125
  Atom AN      X      Y      Z        X      Y      Z        X      Y      Z
     1   6     0.03  -0.04   0.05     0.00  -0.02  -0.05     0.05  -0.04  -0.02
     2   6     0.05  -0.07   0.07     0.01  -0.00  -0.05     0.02   0.03  -0.06
     3   6     0.11  -0.14   0.15    -0.01   0.03  -0.10     0.07  -0.01  -0.04
     4   6     0.14  -0.16   0.19    -0.03   0.03  -0.13     0.12  -0.08   0.01
     5   6     0.10  -0.11   0.13    -0.03   0.01  -0.10     0.10  -0.09   0.02
     6   6    -0.00   0.00   0.00     0.01  -0.05  -0.02     0.02  -0.05  -0.02
     7   6    -0.03   0.03  -0.04    -0.01  -0.05  -0.01    -0.04  -0.02  -0.03
     8   6    -0.05   0.05  -0.06     0.01  -0.09   0.01    -0.04  -0.05  -0.03
     9   6    -0.04   0.05  -0.05     0.04  -0.11   0.02    -0.01  -0.07  -0.03
    10   6    -0.02   0.02  -0.02     0.03  -0.09   0.00     0.02  -0.07  -0.02
    11   1     0.03  -0.05   0.04     0.03  -0.00  -0.03    -0.01   0.08  -0.09
    12   1     0.19  -0.22   0.26    -0.05   0.06  -0.17     0.16  -0.12   0.03
    13   1     0.13  -0.13   0.17    -0.05   0.02  -0.13     0.14  -0.15   0.05
    14   1    -0.03   0.04  -0.04    -0.02  -0.04  -0.02    -0.06  -0.00  -0.03
    15   1    -0.06   0.07  -0.07     0.06  -0.14   0.04    -0.01  -0.09  -0.03
    16   1    -0.02   0.03  -0.02     0.05  -0.10   0.01     0.04  -0.09  -0.02
    17   7     0.01  -0.02   0.02     0.02  -0.02  -0.03     0.01   0.01  -0.05
    18   7    -0.01   0.01  -0.01    -0.01  -0.04  -0.02    -0.01  -0.03  -0.02
    19  77    -0.01   0.00  -0.02    -0.00  -0.02  -0.02    -0.01   0.01  -0.01
    20   8    -0.01   0.02  -0.01    -0.00   0.01   0.01    -0.01  -0.05   0.02
    21   8    -0.01  -0.02  -0.04     0.01   0.00   0.01    -0.07   0.03   0.03
    22   8    -0.01  -0.01  -0.00    -0.02  -0.00  -0.03    -0.02   0.01   0.00
    23   5    -0.02  -0.01  -0.02    -0.01   0.00  -0.00    -0.01   0.03  -0.00
    24   5    -0.00   0.02  -0.01     0.01  -0.01   0.01    -0.02  -0.01  -0.01
    25   5    -0.01   0.00  -0.01    -0.01  -0.01  -0.02    -0.00   0.01   0.01
    26   8    -0.01   0.01  -0.00    -0.02  -0.01  -0.02     0.03  -0.01   0.03
    27   8     0.01   0.02  -0.02     0.02  -0.01   0.03    -0.03   0.01  -0.04
    28   6     0.02   0.04  -0.01     0.03  -0.00   0.04    -0.04  -0.03  -0.03
    29   6     0.00   0.04  -0.00     0.01   0.01   0.03    -0.01  -0.06   0.03
    30   6    -0.00  -0.02   0.01    -0.03   0.00  -0.03    -0.01   0.00   0.02
    31   6     0.01  -0.00   0.01    -0.02  -0.01  -0.03     0.02  -0.01   0.02
    32   6    -0.02  -0.04  -0.05    -0.00   0.02   0.02    -0.03   0.07   0.04
    33   6    -0.04  -0.04  -0.02    -0.03   0.04   0.01     0.04   0.05  -0.02
    34   8    -0.03  -0.03  -0.01    -0.03   0.02  -0.01     0.05   0.04  -0.03
    35   6    -0.00   0.04   0.01     0.00   0.03   0.05    -0.03  -0.12   0.05
    36   1    -0.01   0.04   0.00    -0.00   0.04   0.05    -0.05  -0.16   0.02
    37   1     0.00   0.05   0.01     0.01   0.03   0.06    -0.02  -0.11   0.04
    38   1    -0.01   0.04   0.02    -0.01   0.04   0.04    -0.01  -0.14   0.10
    39   6     0.00   0.04   0.00     0.01  -0.01   0.02     0.04  -0.02   0.06
    40   1     0.00   0.04   0.01     0.00   0.00   0.01     0.06  -0.04   0.10
    41   1     0.00   0.05   0.00     0.02  -0.01   0.03     0.05  -0.02   0.07
    42   1     0.00   0.05   0.00     0.02  -0.02   0.01     0.05   0.02   0.05
    43   6     0.02   0.03  -0.02     0.03   0.02   0.06    -0.09  -0.07  -0.07
    44   1     0.03   0.03  -0.03     0.03   0.01   0.07    -0.10  -0.05  -0.13
    45   1     0.02   0.04  -0.02     0.03   0.02   0.07    -0.10  -0.10  -0.05
    46   1     0.01   0.02  -0.02     0.02   0.03   0.06    -0.12  -0.11  -0.07
    47   6     0.03   0.05  -0.01     0.05  -0.02   0.06    -0.03   0.01  -0.04
    48   1     0.02   0.05  -0.01     0.05  -0.03   0.04     0.00   0.05  -0.02
    49   1     0.03   0.06  -0.01     0.05  -0.01   0.07    -0.04  -0.02  -0.03
    50   1     0.04   0.05  -0.02     0.06  -0.02   0.07    -0.06   0.04  -0.09
    51   6    -0.02  -0.06  -0.06    -0.00  -0.01   0.00    -0.02   0.15   0.10
    52   1    -0.03  -0.07  -0.06    -0.01  -0.00   0.00     0.01   0.18   0.10
    53   1    -0.03  -0.07  -0.07    -0.02  -0.02  -0.01     0.01   0.17   0.10
    54   1    -0.01  -0.06  -0.07     0.02  -0.01  -0.00    -0.08   0.15   0.14
    55   6    -0.01  -0.04  -0.06     0.02   0.04   0.03    -0.08   0.04   0.04
    56   1    -0.03  -0.06  -0.06     0.01   0.05   0.04    -0.04   0.06   0.04
    57   1    -0.00  -0.04  -0.08     0.04   0.02   0.04    -0.14   0.05   0.09
    58   1    -0.01  -0.02  -0.05     0.02   0.05   0.04    -0.10  -0.02   0.00
    59   6    -0.05  -0.07  -0.02    -0.07   0.04  -0.00     0.12   0.11  -0.01
    60   1    -0.05  -0.08  -0.03    -0.07   0.06   0.01     0.11   0.11  -0.01
    61   1    -0.06  -0.07   0.00    -0.09   0.05  -0.00     0.17   0.09  -0.06
    62   1    -0.05  -0.08  -0.02    -0.07   0.03  -0.03     0.13   0.16   0.02
    63   6    -0.03  -0.03  -0.00    -0.03   0.06   0.04     0.04  -0.02  -0.08
    64   1    -0.04  -0.03   0.02    -0.05   0.07   0.05     0.10  -0.03  -0.14
    65   1    -0.04  -0.04  -0.01    -0.04   0.07   0.05     0.04  -0.01  -0.06
    66   1    -0.02  -0.01  -0.01    -0.01   0.06   0.05    -0.01  -0.09  -0.07
    67   6     0.03   0.02   0.02    -0.01  -0.01  -0.05     0.03  -0.01   0.00
    68   1     0.03   0.03   0.02     0.00  -0.02  -0.04     0.05  -0.02   0.00
    69   1     0.02   0.03   0.02    -0.01  -0.00  -0.05     0.03  -0.01  -0.02
    70   1     0.04   0.01   0.04    -0.01  -0.01  -0.05     0.03  -0.01  -0.00
    71   6     0.01  -0.02   0.03    -0.01  -0.01  -0.02     0.02  -0.01   0.05
    72   1     0.02  -0.01   0.03    -0.01  -0.02  -0.02     0.04  -0.02   0.05
    73   1     0.02  -0.03   0.04    -0.02  -0.01  -0.03     0.01  -0.01   0.05
    74   1     0.00  -0.03   0.02    -0.02  -0.01  -0.01     0.01  -0.01   0.06
    75   6    -0.01  -0.03   0.01    -0.03   0.02  -0.01    -0.02   0.00   0.03
    76   1    -0.02  -0.03   0.01    -0.02   0.02   0.00    -0.02  -0.00   0.04
    77   1    -0.01  -0.04   0.02    -0.04   0.03  -0.02    -0.02  -0.00   0.04
    78   1    -0.02  -0.04   0.01    -0.04   0.03  -0.01    -0.04   0.01   0.03
    79   6     0.00  -0.02   0.02    -0.04   0.01  -0.05    -0.01   0.01   0.00
    80   1     0.01  -0.03   0.03    -0.05   0.01  -0.05    -0.01   0.01   0.01
    81   1     0.01  -0.01   0.02    -0.04   0.00  -0.06     0.00   0.02  -0.01
    82   1    -0.01  -0.03   0.02    -0.05   0.02  -0.05    -0.03   0.02   0.00
    83   1    -0.02  -0.00  -0.02     0.00  -0.02  -0.01    -0.00   0.04  -0.00
    84   6    -0.00   0.06   0.03     0.01   0.06   0.08     0.00   0.01   0.03
    85   8    -0.03   0.05   0.08    -0.05   0.06   0.11     0.01   0.01   0.03
    86   6     0.02   0.11   0.02     0.07   0.11   0.13    -0.00  -0.01   0.04
    87   1     0.05   0.14   0.01     0.14   0.12   0.11     0.00  -0.01   0.04
    88   1     0.04   0.10  -0.01     0.06   0.10   0.13    -0.01  -0.01   0.05
    89   6    -0.02  -0.01  -0.02    -0.02  -0.03  -0.01    -0.01   0.04   0.01
    90   1    -0.05  -0.03   0.02    -0.06  -0.05   0.03    -0.00   0.06  -0.01
    91   1    -0.01  -0.04  -0.05    -0.01  -0.07  -0.06    -0.01   0.05   0.02
    92   7     0.01   0.03  -0.02     0.02   0.03   0.00    -0.01   0.03   0.02
    93   6     0.05   0.04  -0.06     0.08   0.03  -0.04    -0.02   0.03   0.03
    94   1     0.03   0.04  -0.04     0.05   0.01   0.00    -0.00   0.04   0.01
    95   1     0.10  -0.00  -0.09     0.16  -0.02  -0.07    -0.05   0.04   0.03
    96   1     0.05   0.10  -0.10     0.07   0.11  -0.11    -0.01   0.01   0.05
    97   6     0.00   0.15   0.07     0.05   0.14   0.23     0.01  -0.02   0.05
    98   1    -0.02   0.12   0.09    -0.03   0.14   0.26     0.01  -0.02   0.04
    99   1    -0.01   0.17   0.10     0.07   0.15   0.23     0.02  -0.02   0.04
   100   1    -0.06   0.07  -0.08     0.01  -0.10   0.02    -0.06  -0.04  -0.04
   101   1     0.15  -0.17   0.20    -0.01   0.04  -0.11     0.08   0.01  -0.05
   102   1     0.02   0.19   0.06     0.10   0.17   0.28     0.01  -0.03   0.06
                      4                      5                      6
                      A                      A                      A
 Frequencies --     39.2429                46.6236                53.1500
 Red. masses --      4.1721                 3.6868                 4.0599
 Frc consts  --      0.0038                 0.0047                 0.0068
 IR Inten    --      0.5965                 0.3714                 0.3612
  Atom AN      X      Y      Z        X      Y      Z        X      Y      Z
     1   6    -0.02  -0.01  -0.03    -0.04   0.02   0.01     0.02  -0.02  -0.01
     2   6     0.03  -0.04   0.02    -0.02  -0.04   0.04     0.01   0.03  -0.03
     3   6     0.01  -0.02  -0.01    -0.05  -0.01   0.03     0.03   0.02  -0.03
     4   6    -0.02   0.01  -0.05    -0.08   0.04  -0.01     0.05  -0.02  -0.02
     5   6    -0.04   0.01  -0.06    -0.08   0.05  -0.01     0.04  -0.04  -0.01
     6   6    -0.03  -0.01  -0.04    -0.02   0.02   0.01    -0.01  -0.02  -0.01
     7   6    -0.04  -0.02  -0.02     0.01   0.01   0.01    -0.04  -0.01  -0.01
     8   6    -0.07   0.01  -0.06     0.01   0.03   0.00    -0.07  -0.00  -0.04
     9   6    -0.09   0.03  -0.09    -0.01   0.05  -0.00    -0.06  -0.00  -0.06
    10   6    -0.07   0.02  -0.07    -0.03   0.05   0.00    -0.03  -0.01  -0.05
    11   1     0.05  -0.06   0.05     0.01  -0.07   0.07     0.00   0.05  -0.03
    12   1    -0.04   0.03  -0.08    -0.11   0.07  -0.03     0.07  -0.03  -0.02
    13   1    -0.07   0.04  -0.10    -0.10   0.09  -0.04     0.05  -0.07   0.00
    14   1    -0.02  -0.03   0.01     0.03  -0.00   0.01    -0.04  -0.01   0.01
    15   1    -0.12   0.05  -0.12    -0.02   0.07  -0.01    -0.09   0.01  -0.09
    16   1    -0.08   0.03  -0.10    -0.04   0.06   0.00    -0.03  -0.01  -0.07
    17   7     0.01  -0.03   0.01    -0.01  -0.02   0.03     0.01   0.01  -0.01
    18   7    -0.02  -0.02  -0.01     0.00   0.00   0.01    -0.01  -0.02   0.00
    19  77     0.00  -0.03   0.02     0.00  -0.02   0.01     0.00  -0.00   0.03
    20   8     0.01   0.02  -0.03    -0.00  -0.02   0.06     0.01  -0.05  -0.01
    21   8     0.00   0.00   0.05     0.01  -0.02  -0.00     0.10   0.00   0.00
    22   8     0.00  -0.04   0.05    -0.02   0.00  -0.03    -0.03   0.03   0.01
    23   5     0.03  -0.00   0.02     0.01  -0.02  -0.00     0.01   0.01   0.02
    24   5     0.01  -0.01   0.00     0.01   0.00  -0.00    -0.01  -0.02   0.01
    25   5    -0.02  -0.02   0.03     0.00  -0.02  -0.01     0.00  -0.00   0.03
    26   8    -0.06   0.02   0.01     0.03  -0.04  -0.00     0.02  -0.03   0.04
    27   8     0.01  -0.02   0.02     0.04   0.05  -0.06    -0.04  -0.02  -0.00
    28   6     0.01   0.01  -0.01     0.04   0.05  -0.04    -0.05  -0.05  -0.03
    29   6    -0.00   0.03  -0.05     0.03   0.02   0.08    -0.02  -0.06  -0.03
    30   6    -0.00  -0.03   0.03    -0.04   0.02  -0.03    -0.04   0.05  -0.00
    31   6    -0.05   0.00   0.03    -0.00  -0.02  -0.03    -0.01   0.00  -0.00
    32   6     0.03   0.03   0.05     0.02  -0.02  -0.00     0.10  -0.01  -0.00
    33   6     0.09   0.01   0.00     0.04  -0.02  -0.01     0.01   0.02   0.02
    34   8     0.08   0.01   0.00     0.02  -0.02  -0.00    -0.04   0.01   0.04
    35   6     0.02   0.07  -0.08    -0.01  -0.04   0.13     0.00  -0.09  -0.06
    36   1     0.05   0.09  -0.06    -0.05  -0.13   0.08     0.01  -0.10  -0.06
    37   1     0.01   0.07  -0.09     0.02   0.01   0.14    -0.02  -0.10  -0.08
    38   1     0.01   0.08  -0.11    -0.03  -0.07   0.24     0.03  -0.10  -0.06
    39   6    -0.05   0.01  -0.07     0.10   0.09   0.14    -0.02  -0.05  -0.03
    40   1    -0.08   0.02  -0.09     0.13   0.06   0.21    -0.01  -0.06  -0.02
    41   1    -0.06   0.03  -0.08     0.10   0.10   0.15    -0.04  -0.06  -0.04
    42   1    -0.06  -0.03  -0.05     0.11   0.17   0.13    -0.03  -0.04  -0.01
    43   6     0.05   0.03   0.01     0.01  -0.03  -0.12    -0.05  -0.06  -0.04
    44   1     0.08   0.01   0.02     0.03  -0.02  -0.22    -0.08  -0.04  -0.01
    45   1     0.06   0.07   0.01     0.01  -0.02  -0.10    -0.05  -0.09  -0.08
    46   1     0.05   0.04   0.00    -0.04  -0.12  -0.10     0.00  -0.04  -0.02
    47   6    -0.00  -0.01  -0.01     0.07   0.15  -0.06    -0.08  -0.05  -0.04
    48   1    -0.03  -0.03  -0.02     0.09   0.22  -0.02    -0.09  -0.04  -0.03
    49   1    -0.00   0.01  -0.03     0.07   0.15  -0.04    -0.09  -0.07  -0.06
    50   1     0.01  -0.02   0.02     0.08   0.17  -0.15    -0.10  -0.04  -0.03
    51   6     0.03   0.10   0.08     0.03  -0.00   0.01     0.10  -0.11  -0.02
    52   1     0.04   0.12   0.09     0.03  -0.00   0.01     0.10  -0.13  -0.03
    53   1     0.06   0.12   0.08     0.04   0.01   0.02     0.05  -0.14  -0.02
    54   1    -0.02   0.11   0.11     0.01   0.00   0.01     0.16  -0.13  -0.05
    55   6    -0.02   0.00   0.06     0.02  -0.03  -0.01     0.17   0.03  -0.01
    56   1     0.01   0.03   0.06     0.03  -0.02  -0.01     0.17   0.02  -0.01
    57   1    -0.06   0.01   0.10     0.00  -0.02   0.00     0.24   0.01  -0.04
    58   1    -0.03  -0.05   0.03     0.01  -0.04  -0.02     0.18   0.11   0.00
    59   6     0.16   0.05   0.02     0.08  -0.03  -0.00    -0.02  -0.04   0.03
    60   1     0.16   0.05   0.02     0.09  -0.03  -0.01     0.03  -0.03   0.02
    61   1     0.20   0.04  -0.02     0.09  -0.03  -0.01    -0.09  -0.01   0.05
    62   1     0.16   0.08   0.06     0.08  -0.02   0.03    -0.04  -0.12   0.04
    63   6     0.09  -0.04  -0.05     0.04  -0.03  -0.06     0.01   0.11   0.03
    64   1     0.13  -0.05  -0.09     0.05  -0.03  -0.10    -0.05   0.13   0.07
    65   1     0.09  -0.03  -0.05     0.06  -0.01  -0.05     0.05   0.11   0.01
    66   1     0.04  -0.08  -0.05     0.01  -0.06  -0.05     0.03   0.17   0.01
    67   6    -0.08   0.02   0.08    -0.00  -0.05  -0.08    -0.00  -0.04  -0.06
    68   1    -0.11   0.04   0.07     0.03  -0.08  -0.08     0.02  -0.08  -0.06
    69   1    -0.07   0.02   0.11    -0.00  -0.06  -0.11    -0.01  -0.04  -0.08
    70   1    -0.06   0.01   0.09    -0.03  -0.04  -0.10    -0.03  -0.02  -0.10
    71   6    -0.06   0.02  -0.02    -0.00   0.00   0.00    -0.01   0.01   0.02
    72   1    -0.10   0.05  -0.02     0.03  -0.05   0.00     0.01  -0.01   0.02
    73   1    -0.05   0.01  -0.00    -0.04   0.03  -0.03    -0.02   0.02   0.01
    74   1    -0.04   0.01  -0.06     0.00   0.03   0.06    -0.01   0.02   0.05
    75   6     0.03  -0.04  -0.01    -0.05   0.05   0.01    -0.05   0.09   0.04
    76   1     0.02  -0.03  -0.04    -0.02   0.04   0.03    -0.01   0.09   0.06
[...]
 00000351,-0.00000205,0.00000360,-0.00000150,0.00000141,-0.00000863,0.0
 0000095,0.00000296,-0.00001179,-0.00000341,-0.00000153,-0.00000130,0.0
 0000521,-0.00000722,-0.00000357,-0.00000076,0.00000043,0.00000210,-0.0
 0000291,-0.00000680,-0.00000614,-0.00000040,0.00000443,-0.00000121,0.0
 0000043,-0.00000695,-0.00000309,-0.00000382,0.00000114,0.00000143,0.00
 000077,-0.00001275,-0.00000473,-0.00000137,-0.00000200,-0.00000778,-0.
 00000319,0.00000142,0.00000140,0.00000086,0.00000190,0.00000079,-0.000
 00120,-0.00001685,0.00000906,0.00001917,-0.00004174,-0.00000623,-0.000
 00327,0.00005363,-0.00000813,0.00004965,-0.00000151,-0.00000149,-0.000
 00927,0.00000283,0.00000256,0.00000178,0.00000221,-0.00000355,-0.00000
 023,-0.00001944,0.00000257,0.00000930,0.00000854,-0.00000190,-0.000034
 91,0.00000373,-0.00002901,-0.00000222,0.00003025,-0.00001411,0.0000152
 1,-0.00000263,0.00000607,-0.00001215,-0.00000071,0.00000358,0.00000294
 ,0.00000073,-0.00000394,0.00000436,0.00000152,-0.00000100,-0.00000225,
 -0.00000235,-0.00000078,-0.00000409,0.00000208,0.00000049,0.00000281,-
 0.00000212,-0.00000244,0.00000053,-0.00000900,0.00001225,-0.00001870,-
 0.04151317,0.15679074,-0.00021599,0.00059725,0.00036938,0.00282807,-0.
 00069093,-0.00230757,0.06588439,-0.13679694,-0.20837556,0.00176739,-0.
 01039721,-0.00805322,0.00481499,-0.00084552,0.00263407,-0.00055781,0.0
 0053195,-0.00058673,-0.00001192,0.00001257,-0.00000190,-0.00000861,-0.
 00000352,-0.00002484,-0.00003003,0.00001225,0.00000224,0.00007768,-0.0
 0003355,-0.00000963,-0.00107907,0.00111990,-0.00116777,-0.00163932,0.0
 0161450,-0.00104736,0.00005029,-0.00058562,-0.00034238,0.00000604,-0.0
 0000085,0.00000183,-0.00000106,0.00000306,-0.00001049,-0.00001023,-0.0
 0003205,0.00005781,0.00159882,-0.00339986,0.00392453,0.00003463,-0.000
 08834,-0.00000894,-0.00001175,0.00019518,-0.00016872,-0.00011229,0.000
 04722,0.00003166,-0.00003503,0.00009461,-0.00005718,-0.00005345,-0.000
 09005,-0.00004719,0.00005170,-0.00011006,0.00012350,0.00024242,-0.0001
 1016,-0.00005730,0.00008216,0.00009724,0.00007840,-0.00007997,-0.00011
 031,-0.00000453,-0.00021963,0.00015803,0.00006525,0.00008278,-0.000074
 45,0.00000222,0.00001689,-0.00003477,-0.00003866,0.00003719,0.00002081
 ,0.00000919,0.00000438,0.00003447,0.00001343,0.00002335,-0.00002078,0.
 00002391,0.00001767,-0.00003002,0.00002070,-0.00003398,0.00004631,-0.0
 0007424,-0.00000436,0.00000146,0.00000485,0.00000033,-0.00000210,-0.00
 000596,-0.00000716,-0.00000037,0.00000159,0.00000182,0.00000419,-0.000
 00107,-0.00000175,0.00001129,0.00000998,0.00000422,0.00000563,-0.00000
 036,-0.00000678,-0.00000114,0.00000405,0.00000210,-0.00000316,-0.00000
 590,-0.00003268,-0.00003387,-0.00001819,-0.00000408,0.00001890,0.00000
 052,0.00000104,0.00001333,-0.00000278,0.00000689,0.00000269,0.00000526
 ,-0.00001618,-0.00002783,-0.00001090,0.00000247,0.00000624,-0.00000327
 ,0.00000128,0.00000944,0.00000728,-0.00000537,0.00001670,0.00001514,-0
 .00000455,-0.00000380,-0.00000873,-0.00000167,0.00000038,-0.00000620,-
 0.00000312,0.00001268,0.00000749,0.00000880,-0.00000894,0.00000360,-0.
 00000800,-0.00001135,-0.00000311,-0.00000160,0.00000661,0.00000191,0.0
 0001036,0.00000820,-0.00000538,-0.00000943,-0.00000234,-0.00000187,0.0
 0000048,0.00000389,-0.00000404,-0.00000099,0.00000167,-0.00000542,0.00
 000087,-0.00000033,0.00000181,-0.00000258,-0.00000104,0.00000420,-0.00
 000103,0.00000265,-0.00000529,0.00000080,0.00000178,0.00000250,-0.0000
 0471,0.00000198,-0.00000489,-0.00000039,-0.00000382,0.00000313,-0.0000
 0140,-0.00000609,-0.00000419,0.00000042,0.00000144,0.00000096,-0.00000
 208,0.00000253,0.00000017,-0.00000013,-0.00000597,-0.00000047,0.000001
 03,-0.00000820,-0.00000154,-0.00000032,-0.00000036,0.00000286,-0.00000
 478,-0.00000299,-0.00000080,-0.00000050,0.00000222,-0.00000193,-0.0000
 0604,-0.00000395,-0.00000126,0.00000356,-0.00000059,0.00000213,-0.0000
 0536,-0.00000206,-0.00000260,0.00000212,0.00000089,-0.00000095,-0.0000
 0633,-0.00000315,-0.00000200,-0.00000215,-0.00000495,-0.00000129,0.,0.
 00000230,0.00000033,0.00000214,0.00000065,-0.00000117,-0.00001259,-0.0
 0000132,0.00001211,-0.00001216,0.00002218,-0.00000008,0.00000649,-0.00
 002616,0.00000157,0.00000245,-0.00000125,-0.00000412,0.00000067,0.0000
 0175,-0.00000174,0.00000053,-0.00000294,0.00000178,-0.00000776,0.00006
 799,0.00000561,0.00002203,-0.00000626,0.00000663,-0.00000594,-0.000007
 37,-0.00000360,0.00000875,-0.00000552,0.00000433,0.00000435,0.00001565
 ,0.00000179,-0.00000422,0.00000319,0.00000061,-0.00000259,-0.00000227,
 0.00000466,0.00000296,-0.00000015,-0.00000095,-0.00000153,0.00000524,-
 0.00000429,-0.00000151,0.00000149,0.00000114,-0.00000350,-0.00000115,0
 .00000450,0.00001306,-0.00002077,0.00001330,-0.07343908,0.14883045,0.2
 1501604,0.00002032,-0.00006003,0.00002480,0.00001745,0.00000033,-0.000
 00580,-0.00000948,-0.00000780,0.00000310,0.00000609,-0.00001437,-0.000
 02009,-0.00001013,0.00002433,0.00000830,0.00004087,-0.00006684,0.00004
 085,-0.00000314,0.00001519,0.00007395,0.00002734,0.00001191,0.00000779
 ,-0.00007176,0.00001864,0.00010981,-0.00000893,0.00002358,-0.00006951,
 0.00000316,-0.00000452,0.00000018,0.00000314,0.00000545,0.00000224,0.0
 0000310,-0.00000952,0.00000108,0.00000566,0.00000055,0.00000769,0.0000
 0941,0.00004233,-0.00005335,-0.00000303,-0.00002448,0.00002269,-0.0000
 0269,-0.00000755,-0.00001659,0.00001368,-0.00002257,-0.00001498,-0.000
 08573,0.00001554,0.00000878,-0.00012901,0.00000738,0.00001613,-0.00001
 935,0.00007492,-0.00010968,-0.00008089,-0.00007963,-0.00007304,0.00001
 602,-0.00004240,0.00013415,0.00017108,-0.00004248,-0.00006625,0.000142
 13,0.00009826,0.00007937,-0.00007738,-0.00008394,-0.00001609,-0.000099
 82,0.00006672,0.00004145,0.00005538,-0.00001815,0.00000424,0.00003586,
 -0.00002122,-0.00002126,0.00005089,0.00005385,0.00001807,0.00001745,0.
 00004462,0.00002450,0.00000230,-0.00000503,0.00004364,0.00002032,-0.00
 002589,0.00003876,-0.00003637,0.00002420,-0.00012051,-0.00000326,-0.00
 000039,0.00000270,0.00000162,0.00000087,-0.00000180,-0.00000504,0.0000
 0229,0.00000157,0.00000077,-0.00000256,-0.00000135,-0.00000368,0.00000
 334,0.00000683,0.00000316,-0.00000032,-0.00000162,-0.00000630,0.000001
 02,0.00000501,0.00000125,-0.00000098,-0.00000613,-0.00000667,0.0000024
 7,-0.00000113,0.00000290,-0.00000083,0.00000047,-0.00000694,0.00000321
 ,-0.00000157,0.00000333,-0.00000206,0.00000207,-0.00000585,0.00000262,
 0.00000027,0.00000231,-0.00000085,-0.00000198,-0.00000612,0.00000116,0
 .00000168,0.00000298,0.00000135,0.00000074,0.00000217,-0.00000318,-0.0
 0000818,-0.00000054,0.00000350,-0.00000971,-0.00000167,0.00000251,0.00
 000616,0.00000011,-0.00000215,0.00000407,0.00000068,0.00000062,-0.0000
 0502,-0.00000246,0.00000274,-0.00000648,0.00000084,0.00000117,0.000002
 92,-0.00000035,-0.00000068,0.00000191,-0.00000264,0.00000187,-0.000005
 91,-0.00000120,0.00000374,-0.00000608,-0.00000147,-0.00000385,0.000001
 31,0.00000224,-0.00000032,0.00000536,-0.00000260,0.00000452,-0.0000057
 2,0.00000086,-0.00000227,0.00000250,-0.00000509,0.00000423,-0.00000474
 ,0.00000395,-0.00000287,0.00000052,0.00001374,-0.00000600,-0.00000604,
 0.00000225,0.00000474,-0.00000069,-0.00000121,0.00001311,0.00000622,-0
 .00000919,-0.00001071,-0.00000357,-0.00000254,-0.00000082,-0.00000266,
 0.00000067,0.00000166,0.00000239,-0.00000402,-0.00000624,-0.00000273,-
 0.00000102,0.00000247,0.00000039,-0.00000805,-0.00000759,-0.00000212,0
 .00000520,-0.00000007,0.00000155,-0.00000925,-0.00000356,-0.00000313,0
 .00000273,0.00000375,-0.00000136,-0.00000097,-0.00000803,-0.00000084,-
 0.00000491,-0.00000546,-0.00000166,0.00000098,0.00000571,0.00000573,0.
 00000038,0.00000409,-0.00000613,0.00001316,-0.00001680,0.00002546,-0.0
 0188303,-0.00426702,-0.00084467,0.00002563,-0.00032409,-0.00001916,-0.
 01906874,0.01452560,0.01111018,0.00065380,0.00052926,-0.00054857,0.001
 03155,0.00002620,0.00021417,0.00000330,-0.00053264,-0.00016409,0.00001
 249,0.00002011,-0.00002402,-0.00018192,0.00006113,0.00007277,-0.001853
 16,0.00092695,0.00090882,0.00001265,0.00051005,0.00019420,-0.00003134,
 -0.00007576,-0.00002897,-0.00003422,-0.00010153,0.00002248,0.00008811,
 0.00003631,-0.00001964,-0.19869169,0.10064577,0.08448795,0.00798172,-0
 .00551036,-0.00367661,-0.00411376,0.00150631,0.00203665,-0.00002456,-0
 .00001016,-0.00002287,-0.00000159,0.00000282,0.00000368,0.21608556,-0.
 00003765,0.00004096,0.00000294,-0.00001252,-0.00000813,-0.00000658,0.0
 0001266,0.00000774,-0.00000410,0.00001258,0.00002553,0.00002447,-0.000
 01240,-0.00002864,0.00000860,-0.00012132,-0.00002444,0.00004195,0.0000
 3405,0.00000375,-0.00004093,-0.00004675,-0.00003247,0.00000615,0.00012
 100,-0.00006148,-0.00013558,0.00009126,-0.00008504,0.00012569,-0.00000
 427,-0.00000254,-0.00000246,-0.00000391,0.00000152,-0.00000224,-0.0000
 0140,0.00004310,-0.00002358,-0.00001136,-0.00000890,0.00000657,0.00000
 018,-0.00002032,0.00003125,-0.00000315,0.00011937,-0.00007518,0.000010
 26,-0.00000793,-0.00000072,0.00001380,0.00006435,0.00004346,-0.0000222
 8,0.00000806,0.00003090,0.00004148,0.00000061,-0.00000136,0.00001548,-
 0.00001433,0.00002823,0.00003653,0.00003406,0.00001056,-0.00003354,0.0
 0000797,-0.00003973,-0.00006149,0.00000676,0.00000092,-0.00003428,-0.0
 0003806,0.00001043,0.00002402,0.00003111,-0.00000528,0.00004126,-0.000
 01300,-0.00000473,-0.00002445,0.00000683,0.00000005,-0.00001428,0.0000
 0429,0.00000865,-0.00002084,-0.00001871,-0.00000673,-0.00000422,-0.000
 01122,-0.00000483,-0.00000754,0.00000217,-0.00001561,-0.00001045,0.000
 01043,-0.00001908,0.00002284,-0.00000690,0.00003143,0.00000137,0.00000
 097,-0.00000026,-0.00000091,-0.00000026,0.00000037,0.00000163,-0.00000
 102,-0.00000100,-0.00000012,0.00000131,0.00000079,0.00000105,0.,-0.000
 00193,-0.00000110,0.00000060,0.00000082,0.00000217,-0.00000061,-0.0000
 0178,-0.00000029,-0.00000031,0.00000212,0.00000212,-0.00000173,0.00000
 047,-0.00000163,0.00000160,0.00000002,0.00000347,-0.00000097,0.0000004
 8,-0.00000162,0.00000041,-0.00000082,0.00000180,-0.00000155,-0.0000006
 9,-0.00000136,-0.00000021,0.00000060,0.00000305,-0.00000014,-0.0000001
 7,-0.00000173,0.00000076,-0.00000010,-0.00000350,0.00000743,0.00000088
 ,0.00000375,-0.00000213,0.00000559,-0.00000107,-0.00000528,-0.00000552
 ,0.00000018,0.00000342,-0.00000238,0.00000203,-0.00000043,-0.00000099,
 0.00000067,-0.00000016,0.00000300,-0.00000073,0.00000044,-0.00000155,0
 .00000148,-0.00000056,-0.00000085,-0.00000254,0.00000066,0.00000304,0.
 00000176,-0.00000259,0.00000195,0.00000079,0.00000197,-0.00000054,0.00
 000026,0.00000057,-0.00000476,0.00000149,-0.00000057,0.00000185,-0.000
 00004,0.00000141,-0.00000079,0.00000207,-0.00000206,0.00000201,-0.0000
 0123,0.00000052,-0.00000030,-0.00000245,0.00000076,0.00000173,0.000000
 05,-0.00000070,-0.00000068,0.00000078,-0.00000150,-0.00000031,0.000001
 05,0.00000292,0.00000066,0.00000085,0.00000006,-0.00000036,0.00000028,
 -0.00000042,-0.00000137,0.00000090,0.00000205,0.00000110,0.,-0.0000010
 0,-0.00000003,0.00000249,0.00000135,0.00000074,-0.00000159,-0.00000060
 ,-0.00000021,0.00000348,0.00000192,0.00000084,-0.00000142,-0.00000142,
 -0.00000073,0.00000050,0.00000306,-0.00000035,0.00000240,0.00000240,0.
 00000022,-0.00000046,-0.00000200,-0.00000014,-0.00000111,-0.00000158,0
 .00000046,0.00001142,-0.00000404,-0.00001495,-0.00341447,-0.00546130,-
 0.00129157,0.00225251,0.00151474,-0.00039842,-0.01747320,0.01032401,0.
 00984519,0.00096570,0.00060206,-0.00019061,0.00095300,0.00077939,0.000
 11820,-0.00013660,-0.00027516,-0.00003585,-0.00000203,0.00001290,0.000
 02795,-0.00007542,0.00006115,0.00004780,-0.00088454,0.00125494,0.00074
 134,0.00009286,0.00020835,0.00007545,0.00000598,-0.00000650,-0.0000064
 1,-0.00000080,0.00000355,-0.00000365,0.00004869,-0.00001081,-0.0000412
 7,0.10123897,-0.11425764,-0.05615093,0.00621297,-0.00499817,-0.0016149
 4,0.01812999,-0.01124143,-0.01301189,0.00001446,0.00001410,0.00000679,
 0.00000267,-0.00000008,-0.00000447,-0.10795047,0.12143661,0.00000123,0
 .00000144,-0.00004059,-0.00000823,0.00001301,0.00001188,-0.00000767,-0
 .00000075,0.00000850,0.00000223,0.00000254,0.00000013,0.00001942,0.000
 00234,0.00000220,0.00005203,0.00005135,-0.00006451,-0.00003979,-0.0000
 0324,0.00002341,0.00004087,0.00001409,-0.00000062,-0.00003227,0.000005
 70,0.00005009,-0.00003897,0.00005416,-0.00002921,-0.00000268,0.0000019
 4,0.00000014,-0.00000177,0.00000178,-0.00000147,0.00000111,-0.00000657
 ,-0.00000209,-0.00000607,0.00000203,-0.00000697,0.00000216,0.00002150,
 -0.00002628,0.00000356,-0.00005876,0.00001917,0.00000183,-0.00000810,0
 .00000453,-0.00001962,-0.00005640,-0.00001578,0.00003487,-0.00000168,-
 0.00000769,0.00005762,-0.00000298,-0.00000846,0.00000839,-0.00003013,0
 .00004209,0.00003933,0.00002892,0.00002355,-0.00000299,0.00001539,-0.0
 0005638,-0.00007675,0.00001690,0.00003211,-0.00006029,-0.00003645,-0.0
 0002128,0.00003435,0.00003577,0.00000092,0.00004512,-0.00002844,-0.000
 01824,-0.00002564,0.00000818,-0.00000135,-0.00001721,0.00000937,0.0000
 1042,-0.00002373,-0.00002138,-0.00000604,-0.00000811,-0.00001966,-0.00
 000803,-0.00000277,0.00000270,-0.00001624,-0.00000972,0.00001002,-0.00
 001264,0.00001386,-0.00000970,0.00004456,0.00000155,0.00000021,-0.0000
 0087,-0.00000088,-0.00000013,0.00000067,0.00000233,-0.00000118,-0.0000
 0098,-0.00000047,0.00000118,0.00000077,0.00000160,-0.00000108,-0.00000
 310,-0.00000157,0.00000022,0.00000090,0.00000299,-0.00000064,-0.000002
 41,-0.00000069,0.00000040,0.00000272,0.00000277,-0.00000097,0.00000070
 ,-0.00000138,0.00000053,-0.00000015,0.00000335,-0.00000141,0.00000067,
 -0.00000157,0.00000080,-0.00000105,0.00000244,-0.00000120,-0.00000044,
 -0.00000124,0.00000031,0.00000079,0.00000302,-0.00000048,-0.00000055,-
 0.00000150,-0.00000043,-0.00000034,-0.00000001,0.00000074,0.00000239,-
 0.00000079,-0.00000048,0.00000316,0.00000117,-0.00000073,-0.00000065,-
 0.00000032,0.00000099,-0.00000141,0.00000005,-0.00000036,0.00000183,0.
 00000076,-0.00000091,0.00000261,-0.00000066,-0.00000049,-0.00000116,0.
 00000076,0.00000031,-0.00000095,-0.00000012,-0.00000097,0.00000152,0.0
 0000041,-0.00000172,0.00000238,-0.00000006,0.00000153,-0.00000051,0.00
 000044,0.00000058,-0.00000123,0.00000136,-0.00000133,0.00000105,-0.000
 00047,0.00000106,-0.00000085,0.00000179,-0.00000182,0.00000215,-0.0000
 0120,0.00000088,-0.00000063,-0.00000695,0.00000275,0.00000199,-0.00000
 019,-0.00000236,-0.00000070,0.00000078,-0.00000562,-0.00000176,0.00000
 401,0.00000451,0.00000214,0.00000116,0.00000016,0.00000060,-0.00000002
 ,-0.00000075,-0.00000178,0.00000149,0.00000259,0.00000153,0.00000033,-
 0.00000110,0.00000004,0.00000334,0.00000210,0.00000080,-0.00000182,-0.
 00000033,-0.00000066,0.00000409,0.00000191,0.00000145,-0.00000127,-0.0
 0000102,-0.00000020,-0.00000010,0.00000348,0.00000073,0.00000353,0.000
 00239,0.00000040,-0.00000076,-0.00000372,-0.00000038,-0.00000152,-0.00
 000114,0.00000050,-0.00000400,0.00000683,-0.00001138,-0.00051446,-0.00
 091306,0.00041960,0.00112805,0.00040264,0.00056582,-0.00061938,-0.0005
 1256,-0.00122321,0.00002795,0.00044998,0.00024177,0.00017101,-0.000029
 53,-0.00019104,-0.00008394,0.00009783,0.00003638,0.00000043,-0.0000071
 8,0.00001152,0.00002992,-0.00000550,-0.00000946,0.00040648,0.00013170,
 0.00009503,0.00000598,-0.00008950,-0.00006229,0.00001185,0.00003057,0.
 00000517,0.00002184,0.00004111,-0.00001826,-0.00000675,-0.00003187,0.0
 0001323,0.08448258,-0.05587583,-0.09693230,0.02332905,-0.01370424,-0.0
 0972585,-0.01455107,0.00812362,0.00822358,-0.00001228,-0.00000426,-0.0
 0001214,-0.00000071,-0.00000042,-0.00000139,-0.09381623,0.06187754,0.0
 9863368\\-0.00000075,0.00000166,0.00000495,-0.00000173,-0.00000429,0.0
 0000493,-0.00000444,-0.00000116,0.00000692,-0.00000164,0.00000400,0.00
 001376,-0.00000406,-0.00000326,0.00000277,0.00000253,0.00000757,0.0000
 0854,0.00000519,0.00000808,0.00000535,0.00000013,-0.00000163,-0.000000
 45,0.00001379,0.00000867,0.00000246,-0.00000494,-0.00000065,0.00000652
 ,-0.00000746,-0.00000381,0.00000480,-0.00000662,-0.00000345,0.00001009
 ,-0.00000187,0.00000058,0.00001106,-0.00000391,0.00000503,-0.00000386,
 -0.00000158,0.00000505,0.00000990,0.00000092,0.00000491,0.00000836,-0.
 00000371,0.00000364,0.00000101,0.00000046,-0.00000237,-0.00000308,0.00
 000705,-0.00001331,0.00000890,-0.00000413,0.00000055,-0.00000625,0.000
 00162,-0.00000193,0.00000609,0.00001236,0.00000192,0.00000028,-0.00000
 364,0.00001347,0.00000278,-0.00000262,0.00000139,0.00000062,-0.0000070
 4,0.00000272,-0.00000329,0.00000356,-0.00000680,-0.00000017,0.00000035
 ,-0.00000082,-0.00000542,-0.00000632,-0.00000872,-0.00000485,-0.000008
 72,0.00000066,-0.00000053,0.00000477,-0.00000295,-0.00000041,-0.000005
 08,-0.00000271,-0.00001422,0.00000335,-0.00000286,-0.00000128,0.000006
 90,0.00000701,0.00000188,0.00000454,-0.00000092,-0.00000498,0.00000373
 ,-0.00001128,-0.00000398,-0.00000075,0.00000124,-0.00000611,-0.0000032
 4,-0.00000226,-0.00000373,0.,-0.00000054,-0.00000588,-0.00000166,-0.00
 000312,-0.00000756,-0.00000476,-0.00000648,-0.00000401,-0.00000716,-0.
 00000672,-0.00000430,-0.00000239,-0.00000626,-0.00000485,-0.00000234,0
 .00000250,0.00000200,-0.00000480,-0.00000456,0.00000096,-0.00000010,-0
 .00000435,-0.00000100,-0.00000045,-0.00000164,-0.00000150,-0.00000279,
 0.00000147,0.00000282,-0.00000502,-0.00000621,-0.00000112,-0.00000703,
 -0.00000507,-0.00000193,-0.00000787,-0.00000902,-0.00000019,0.00000141
 ,0.00001240,0.00001038,0.00000425,0.00000478,0.00000181,0.00000418,0.0
 0000144,0.00000418,-0.00000029,0.00000024,0.00000334,0.00000183,0.0000
 0668,0.00000263,0.00000370,0.00000371,0.00000470,-0.00000108,-0.000000
 55,0.00000278,0.00000295,0.00000097,0.00000153,0.00000178,-0.00000472,
 0.00000247,0.00000480,0.00000881,-0.00000234,0.00000852,0.00000888,-0.
 00000119,0.00000297,0.00000535,0.00000072,0.00000206,-0.00000607,-0.00
 000350,0.00000488,0.00000560,-0.00000377,0.00000359,0.00000483,-0.0000
 0167,0.00000232,0.00000328,-0.00000170,0.00000650,0.00000042,-0.000006
 84,-0.00000164,-0.00000373,-0.00000339,-0.00000019,-0.00000108,-0.0000
 0479,-0.00000036,-0.00000340,-0.00000825,0.00000581,-0.00000239,-0.000
 00395,-0.00000121,-0.00000481,-0.00000918,0.00000286,-0.00000064,-0.00
 000923,-0.00000223,0.00000201,-0.00001069,0.00000048,-0.00000537,-0.00
 000992,-0.00000161,0.00000026,0.00000017,0.00000323,0.00000050,-0.0000
 1169,0.00000203,0.00000337,-0.00000692,0.00000290,0.00000927,-0.000014
 09,0.00000195,-0.00000103,-0.00000823,0.00000489,0.00000112,-0.0000050
 5,0.00000512,0.00000049,-0.00000243,0.00000292,-0.00000374,-0.00000323
 ,0.00000289,-0.00000678,0.00000851,-0.00000215,0.00000643,0.00000327,0
 .00000087,-0.00000006,-0.00000094,0.00000165,0.00000314,0.00000293,-0.
 00000191,0.00000220,0.00000401,-0.00000659,-0.00000463,0.00000483,-0.0
 0000526,-0.00000160,0.00000225,0.00000239,-0.00000089,-0.00000307,-0.0
 0000405,-0.00000702,0.00000285,0.00000482,-0.00000156,-0.00000827,-0.0
 0000437,-0.00000606,0.00000007,-0.00000101,0.00000076,-0.00000069,-0.0
 0000710,0.00000226,0.00000732,-0.00000024,-0.00000032,0.00000364,0.000
 00093,0.00000347,0.00001362,0.00000019,0.00000425,0.00000701,0.0000044
 7,0.00000728,0.00000353,-0.00000573,-0.00000418,0.00000630,0.00000023,
 0.00000344,0.00000737\\\@
 The archive entry for this job was punched.


 WE HAVE SEEN THAT MAN ON THE AVERAGE DOES NOT LIVE ABOVE
 TWO-AND-TWENTY YEARS.  DURING THESE TWO AND TWENTY
 YEARS HE IS LIABLE TO TWO AND TWENTY THOUSAND EVILS,
 MANY OF WHICH ARE INCURABLE.  YET EVEN IN THIS DREADFUL STATE
 MEN STILL STRUT AND POSE ON THE STAGE OF LIFE.
 THEY MAKE LOVE AT THE RISK OF DESTRUCTION,
 INTRIGUE, CARRY ON WAR, AND FORM PROJECTS, JUST AS IF THEY
 WERE TO LIVE IN LUXURY AND HAPPINESS FOR A THOUSAND
 AGES.

                                              -- VOLTAIRE
 Job cpu time:       1 days 17 hours 47 minutes  0.5 seconds.
 Elapsed time:       0 days  2 hours 39 minutes 22.4 seconds.
 File lengths (MBytes):  RWF=   6947 Int=      0 D2E=      0 Chk=     43 Scr=      1
 Normal termination of Gaussian 16 at Sun Dec  8 00:38:15 2024.
