/mnt/lustre/scratch/nvme/SLURM/9663623/usccqdma.Ygsu5giRQr
OMP_STACKSIZE=0m
GAUSS_PDEF=16
GAUSS_MDEF=65536MB
GAUSS_RDEF=SCF=Direct
 Entering Gaussian System, Link 0=g16.exe
 Initial command:
 /opt/cesga/2020/software/Core/g16/c1/l1.exe "/mnt/lustre/scratch/nvme/SLURM/9663623/usccqdma.Ygsu5giRQr/Gau-4100204.inp" -scrdir="/mnt/lustre/scratch/nvme/SLURM/9663623/usccqdma.Ygsu5giRQr/"
 Default is to use a total of  16 processors:
                               16 via shared-memory
                                1 via Linda
 Entering Link 1 = /opt/cesga/2020/software/Core/g16/c1/l1.exe PID=   4100230.
  
 Copyright (c) 1988-2019, Gaussian, Inc.  All Rights Reserved.
  
 This is part of the Gaussian(R) 16 program.  It is based on
 the Gaussian(R) 09 system (copyright 2009, Gaussian, Inc.),
 the Gaussian(R) 03 system (copyright 2003, Gaussian, Inc.),
 the Gaussian(R) 98 system (copyright 1998, Gaussian, Inc.),
 the Gaussian(R) 94 system (copyright 1995, Gaussian, Inc.),
 the Gaussian 92(TM) system (copyright 1992, Gaussian, Inc.),
 the Gaussian 90(TM) system (copyright 1990, Gaussian, Inc.),
 the Gaussian 88(TM) system (copyright 1988, Gaussian, Inc.),
 the Gaussian 86(TM) system (copyright 1986, Carnegie Mellon
 University), and the Gaussian 82(TM) system (copyright 1983,
 Carnegie Mellon University). Gaussian is a federally registered
 trademark of Gaussian, Inc.
  
 This software contains proprietary and confidential information,
 including trade secrets, belonging to Gaussian, Inc.
  
 This software is provided under written license and may be
 used, copied, transmitted, or stored only in accord with that
 written license.
  
 The following legend is applicable only to US Government
 contracts under FAR:
  
                    RESTRICTED RIGHTS LEGEND
  
 Use, reproduction and disclosure by the US Government is
 subject to restrictions as set forth in subparagraphs (a)
 and (c) of the Commercial Computer Software - Restricted
 Rights clause in FAR 52.227-19.
  
 Gaussian, Inc.
 340 Quinnipiac St., Bldg. 40, Wallingford CT 06492
  
  
 ---------------------------------------------------------------
 Warning -- This program may not be used in any manner that
 competes with the business of Gaussian, Inc. or will provide
 assistance to any competitor of Gaussian, Inc.  The licensee
 of this program is prohibited from giving any competitor of
 Gaussian, Inc. access to this program.  By using this program,
 the user acknowledges that Gaussian, Inc. is engaged in the
 business of creating and licensing software in the field of
 computational chemistry and represents and warrants to the
 licensee that it is not a competitor of Gaussian, Inc. and that
 it will not use this program in any manner prohibited above.
 ---------------------------------------------------------------
  

 Cite this work as:
 Gaussian 16, Revision C.01,
 M. J. Frisch, G. W. Trucks, H. B. Schlegel, G. E. Scuseria, 
 M. A. Robb, J. R. Cheeseman, G. Scalmani, V. Barone, 
 G. A. Petersson, H. Nakatsuji, X. Li, M. Caricato, A. V. Marenich, 
 J. Bloino, B. G. Janesko, R. Gomperts, B. Mennucci, H. P. Hratchian, 
 J. V. Ortiz, A. F. Izmaylov, J. L. Sonnenberg, D. Williams-Young, 
 F. Ding, F. Lipparini, F. Egidi, J. Goings, B. Peng, A. Petrone, 
 T. Henderson, D. Ranasinghe, V. G. Zakrzewski, J. Gao, N. Rega, 
 G. Zheng, W. Liang, M. Hada, M. Ehara, K. Toyota, R. Fukuda, 
 J. Hasegawa, M. Ishida, T. Nakajima, Y. Honda, O. Kitao, H. Nakai, 
 T. Vreven, K. Throssell, J. A. Montgomery, Jr., J. E. Peralta, 
 F. Ogliaro, M. J. Bearpark, J. J. Heyd, E. N. Brothers, K. N. Kudin, 
 V. N. Staroverov, T. A. Keith, R. Kobayashi, J. Normand, 
 K. Raghavachari, A. P. Rendell, J. C. Burant, S. S. Iyengar, 
 J. Tomasi, M. Cossi, J. M. Millam, M. Klene, C. Adamo, R. Cammi, 
 J. W. Ochterski, R. L. Martin, K. Morokuma, O. Farkas, 
 J. B. Foresman, and D. J. Fox, Gaussian, Inc., Wallingford CT, 2019.
 
 ******************************************
 Gaussian 16:  ES64L-G16RevC.01  3-Jul-2019
                 7-Dec-2024 
 ******************************************
 Default route: SCF=Direct
 ----------------------------------------------------
 # m06/genecp scf=tight int=ultrafine 5d freq=noraman
 ----------------------------------------------------
 1/10=4,30=1,38=1/1,3;
 2/12=2,17=6,18=5,40=1/2;
 3/5=7,8=1,11=2,16=1,17=8,25=1,30=1,71=2,74=-54,75=-5,140=1/1,2,3;
 4//1;
 5/5=2,32=2,38=5,98=1/2;
 8/6=4,10=90,11=11/1;
 11/6=1,8=1,9=11,15=111,16=1/1,2,10;
 10/6=1/2;
 6/7=2,8=2,9=2,10=2,28=1/1;
 7/8=1,10=1,25=1/1,2,3,16;
 1/10=4,30=1/3;
 99//99;
 ------
 OPT-TS
 ------
 Symbolic Z-matrix:
 Charge =  0 Multiplicity = 1
 C                     2.25133  -0.11964   1.79095 
 C                     3.19444  -0.41121  -0.29537 
 C                     4.46243  -0.09543   0.18048 
 C                     4.61037   0.22454   1.52276 
 C                     3.4898    0.20248   2.3398 
 C                     1.00485  -0.11661   2.58261 
 C                    -1.30735  -0.14078   2.52573 
 C                    -1.38562  -0.11254   3.91214 
 C                    -0.21268  -0.10165   4.65263 
 C                     0.99833  -0.11689   3.97544 
 H                     3.02895  -0.65104  -1.34779 
 H                     5.58711   0.48861   1.92095 
 H                     3.58058   0.46509   3.39013 
 H                    -2.20115  -0.15514   1.90561 
 H                    -0.24553  -0.09322   5.73939 
 H                     1.9305   -0.15024   4.53245 
 N                     2.12156  -0.4152    0.48475 
 N                    -0.14492  -0.12121   1.87781 
 Ir                   -0.01247  -0.19945  -0.34965 
 O                    -2.44907   1.18152  -1.7658 
 O                    -2.71116  -1.76695  -0.7196 
 O                     1.56114   2.28891   0.15533 
 B                    -1.37556  -1.72576  -1.17222 
 B                    -1.6933    0.90875  -0.64099 
 B                     0.62325   1.71674  -0.70501 
 O                     0.38606   2.54955  -1.78171 
 O                    -2.20813   1.61557   0.45525 
 C                    -3.50713   2.1058    0.09366 
 C                    -3.37633   2.23279  -1.45066 
 C                     1.8136    3.63034  -0.29291 
 C                     1.41964   3.54635  -1.79347 
 C                    -3.46325  -2.5608   -1.64967 
 C                    -2.63188  -2.44116  -2.96662 
 O                    -1.307    -2.20778  -2.48107 
 C                    -4.66238   2.0173   -2.22227 
 H                    -5.10393   1.03473  -2.02312 
 H                    -5.40384   2.78664  -1.96205 
 H                    -4.46347   2.08829  -3.29976 
 C                    -2.74043   3.54597  -1.88448 
 H                    -2.44815   3.46524  -2.93922 
 H                    -3.43366   4.39071  -1.77157 
 H                    -1.82799   3.7451   -1.3114 
 C                    -4.51835   1.05342   0.53377 
 H                    -4.31376   0.08779   0.05192 
 H                    -4.43254   0.91498   1.62134 
 H                    -5.55201   1.35479   0.31605 
 C                    -3.76553   3.40362   0.83208 
 H                    -2.98042   4.14471   0.64597 
 H                    -4.73261   3.83624   0.53776 
 H                    -3.79581   3.20739   1.91221 
 C                    -3.52632  -3.98428  -1.10238 
 H                    -4.18888  -4.62126  -1.70372 
 H                    -2.54016  -4.46622  -1.07231 
 H                    -3.91765  -3.94991  -0.07755 
 C                    -4.87368  -2.01582  -1.7471 
 H                    -4.87093  -0.95728  -2.02717 
 H                    -5.45606  -2.57182  -2.49586 
 H                    -5.38202  -2.11636  -0.77858 
 C                    -2.61711  -3.70052  -3.81631 
 H                    -2.20777  -4.56206  -3.27568 
 H                    -3.63032  -3.95449  -4.16012 
 H                    -1.993    -3.53327  -4.70341 
 C                    -3.02565  -1.25521  -3.83562 
 H                    -4.01679  -1.39331  -4.29038 
 H                    -3.00856  -0.32237  -3.26112 
 H                    -2.28903  -1.16081  -4.64388 
 C                     0.87596   4.82834  -2.38994 
 H                     0.58732   4.6539   -3.43442 
 H                    -0.00843   5.18958  -1.85395 
 H                     1.6403    5.61871  -2.3746 
 C                     2.54064   3.00287  -2.67205 
 H                     2.96837   2.08168  -2.25151 
 H                     2.12559   2.75903  -3.65753 
 H                     3.35127   3.73169  -2.80624 
 C                     3.26837   3.96585  -0.03037 
 H                     3.52198   4.9583   -0.43004 
 H                     3.45481   3.97961   1.0518 
 H                     3.94257   3.22755  -0.48079 
 C                     0.90686   4.54817   0.51444 
 H                     1.06809   5.60693   0.27116 
 H                    -0.15056   4.30038   0.3479 
 H                     1.11642   4.4035    1.58178 
 H                     0.2158   -0.22636  -1.93222 
 C                     1.94127  -3.34407   0.53953 
 O                     1.72258  -3.06551   1.71694 
 C                     3.3127   -3.85419   0.11529 
 H                     3.22462  -4.8959   -0.23139 
 H                     3.67204  -3.28246  -0.75456 
 C                    -0.29711  -2.6273   -0.05853 
 H                    -1.04509  -3.43012  -0.16105 
 H                    -0.27112  -2.44883   1.01793 
 N                     1.00022  -3.17509  -0.43593 
 C                     1.17073  -3.57397  -1.81854 
 H                     0.32416  -4.20037  -2.13164 
 H                     1.18266  -2.70129  -2.48465 
 H                     2.0898   -4.14835  -1.94941 
 C                     4.32037  -3.76343   1.24518 
 H                     3.98899  -4.33751   2.11668 
 H                     5.29807  -4.14142   0.92282 
 C                     5.60064  -0.06811  -0.78785 
 F                     5.66861  -1.21035  -1.48161 
 F                     5.44648   0.92135  -1.67842 
 F                     6.77287   0.11374  -0.17809 
 C                    -2.74593  -0.05453   4.5338 
 F                    -2.68939  -0.1392    5.86514 
 F                    -3.36      1.0955    4.22418 
 F                    -3.52662  -1.04183   4.08826 
 H                     4.44512  -2.72367   1.57586 
 

 GradGradGradGradGradGradGradGradGradGradGradGradGradGradGradGradGradGrad
 Berny optimization.
 Initialization pass.
 Trust Radius=3.00D-01 FncErr=1.00D-07 GrdErr=1.00D-07 EigMax=2.50D+02 EigMin=1.00D-04
 Number of steps in this run=      2 maximum allowed number of steps=      2.
 GradGradGradGradGradGradGradGradGradGradGradGradGradGradGradGradGradGrad

 Stoichiometry    C35H53B3F6IrN3O7
 Framework group  C1[X(C35H53B3F6IrN3O7)]
 Deg. of freedom   318
 Full point group                 C1      NOp   1
 Largest Abelian subgroup         C1      NOp   1
 Largest concise Abelian subgroup C1      NOp   1
                         Standard orientation:                         
 ---------------------------------------------------------------------
 Center     Atomic      Atomic             Coordinates (Angstroms)
 Number     Number       Type             X           Y           Z
 ---------------------------------------------------------------------
      1          6           0        2.251330   -0.119641    1.790950
      2          6           0        3.194440   -0.411211   -0.295370
      3          6           0        4.462430   -0.095431    0.180480
      4          6           0        4.610370    0.224539    1.522760
      5          6           0        3.489800    0.202479    2.339800
      6          6           0        1.004850   -0.116610    2.582610
      7          6           0       -1.307350   -0.140780    2.525730
      8          6           0       -1.385620   -0.112540    3.912140
      9          6           0       -0.212680   -0.101650    4.652630
     10          6           0        0.998330   -0.116890    3.975440
     11          1           0        3.028950   -0.651041   -1.347790
     12          1           0        5.587110    0.488609    1.920950
     13          1           0        3.580580    0.465089    3.390130
     14          1           0       -2.201150   -0.155140    1.905610
     15          1           0       -0.245530   -0.093220    5.739390
     16          1           0        1.930500   -0.150241    4.532450
     17          7           0        2.121560   -0.415201    0.484750
     18          7           0       -0.144920   -0.121210    1.877810
     19         77           0       -0.012470   -0.199450   -0.349650
     20          8           0       -2.449070    1.181520   -1.765800
     21          8           0       -2.711161   -1.766950   -0.719600
     22          8           0        1.561140    2.288909    0.155330
     23          5           0       -1.375561   -1.725760   -1.172220
     24          5           0       -1.693300    0.908750   -0.640990
     25          5           0        0.623250    1.716740   -0.705010
     26          8           0        0.386060    2.549550   -1.781710
     27          8           0       -2.208130    1.615570    0.455250
     28          6           0       -3.507130    2.105800    0.093660
     29          6           0       -3.376330    2.232790   -1.450660
     30          6           0        1.813600    3.630339   -0.292910
     31          6           0        1.419640    3.546349   -1.793470
     32          6           0       -3.463251   -2.560800   -1.649670
     33          6           0       -2.631881   -2.441160   -2.966620
     34          8           0       -1.307001   -2.207780   -2.481070
     35          6           0       -4.662380    2.017300   -2.222270
     36          1           0       -5.103930    1.034730   -2.023120
     37          1           0       -5.403840    2.786640   -1.962050
     38          1           0       -4.463470    2.088290   -3.299760
     39          6           0       -2.740430    3.545970   -1.884480
     40          1           0       -2.448150    3.465240   -2.939220
     41          1           0       -3.433660    4.390710   -1.771570
     42          1           0       -1.827990    3.745100   -1.311400
     43          6           0       -4.518350    1.053420    0.533770
     44          1           0       -4.313760    0.087790    0.051920
     45          1           0       -4.432540    0.914980    1.621340
     46          1           0       -5.552010    1.354791    0.316050
     47          6           0       -3.765530    3.403620    0.832080
     48          1           0       -2.980420    4.144710    0.645970
     49          1           0       -4.732610    3.836240    0.537760
     50          1           0       -3.795810    3.207390    1.912210
     51          6           0       -3.526321   -3.984280   -1.102380
     52          1           0       -4.188881   -4.621260   -1.703720
     53          1           0       -2.540161   -4.466220   -1.072310
     54          1           0       -3.917651   -3.949910   -0.077550
     55          6           0       -4.873681   -2.015820   -1.747100
     56          1           0       -4.870930   -0.957280   -2.027170
     57          1           0       -5.456061   -2.571820   -2.495860
     58          1           0       -5.382021   -2.116360   -0.778580
     59          6           0       -2.617111   -3.700520   -3.816310
     60          1           0       -2.207771   -4.562060   -3.275680
     61          1           0       -3.630321   -3.954490   -4.160120
     62          1           0       -1.993001   -3.533270   -4.703410
     63          6           0       -3.025651   -1.255210   -3.835620
     64          1           0       -4.016791   -1.393310   -4.290380
     65          1           0       -3.008560   -0.322370   -3.261120
     66          1           0       -2.289031   -1.160810   -4.643880
     67          6           0        0.875960    4.828340   -2.389940
     68          1           0        0.587320    4.653900   -3.434420
     69          1           0       -0.008430    5.189580   -1.853950
     70          1           0        1.640300    5.618709   -2.374600
     71          6           0        2.540640    3.002869   -2.672050
     72          1           0        2.968370    2.081679   -2.251510
     73          1           0        2.125590    2.759029   -3.657530
     74          1           0        3.351270    3.731689   -2.806240
     75          6           0        3.268370    3.965849   -0.030370
     76          1           0        3.521980    4.958299   -0.430040
     77          1           0        3.454810    3.979609    1.051800
     78          1           0        3.942570    3.227549   -0.480790
     79          6           0        0.906860    4.548170    0.514440
     80          1           0        1.068090    5.606930    0.271160
     81          1           0       -0.150560    4.300380    0.347900
     82          1           0        1.116420    4.403500    1.581780
     83          1           0        0.215800   -0.226360   -1.932220
     84          6           0        1.941269   -3.344071    0.539530
     85          8           0        1.722579   -3.065511    1.716940
     86          6           0        3.312699   -3.854191    0.115290
     87          1           0        3.224619   -4.895901   -0.231390
     88          1           0        3.672039   -3.282461   -0.754560
     89          6           0       -0.297111   -2.627300   -0.058530
     90          1           0       -1.045091   -3.430120   -0.161050
     91          1           0       -0.271121   -2.448830    1.017930
     92          7           0        1.000219   -3.175090   -0.435930
     93          6           0        1.170729   -3.573971   -1.818540
     94          1           0        0.324159   -4.200370   -2.131640
     95          1           0        1.182659   -2.701291   -2.484650
     96          1           0        2.089799   -4.148351   -1.949410
     97          6           0        4.320369   -3.763431    1.245180
     98          1           0        3.988989   -4.337511    2.116680
     99          1           0        5.298069   -4.141421    0.922820
    100          6           0        5.600640   -0.068111   -0.787850
    101          9           0        5.668609   -1.210351   -1.481610
    102          9           0        5.446480    0.921349   -1.678420
    103          9           0        6.772870    0.113739   -0.178090
    104          6           0       -2.745930   -0.054530    4.533800
    105          9           0       -2.689390   -0.139200    5.865140
    106          9           0       -3.360000    1.095500    4.224180
    107          9           0       -3.526621   -1.041830    4.088260
    108          1           0        4.445119   -2.723671    1.575860
 ---------------------------------------------------------------------
 Rotational constants (GHZ):           0.0593525           0.0422833           0.0417513
 General basis read from cards:  (5D, 7F)
 ======================================================================================================
                                       Pseudopotential Parameters
 ======================================================================================================
  Center     Atomic      Valence      Angular      Power
  Number     Number     Electrons     Momentum     of R      Exponent        Coefficient   SO-Coeffient
 ======================================================================================================
    1          6
                                   No pseudopotential on this center.
    2          6
                                   No pseudopotential on this center.
    3          6
                                   No pseudopotential on this center.
    4          6
                                   No pseudopotential on this center.
    5          6
                                   No pseudopotential on this center.
    6          6
                                   No pseudopotential on this center.
    7          6
                                   No pseudopotential on this center.
    8          6
                                   No pseudopotential on this center.
    9          6
                                   No pseudopotential on this center.
   10          6
                                   No pseudopotential on this center.
   11          1
                                   No pseudopotential on this center.
   12          1
                                   No pseudopotential on this center.
   13          1
                                   No pseudopotential on this center.
   14          1
                                   No pseudopotential on this center.
   15          1
                                   No pseudopotential on this center.
   16          1
                                   No pseudopotential on this center.
   17          7
                                   No pseudopotential on this center.
   18          7
                                   No pseudopotential on this center.
   19         77           17
                                      G and up 
                                                     1      823.5880147       -0.15780140    0.00000000
                                                     2      364.6613336    -1517.52704460    0.00000000
                                                     2       55.7082801     -316.53065290    0.00000000
                                                     2       12.0464544      -91.88809410    0.00000000
                                                     2        3.5120610       -9.22417730    0.00000000
                                      S - G
                                                     0      188.0490770        3.15780140    0.00000000
                                                     1      340.4194712       26.83225770    0.00000000
                                                     2      128.2373673      800.42500070    0.00000000
                                                     2       33.8644961      369.40506830    0.00000000
                                                     2        4.7560005      242.41718990    0.00000000
                                                     2        3.9649974     -118.21732820    0.00000000
                                      P - G
                                                     0      289.7291139        2.15780140    0.00000000
                                                     1       87.4633789       61.96786100    0.00000000
                                                     2       30.4363766      269.05819860    0.00000000
                                                     2        4.0553412      231.16547930    0.00000000
                                                     2        3.5525341     -133.69526670    0.00000000
                                      D - G
                                                     0      136.4017106        3.15780140    0.00000000
                                                     1       95.0776925       45.93498030    0.00000000
                                                     2       49.2258410      359.03446680    0.00000000
                                                     2       15.0874145      176.47401190    0.00000000
                                                     2        4.0405764       54.51552860    0.00000000
                                      F - G
                                                     0      127.3507908        3.95461970    0.00000000
                                                     1       66.2364374       52.97736550    0.00000000
                                                     2       34.4299229      274.86433830    0.00000000
                                                     2       10.1995721      137.20473380    0.00000000
                                                     2        2.5409702       14.86333050    0.00000000
   20          8
                                   No pseudopotential on this center.
   21          8
                                   No pseudopotential on this center.
   22          8
                                   No pseudopotential on this center.
   23          5
                                   No pseudopotential on this center.
   24          5
                                   No pseudopotential on this center.
   25          5
                                   No pseudopotential on this center.
   26          8
                                   No pseudopotential on this center.
   27          8
                                   No pseudopotential on this center.
   28          6
                                   No pseudopotential on this center.
   29          6
                                   No pseudopotential on this center.
   30          6
                                   No pseudopotential on this center.
   31          6
                                   No pseudopotential on this center.
   32          6
                                   No pseudopotential on this center.
   33          6
                                   No pseudopotential on this center.
   34          8
                                   No pseudopotential on this center.
   35          6
                                   No pseudopotential on this center.
   36          1
                                   No pseudopotential on this center.
   37          1
                                   No pseudopotential on this center.
   38          1
                                   No pseudopotential on this center.
   39          6
                                   No pseudopotential on this center.
   40          1
                                   No pseudopotential on this center.
   41          1
                                   No pseudopotential on this center.
   42          1
                                   No pseudopotential on this center.
   43          6
                                   No pseudopotential on this center.
   44          1
                                   No pseudopotential on this center.
   45          1
                                   No pseudopotential on this center.
   46          1
                                   No pseudopotential on this center.
   47          6
                                   No pseudopotential on this center.
   48          1
                                   No pseudopotential on this center.
   49          1
                                   No pseudopotential on this center.
   50          1
                                   No pseudopotential on this center.
   51          6
                                   No pseudopotential on this center.
   52          1
                                   No pseudopotential on this center.
   53          1
                                   No pseudopotential on this center.
   54          1
                                   No pseudopotential on this center.
   55          6
                                   No pseudopotential on this center.
   56          1
                                   No pseudopotential on this center.
   57          1
                                   No pseudopotential on this center.
   58          1
                                   No pseudopotential on this center.
   59          6
                                   No pseudopotential on this center.
   60          1
                                   No pseudopotential on this center.
   61          1
                                   No pseudopotential on this center.
   62          1
                                   No pseudopotential on this center.
   63          6
                                   No pseudopotential on this center.
   64          1
                                   No pseudopotential on this center.
   65          1
                                   No pseudopotential on this center.
   66          1
                                   No pseudopotential on this center.
   67          6
                                   No pseudopotential on this center.
   68          1
                                   No pseudopotential on this center.
   69          1
                                   No pseudopotential on this center.
   70          1
                                   No pseudopotential on this center.
   71          6
                                   No pseudopotential on this center.
   72          1
                                   No pseudopotential on this center.
   73          1
                                   No pseudopotential on this center.
   74          1
                                   No pseudopotential on this center.
   75          6
                                   No pseudopotential on this center.
   76          1
                                   No pseudopotential on this center.
   77          1
                                   No pseudopotential on this center.
   78          1
                                   No pseudopotential on this center.
   79          6
                                   No pseudopotential on this center.
   80          1
                                   No pseudopotential on this center.
   81          1
                                   No pseudopotential on this center.
   82          1
                                   No pseudopotential on this center.
   83          1
                                   No pseudopotential on this center.
   84          6
                                   No pseudopotential on this center.
   85          8
                                   No pseudopotential on this center.
   86          6
                                   No pseudopotential on this center.
   87          1
                                   No pseudopotential on this center.
   88          1
                                   No pseudopotential on this center.
   89          6
                                   No pseudopotential on this center.
   90          1
                                   No pseudopotential on this center.
   91          1
                                   No pseudopotential on this center.
   92          7
                                   No pseudopotential on this center.
   93          6
                                   No pseudopotential on this center.
   94          1
                                   No pseudopotential on this center.
   95          1
                                   No pseudopotential on this center.
   96          1
                                   No pseudopotential on this center.
   97          6
                                   No pseudopotential on this center.
   98          1
                                   No pseudopotential on this center.
   99          1
                                   No pseudopotential on this center.
  100          6
                                   No pseudopotential on this center.
  101          9
                                   No pseudopotential on this center.
  102          9
                                   No pseudopotential on this center.
  103          9
                                   No pseudopotential on this center.
  104          6
                                   No pseudopotential on this center.
  105          9
                                   No pseudopotential on this center.
  106          9
                                   No pseudopotential on this center.
  107          9
                                   No pseudopotential on this center.
  108          1
                                   No pseudopotential on this center.
 ======================================================================================================
 There are   940 symmetry adapted cartesian basis functions of A   symmetry.
 There are   884 symmetry adapted basis functions of A   symmetry.
   884 basis functions,  1767 primitive gaussians,   940 cartesian basis functions
   213 alpha electrons      213 beta electrons
       nuclear repulsion energy      9729.7844884500 Hartrees.
 NAtoms=  108 NActive=  108 NUniq=  108 SFac= 1.00D+00 NAtFMM=   60 NAOKFM=T Big=T
 Integral buffers will be    131072 words long.
 Raffenetti 2 integral format.
 Two-electron integral symmetry is turned on.
 One-electron integrals computed using PRISM.
   1 Symmetry operations used in ECPInt.
 ECPInt:  NShTT=   54615 NPrTT=  339395 LenC2=   41055 LenP2D=  127314.
 LDataN:  DoStor=T MaxTD1= 6 Len=  172
 NBasis=   884 RedAO= T EigKep=  4.73D-04  NBF=   884
 NBsUse=   884 1.00D-06 EigRej= -1.00D+00 NBFU=   884
 Defaulting to unpruned grid for atomic number  77.
 ExpMin= 2.90D-02 ExpMax= 7.00D+03 ExpMxC= 1.05D+03 IAcc=3 IRadAn=         5 AccDes= 0.00D+00
 Harris functional with IExCor= 1009 and IRadAn=       5 diagonalized for initial guess.
 HarFok:  IExCor= 1009 AccDes= 0.00D+00 IRadAn=         5 IDoV= 1 UseB2=F ITyADJ=14
 ICtDFT=  3500011 ScaDFX=  1.000000  1.000000  1.000000  1.000000
 Defaulting to unpruned grid for atomic number  77.
 FoFCou: FMM=F IPFlag=           0 FMFlag=      100000 FMFlg1=        2001
         NFxFlg=           0 DoJE=T BraDBF=F KetDBF=T FulRan=T
         wScrn=  0.000000 ICntrl=       500 IOpCl=  0 I1Cent=   200000004 NGrid=           0
         NMat0=    1 NMatS0=      1 NMatT0=    0 NMatD0=    1 NMtDS0=    0 NMtDT0=    0
 Petite list used in FoFCou.
 Requested convergence on RMS density matrix=1.00D-08 within 128 cycles.
 Requested convergence on MAX density matrix=1.00D-06.
 Requested convergence on             energy=1.00D-06.
 No special actions if energy rises.
 Defaulting to unpruned grid for atomic number  77.
 Defaulting to unpruned grid for atomic number  77.
 Defaulting to unpruned grid for atomic number  77.
 Defaulting to unpruned grid for atomic number  77.
 Defaulting to unpruned grid for atomic number  77.
 Defaulting to unpruned grid for atomic number  77.
 Defaulting to unpruned grid for atomic number  77.
 Defaulting to unpruned grid for atomic number  77.
 Defaulting to unpruned grid for atomic number  77.
 Defaulting to unpruned grid for atomic number  77.
 Defaulting to unpruned grid for atomic number  77.
 Defaulting to unpruned grid for atomic number  77.
 Defaulting to unpruned grid for atomic number  77.
 Defaulting to unpruned grid for atomic number  77.
 Defaulting to unpruned grid for atomic number  77.
 Defaulting to unpruned grid for atomic number  77.
 SCF Done:  E(RM06) =  -2833.54207198     A.U. after   15 cycles
            NFock= 15  Conv=0.91D-08     -V/T= 2.0320
 DoSCS=F DFT=T ScalE2(SS,OS)=  1.000000  1.000000
 Range of M.O.s used for correlation:     1   884
 NBasis=   884 NAE=   213 NBE=   213 NFC=     0 NFV=     0
 NROrb=    884 NOA=   213 NOB=   213 NVA=   671 NVB=   671
   1 Symmetry operations used in ECPInt.
 ECPInt:  NShTT=   54615 NPrTT=  339395 LenC2=   41055 LenP2D=  127314.
 LDataN:  DoStor=T MaxTD1= 7 Len=  274
 Number of processors reduced to   7 by ecpmxn.
 Symmetrizing basis deriv contribution to polar:
 IMax=3 JMax=2 DiffMx= 0.00D+00
 G2DrvN: will do   109 centers at a time, making    1 passes.
 Calling FoFCou, ICntrl=  3107 FMM=T I1Cent=   0 AccDes= 0.00D+00.
 Defaulting to unpruned grid for atomic number  77.
 Defaulting to unpruned grid for atomic number  77.
 Defaulting to unpruned grid for atomic number  77.
 Defaulting to unpruned grid for atomic number  77.
 Defaulting to unpruned grid for atomic number  77.
 Defaulting to unpruned grid for atomic number  77.
 Defaulting to unpruned grid for atomic number  77.
 Defaulting to unpruned grid for atomic number  77.
 Defaulting to unpruned grid for atomic number  77.
 Defaulting to unpruned grid for atomic number  77.
 Defaulting to unpruned grid for atomic number  77.
 Defaulting to unpruned grid for atomic number  77.
 Defaulting to unpruned grid for atomic number  77.
 Defaulting to unpruned grid for atomic number  77.
 Defaulting to unpruned grid for atomic number  77.
 Defaulting to unpruned grid for atomic number  77.
 End of G2Drv F.D. properties file   721 does not exist.
 End of G2Drv F.D. properties file   722 does not exist.
 End of G2Drv F.D. properties file   788 does not exist.
          IDoAtm=11111111111111111111111111111111111111111111111111
          IDoAtm=11111111111111111111111111111111111111111111111111
          IDoAtm=11111111
          Differentiating once with respect to electric field.
                with respect to dipole field.
          Differentiating once with respect to nuclear coordinates.
 Defaulting to unpruned grid for atomic number  77.
 CalDSu exits because no D1Ps are significant.
 Defaulting to unpruned grid for atomic number  77.
 Defaulting to unpruned grid for atomic number  77.
 Defaulting to unpruned grid for atomic number  77.
 Defaulting to unpruned grid for atomic number  77.
 Defaulting to unpruned grid for atomic number  77.
 Defaulting to unpruned grid for atomic number  77.
 Defaulting to unpruned grid for atomic number  77.
 Defaulting to unpruned grid for atomic number  77.
 Defaulting to unpruned grid for atomic number  77.
 Defaulting to unpruned grid for atomic number  77.
 Defaulting to unpruned grid for atomic number  77.
 Defaulting to unpruned grid for atomic number  77.
 Defaulting to unpruned grid for atomic number  77.
 Defaulting to unpruned grid for atomic number  77.
 Defaulting to unpruned grid for atomic number  77.
 Defaulting to unpruned grid for atomic number  77.
          There are   327 degrees of freedom in the 1st order CPHF.  IDoFFX=6 NUNeed=     3.
    324 vectors produced by pass  0 Test12= 1.43D-13 1.00D-09 XBig12= 5.00D+02 7.87D+00.
 AX will form    72 AO Fock derivatives at one time.
    324 vectors produced by pass  1 Test12= 1.43D-13 1.00D-09 XBig12= 9.11D+01 9.53D-01.
    324 vectors produced by pass  2 Test12= 1.43D-13 1.00D-09 XBig12= 1.10D+00 9.20D-02.
    324 vectors produced by pass  3 Test12= 1.43D-13 1.00D-09 XBig12= 7.25D-03 6.26D-03.
    324 vectors produced by pass  4 Test12= 1.43D-13 1.00D-09 XBig12= 2.85D-05 3.99D-04.
    289 vectors produced by pass  5 Test12= 1.43D-13 1.00D-09 XBig12= 5.85D-08 1.23D-05.
     84 vectors produced by pass  6 Test12= 1.43D-13 1.00D-09 XBig12= 8.88D-11 6.68D-07.
      3 vectors produced by pass  7 Test12= 1.43D-13 1.00D-09 XBig12= 1.16D-13 1.98D-08.
 InvSVY:  IOpt=1 It=  1 EMax= 2.49D-14
 Solved reduced A of dimension  1996 with   327 vectors.
 Isotropic polarizability for W=    0.000000      486.27 Bohr**3.
 End of Minotr F.D. properties file   721 does not exist.
 End of Minotr F.D. properties file   722 does not exist.
 End of Minotr F.D. properties file   788 does not exist.
 Hyperfine terms turned off by default for NAtoms > 100.

 **********************************************************************

            Population analysis using the SCF Density.

 **********************************************************************

 Orbital symmetries:
       Occupied  (A) (A) (A) (A) (A) (A) (A) (A) (A) (A) (A) (A)
                 (A) (A) (A) (A) (A) (A) (A) (A) (A) (A) (A) (A)
                 (A) (A) (A) (A) (A) (A) (A) (A) (A) (A) (A) (A)
                 (A) (A) (A) (A) (A) (A) (A) (A) (A) (A) (A) (A)
                 (A) (A) (A) (A) (A) (A) (A) (A) (A) (A) (A) (A)
                 (A) (A) (A) (A) (A) (A) (A) (A) (A) (A) (A) (A)
                 (A) (A) (A) (A) (A) (A) (A) (A) (A) (A) (A) (A)
                 (A) (A) (A) (A) (A) (A) (A) (A) (A) (A) (A) (A)
                 (A) (A) (A) (A) (A) (A) (A) (A) (A) (A) (A) (A)
                 (A) (A) (A) (A) (A) (A) (A) (A) (A) (A) (A) (A)
                 (A) (A) (A) (A) (A) (A) (A) (A) (A) (A) (A) (A)
                 (A) (A) (A) (A) (A) (A) (A) (A) (A) (A) (A) (A)
                 (A) (A) (A) (A) (A) (A) (A) (A) (A) (A) (A) (A)
                 (A) (A) (A) (A) (A) (A) (A) (A) (A) (A) (A) (A)
                 (A) (A) (A) (A) (A) (A) (A) (A) (A) (A) (A) (A)
                 (A) (A) (A) (A) (A) (A) (A) (A) (A) (A) (A) (A)
                 (A) (A) (A) (A) (A) (A) (A) (A) (A) (A) (A) (A)
                 (A) (A) (A) (A) (A) (A) (A) (A) (A)
       Virtual   (A) (A) (A) (A) (A) (A) (A) (A) (A) (A) (A) (A)
                 (A) (A) (A) (A) (A) (A) (A) (A) (A) (A) (A) (A)
                 (A) (A) (A) (A) (A) (A) (A) (A) (A) (A) (A) (A)
                 (A) (A) (A) (A) (A) (A) (A) (A) (A) (A) (A) (A)
                 (A) (A) (A) (A) (A) (A) (A) (A) (A) (A) (A) (A)
                 (A) (A) (A) (A) (A) (A) (A) (A) (A) (A) (A) (A)
                 (A) (A) (A) (A) (A) (A) (A) (A) (A) (A) (A) (A)
                 (A) (A) (A) (A) (A) (A) (A) (A) (A) (A) (A) (A)
                 (A) (A) (A) (A) (A) (A) (A) (A) (A) (A) (A) (A)
                 (A) (A) (A) (A) (A) (A) (A) (A) (A) (A) (A) (A)
                 (A) (A) (A) (A) (A) (A) (A) (A) (A) (A) (A) (A)
                 (A) (A) (A) (A) (A) (A) (A) (A) (A) (A) (A) (A)
                 (A) (A) (A) (A) (A) (A) (A) (A) (A) (A) (A) (A)
                 (A) (A) (A) (A) (A) (A) (A) (A) (A) (A) (A) (A)
                 (A) (A) (A) (A) (A) (A) (A) (A) (A) (A) (A) (A)
                 (A) (A) (A) (A) (A) (A) (A) (A) (A) (A) (A) (A)
                 (A) (A) (A) (A) (A) (A) (A) (A) (A) (A) (A) (A)
                 (A) (A) (A) (A) (A) (A) (A) (A) (A) (A) (A) (A)
                 (A) (A) (A) (A) (A) (A) (A) (A) (A) (A) (A) (A)
                 (A) (A) (A) (A) (A) (A) (A) (A) (A) (A) (A) (A)
                 (A) (A) (A) (A) (A) (A) (A) (A) (A) (A) (A) (A)
                 (A) (A) (A) (A) (A) (A) (A) (A) (A) (A) (A) (A)
                 (A) (A) (A) (A) (A) (A) (A) (A) (A) (A) (A) (A)
                 (A) (A) (A) (A) (A) (A) (A) (A) (A) (A) (A) (A)
                 (A) (A) (A) (A) (A) (A) (A) (A) (A) (A) (A) (A)
                 (A) (A) (A) (A) (A) (A) (A) (A) (A) (A) (A) (A)
                 (A) (A) (A) (A) (A) (A) (A) (A) (A) (A) (A) (A)
                 (A) (A) (A) (A) (A) (A) (A) (A) (A) (A) (A) (A)
                 (A) (A) (A) (A) (A) (A) (A) (A) (A) (A) (A) (A)
                 (A) (A) (A) (A) (A) (A) (A) (A) (A) (A) (A) (A)
                 (A) (A) (A) (A) (A) (A) (A) (A) (A) (A) (A) (A)
                 (A) (A) (A) (A) (A) (A) (A) (A) (A) (A) (A) (A)
                 (A) (A) (A) (A) (A) (A) (A) (A) (A) (A) (A) (A)
                 (A) (A) (A) (A) (A) (A) (A) (A) (A) (A) (A) (A)
                 (A) (A) (A) (A) (A) (A) (A) (A) (A) (A) (A) (A)
                 (A) (A) (A) (A) (A) (A) (A) (A) (A) (A) (A) (A)
                 (A) (A) (A) (A) (A) (A) (A) (A) (A) (A) (A) (A)
                 (A) (A) (A) (A) (A) (A) (A) (A) (A) (A) (A) (A)
                 (A) (A) (A) (A) (A) (A) (A) (A) (A) (A) (A) (A)
                 (A) (A) (A) (A) (A) (A) (A) (A) (A) (A) (A) (A)
                 (A) (A) (A) (A) (A) (A) (A) (A) (A) (A) (A) (A)
                 (A) (A) (A) (A) (A) (A) (A) (A) (A) (A) (A) (A)
                 (A) (A) (A) (A) (A) (A) (A) (A) (A) (A) (A) (A)
                 (A) (A) (A) (A) (A) (A) (A) (A) (A) (A) (A) (A)
                 (A) (A) (A) (A) (A) (A) (A) (A) (A) (A) (A) (A)
                 (A) (A) (A) (A) (A) (A) (A) (A) (A) (A) (A) (A)
                 (A) (A) (A) (A) (A) (A) (A) (A) (A) (A) (A) (A)
                 (A) (A) (A) (A) (A) (A) (A) (A) (A) (A) (A) (A)
                 (A) (A) (A) (A) (A) (A) (A) (A) (A) (A) (A) (A)
                 (A) (A) (A) (A) (A) (A) (A) (A) (A) (A) (A) (A)
                 (A) (A) (A) (A) (A) (A) (A) (A) (A) (A) (A) (A)
                 (A) (A) (A) (A) (A) (A) (A) (A) (A) (A) (A) (A)
                 (A) (A) (A) (A) (A) (A) (A) (A) (A) (A) (A) (A)
                 (A) (A) (A) (A) (A) (A) (A) (A) (A) (A) (A) (A)
                 (A) (A) (A) (A) (A) (A) (A) (A) (A) (A) (A) (A)
                 (A) (A) (A) (A) (A) (A) (A) (A) (A) (A) (A)
 The electronic state is 1-A.
 Alpha  occ. eigenvalues --  -24.84216 -24.83713 -24.83572 -24.83541 -24.82882
 Alpha  occ. eigenvalues --  -24.82790 -19.21187 -19.20746 -19.20139 -19.19723
 Alpha  occ. eigenvalues --  -19.19560 -19.19184 -19.18089 -14.46012 -14.45742
 Alpha  occ. eigenvalues --  -14.42042 -10.52344 -10.51634 -10.33794 -10.33589
 Alpha  occ. eigenvalues --  -10.33345 -10.32681 -10.31679 -10.30837 -10.30363
 Alpha  occ. eigenvalues --  -10.30353 -10.30028 -10.29892 -10.29772 -10.29644
 Alpha  occ. eigenvalues --  -10.29369 -10.29107 -10.29052 -10.28979 -10.28659
 Alpha  occ. eigenvalues --  -10.26284 -10.25607 -10.25116 -10.23654 -10.23244
 Alpha  occ. eigenvalues --  -10.23146 -10.23018 -10.22825 -10.22564 -10.22541
 Alpha  occ. eigenvalues --  -10.22525 -10.22409 -10.22309 -10.21889 -10.21598
 Alpha  occ. eigenvalues --  -10.20387  -6.82211  -6.80708  -6.80140  -3.63348
 Alpha  occ. eigenvalues --   -2.05883  -2.05268  -2.04661  -1.36685  -1.35968
 Alpha  occ. eigenvalues --   -1.28246  -1.27646  -1.27538  -1.26872  -1.06974
 Alpha  occ. eigenvalues --   -1.05965  -1.05390  -1.04014  -1.01533  -0.99987
 Alpha  occ. eigenvalues --   -0.99219  -0.98915  -0.98645  -0.93395  -0.87350
 Alpha  occ. eigenvalues --   -0.86432  -0.84830  -0.81157  -0.81042  -0.80120
 Alpha  occ. eigenvalues --   -0.79969  -0.78460  -0.76269  -0.75487  -0.74576
 Alpha  occ. eigenvalues --   -0.74323  -0.73067  -0.71629  -0.71007  -0.70160
 Alpha  occ. eigenvalues --   -0.69944  -0.69812  -0.69323  -0.69227  -0.68247
 Alpha  occ. eigenvalues --   -0.67270  -0.67060  -0.66837  -0.65935  -0.63310
 Alpha  occ. eigenvalues --   -0.62711  -0.62659  -0.62288  -0.61913  -0.61865
 Alpha  occ. eigenvalues --   -0.61500  -0.61333  -0.60778  -0.60588  -0.57458
 Alpha  occ. eigenvalues --   -0.55365  -0.55077  -0.54562  -0.54389  -0.54202
 Alpha  occ. eigenvalues --   -0.53621  -0.53145  -0.52722  -0.52154  -0.50464
 Alpha  occ. eigenvalues --   -0.50418  -0.50103  -0.50014  -0.49527  -0.49368
 Alpha  occ. eigenvalues --   -0.49102  -0.48669  -0.48524  -0.47851  -0.47584
 Alpha  occ. eigenvalues --   -0.47368  -0.46968  -0.46819  -0.46758  -0.46505
 Alpha  occ. eigenvalues --   -0.46297  -0.46196  -0.45986  -0.45553  -0.45476
 Alpha  occ. eigenvalues --   -0.45356  -0.45058  -0.44685  -0.44566  -0.44333
 Alpha  occ. eigenvalues --   -0.44212  -0.43971  -0.43930  -0.43757  -0.43375
 Alpha  occ. eigenvalues --   -0.43209  -0.43125  -0.42777  -0.41761  -0.41284
 Alpha  occ. eigenvalues --   -0.40783  -0.40657  -0.40254  -0.40169  -0.40127
 Alpha  occ. eigenvalues --   -0.40021  -0.39813  -0.39647  -0.39607  -0.39329
 Alpha  occ. eigenvalues --   -0.39140  -0.39062  -0.38827  -0.38734  -0.38536
 Alpha  occ. eigenvalues --   -0.38226  -0.38104  -0.38017  -0.37570  -0.37334
 Alpha  occ. eigenvalues --   -0.37161  -0.36851  -0.36787  -0.36435  -0.36259
 Alpha  occ. eigenvalues --   -0.36081  -0.35895  -0.35720  -0.35627  -0.35403
 Alpha  occ. eigenvalues --   -0.35160  -0.34834  -0.34747  -0.34174  -0.34063
 Alpha  occ. eigenvalues --   -0.33785  -0.33228  -0.32657  -0.32449  -0.32017
 Alpha  occ. eigenvalues --   -0.31632  -0.31139  -0.31007  -0.30813  -0.30030
 Alpha  occ. eigenvalues --   -0.29289  -0.29022  -0.28288  -0.28157  -0.27666
 Alpha  occ. eigenvalues --   -0.26589  -0.25967  -0.25564  -0.25344  -0.24442
 Alpha  occ. eigenvalues --   -0.22709  -0.21856  -0.20833
 Alpha virt. eigenvalues --   -0.08799  -0.05510  -0.04356  -0.01035   0.01296
 Alpha virt. eigenvalues --    0.02226   0.04273   0.05723   0.06405   0.06864
 Alpha virt. eigenvalues --    0.07724   0.08027   0.08777   0.08917   0.09673
 Alpha virt. eigenvalues --    0.10796   0.11094   0.11230   0.11282   0.11852
 Alpha virt. eigenvalues --    0.12301   0.12589   0.12877   0.13005   0.13237
 Alpha virt. eigenvalues --    0.13354   0.13643   0.13891   0.13972   0.14368
 Alpha virt. eigenvalues --    0.14686   0.14825   0.15148   0.15338   0.15407
 Alpha virt. eigenvalues --    0.15660   0.15852   0.16067   0.16410   0.16445
 Alpha virt. eigenvalues --    0.16710   0.16812   0.17094   0.17323   0.17530
 Alpha virt. eigenvalues --    0.17644   0.17929   0.18069   0.18595   0.18643
 Alpha virt. eigenvalues --    0.18880   0.18972   0.19239   0.19279   0.19539
 Alpha virt. eigenvalues --    0.19635   0.19870   0.20047   0.20243   0.20344
 Alpha virt. eigenvalues --    0.20461   0.20641   0.21073   0.21268   0.21393
 Alpha virt. eigenvalues --    0.21683   0.21910   0.22172   0.22335   0.22443
 Alpha virt. eigenvalues --    0.22635   0.22831   0.22959   0.23093   0.23550
 Alpha virt. eigenvalues --    0.23597   0.23914   0.24015   0.24346   0.24565
 Alpha virt. eigenvalues --    0.24605   0.24717   0.25007   0.25549   0.25662
 Alpha virt. eigenvalues --    0.26032   0.26184   0.26437   0.26729   0.26827
 Alpha virt. eigenvalues --    0.27288   0.27500   0.27710   0.27948   0.28652
 Alpha virt. eigenvalues --    0.29303   0.29435   0.29688   0.30153   0.30749
 Alpha virt. eigenvalues --    0.31155   0.31719   0.32470   0.33334   0.33561
 Alpha virt. eigenvalues --    0.34450   0.34602   0.35299   0.35489   0.35845
 Alpha virt. eigenvalues --    0.35949   0.36438   0.36876   0.37559   0.38174
 Alpha virt. eigenvalues --    0.38719   0.39910   0.40256   0.40737   0.41182
 Alpha virt. eigenvalues --    0.43090   0.43803   0.45177   0.46381   0.46801
 Alpha virt. eigenvalues --    0.47122   0.47595   0.48098   0.48459   0.49318
 Alpha virt. eigenvalues --    0.49914   0.50329   0.50416   0.50749   0.50966
 Alpha virt. eigenvalues --    0.51196   0.51715   0.51938   0.52171   0.52469
 Alpha virt. eigenvalues --    0.52546   0.53123   0.53492   0.53935   0.54719
 Alpha virt. eigenvalues --    0.55283   0.55495   0.55655   0.56341   0.56572
 Alpha virt. eigenvalues --    0.56728   0.57186   0.57462   0.57735   0.58220
 Alpha virt. eigenvalues --    0.58580   0.58706   0.59064   0.59274   0.59343
 Alpha virt. eigenvalues --    0.59527   0.59817   0.60079   0.60792   0.60936
 Alpha virt. eigenvalues --    0.61083   0.61443   0.61931   0.62036   0.62187
 Alpha virt. eigenvalues --    0.62527   0.62810   0.63239   0.63328   0.63800
 Alpha virt. eigenvalues --    0.64092   0.64768   0.64934   0.65142   0.65487
 Alpha virt. eigenvalues --    0.65688   0.66091   0.66385   0.66797   0.67414
 Alpha virt. eigenvalues --    0.67602   0.67800   0.68083   0.68713   0.69296
 Alpha virt. eigenvalues --    0.69383   0.69800   0.70059   0.70339   0.71054
 Alpha virt. eigenvalues --    0.71212   0.71579   0.71814   0.72068   0.72377
 Alpha virt. eigenvalues --    0.73008   0.73262   0.73528   0.73916   0.74114
 Alpha virt. eigenvalues --    0.74607   0.74645   0.75143   0.75467   0.76056
 Alpha virt. eigenvalues --    0.76285   0.76692   0.76848   0.77277   0.77822
 Alpha virt. eigenvalues --    0.78538   0.78653   0.79139   0.79248   0.79740
 Alpha virt. eigenvalues --    0.80723   0.80849   0.81528   0.81757   0.82657
 Alpha virt. eigenvalues --    0.83064   0.83196   0.83421   0.83583   0.83629
 Alpha virt. eigenvalues --    0.84183   0.84531   0.84895   0.85117   0.85519
 Alpha virt. eigenvalues --    0.85708   0.85789   0.85893   0.86204   0.86333
 Alpha virt. eigenvalues --    0.86632   0.86929   0.87299   0.87530   0.87829
 Alpha virt. eigenvalues --    0.88049   0.88240   0.88368   0.88574   0.89169
 Alpha virt. eigenvalues --    0.89202   0.89743   0.89962   0.90116   0.90381
 Alpha virt. eigenvalues --    0.90614   0.90850   0.91166   0.91324   0.91678
 Alpha virt. eigenvalues --    0.92145   0.92219   0.92511   0.92896   0.93220
 Alpha virt. eigenvalues --    0.93428   0.93698   0.94077   0.94368   0.95048
 Alpha virt. eigenvalues --    0.95143   0.95176   0.95707   0.96205   0.96385
 Alpha virt. eigenvalues --    0.96718   0.97369   0.97509   0.98063   0.98201
 Alpha virt. eigenvalues --    0.98471   0.98712   0.99397   0.99696   1.00476
 Alpha virt. eigenvalues --    1.00780   1.01225   1.01631   1.02464   1.02771
 Alpha virt. eigenvalues --    1.03106   1.03493   1.04227   1.04413   1.04868
 Alpha virt. eigenvalues --    1.05396   1.06452   1.06924   1.07829   1.08079
 Alpha virt. eigenvalues --    1.08539   1.09345   1.09610   1.10224   1.10609
 Alpha virt. eigenvalues --    1.11219   1.11443   1.12337   1.12423   1.13056
 Alpha virt. eigenvalues --    1.13624   1.13735   1.14677   1.15019   1.15915
 Alpha virt. eigenvalues --    1.16127   1.16970   1.17423   1.18265   1.18535
 Alpha virt. eigenvalues --    1.18900   1.19236   1.19549   1.19822   1.20453
 Alpha virt. eigenvalues --    1.20708   1.21173   1.21599   1.22199   1.22726
 Alpha virt. eigenvalues --    1.23135   1.23427   1.24414   1.24635   1.25244
 Alpha virt. eigenvalues --    1.26041   1.26341   1.26642   1.27481   1.28029
 Alpha virt. eigenvalues --    1.29090   1.29279   1.29769   1.30060   1.30784
 Alpha virt. eigenvalues --    1.31329   1.32379   1.33206   1.33791   1.33932
 Alpha virt. eigenvalues --    1.34590   1.34693   1.34906   1.35356   1.35728
 Alpha virt. eigenvalues --    1.36058   1.36491   1.36919   1.37134   1.37433
 Alpha virt. eigenvalues --    1.37550   1.38247   1.38822   1.39077   1.39308
 Alpha virt. eigenvalues --    1.39810   1.40313   1.40947   1.41147   1.41878
 Alpha virt. eigenvalues --    1.42206   1.42591   1.43097   1.43364   1.44086
 Alpha virt. eigenvalues --    1.44475   1.45003   1.45055   1.45914   1.46203
 Alpha virt. eigenvalues --    1.46867   1.47384   1.47514   1.48487   1.49105
 Alpha virt. eigenvalues --    1.49347   1.50130   1.50299   1.50823   1.51754
 Alpha virt. eigenvalues --    1.53328   1.53727   1.53978   1.55773   1.56203
 Alpha virt. eigenvalues --    1.56582   1.58262   1.58690   1.59774   1.60847
 Alpha virt. eigenvalues --    1.62229   1.62863   1.63028   1.63758   1.64052
 Alpha virt. eigenvalues --    1.64389   1.64597   1.65054   1.66319   1.66450
 Alpha virt. eigenvalues --    1.67416   1.67688   1.68139   1.68511   1.68842
 Alpha virt. eigenvalues --    1.69083   1.69864   1.70180   1.70595   1.71630
 Alpha virt. eigenvalues --    1.71980   1.72420   1.73467   1.74159   1.74706
 Alpha virt. eigenvalues --    1.75270   1.75489   1.76108   1.76638   1.76928
 Alpha virt. eigenvalues --    1.77801   1.78041   1.78189   1.78845   1.79135
 Alpha virt. eigenvalues --    1.79600   1.79959   1.80701   1.81154   1.81207
 Alpha virt. eigenvalues --    1.81885   1.82475   1.82721   1.83246   1.83867
 Alpha virt. eigenvalues --    1.83940   1.84161   1.84792   1.84869   1.85425
 Alpha virt. eigenvalues --    1.86091   1.86221   1.86540   1.87121   1.87349
 Alpha virt. eigenvalues --    1.87712   1.88115   1.88994   1.89265   1.89908
 Alpha virt. eigenvalues --    1.90281   1.90751   1.91266   1.91619   1.91677
 Alpha virt. eigenvalues --    1.92138   1.92420   1.92609   1.92768   1.93115
 Alpha virt. eigenvalues --    1.93280   1.93811   1.93930   1.94322   1.94667
 Alpha virt. eigenvalues --    1.94762   1.95589   1.95976   1.96411   1.96725
 Alpha virt. eigenvalues --    1.97185   1.97582   1.98152   1.98738   1.99149
 Alpha virt. eigenvalues --    1.99638   2.00515   2.01046   2.01777   2.01971
 Alpha virt. eigenvalues --    2.02302   2.02667   2.02794   2.02919   2.03423
 Alpha virt. eigenvalues --    2.03976   2.04192   2.04563   2.04851   2.05601
 Alpha virt. eigenvalues --    2.05681   2.06167   2.06535   2.06857   2.07413
 Alpha virt. eigenvalues --    2.07469   2.07837   2.08136   2.08389   2.08694
 Alpha virt. eigenvalues --    2.09157   2.09390   2.09553   2.09711   2.10130
 Alpha virt. eigenvalues --    2.10966   2.11364   2.11925   2.12073   2.12437
 Alpha virt. eigenvalues --    2.12784   2.13011   2.13544   2.14146   2.14235
 Alpha virt. eigenvalues --    2.14715   2.15004   2.15509   2.15856   2.16283
 Alpha virt. eigenvalues --    2.16395   2.16732   2.17159   2.18061   2.18308
 Alpha virt. eigenvalues --    2.18404   2.18508   2.19265   2.19399   2.20001
 Alpha virt. eigenvalues --    2.20305   2.20757   2.21231   2.21692   2.22381
 Alpha virt. eigenvalues --    2.22590   2.23119   2.23460   2.23710   2.24120
 Alpha virt. eigenvalues --    2.24309   2.24937   2.25351   2.25518   2.25814
 Alpha virt. eigenvalues --    2.26143   2.26625   2.27041   2.27298   2.27385
 Alpha virt. eigenvalues --    2.27813   2.28008   2.28571   2.28776   2.29304
 Alpha virt. eigenvalues --    2.30747   2.31547   2.32117   2.32568   2.32644
 Alpha virt. eigenvalues --    2.33249   2.33405   2.33685   2.34240   2.35087
 Alpha virt. eigenvalues --    2.35924   2.36739   2.37812   2.38880   2.39443
 Alpha virt. eigenvalues --    2.40321   2.40889   2.41621   2.43482   2.43828
 Alpha virt. eigenvalues --    2.44857   2.45864   2.45957   2.46623   2.47465
 Alpha virt. eigenvalues --    2.47952   2.48164   2.48505   2.49124   2.49376
 Alpha virt. eigenvalues --    2.50173   2.50192   2.50786   2.51530   2.52436
 Alpha virt. eigenvalues --    2.52750   2.54172   2.57183   2.59338   2.59932
 Alpha virt. eigenvalues --    2.60508   2.60775   2.61304   2.62633   2.63553
 Alpha virt. eigenvalues --    2.64016   2.65288   2.65735   2.66524   2.66649
 Alpha virt. eigenvalues --    2.66911   2.67943   2.68961   2.71297   2.74396
 Alpha virt. eigenvalues --    2.75287   2.76232   2.76837   2.77217   2.77559
 Alpha virt. eigenvalues --    2.78027   2.78341   2.78842   2.79074   2.80109
 Alpha virt. eigenvalues --    2.80425   2.80777   2.80854   2.81451   2.82036
 Alpha virt. eigenvalues --    2.82504   2.83509   2.84557   2.86060   2.87182
 Alpha virt. eigenvalues --    2.88158   2.90304   2.90734   2.90946   2.93067
 Alpha virt. eigenvalues --    2.94163   2.94749   2.95194   2.96968   2.97425
 Alpha virt. eigenvalues --    2.99118   3.02798   3.04260   3.04793   3.05512
 Alpha virt. eigenvalues --    3.05550   3.05719   3.06794   3.07963   3.08735
 Alpha virt. eigenvalues --    3.10444   3.11057   3.12463   3.13957   3.14104
 Alpha virt. eigenvalues --    3.16753   3.21120   3.26282   3.32486   3.44832
 Alpha virt. eigenvalues --   12.67248
          Condensed to atoms (all electrons):
 Mulliken charges:
               1
     1  C    0.354384
     2  C    0.016114
     3  C   -0.058841
     4  C   -0.159566
     5  C   -0.181727
     6  C    0.344713
     7  C    0.086653
     8  C   -0.082321
     9  C   -0.150068
    10  C   -0.187975
    11  H    0.220198
    12  H    0.202982
    13  H    0.180277
    14  H    0.223215
    15  H    0.202270
    16  H    0.182052
    17  N   -0.472315
    18  N   -0.526923
    19  Ir  -0.387733
    20  O   -0.510155
    21  O   -0.537789
    22  O   -0.524516
    23  B    0.705367
    24  B    0.460294
    25  B    0.472903
    26  O   -0.504466
    27  O   -0.532291
    28  C    0.297422
    29  C    0.289797
    30  C    0.302019
    31  C    0.288841
    32  C    0.300831
    33  C    0.305028
    34  O   -0.527701
    35  C   -0.519242
    36  H    0.168849
    37  H    0.151568
    38  H    0.172338
    39  C   -0.485433
    40  H    0.174474
    41  H    0.141181
    42  H    0.157070
    43  C   -0.521155
    44  H    0.190850
    45  H    0.154080
    46  H    0.150131
    47  C   -0.505503
    48  H    0.165671
    49  H    0.150596
    50  H    0.167326
    51  C   -0.508520
    52  H    0.154149
    53  H    0.154359
    54  H    0.174421
    55  C   -0.510484
    56  H    0.166808
    57  H    0.150823
    58  H    0.164859
    59  C   -0.505155
    60  H    0.153260
    61  H    0.148912
    62  H    0.169669
    63  C   -0.523731
    64  H    0.133791
    65  H    0.216733
    66  H    0.165608
    67  C   -0.510501
    68  H    0.176359
    69  H    0.169132
    70  H    0.150837
    71  C   -0.502155
    72  H    0.153542
    73  H    0.184663
    74  H    0.151604
    75  C   -0.504716
    76  H    0.155701
    77  H    0.161618
    78  H    0.159144
    79  C   -0.506627
    80  H    0.152046
    81  H    0.176262
    82  H    0.170269
    83  H    0.188218
    84  C    0.599609
    85  O   -0.532522
    86  C   -0.415850
    87  H    0.183391
    88  H    0.162379
    89  C   -0.391947
    90  H    0.196198
    91  H    0.239547
    92  N   -0.371231
    93  C   -0.356692
    94  H    0.171932
    95  H    0.214137
    96  H    0.166162
    97  C   -0.469714
    98  H    0.185375
    99  H    0.158107
   100  C    0.969631
   101  F   -0.309580
   102  F   -0.303107
   103  F   -0.313919
   104  C    0.974186
   105  F   -0.317416
   106  F   -0.307131
   107  F   -0.307299
   108  H    0.141087
 Sum of Mulliken charges =  -0.00000
 Mulliken charges with hydrogens summed into heavy atoms:
               1
     1  C    0.354384
     2  C    0.236311
     3  C   -0.058841
     4  C    0.043415
     5  C   -0.001450
     6  C    0.344713
     7  C    0.309868
     8  C   -0.082321
     9  C    0.052201
    10  C   -0.005922
    17  N   -0.472315
    18  N   -0.526923
    19  Ir  -0.199515
    20  O   -0.510155
    21  O   -0.537789
    22  O   -0.524516
    23  B    0.705367
    24  B    0.460294
    25  B    0.472903
    26  O   -0.504466
    27  O   -0.532291
    28  C    0.297422
    29  C    0.289797
    30  C    0.302019
    31  C    0.288841
    32  C    0.300831
    33  C    0.305028
    34  O   -0.527701
    35  C   -0.026487
    39  C   -0.012708
    43  C   -0.026093
    47  C   -0.021911
    51  C   -0.025591
    55  C   -0.027994
    59  C   -0.033315
    63  C   -0.007600
    67  C   -0.014174
    71  C   -0.012347
    75  C   -0.028252
    79  C   -0.008050
    84  C    0.599609
    85  O   -0.532522
    86  C   -0.070080
    89  C    0.043798
    92  N   -0.371231
    93  C    0.195539
    97  C    0.014855
   100  C    0.969631
   101  F   -0.309580
   102  F   -0.303107
   103  F   -0.313919
   104  C    0.974186
   105  F   -0.317416
   106  F   -0.307131
   107  F   -0.307299
 APT charges:
               1
     1  C    0.291843
     2  C    0.106924
     3  C   -0.251071
     4  C    0.131488
     5  C   -0.192004
     6  C    0.232371
     7  C    0.085325
     8  C   -0.214837
     9  C    0.119806
    10  C   -0.188513
    11  H    0.068300
    12  H    0.071665
    13  H    0.048998
    14  H    0.111512
    15  H    0.066422
    16  H    0.048157
    17  N   -0.255683
    18  N   -0.141977
    19  Ir  -0.697181
    20  O   -0.970188
    21  O   -1.071528
    22  O   -0.960207
    23  B    1.600097
    24  B    1.236021
    25  B    1.228874
    26  O   -0.949417
    27  O   -0.945384
    28  C    0.488697
    29  C    0.479239
    30  C    0.470895
    31  C    0.477988
    32  C    0.536497
    33  C    0.545198
    34  O   -1.046553
    35  C   -0.007906
    36  H   -0.002220
    37  H   -0.019004
    38  H    0.003734
    39  C   -0.024494
    40  H    0.007677
    41  H   -0.029265
    42  H    0.004622
    43  C   -0.029234
    44  H    0.031504
    45  H   -0.018233
    46  H   -0.021688
    47  C   -0.006168
    48  H   -0.006881
    49  H   -0.016055
    50  H    0.000788
    51  C   -0.064046
    52  H   -0.028075
    53  H   -0.003312
    54  H    0.007191
    55  C   -0.007733
    56  H    0.007727
    57  H   -0.022956
    58  H    0.001308
    59  C   -0.012039
    60  H   -0.007671
    61  H   -0.019797
    62  H    0.000701
    63  C   -0.061555
    64  H   -0.031216
    65  H    0.072722
    66  H   -0.002292
    67  C   -0.008275
    68  H    0.005869
    69  H    0.004767
    70  H   -0.015861
    71  C   -0.020897
    72  H   -0.018598
    73  H    0.010015
    74  H   -0.017188
    75  C   -0.010325
    76  H   -0.011186
    77  H   -0.003297
    78  H   -0.010114
    79  C   -0.014604
    80  H   -0.021180
    81  H   -0.004114
    82  H   -0.003361
    83  H   -0.014167
    84  C    0.867768
    85  O   -0.714504
    86  C    0.004591
    87  H   -0.019905
    88  H   -0.023295
    89  C   -0.040154
    90  H   -0.057903
    91  H    0.078092
    92  N   -0.696873
    93  C    0.267382
    94  H   -0.008553
    95  H    0.013133
    96  H    0.000417
    97  C    0.073479
    98  H    0.014234
    99  H   -0.025616
   100  C    1.792391
   101  F   -0.553539
   102  F   -0.571844
   103  F   -0.574017
   104  C    1.783200
   105  F   -0.586698
   106  F   -0.564277
   107  F   -0.541425
   108  H   -0.021476
 Sum of APT charges =  -0.00000
 APT charges with hydrogens summed into heavy atoms:
               1
     1  C    0.291843
     2  C    0.175225
     3  C   -0.251071
     4  C    0.203153
     5  C   -0.143006
     6  C    0.232371
     7  C    0.196836
     8  C   -0.214837
     9  C    0.186228
    10  C   -0.140355
    17  N   -0.255683
    18  N   -0.141977
    19  Ir  -0.711348
    20  O   -0.970188
    21  O   -1.071528
    22  O   -0.960207
    23  B    1.600097
    24  B    1.236021
    25  B    1.228874
    26  O   -0.949417
    27  O   -0.945384
    28  C    0.488697
    29  C    0.479239
    30  C    0.470895
    31  C    0.477988
    32  C    0.536497
    33  C    0.545198
    34  O   -1.046553
    35  C   -0.025396
    39  C   -0.041460
    43  C   -0.037651
    47  C   -0.028315
    51  C   -0.088242
    55  C   -0.021654
    59  C   -0.038806
    63  C   -0.022342
    67  C   -0.013500
    71  C   -0.046667
    75  C   -0.034922
    79  C   -0.043260
    84  C    0.867768
    85  O   -0.714504
    86  C   -0.038609
    89  C   -0.019964
    92  N   -0.696873
    93  C    0.272379
    97  C    0.040620
   100  C    1.792391
   101  F   -0.553539
   102  F   -0.571844
   103  F   -0.574017
   104  C    1.783200
   105  F   -0.586698
   106  F   -0.564277
   107  F   -0.541425
 Electronic spatial extent (au):  <R**2>=          32028.9922
 Charge=              0.0000 electrons
 Dipole moment (field-independent basis, Debye):
    X=              3.2682    Y=              1.2133    Z=              2.9710  Tot=              4.5804
 Quadrupole moment (field-independent basis, Debye-Ang):
   XX=           -324.5566   YY=           -326.1520   ZZ=           -327.7120
   XY=              3.5717   XZ=             15.3998   YZ=              8.1366
 Traceless Quadrupole moment (field-independent basis, Debye-Ang):
   XX=              1.5836   YY=             -0.0118   ZZ=             -1.5718
   XY=              3.5717   XZ=             15.3998   YZ=              8.1366
 Octapole moment (field-independent basis, Debye-Ang**2):
  XXX=             15.7181  YYY=             -9.6753  ZZZ=             93.0592  XYY=             18.4034
  XXY=              1.1515  XXZ=             14.7958  XZZ=             70.5641  YZZ=              3.4664
  YYZ=            -55.1625  XYZ=              9.5048
 Hexadecapole moment (field-independent basis, Debye-Ang**3):
 XXXX=         -18445.8414 YYYY=         -11670.0293 ZZZZ=          -9607.6871 XXXY=            -19.7410
 XXXZ=             20.2505 YYYX=             14.0970 YYYZ=             42.9307 ZZZX=           -134.3517
 ZZZY=             23.7063 XXYY=          -4901.2695 XXZZ=          -4716.2201 YYZZ=          -3714.6244
 XXYZ=             72.6269 YYXZ=           -167.1272 ZZXY=             76.2018
 N-N= 9.729784488450D+03 E-N=-2.606603520310D+04  KE= 2.745644340923D+03
  Exact polarizability:     551.152      10.333     433.545      16.782      11.939     474.123
 Approx polarizability:     778.051      26.550     592.045       5.449      27.418     753.282
   1 Symmetry operations used in ECPInt.
 ECPInt:  NShTT=   54615 NPrTT=  339395 LenC2=   41055 LenP2D=  127314.
 LDataN:  DoStor=T MaxTD1= 8 Len=  415
 Calling FoFJK, ICntrl=    100127 FMM=F ISym2X=0 I1Cent= 0 IOpClX= 0 NMat=1 NMatS=1 NMatT=0.
 Defaulting to unpruned grid for atomic number  77.
 Defaulting to unpruned grid for atomic number  77.
 Defaulting to unpruned grid for atomic number  77.
 Defaulting to unpruned grid for atomic number  77.
 Defaulting to unpruned grid for atomic number  77.
 Defaulting to unpruned grid for atomic number  77.
 Defaulting to unpruned grid for atomic number  77.
 Defaulting to unpruned grid for atomic number  77.
 Defaulting to unpruned grid for atomic number  77.
 Defaulting to unpruned grid for atomic number  77.
 Defaulting to unpruned grid for atomic number  77.
 Defaulting to unpruned grid for atomic number  77.
 Defaulting to unpruned grid for atomic number  77.
 Defaulting to unpruned grid for atomic number  77.
 Defaulting to unpruned grid for atomic number  77.
 Defaulting to unpruned grid for atomic number  77.
 Full mass-weighted force constant matrix:
 Low frequencies ---  -76.3994   -6.5617    0.0005    0.0008    0.0009    3.5094
 Low frequencies ---    5.8066   22.7527   27.9038
 ******    1 imaginary frequencies (negative Signs) ****** 
 Diagonal vibrational polarizability:
       93.9340239     126.6460307      52.4778387
 Harmonic frequencies (cm**-1), IR intensities (KM/Mole), Raman scattering
 activities (A**4/AMU), depolarization ratios for plane and unpolarized
 incident light, reduced masses (AMU), force constants (mDyne/A),
 and normal coordinates:
                      1                      2                      3
                      A                      A                      A
 Frequencies --    -76.3924                22.7033                27.8945
 Red. masses --      7.1993                 5.5945                 6.7404
 Frc consts  --      0.0248                 0.0017                 0.0031
 IR Inten    --      1.8143                 0.2146                 0.0849
  Atom AN      X      Y      Z        X      Y      Z        X      Y      Z
     1   6     0.03  -0.02   0.01     0.01   0.02  -0.02     0.01  -0.03  -0.03
     2   6     0.03  -0.05   0.02    -0.01   0.00  -0.03    -0.02  -0.02  -0.04
     3   6     0.02   0.00   0.00    -0.00   0.00  -0.04    -0.01  -0.04  -0.06
     4   6     0.02   0.03  -0.00     0.01   0.01  -0.04     0.02  -0.06  -0.06
     5   6     0.02   0.03   0.00     0.01   0.03  -0.03     0.03  -0.05  -0.04
     6   6     0.03  -0.01   0.01     0.01   0.01  -0.01     0.02   0.00  -0.01
     7   6     0.02   0.03   0.01     0.01  -0.02   0.00     0.02   0.02   0.01
     8   6     0.02   0.00   0.01     0.02  -0.04   0.00     0.03   0.07   0.01
     9   6     0.02  -0.02   0.01     0.03  -0.03  -0.00     0.04   0.08  -0.00
    10   6     0.02  -0.03   0.01     0.02  -0.00  -0.01     0.03   0.04  -0.01
    11   1     0.03  -0.08   0.02    -0.02  -0.00  -0.02    -0.04  -0.01  -0.04
    12   1     0.01   0.07  -0.01     0.01   0.02  -0.05     0.03  -0.08  -0.07
    13   1     0.01   0.06  -0.01     0.02   0.03  -0.04     0.05  -0.07  -0.04
    14   1     0.03   0.06   0.00     0.01  -0.02   0.01     0.01   0.01   0.02
    15   1     0.02  -0.04   0.01     0.04  -0.05  -0.00     0.05   0.12  -0.00
    16   1     0.02  -0.06   0.01     0.03   0.00  -0.02     0.04   0.05  -0.02
    17   7     0.03  -0.07   0.02    -0.00   0.01  -0.02    -0.01  -0.02  -0.03
    18   7     0.03   0.03   0.01     0.01   0.01  -0.00     0.01  -0.01  -0.00
    19  77     0.01   0.09   0.02    -0.01   0.00  -0.01    -0.01  -0.01  -0.00
    20   8    -0.04  -0.02   0.01    -0.00   0.03   0.02     0.00  -0.02  -0.02
    21   8     0.06  -0.13   0.01    -0.01   0.04  -0.05     0.00  -0.02  -0.05
    22   8     0.02  -0.01  -0.02     0.02   0.00  -0.04    -0.03  -0.02   0.07
    23   5     0.08  -0.35   0.05    -0.00   0.05  -0.02     0.01  -0.00  -0.02
    24   5    -0.03  -0.02   0.01    -0.00   0.01   0.01    -0.01  -0.02  -0.01
    25   5     0.02   0.00  -0.03    -0.00   0.00  -0.02    -0.02   0.00   0.05
    26   8     0.00   0.01  -0.01    -0.02   0.00  -0.02    -0.01   0.04   0.07
    27   8    -0.03  -0.00   0.00    -0.00  -0.01   0.02    -0.03  -0.02  -0.02
    28   6    -0.03  -0.01   0.01    -0.00  -0.01   0.03    -0.03  -0.03  -0.03
    29   6    -0.03  -0.01   0.01    -0.01   0.02   0.04    -0.01  -0.03  -0.03
    30   6     0.01  -0.00  -0.01     0.01   0.00  -0.05    -0.03  -0.00   0.12
    31   6     0.01   0.01  -0.01    -0.01  -0.00  -0.04    -0.02   0.05   0.12
    32   6     0.00  -0.04  -0.03     0.01   0.04  -0.07     0.03  -0.02  -0.06
    33   6     0.02  -0.06  -0.02     0.05   0.03  -0.04     0.05  -0.02  -0.04
    34   8     0.04  -0.22   0.01     0.04   0.02  -0.00     0.04  -0.01  -0.02
    35   6    -0.03   0.00   0.00    -0.01   0.04   0.03     0.00  -0.04  -0.05
    36   1    -0.05   0.01   0.01    -0.01   0.03   0.02     0.00  -0.04  -0.05
    37   1    -0.02   0.02  -0.01    -0.01   0.03   0.04    -0.01  -0.05  -0.06
    38   1    -0.02  -0.01   0.00    -0.00   0.05   0.03     0.01  -0.04  -0.04
    39   6    -0.02  -0.02   0.01    -0.01   0.03   0.06    -0.02  -0.03  -0.02
    40   1    -0.02  -0.02   0.01    -0.02   0.06   0.06     0.00  -0.03  -0.02
    41   1    -0.01  -0.01   0.00    -0.01   0.03   0.08    -0.03  -0.03  -0.04
    42   1    -0.02  -0.02   0.01    -0.01   0.02   0.06    -0.03  -0.01  -0.01
    43   6    -0.02  -0.01   0.01    -0.00  -0.02   0.01    -0.02  -0.04  -0.04
    44   1    -0.01  -0.01   0.02    -0.01  -0.01  -0.01    -0.01  -0.04  -0.04
    45   1    -0.03  -0.00   0.01     0.00  -0.04   0.01    -0.03  -0.03  -0.04
    46   1    -0.03  -0.03   0.00    -0.00  -0.01   0.03    -0.02  -0.05  -0.05
    47   6    -0.04  -0.00   0.00    -0.01  -0.02   0.06    -0.05  -0.03  -0.04
    48   1    -0.04  -0.00   0.00    -0.01  -0.02   0.08    -0.05  -0.02  -0.03
    49   1    -0.04  -0.01   0.00    -0.01  -0.02   0.07    -0.05  -0.04  -0.06
    50   1    -0.03  -0.00   0.00    -0.01  -0.04   0.06    -0.07  -0.02  -0.04
    51   6    -0.08  -0.05  -0.07    -0.01   0.04  -0.07     0.03  -0.03  -0.06
    52   1    -0.11  -0.00  -0.09     0.01   0.04  -0.08     0.04  -0.03  -0.07
    53   1    -0.11  -0.10  -0.08    -0.01   0.04  -0.04     0.03  -0.02  -0.05
    54   1    -0.09  -0.06  -0.07    -0.03   0.04  -0.08     0.01  -0.03  -0.07
    55   6     0.04   0.05  -0.02     0.02   0.04  -0.11     0.02  -0.03  -0.08
    56   1     0.11   0.06   0.00     0.03   0.05  -0.10     0.02  -0.03  -0.08
    57   1     0.01   0.11  -0.04     0.04   0.05  -0.14     0.04  -0.03  -0.10
    58   1     0.03   0.06  -0.03    -0.02   0.04  -0.13     0.01  -0.04  -0.09
    59   6    -0.08  -0.03  -0.06     0.07   0.03  -0.05     0.07  -0.02  -0.05
    60   1    -0.14  -0.08  -0.10     0.05   0.03  -0.04     0.07  -0.01  -0.04
    61   1    -0.10   0.06  -0.07     0.08   0.04  -0.07     0.08  -0.02  -0.07
    62   1    -0.07  -0.04  -0.06     0.09   0.03  -0.03     0.09  -0.01  -0.03
    63   6     0.14   0.01   0.03     0.09   0.04  -0.05     0.05  -0.02  -0.05
    64   1     0.13   0.10   0.00     0.10   0.04  -0.09     0.06  -0.03  -0.07
    65   1     0.19  -0.02   0.07     0.07   0.04  -0.04     0.03  -0.02  -0.05
    66   1     0.16  -0.02   0.05     0.12   0.04  -0.02     0.07  -0.01  -0.03
    67   6     0.01   0.01  -0.00    -0.02  -0.00  -0.04    -0.03   0.07   0.16
    68   1     0.01   0.01  -0.00    -0.03  -0.01  -0.03    -0.03   0.10   0.16
    69   1     0.01   0.00  -0.00    -0.01   0.00  -0.03    -0.04   0.04   0.17
    70   1     0.01   0.01   0.00    -0.01  -0.01  -0.05    -0.04   0.07   0.20
    71   6     0.01   0.01  -0.01    -0.03  -0.01  -0.06    -0.01   0.10   0.10
    72   1     0.01   0.00  -0.01    -0.02  -0.01  -0.06    -0.01   0.08   0.07
    73   1     0.01   0.01  -0.01    -0.05  -0.02  -0.05    -0.00   0.13   0.09
    74   1     0.01   0.01  -0.01    -0.03  -0.02  -0.08    -0.02   0.11   0.14
    75   6     0.01   0.01  -0.01     0.02  -0.00  -0.08    -0.03  -0.01   0.14
    76   1    -0.00   0.01  -0.01     0.02  -0.01  -0.09    -0.03   0.00   0.17
    77   1     0.01   0.01  -0.01     0.04   0.00  -0.08    -0.04  -0.03   0.14
    78   1     0.01   0.01  -0.01     0.01  -0.01  -0.08    -0.03   0.00   0.13
    79   6     0.00  -0.02  -0.00     0.03   0.01  -0.04    -0.04  -0.04   0.15
    80   1    -0.01  -0.01   0.01     0.03   0.01  -0.05    -0.04  -0.03   0.19
    81   1     0.00  -0.02  -0.00     0.03   0.01  -0.01    -0.04  -0.03   0.13
    82   1     0.00  -0.02  -0.00     0.05   0.01  -0.04    -0.05  -0.08   0.15
    83   1    -0.10   0.06  -0.00    -0.00   0.00  -0.00    -0.00   0.01  -0.00
    84   6    -0.09  -0.03  -0.03    -0.05   0.03   0.14    -0.01  -0.01   0.04
    85   8    -0.13  -0.06  -0.03    -0.09   0.07   0.13    -0.03  -0.00   0.03
    86   6    -0.06   0.02  -0.00    -0.04   0.01   0.20    -0.01  -0.02   0.06
    87   1    -0.02   0.03  -0.03    -0.03   0.01   0.22    -0.01  -0.02   0.07
    88   1    -0.05   0.05   0.02    -0.01  -0.01   0.20     0.01  -0.02   0.07
    89   6    -0.12  -0.15  -0.06    -0.03   0.03   0.05     0.00  -0.00   0.00
    90   1    -0.03  -0.29   0.29    -0.04   0.05  -0.02     0.00   0.00  -0.02
    91   1    -0.01   0.15  -0.12    -0.09   0.01   0.05    -0.02  -0.01   0.00
    92   7    -0.07  -0.04  -0.06    -0.02   0.01   0.11     0.01  -0.01   0.02
    93   6    -0.02  -0.07  -0.05     0.02  -0.03   0.13     0.02  -0.02   0.03
    94   1     0.01  -0.11  -0.05     0.03  -0.04   0.12     0.03  -0.05   0.04
    95   1    -0.02  -0.09  -0.07     0.03  -0.04   0.10    -0.00  -0.03   0.02
    96   1     0.00  -0.04  -0.00     0.02  -0.03   0.16     0.03  -0.00   0.04
    97   6    -0.09   0.02   0.02    -0.08   0.04   0.23    -0.02  -0.02   0.08
    98   1    -0.10  -0.01   0.00    -0.11   0.06   0.24    -0.04  -0.01   0.08
    99   1    -0.08   0.04   0.03    -0.07   0.03   0.27    -0.02  -0.02   0.10
   100   6     0.01   0.01  -0.00    -0.01  -0.02  -0.05    -0.03  -0.02  -0.08
   101   9     0.02   0.01   0.00    -0.02  -0.04  -0.02    -0.09   0.02  -0.17
   102   9     0.01   0.01  -0.00    -0.02  -0.04  -0.07    -0.00   0.05  -0.00
   103   9     0.02   0.01  -0.01    -0.01  -0.00  -0.06    -0.01  -0.12  -0.09
   104   6     0.02   0.00   0.00     0.03  -0.09   0.01     0.04   0.11   0.02
   105   9     0.01  -0.00   0.00     0.04  -0.09   0.01     0.06   0.19   0.03
   106   9     0.02   0.00   0.00    -0.01  -0.10   0.02     0.04   0.09  -0.04
   107   9     0.02   0.00  -0.00     0.05  -0.11   0.01     0.03   0.08   0.09
   108   1    -0.11   0.01   0.05    -0.08   0.05   0.21    -0.03  -0.02   0.08
                      4                      5                      6
                      A                      A                      A
 Frequencies --     34.5412                36.9547                43.0989
 Red. masses --      5.9568                 7.3612                 9.9957
 Frc consts  --      0.0042                 0.0059                 0.0109
 IR Inten    --      0.4540                 0.0911                 0.0027
  Atom AN      X      Y      Z        X      Y      Z        X      Y      Z
     1   6     0.01  -0.02  -0.03     0.00  -0.05  -0.01     0.00  -0.03  -0.01
     2   6     0.01   0.02  -0.03     0.00   0.01  -0.02     0.01   0.01  -0.01
     3   6     0.01  -0.00  -0.02    -0.00   0.01  -0.01     0.01   0.02  -0.00
     4   6     0.01  -0.03  -0.02     0.00  -0.03  -0.00    -0.00   0.01   0.00
     5   6     0.01  -0.04  -0.02     0.00  -0.06  -0.00    -0.01  -0.02  -0.00
     6   6     0.01  -0.04  -0.03     0.00  -0.06  -0.01     0.00  -0.05  -0.02
     7   6     0.01   0.02  -0.04     0.00   0.01  -0.02     0.00  -0.02  -0.02
     8   6     0.01  -0.06  -0.04    -0.00  -0.02  -0.02    -0.00  -0.02  -0.02
     9   6     0.00  -0.14  -0.03    -0.00  -0.08  -0.02    -0.00  -0.04  -0.02
    10   6     0.01  -0.12  -0.03    -0.00  -0.10  -0.01    -0.00  -0.07  -0.02
    11   1     0.01   0.04  -0.04     0.00   0.03  -0.02     0.02   0.02  -0.02
    12   1     0.01  -0.04  -0.01    -0.00  -0.03  -0.00    -0.01   0.02   0.01
    13   1     0.01  -0.06  -0.01     0.00  -0.09   0.00    -0.01  -0.03  -0.00
    14   1     0.01   0.08  -0.04     0.00   0.06  -0.02     0.00  -0.02  -0.03
    15   1     0.00  -0.21  -0.03    -0.01  -0.11  -0.01    -0.01  -0.05  -0.02
    16   1     0.01  -0.18  -0.03    -0.00  -0.15  -0.01    -0.01  -0.09  -0.01
    17   7     0.01   0.01  -0.03     0.00  -0.02  -0.02     0.01  -0.02  -0.02
    18   7     0.01   0.02  -0.03     0.00  -0.01  -0.01     0.00  -0.04  -0.02
[...]
 003226,-0.00000675,-0.00000404,0.00000635,-0.00000772,0.00000351,0.000
 00244,0.00000294,0.00024771,-0.00008207,-0.00021599,-0.00006242,0.0000
 8572,0.00010638,-0.00005877,-0.00001117,0.00008204,-0.00007890,0.00000
 594,0.00002220,-0.10609591,-0.18835535,-0.04169403,-0.01171263,0.00000
 590,-0.03052798,-0.01769890,-0.08711460,-0.01014820,0.15423585,0.28064
 954,-0.00003818,-0.00011880,0.00013113,-0.00000578,0.00000300,0.000021
 99,0.00002319,0.00000054,-0.00003617,-0.00001958,0.00001743,0.00004160
 ,0.00008839,0.00002068,-0.00005105,0.00063724,-0.00005961,0.00060038,-
 0.00067106,0.00042589,-0.00276285,0.00467456,0.00186819,0.01180535,-0.
 00001642,0.00065363,-0.00166858,0.00092699,-0.00011959,0.00004596,-0.0
 0000776,-0.00000438,-0.00000051,0.00000547,-0.00000219,-0.00000166,-0.
 00000428,-0.00000697,0.00000399,0.00120695,0.00012842,-0.00009049,0.00
 061607,-0.00013029,0.00022607,0.00009403,-0.00007065,-0.00006592,0.000
 01964,-0.00002654,0.00002784,-0.00064554,0.00073602,0.00119760,0.00002
 655,0.00013601,-0.00006012,-0.00000003,0.00005994,-0.00007639,0.000230
 62,-0.00001073,-0.00027371,0.00010554,0.00017907,0.00004091,-0.0003766
 6,-0.00011521,0.00012001,-0.00014018,-0.00001843,0.00019794,-0.0001504
 9,-0.00028019,0.00002443,0.00008310,0.00014736,-0.00004315,0.00016628,
 0.00014645,-0.00010473,-0.00018675,-0.00024077,0.00000595,0.00003498,0
 .00000484,0.00005821,-0.00000315,-0.00009146,0.00000998,-0.00006802,-0
 .00005926,-0.00000013,0.00006437,0.00007803,0.00008694,-0.00001938,-0.
 00000475,0.00005463,0.00007661,-0.00002386,-0.00013196,0.00000229,-0.0
 0001581,-0.00001437,0.00001489,0.00001815,0.00002048,-0.00000481,0.000
 00245,0.00000764,0.00000776,0.00000620,-0.00001762,0.00001190,-0.00001
 025,-0.00004283,0.00000773,0.00001241,-0.00001291,-0.00001048,0.000012
 63,0.00000002,0.00000513,-0.00000088,0.00000735,0.00009071,0.00013833,
 0.00011616,0.00001804,0.00000826,0.00017022,-0.00005907,-0.00046394,-0
 .00026642,-0.00002574,0.00005991,-0.00006314,0.00006162,0.00004464,-0.
 00006290,0.00001980,0.00004840,-0.00000289,-0.00000662,-0.00000104,0.0
 0000773,-0.00002501,-0.00004744,0.00000619,-0.00003981,-0.00000272,0.0
 0006543,-0.00000426,-0.00000714,-0.00003234,0.00001339,-0.00000223,-0.
 00000261,0.00003626,0.00003822,-0.00001451,-0.00004393,-0.00001373,0.0
 0004199,0.00000195,-0.00000039,0.00000859,0.00000275,-0.00001446,-0.00
 003238,0.00004895,0.00002410,-0.00000684,0.00001628,0.00000649,-0.0000
 1745,-0.00000564,0.00000221,0.00000824,-0.00000514,0.00000006,0.000005
 83,0.00000956,-0.00000026,-0.00001680,0.00001384,-0.00000041,-0.000014
 18,-0.00000683,0.00000007,0.00000384,-0.00000388,-0.00000474,0.0000096
 0,0.00001114,0.00000235,-0.00001390,0.00000448,0.00000852,0.00000033,-
 0.00000500,-0.00000222,0.00000312,-0.00000622,-0.00000713,-0.00000336,
 0.00000888,0.00000816,-0.00000223,0.00001312,0.00000451,0.00000428,-0.
 00000678,-0.00000003,-0.00000255,-0.00000491,-0.00000425,0.00000510,0.
 00000954,0.00000683,-0.00000358,0.00000120,0.00001004,-0.00000463,0.00
 000458,0.00000830,-0.00000408,0.00000387,-0.00000596,0.00000751,-0.000
 00451,-0.00000125,0.00000368,-0.00002081,0.00001349,-0.00001063,0.0000
 0099,0.00001235,-0.00000110,0.00000463,-0.00000379,-0.00000692,0.00001
 316,-0.00000794,0.00000919,0.00000505,-0.00000875,-0.00001200,-0.00012
 243,0.00002060,-0.00010710,0.00007500,-0.00000387,0.00005977,0.0000111
 9,-0.00000725,-0.00000132,0.00000481,-0.00000233,-0.00000093,0.0000059
 2,-0.00000080,0.00000345,-0.00002202,0.00006588,0.00006857,0.00000058,
 0.00004484,0.00002938,-0.00008104,-0.00001479,-0.00003096,0.00011456,-
 0.00003254,0.00000277,0.00001318,-0.00000177,0.00002315,-0.00000543,0.
 00000992,0.00000314,-0.00001047,0.00000261,0.00000129,0.00001288,-0.00
 000823,-0.00000671,0.00000214,0.00000237,-0.00000805,-0.00000745,-0.00
 000193,0.00000247,0.00001184,-0.00000332,-0.00000118,-0.00012042,-0.00
 001981,0.00004936,0.00002632,-0.00000236,-0.00001783,0.00002560,0.0000
 1447,-0.00002515,0.00005654,0.00000804,0.00000384,-0.03750859,-0.04439
 143,-0.09570379,-0.04079964,-0.04275245,-0.04809343,0.00185938,-0.0031
 6507,0.01420690,0.06955905,0.08714365,0.12038177,-0.00044761,0.0004238
 9,0.00006874,0.00010931,0.00039539,-0.00035326,-0.00005534,-0.00014866
 ,0.00012406,0.00015647,-0.00012237,-0.00006804,-0.00000850,0.00019744,
 0.00008057,-0.00006769,0.00003401,0.00004618,-0.00000085,-0.00000522,-
 0.00001322,0.00003210,0.00000692,0.00000651,-0.00003091,-0.00000102,0.
 00001958,0.00002025,-0.00002437,-0.00002633,0.00001029,-0.00000997,0.0
 0000692,-0.00005046,-0.00012997,-0.00003182,0.00001274,0.00001059,0.00
 001025,0.00000002,0.00000805,-0.00000453,0.00000086,0.00000097,-0.0000
 0151,0.00000254,0.00001719,0.00002209,-0.00032046,-0.00002934,-0.00001
 140,0.00001498,-0.00000722,-0.00001540,-0.00002395,0.00000427,-0.00000
 758,0.00002892,-0.00001930,0.00001968,0.00004170,0.00002778,0.00002879
 ,-0.00000697,-0.00004539,0.00001755,-0.00007772,-0.00006049,-0.0000976
 1,-0.00003408,0.00003797,-0.00002841,0.00000705,0.00005085,-0.00003435
 ,-0.00000972,-0.00003703,0.00002611,0.00002927,-0.00002331,0.00001202,
 -0.00001968,0.00000586,-0.00000206,-0.00000830,0.00001126,-0.00000408,
 0.00000832,0.00003163,-0.00000896,0.00001501,0.00001173,-0.00000627,-0
 .00001910,-0.00001854,-0.00002416,-0.00001116,-0.00000365,-0.00000869,
 0.00000265,0.00004501,0.00006660,-0.00000002,-0.00000188,0.00000097,0.
 ,0.00000036,-0.00000089,0.00000159,-0.00000054,0.,-0.00000027,0.000000
 08,0.00000164,0.00000060,-0.00000142,0.00000146,-0.00000228,0.00000181
 ,0.00000067,0.00000081,-0.00000189,0.00000035,0.00000047,0.00000146,-0
 .00000017,0.00000338,-0.00000080,-0.00000266,-0.00000289,0.00000097,-0
 .00000268,-0.00000195,0.00000143,0.00000249,0.00000297,-0.00000111,0.0
 0000118,0.00000249,0.00000020,-0.00000177,-0.00000084,0.00000016,-0.00
 000020,0.00000212,-0.00000142,0.00000042,-0.00000176,0.00000065,0.0000
 0065,0.00000813,0.00000694,0.00000402,0.00000373,0.00000260,0.00000162
 ,-0.00000079,-0.00000368,-0.00000255,-0.00000358,-0.00000191,0.0000002
 0,0.00000164,0.00000284,0.00000212,-0.00000080,0.00000049,-0.00000130,
 0.00000255,0.00000111,0.00000159,-0.00000153,-0.00000120,-0.00000021,0
 .00000260,-0.00000416,0.00000371,0.00000148,0.00000337,-0.00000357,-0.
 00000065,0.00000252,0.00000081,-0.00000046,-0.00000104,0.00000353,0.00
 000151,0.00000218,0.00000219,0.00000171,-0.00000020,0.00000066,-0.0000
 0422,-0.00000224,-0.00000189,-0.00000150,-0.00000137,0.00000006,-0.000
 00104,-0.00000007,0.00000222,0.00000146,-0.00000002,0.00000121,-0.0000
 0024,0.00000094,-0.00000031,-0.00000094,-0.00000192,-0.00000014,-0.000
 00500,0.00000186,0.00000127,0.00000513,0.00000094,-0.00000408,0.000001
 84,-0.00000046,0.00000123,-0.00000175,-0.00000331,0.00000097,-0.000002
 32,-0.00000441,-0.00000186,0.00000016,-0.00000385,0.00000157,0.0000010
 9,0.00000399,0.00000119,0.00000310,0.00000111,-0.00000234,-0.00000137,
 -0.00000410,0.00000004,0.00000014,-0.00000373,0.00000069,-0.00000118,0
 .00000128,-0.00000061,0.00000079,0.00000288,0.00000133,-0.00001018,0.0
 0000352,0.00001475,0.00088566,-0.00185281,-0.00172554,-0.00066258,0.00
 099044,0.00120252,-0.00339649,-0.02161129,-0.00615698,-0.00289637,0.00
 004381,-0.00347995,0.00076001,0.00047575,0.00067048,0.00007422,-0.0000
 1912,0.00007044,0.00001282,0.00000609,-0.00001294,-0.00006857,0.000018
 14,-0.00000332,0.00008189,0.00012424,0.00020876,0.00012183,-0.00007413
 ,-0.00016070,-0.00004110,0.00003803,0.00004849,-0.00002233,0.00001015,
 0.00006317,-0.00004301,0.00000502,0.00015430,-0.04934491,-0.02560117,-
 0.00784826,-0.00175188,-0.00934461,-0.00333353,0.00475928,0.02759611,0
 .00743939,0.00048472,-0.00044771,-0.00002570,-0.00015326,0.00017749,0.
 00007609,-0.00009559,0.00007355,0.00001468,-0.00019074,0.00008352,-0.0
 0004758,-0.00007969,0.00000560,0.00003553,0.00001571,-0.00000064,-0.00
 001897,0.00002865,-0.00001464,-0.00000481,0.00002852,0.00000886,-0.000
 00283,0.05218927,0.00024655,-0.00044819,0.00008707,0.00012908,-0.00052
 570,0.00018398,0.00010473,-0.00059061,0.00034842,-0.00002433,-0.000739
 59,-0.00001536,0.00013592,-0.00014072,-0.00015756,-0.00004810,-0.00000
 723,-0.00000088,0.00000193,0.00000532,-0.00000472,0.00002234,0.0000044
 8,0.00000426,-0.00001222,-0.00000501,0.00002038,-0.00001580,-0.0000041
 7,-0.00004261,-0.00000948,-0.00001017,0.00001745,-0.00000181,0.0001275
 5,-0.00000753,-0.00002557,0.00005610,0.00002259,-0.00000124,-0.0000053
 8,-0.00000528,-0.00000516,0.00000024,0.00000057,0.00000274,0.00002379,
 0.00002117,0.00019338,-0.00024175,0.00003872,0.00003488,0.00000521,-0.
 00001084,-0.00003980,0.00002764,-0.00002414,0.00001679,0.00000158,0.00
 001733,0.00001013,0.00004392,0.00001203,0.00004786,-0.00000577,0.00002
 538,-0.00003747,-0.00015684,-0.00004200,-0.00000318,0.00000886,-0.0000
 2369,-0.00004109,-0.00003577,-0.00002022,0.00001658,0.00001311,0.00001
 333,0.00001040,-0.00000484,0.00001690,-0.00001189,0.00000022,-0.000002
 32,-0.00000134,-0.00000355,-0.00000096,0.00000652,0.00001253,-0.000003
 10,-0.00000631,-0.00000317,-0.00000386,-0.00000806,-0.00000975,-0.0000
 1226,-0.00000028,-0.00000577,-0.00000009,-0.00001432,0.00005330,0.0000
 3712,-0.00000129,-0.00000057,0.00000084,0.00000163,0.00000068,-0.00000
 127,0.00000026,0.00000080,0.00000016,0.00000004,-0.00000102,0.00000149
 ,0.00000051,0.00000005,-0.00000105,-0.00000047,-0.00000039,0.00000049,
 0.00000029,-0.00000016,-0.00000035,0.00000069,0.00000091,0.00000096,0.
 00000131,-0.00000039,-0.00000356,-0.00000012,-0.00000091,-0.00000007,-
 0.00000119,0.00000030,0.00000216,0.00000132,-0.00000070,0.00000077,0.0
 0000161,-0.00000054,-0.00000017,0.00000012,0.00000155,-0.00000067,0.00
 000121,-0.00000068,0.00000050,-0.00000133,0.00000018,0.00000114,0.0000
 0981,0.00000120,0.00000086,0.00000080,0.00000277,-0.00000006,-0.000004
 63,0.00000104,0.00000008,-0.00000050,-0.00000059,0.00000069,0.00000066
 ,0.00000258,0.00000031,-0.00000174,0.00000160,-0.00000227,0.00000085,0
 .00000049,0.00000107,-0.00000102,-0.00000149,0.00000088,0.00000203,-0.
 00000464,0.00000385,0.00000142,0.00000571,-0.00000410,-0.00000235,0.00
 000207,0.00000029,0.00000090,-0.00000135,0.00000315,0.00000138,0.00000
 354,-0.00000001,-0.00000032,-0.00000002,-0.00000036,-0.00000266,-0.000
 00093,-0.00000334,-0.00000046,-0.00000141,0.00000023,0.00000182,0.0000
 0142,0.00000103,0.00000026,-0.00000030,0.00000215,0.,-0.00000092,-0.00
 000093,0.00000011,0.00000098,-0.00000088,-0.00000120,0.00000500,-0.000
 00187,-0.00000061,-0.00000357,-0.00000305,0.00000201,-0.00000181,0.000
 00290,0.00000044,0.00000083,-0.00000093,0.00000278,-0.00000168,-0.0000
 0286,-0.00000034,-0.00000121,0.00000119,-0.00000012,0.00000095,0.00000
 318,-0.00000324,0.00000738,-0.00000216,-0.00000071,-0.00000142,-0.0000
 0090,-0.00000010,-0.00000128,0.00000007,0.00000175,0.00000032,-0.00000
 035,-0.00000027,0.00000106,0.00000224,-0.00001113,-0.00000085,0.000015
 16,0.00121570,-0.00048557,-0.00212933,0.00058003,0.00043767,0.00168587
 ,-0.00063272,-0.00005844,-0.00025396,0.00018438,0.00146159,-0.00009070
 ,-0.00039699,0.00050988,-0.00030158,0.00003314,-0.00000272,-0.00004397
 ,-0.00002565,0.00003351,0.00000237,-0.00001894,-0.00000698,0.00001199,
 -0.00028167,0.00002582,0.00046200,0.00007970,-0.00013733,-0.00002713,-
 0.00002120,0.00001789,0.00000454,-0.00001571,0.00002331,0.00001594,-0.
 00004924,0.00006933,0.00004837,-0.02743638,-0.28677591,-0.07345169,-0.
 00061537,-0.01495584,-0.00596712,-0.00192099,-0.00837858,-0.00137813,-
 0.00027126,0.00033552,-0.00022914,0.00004180,-0.00007703,0.00007692,0.
 00007551,-0.00007332,0.00002953,0.00013162,-0.00003841,0.00007574,-0.0
 0006476,-0.00001040,0.00000799,0.00001288,0.00000147,-0.00000208,0.000
 02044,-0.00000775,-0.00000068,0.00002766,0.00001617,0.00000340,0.02867
 542,0.31062164,-0.00001060,0.00019414,0.00013434,-0.00039537,0.0000537
 1,-0.00034452,0.00014619,-0.00008707,-0.00014167,-0.00010721,0.0001719
 5,0.00062958,0.00011255,0.00004656,-0.00011798,-0.00008206,-0.00003438
 ,0.00007229,0.00000031,-0.00000371,-0.00003180,0.00004916,0.00000299,0
 .00000121,-0.00003604,-0.00000194,0.00000624,0.00008610,0.00002368,-0.
 00003414,-0.00001388,0.00000084,-0.00002892,-0.00002559,-0.00000214,0.
 00002422,0.00003194,-0.00009106,-0.00004849,0.00000258,-0.00000054,-0.
 00000105,0.00000529,-0.00000249,-0.00000454,-0.00000203,-0.00002473,-0
 .00000027,-0.00007202,0.00002326,-0.00008151,0.00003913,-0.00000017,-0
 .00003863,-0.00005073,0.00004056,-0.00000147,0.00002931,-0.00000783,0.
 00001561,0.00001437,0.00005676,0.00001333,0.00007672,0.00000308,0.0000
 2404,-0.00004162,-0.00024698,-0.00006927,-0.00000865,0.00003499,-0.000
 01098,-0.00005908,-0.00004673,-0.00001944,0.00003006,0.00001808,0.0000
 1033,0.00002208,-0.00001083,0.00000374,-0.00001495,-0.00000119,-0.0000
 0122,-0.00000504,-0.00000152,0.00000155,-0.00000514,0.00001538,-0.0000
 0296,-0.00001923,-0.00000551,0.00000304,-0.00001095,-0.00000768,-0.000
 01825,0.00001104,-0.00000259,0.00000420,-0.00004164,0.00008004,0.00004
 218,-0.00000079,-0.00000098,0.00000011,0.00000199,0.00000113,-0.000001
 01,0.00000098,0.00000049,0.00000049,-0.00000006,-0.00000101,0.00000108
 ,0.00000091,-0.00000026,-0.00000244,-0.00000039,-0.00000101,-0.0000004
 1,0.00000091,-0.00000094,-0.00000004,-0.00000010,0.00000164,0.00000209
 ,0.00000176,-0.00000044,-0.00000203,-0.00000096,-0.00000048,-0.0000003
 0,-0.00000055,0.00000022,0.00000040,0.00000175,-0.00000020,0.00000033,
 0.00000203,-0.00000086,0.00000031,0.00000045,0.00000170,-0.00000005,0.
 00000145,-0.00000101,0.00000021,-0.00000080,0.00000025,-0.00000002,0.0
 0001338,-0.00000026,0.00000321,-0.00000042,0.00000428,-0.00000133,-0.0
 0000386,0.00000335,-0.00000073,-0.00000213,-0.00000008,0.00000111,0.00
 000041,0.00000241,0.00000167,-0.00000166,0.00000170,-0.00000206,0.0000
 0110,0.00000058,0.00000068,-0.00000149,-0.00000107,0.00000100,0.000001
 35,-0.00000773,0.00000459,0.00000337,0.00000840,-0.00000477,-0.0000041
 0,0.00000307,-0.00000018,0.00000168,-0.00000152,0.00000441,-0.00000113
 ,0.00000316,0.00000022,-0.00000091,0.00000101,-0.00000108,-0.00000305,
 -0.00000114,-0.00000395,0.00000034,-0.00000160,0.00000030,0.00000596,0
 .00000191,-0.00000133,-0.00000032,-0.00000026,0.00000242,0.00000190,-0
 .00000299,-0.00000126,-0.00000043,0.00000180,-0.00000092,-0.00000161,0
 .00001278,-0.00000903,-0.00000269,-0.00000845,0.00000146,0.00000268,-0
 .00000356,0.00000385,0.00000132,0.00000102,-0.00000159,-0.00001214,0.0
 0001006,0.00001317,0.00000573,-0.00000590,0.00000137,0.00000035,0.0000
 0497,0.00000282,0.00000796,-0.00000291,-0.00001386,0.00000352,0.000000
 46,-0.00000017,-0.00000042,-0.00000204,0.00000058,0.00000389,-0.000000
 52,0.00000020,-0.00000130,0.00000177,0.00000084,-0.00001303,-0.0000044
 4,0.00000463,0.00166290,-0.00050569,-0.00039803,-0.00012751,0.00035389
 ,0.00073974,-0.00347431,-0.02454717,-0.00805167,-0.00388581,0.00020037
 ,-0.00332922,0.00105353,0.00006701,0.00079422,0.00017184,-0.00001251,-
 0.00002840,-0.00003048,0.00003388,-0.00001621,-0.00000389,-0.00001511,
 0.00003053,-0.00022644,0.00021137,-0.00016085,0.00008577,-0.00006287,-
 0.00013560,-0.00004775,0.00001822,-0.00000366,-0.00004495,0.00002881,-
 0.00000011,-0.00006802,0.00003084,0.00016105,-0.00820498,-0.07317148,-
 0.06825521,0.00219220,0.02437647,0.00841443,-0.00176427,-0.00839823,-0
 .00362052,0.00010827,0.00066196,-0.00028259,-0.00000276,-0.00018964,-0
 .00009509,-0.00000607,-0.00013539,0.00012952,-0.00004610,-0.00009006,0
 .00002051,-0.00005752,-0.00001625,0.00002983,0.00000815,0.00000296,-0.
 00001691,0.00001821,-0.00000176,-0.00000488,0.00002244,0.00001200,-0.0
 0000020,0.01299970,0.08094493,0.07408552\\0.00000572,-0.00000190,0.000
 00296,-0.00000365,-0.00000433,0.00000604,0.00000011,-0.00000888,-0.000
 00090,-0.00000770,-0.00000473,-0.00000229,0.00000585,-0.00000171,0.000
 00148,-0.00000188,0.00000237,-0.00000113,-0.00000705,0.00000025,-0.000
 00107,0.00000919,0.00000431,0.00000381,0.00000013,0.00000128,-0.000006
 86,0.00000049,0.00000204,0.00000150,0.00000012,-0.00000361,-0.00000358
 ,0.00000499,-0.00000174,0.00000147,0.00000047,-0.00000113,-0.00000206,
 0.00000166,-0.00000094,0.00000177,0.00000254,0.00000226,0.00000483,0.0
 0000084,0.00000054,-0.00000090,-0.00000031,-0.00000430,-0.00000976,0.0
 0000766,0.00000124,0.00000099,0.00000206,0.00000283,0.00000044,-0.0000
 0540,-0.00000178,-0.00000300,-0.00000794,0.00000338,0.00000245,0.00000
 493,-0.00000170,-0.00000138,0.00000237,0.00000433,0.00000245,0.0000044
 2,-0.00000041,0.00000328,-0.00000161,-0.00000394,-0.00000155,0.0000010
 7,-0.00000153,-0.00000458,-0.00000549,0.00000574,-0.00000057,0.0000065
 3,-0.00000003,-0.00000106,0.00000440,0.00000419,0.00000731,0.00000472,
 0.00000114,-0.00000547,0.00000203,-0.00000990,0.00000138,-0.00000150,0
 .00000399,0.00000095,-0.00000115,0.00000338,0.00000186,-0.00000557,0.0
 0000014,0.00000078,0.00000071,0.00000684,-0.00000058,-0.00000301,-0.00
 000114,0.00000366,0.00000143,0.00000063,0.00000040,0.00000053,0.000001
 03,0.00000127,0.00000362,0.00000283,-0.00000493,0.00000076,0.00000033,
 0.00000138,0.00000174,0.00000040,-0.00000046,0.00000036,0.00000724,-0.
 00000349,0.00000226,0.00000621,0.00000415,0.00000318,0.00000421,-0.000
 00053,0.00000018,0.00000598,-0.00000593,0.00000008,0.00000189,0.000000
 97,0.00000350,-0.00000022,0.00000158,0.00000208,0.00000235,0.00000049,
 -0.00000119,0.00000275,0.00000002,0.00000151,0.00000056,0.00000337,0.0
 0000362,0.00000397,0.00000722,-0.00000431,-0.00000149,-0.00000194,-0.0
 0000575,0.00000465,0.00000233,-0.00000169,0.00000011,0.00000030,-0.000
 00593,0.00001252,0.00000349,-0.00000443,-0.00000578,0.00000345,-0.0000
 0145,0.00000010,0.00000152,-0.00000142,0.00000145,0.00000284,-0.000010
 45,-0.00000360,0.00000392,-0.00000254,0.00000027,0.00000356,-0.0000016
 6,0.00000067,0.00000246,-0.00000066,0.00000029,-0.00000072,0.00000121,
 -0.00000310,0.00000054,-0.00000387,0.00000055,-0.00000089,0.00000311,0
 .00000390,0.00000073,-0.00000321,-0.00000078,0.00000277,-0.00000193,0.
 00000014,-0.00000235,-0.00000108,-0.00000162,-0.00000609,0.00000169,0.
 00000077,-0.00000092,0.00000462,0.00000180,-0.00000123,0.00000868,-0.0
 0000205,0.00000113,0.00000697,-0.00001098,-0.00000228,-0.00000257,-0.0
 0000333,-0.00000833,0.00000105,-0.00000304,-0.00000013,0.00000483,-0.0
 0000765,0.00000217,0.00000293,0.00000303,-0.00000282,0.00000346,-0.000
 00316,0.00000220,-0.00000389,0.00000986,-0.00001046,0.00000867,0.00000
 362,-0.00000267,0.00000130,-0.00000241,-0.00000010,-0.00000144,-0.0000
 0268,0.00000041,0.00000180,0.00000008,-0.00000043,-0.00000097,0.000001
 11,-0.00000136,-0.00000667,0.00000079,-0.00000147,-0.00000275,-0.00000
 187,0.00000597,-0.00000200,-0.00000156,-0.00000487,-0.00000183,-0.0000
 0331,-0.00000007,-0.00000365,-0.00000172,-0.00000009,0.00000221,0.0000
 0640,0.00000811,-0.00000751,-0.00000696,0.00000100,-0.00000289,-0.0000
 0201,-0.00000349,0.00000022,-0.00000346,-0.00000734,-0.00000383,0.0000
 0416,0.00000494,-0.00000509,-0.00000219,0.00000003,-0.00000157,-0.0000
 0470,0.00000311,-0.00000048,-0.00000290,0.00000076,0.00000077,-0.00000
 201,-0.00000257,-0.00000212,-0.00000480,0.00000436,-0.00000320,-0.0000
 0144,-0.00000045,-0.00001450,-0.00000815,0.00001319,-0.00000498,-0.000
 04499,-0.00002298,-0.00001598,0.00003172,-0.00002895,0.00002907,-0.000
 00504,0.00001937,0.00001042,0.00000507,0.00000139,0.00000469,0.0000062
 9,0.00000652,0.00000134,0.00001311,0.00000519,-0.00000484,0.00000033,-
 0.00000091,-0.00000027,-0.00000073,-0.00000002\\\@
 The archive entry for this job was punched.


 THE MOST SERIOUS THREAT TO THE SURVIVAL OF MANKIND IS NOT NOW
 IGNORANCE IN THE TRADITIONAL SENSE,
 BUT A MORALLY NEUTRAL, AN INSENSITIVE OR INHIBITED HUMAN INTELLIGENCE.

                     -- MARGO JEFFERSON IN NEWSWEEK, SEPTEMBER 2, 1974
 Job cpu time:       1 days 22 hours 47 minutes 47.8 seconds.
 Elapsed time:       0 days  2 hours 58 minutes 53.5 seconds.
 File lengths (MBytes):  RWF=   9700 Int=      0 D2E=      0 Chk=     55 Scr=      1
 Normal termination of Gaussian 16 at Sat Dec  7 21:52:12 2024.
