/mnt/lustre/scratch/nvme/SLURM/9663630/usccqdma.QSbbGktaBy
OMP_STACKSIZE=0m
GAUSS_PDEF=16
GAUSS_MDEF=65536MB
GAUSS_RDEF=SCF=Direct
 Entering Gaussian System, Link 0=g16.exe
 Initial command:
 /opt/cesga/2020/software/Core/g16/c1/l1.exe "/mnt/lustre/scratch/nvme/SLURM/9663630/usccqdma.QSbbGktaBy/Gau-3153021.inp" -scrdir="/mnt/lustre/scratch/nvme/SLURM/9663630/usccqdma.QSbbGktaBy/"
 Default is to use a total of  16 processors:
                               16 via shared-memory
                                1 via Linda
 Entering Link 1 = /opt/cesga/2020/software/Core/g16/c1/l1.exe PID=   3153047.
  
 Copyright (c) 1988-2019, Gaussian, Inc.  All Rights Reserved.
  
 This is part of the Gaussian(R) 16 program.  It is based on
 the Gaussian(R) 09 system (copyright 2009, Gaussian, Inc.),
 the Gaussian(R) 03 system (copyright 2003, Gaussian, Inc.),
 the Gaussian(R) 98 system (copyright 1998, Gaussian, Inc.),
 the Gaussian(R) 94 system (copyright 1995, Gaussian, Inc.),
 the Gaussian 92(TM) system (copyright 1992, Gaussian, Inc.),
 the Gaussian 90(TM) system (copyright 1990, Gaussian, Inc.),
 the Gaussian 88(TM) system (copyright 1988, Gaussian, Inc.),
 the Gaussian 86(TM) system (copyright 1986, Carnegie Mellon
 University), and the Gaussian 82(TM) system (copyright 1983,
 Carnegie Mellon University). Gaussian is a federally registered
 trademark of Gaussian, Inc.
  
 This software contains proprietary and confidential information,
 including trade secrets, belonging to Gaussian, Inc.
  
 This software is provided under written license and may be
 used, copied, transmitted, or stored only in accord with that
 written license.
  
 The following legend is applicable only to US Government
 contracts under FAR:
  
                    RESTRICTED RIGHTS LEGEND
  
 Use, reproduction and disclosure by the US Government is
 subject to restrictions as set forth in subparagraphs (a)
 and (c) of the Commercial Computer Software - Restricted
 Rights clause in FAR 52.227-19.
  
 Gaussian, Inc.
 340 Quinnipiac St., Bldg. 40, Wallingford CT 06492
  
  
 ---------------------------------------------------------------
 Warning -- This program may not be used in any manner that
 competes with the business of Gaussian, Inc. or will provide
 assistance to any competitor of Gaussian, Inc.  The licensee
 of this program is prohibited from giving any competitor of
 Gaussian, Inc. access to this program.  By using this program,
 the user acknowledges that Gaussian, Inc. is engaged in the
 business of creating and licensing software in the field of
 computational chemistry and represents and warrants to the
 licensee that it is not a competitor of Gaussian, Inc. and that
 it will not use this program in any manner prohibited above.
 ---------------------------------------------------------------
  

 Cite this work as:
 Gaussian 16, Revision C.01,
 M. J. Frisch, G. W. Trucks, H. B. Schlegel, G. E. Scuseria, 
 M. A. Robb, J. R. Cheeseman, G. Scalmani, V. Barone, 
 G. A. Petersson, H. Nakatsuji, X. Li, M. Caricato, A. V. Marenich, 
 J. Bloino, B. G. Janesko, R. Gomperts, B. Mennucci, H. P. Hratchian, 
 J. V. Ortiz, A. F. Izmaylov, J. L. Sonnenberg, D. Williams-Young, 
 F. Ding, F. Lipparini, F. Egidi, J. Goings, B. Peng, A. Petrone, 
 T. Henderson, D. Ranasinghe, V. G. Zakrzewski, J. Gao, N. Rega, 
 G. Zheng, W. Liang, M. Hada, M. Ehara, K. Toyota, R. Fukuda, 
 J. Hasegawa, M. Ishida, T. Nakajima, Y. Honda, O. Kitao, H. Nakai, 
 T. Vreven, K. Throssell, J. A. Montgomery, Jr., J. E. Peralta, 
 F. Ogliaro, M. J. Bearpark, J. J. Heyd, E. N. Brothers, K. N. Kudin, 
 V. N. Staroverov, T. A. Keith, R. Kobayashi, J. Normand, 
 K. Raghavachari, A. P. Rendell, J. C. Burant, S. S. Iyengar, 
 J. Tomasi, M. Cossi, J. M. Millam, M. Klene, C. Adamo, R. Cammi, 
 J. W. Ochterski, R. L. Martin, K. Morokuma, O. Farkas, 
 J. B. Foresman, and D. J. Fox, Gaussian, Inc., Wallingford CT, 2019.
 
 ******************************************
 Gaussian 16:  ES64L-G16RevC.01  3-Jul-2019
                 7-Dec-2024 
 ******************************************
 Default route: SCF=Direct
 ----------------------------------------------------
 # m06/genecp scf=tight int=ultrafine 5d freq=noraman
 ----------------------------------------------------
 1/10=4,30=1,38=1/1,3;
 2/12=2,17=6,18=5,40=1/2;
 3/5=7,8=1,11=2,16=1,17=8,25=1,30=1,71=2,74=-54,75=-5,140=1/1,2,3;
 4//1;
 5/5=2,32=2,38=5,98=1/2;
 8/6=4,10=90,11=11/1;
 11/6=1,8=1,9=11,15=111,16=1/1,2,10;
 10/6=1/2;
 6/7=2,8=2,9=2,10=2,28=1/1;
 7/8=1,10=1,25=1/1,2,3,16;
 1/10=4,30=1/3;
 99//99;
 ------
 OPT-TS
 ------
 Symbolic Z-matrix:
 Charge =  0 Multiplicity = 1
 C                    -1.25387   2.92864  -0.69225 
 C                    -2.99899   1.43527  -0.36455 
 C                    -3.93921   2.44441  -0.48546 
 C                    -3.51214   3.74384  -0.74702 
 C                    -2.15436   3.9864   -0.83901 
 C                     0.20962   3.12109  -0.69939 
 C                     2.28086   2.07944  -0.6344 
 C                     2.9383    3.30015  -0.56495 
 C                     2.18784   4.47251  -0.5771 
 C                     0.80864   4.38219  -0.64585 
 H                    -3.27721   0.40774  -0.12883 
 H                    -4.23657   4.54832  -0.86202 
 H                    -1.79651   4.9939   -1.03338 
 H                     2.82009   1.12942  -0.63535 
 H                     2.68096   5.44108  -0.51712 
 H                     0.20675   5.28678  -0.62818 
 N                    -1.68533   1.66388  -0.49473 
 N                     0.94971   1.99747  -0.69756 
 Ir                   -0.21496   0.06683  -0.42742 
 O                    -0.38798   1.32099   2.26149 
 O                     2.94333  -3.01671  -1.18821 
 O                    -2.49683  -1.45267   0.8552 
 B                     2.84364  -1.73284  -1.63952 
 B                    -0.07295   0.15628   1.55304 
 B                    -1.33939  -1.52716   0.05781 
 O                    -1.13798  -2.86008  -0.3222 
 O                     0.3985   -0.82017   2.43341 
 C                     0.18224  -0.35197   3.77102 
 C                     0.16      1.191     3.57765 
 C                    -3.16613  -2.71917   0.81251 
 C                    -2.00334  -3.6897    0.46283 
 C                     3.52829  -2.97896   0.13238 
 C                     4.19754  -1.55505   0.18615 
 O                     3.5439   -0.8355   -0.8797 
 C                    -0.71191   1.94504   4.56134 
 H                    -1.76079   1.63877   4.48401 
 H                    -0.37168   1.78115   5.59421 
 H                    -0.659     3.02207   4.35536 
 C                     1.55274   1.81064   3.5368 
 H                     2.02836   1.83859   4.52669 
 H                     2.21006   1.26324   2.84662 
 H                     1.46372   2.84028   3.16461 
 C                    -1.15882  -0.90782   4.23444 
 H                    -1.39141  -0.61797   5.26807 
 H                    -1.97176  -0.57706   3.57377 
 H                    -1.11834  -2.00504   4.19184 
 C                     1.29437  -0.87496   4.65802 
 H                     2.28455  -0.60456   4.27276 
 H                     1.19855  -0.48617   5.68228 
 H                     1.24013  -1.97084   4.70419 
 C                     2.38895  -3.17889   1.11993 
 H                     1.91486  -4.14466   0.89997 
 H                     2.74935  -3.19942   2.1581 
 H                     1.61883  -2.40375   1.03555 
 C                     4.5064   -4.13248   0.25054 
 H                     3.96139  -5.08061   0.16434 
 H                     5.27198  -4.11109  -0.53268 
 H                     5.00498  -4.11728   1.22997 
 C                     3.952    -0.79848   1.47751 
 H                     4.39243   0.20583   1.39989 
 H                     2.87792  -0.69725   1.68154 
 H                     4.42432  -1.31236   2.32762 
 C                     5.67978  -1.55034  -0.15468 
 H                     5.86993  -2.05058  -1.11316 
 H                     6.01575  -0.50985  -0.24813 
 H                     6.2822   -2.03916   0.62184 
 C                    -1.20838  -4.12979   1.68675 
 H                    -1.7901   -4.7902    2.34436 
 H                    -0.3205   -4.67896   1.34774 
 H                    -0.85769  -3.25923   2.25969 
 C                    -2.40238  -4.90188  -0.3558 
 H                    -1.51168  -5.50645  -0.57318 
 H                    -3.11419  -5.53414   0.19465 
 H                    -2.85771  -4.61916  -1.31233 
 C                    -4.22312  -2.63277  -0.28227 
 H                    -3.7629   -2.47356  -1.26724 
 H                    -4.8456   -3.53671  -0.33021 
 H                    -4.87943  -1.7763   -0.07562 
 C                    -3.83504  -2.97428   2.14869 
 H                    -4.63158  -2.23617   2.31064 
 H                    -4.2899   -3.97525   2.17604 
 H                    -3.12439  -2.88958   2.97847 
 H                     0.9444   -1.05098  -0.39278 
 C                    -0.26471  -1.16372  -3.14606 
 O                    -0.21607   0.05244  -2.87767 
 C                    -1.58649  -1.84573  -3.42858 
 H                    -1.5272   -2.34133  -4.41014 
 H                    -1.71396  -2.65019  -2.68708 
 C                     2.15807  -1.32173  -3.0035 
 H                     2.81561  -1.59878  -3.84536 
 H                     2.02807  -0.23524  -3.04373 
 N                     0.84706  -1.92512  -3.24788 
 C                     0.77211  -3.37733  -3.29302 
 H                     0.3684   -3.77811  -2.35088 
 H                     0.15517  -3.72088  -4.1324 
 H                     1.78249  -3.77375  -3.42548 
 C                    -2.75903  -0.88578  -3.39018 
 H                    -2.85629  -0.43063  -2.39618 
 H                    -2.63127  -0.06881  -4.10956 
 C                    -5.4044    2.16688  -0.36652 
 F                    -5.65669   0.90439  -0.02021 
 F                    -5.96943   2.96497   0.54763 
 F                    -6.02969   2.40628  -1.52614 
 C                     4.43218   3.3735   -0.52156 
 F                     4.9323    3.725    -1.71178 
 F                     4.84271   4.29439   0.35935 
 F                     4.9848    2.2068   -0.18114 
 H                    -3.69479  -1.40988  -3.62179 
 

 GradGradGradGradGradGradGradGradGradGradGradGradGradGradGradGradGradGrad
 Berny optimization.
 Initialization pass.
 Trust Radius=3.00D-01 FncErr=1.00D-07 GrdErr=1.00D-07 EigMax=2.50D+02 EigMin=1.00D-04
 Number of steps in this run=      2 maximum allowed number of steps=      2.
 GradGradGradGradGradGradGradGradGradGradGradGradGradGradGradGradGradGrad

 Stoichiometry    C35H53B3F6IrN3O7
 Framework group  C1[X(C35H53B3F6IrN3O7)]
 Deg. of freedom   318
 Full point group                 C1      NOp   1
 Largest Abelian subgroup         C1      NOp   1
 Largest concise Abelian subgroup C1      NOp   1
                         Standard orientation:                         
 ---------------------------------------------------------------------
 Center     Atomic      Atomic             Coordinates (Angstroms)
 Number     Number       Type             X           Y           Z
 ---------------------------------------------------------------------
      1          6           0       -1.253869    2.928640   -0.692251
      2          6           0       -2.998990    1.435271   -0.364551
      3          6           0       -3.939209    2.444411   -0.485461
      4          6           0       -3.512139    3.743841   -0.747021
      5          6           0       -2.154359    3.986401   -0.839011
      6          6           0        0.209621    3.121090   -0.699391
      7          6           0        2.280861    2.079439   -0.634401
      8          6           0        2.938301    3.300149   -0.564951
      9          6           0        2.187842    4.472509   -0.577101
     10          6           0        0.808642    4.382190   -0.645851
     11          1           0       -3.277210    0.407741   -0.128831
     12          1           0       -4.236568    4.548322   -0.862021
     13          1           0       -1.796508    4.993901   -1.033381
     14          1           0        2.820090    1.129419   -0.635351
     15          1           0        2.680962    5.441079   -0.517121
     16          1           0        0.206752    5.286780   -0.628181
     17          7           0       -1.685330    1.663881   -0.494731
     18          7           0        0.949711    1.997470   -0.697561
     19         77           0       -0.214960    0.066830   -0.427421
     20          8           0       -0.387980    1.320990    2.261489
     21          8           0        2.943329   -3.016711   -1.188211
     22          8           0       -2.496831   -1.452669    0.855199
     23          5           0        2.843639   -1.732841   -1.639521
     24          5           0       -0.072950    0.156280    1.553039
     25          5           0       -1.339391   -1.527160    0.057809
     26          8           0       -1.137981   -2.860080   -0.322201
     27          8           0        0.398500   -0.820170    2.433409
     28          6           0        0.182240   -0.351970    3.771019
     29          6           0        0.160000    1.191000    3.577649
     30          6           0       -3.166131   -2.719169    0.812509
     31          6           0       -2.003342   -3.689699    0.462829
     32          6           0        3.528289   -2.978961    0.132379
     33          6           0        4.197539   -1.555052    0.186149
     34          8           0        3.543900   -0.835501   -0.879701
     35          6           0       -0.711909    1.945040    4.561339
     36          1           0       -1.760790    1.638771    4.484009
     37          1           0       -0.371679    1.781150    5.594209
     38          1           0       -0.658999    3.022070    4.355359
     39          6           0        1.552741    1.810639    3.536799
     40          1           0        2.028361    1.838589    4.526689
     41          1           0        2.210060    1.263239    2.846619
     42          1           0        1.463721    2.840279    3.164609
     43          6           0       -1.158821   -0.907820    4.234439
     44          1           0       -1.391410   -0.617970    5.268069
     45          1           0       -1.971760   -0.577059    3.573769
     46          1           0       -1.118341   -2.005040    4.191839
     47          6           0        1.294369   -0.874961    4.658019
     48          1           0        2.284550   -0.604561    4.272759
     49          1           0        1.198550   -0.486171    5.682279
     50          1           0        1.240129   -1.970841    4.704189
     51          6           0        2.388949   -3.178891    1.119929
     52          1           0        1.914858   -4.144661    0.899969
     53          1           0        2.749349   -3.199421    2.158099
     54          1           0        1.618829   -2.403751    1.035549
     55          6           0        4.506398   -4.132482    0.250539
     56          1           0        3.961388   -5.080612    0.164339
     57          1           0        5.271978   -4.111092   -0.532681
     58          1           0        5.004978   -4.117282    1.229969
     59          6           0        3.952000   -0.798482    1.477509
     60          1           0        4.392430    0.205828    1.399889
     61          1           0        2.877920   -0.697251    1.681539
     62          1           0        4.424319   -1.312362    2.327619
     63          6           0        5.679779   -1.550342   -0.154681
     64          1           0        5.869929   -2.050582   -1.113161
     65          1           0        6.015750   -0.509852   -0.248131
     66          1           0        6.282199   -2.039163    0.621839
     67          6           0       -1.208382   -4.129790    1.686749
     68          1           0       -1.790102   -4.790199    2.344359
     69          1           0       -0.320502   -4.678960    1.347739
     70          1           0       -0.857691   -3.259230    2.259689
     71          6           0       -2.402382   -4.901879   -0.355801
     72          1           0       -1.511682   -5.506449   -0.573181
     73          1           0       -3.114192   -5.534139    0.194649
     74          1           0       -2.857712   -4.619159   -1.312331
     75          6           0       -4.223121   -2.632768   -0.282271
     76          1           0       -3.762901   -2.473559   -1.267241
     77          1           0       -4.845602   -3.536708   -0.330211
     78          1           0       -4.879431   -1.776298   -0.075621
     79          6           0       -3.835041   -2.974279    2.148689
     80          1           0       -4.631581   -2.236168    2.310639
     81          1           0       -4.289902   -3.975248    2.176039
     82          1           0       -3.124391   -2.889579    2.978469
     83          1           0        0.944399   -1.050980   -0.392781
     84          6           0       -0.264711   -1.163720   -3.146061
     85          8           0       -0.216070    0.052440   -2.877671
     86          6           0       -1.586491   -1.845729   -3.428581
     87          1           0       -1.527201   -2.341329   -4.410141
     88          1           0       -1.713961   -2.650189   -2.687081
     89          6           0        2.158069   -1.321731   -3.003501
     90          1           0        2.815609   -1.598781   -3.845361
     91          1           0        2.028070   -0.235241   -3.043731
     92          7           0        0.847059   -1.925120   -3.247881
     93          6           0        0.772109   -3.377330   -3.293021
     94          1           0        0.368398   -3.778110   -2.350881
     95          1           0        0.155168   -3.720880   -4.132401
     96          1           0        1.782488   -3.773751   -3.425481
     97          6           0       -2.759031   -0.885779   -3.390181
     98          1           0       -2.856290   -0.430629   -2.396181
     99          1           0       -2.631270   -0.068809   -4.109561
    100          6           0       -5.404399    2.166882   -0.366521
    101          9           0       -5.656690    0.904392   -0.020211
    102          9           0       -5.969429    2.964972    0.547629
    103          9           0       -6.029689    2.406282   -1.526141
    104          6           0        4.432181    3.373498   -0.521561
    105          9           0        4.932301    3.724998   -1.711781
    106          9           0        4.842712    4.294388    0.359349
    107          9           0        4.984801    2.206798   -0.181141
    108          1           0       -3.694791   -1.409879   -3.621791
 ---------------------------------------------------------------------
 Rotational constants (GHZ):           0.0592686           0.0452768           0.0378539
 General basis read from cards:  (5D, 7F)
 ======================================================================================================
                                       Pseudopotential Parameters
 ======================================================================================================
  Center     Atomic      Valence      Angular      Power
  Number     Number     Electrons     Momentum     of R      Exponent        Coefficient   SO-Coeffient
 ======================================================================================================
    1          6
                                   No pseudopotential on this center.
    2          6
                                   No pseudopotential on this center.
    3          6
                                   No pseudopotential on this center.
    4          6
                                   No pseudopotential on this center.
    5          6
                                   No pseudopotential on this center.
    6          6
                                   No pseudopotential on this center.
    7          6
                                   No pseudopotential on this center.
    8          6
                                   No pseudopotential on this center.
    9          6
                                   No pseudopotential on this center.
   10          6
                                   No pseudopotential on this center.
   11          1
                                   No pseudopotential on this center.
   12          1
                                   No pseudopotential on this center.
   13          1
                                   No pseudopotential on this center.
   14          1
                                   No pseudopotential on this center.
   15          1
                                   No pseudopotential on this center.
   16          1
                                   No pseudopotential on this center.
   17          7
                                   No pseudopotential on this center.
   18          7
                                   No pseudopotential on this center.
   19         77           17
                                      G and up 
                                                     1      823.5880147       -0.15780140    0.00000000
                                                     2      364.6613336    -1517.52704460    0.00000000
                                                     2       55.7082801     -316.53065290    0.00000000
                                                     2       12.0464544      -91.88809410    0.00000000
                                                     2        3.5120610       -9.22417730    0.00000000
                                      S - G
                                                     0      188.0490770        3.15780140    0.00000000
                                                     1      340.4194712       26.83225770    0.00000000
                                                     2      128.2373673      800.42500070    0.00000000
                                                     2       33.8644961      369.40506830    0.00000000
                                                     2        4.7560005      242.41718990    0.00000000
                                                     2        3.9649974     -118.21732820    0.00000000
                                      P - G
                                                     0      289.7291139        2.15780140    0.00000000
                                                     1       87.4633789       61.96786100    0.00000000
                                                     2       30.4363766      269.05819860    0.00000000
                                                     2        4.0553412      231.16547930    0.00000000
                                                     2        3.5525341     -133.69526670    0.00000000
                                      D - G
                                                     0      136.4017106        3.15780140    0.00000000
                                                     1       95.0776925       45.93498030    0.00000000
                                                     2       49.2258410      359.03446680    0.00000000
                                                     2       15.0874145      176.47401190    0.00000000
                                                     2        4.0405764       54.51552860    0.00000000
                                      F - G
                                                     0      127.3507908        3.95461970    0.00000000
                                                     1       66.2364374       52.97736550    0.00000000
                                                     2       34.4299229      274.86433830    0.00000000
                                                     2       10.1995721      137.20473380    0.00000000
                                                     2        2.5409702       14.86333050    0.00000000
   20          8
                                   No pseudopotential on this center.
   21          8
                                   No pseudopotential on this center.
   22          8
                                   No pseudopotential on this center.
   23          5
                                   No pseudopotential on this center.
   24          5
                                   No pseudopotential on this center.
   25          5
                                   No pseudopotential on this center.
   26          8
                                   No pseudopotential on this center.
   27          8
                                   No pseudopotential on this center.
   28          6
                                   No pseudopotential on this center.
   29          6
                                   No pseudopotential on this center.
   30          6
                                   No pseudopotential on this center.
   31          6
                                   No pseudopotential on this center.
   32          6
                                   No pseudopotential on this center.
   33          6
                                   No pseudopotential on this center.
   34          8
                                   No pseudopotential on this center.
   35          6
                                   No pseudopotential on this center.
   36          1
                                   No pseudopotential on this center.
   37          1
                                   No pseudopotential on this center.
   38          1
                                   No pseudopotential on this center.
   39          6
                                   No pseudopotential on this center.
   40          1
                                   No pseudopotential on this center.
   41          1
                                   No pseudopotential on this center.
   42          1
                                   No pseudopotential on this center.
   43          6
                                   No pseudopotential on this center.
   44          1
                                   No pseudopotential on this center.
   45          1
                                   No pseudopotential on this center.
   46          1
                                   No pseudopotential on this center.
   47          6
                                   No pseudopotential on this center.
   48          1
                                   No pseudopotential on this center.
   49          1
                                   No pseudopotential on this center.
   50          1
                                   No pseudopotential on this center.
   51          6
                                   No pseudopotential on this center.
   52          1
                                   No pseudopotential on this center.
   53          1
                                   No pseudopotential on this center.
   54          1
                                   No pseudopotential on this center.
   55          6
                                   No pseudopotential on this center.
   56          1
                                   No pseudopotential on this center.
   57          1
                                   No pseudopotential on this center.
   58          1
                                   No pseudopotential on this center.
   59          6
                                   No pseudopotential on this center.
   60          1
                                   No pseudopotential on this center.
   61          1
                                   No pseudopotential on this center.
   62          1
                                   No pseudopotential on this center.
   63          6
                                   No pseudopotential on this center.
   64          1
                                   No pseudopotential on this center.
   65          1
                                   No pseudopotential on this center.
   66          1
                                   No pseudopotential on this center.
   67          6
                                   No pseudopotential on this center.
   68          1
                                   No pseudopotential on this center.
   69          1
                                   No pseudopotential on this center.
   70          1
                                   No pseudopotential on this center.
   71          6
                                   No pseudopotential on this center.
   72          1
                                   No pseudopotential on this center.
   73          1
                                   No pseudopotential on this center.
   74          1
                                   No pseudopotential on this center.
   75          6
                                   No pseudopotential on this center.
   76          1
                                   No pseudopotential on this center.
   77          1
                                   No pseudopotential on this center.
   78          1
                                   No pseudopotential on this center.
   79          6
                                   No pseudopotential on this center.
   80          1
                                   No pseudopotential on this center.
   81          1
                                   No pseudopotential on this center.
   82          1
                                   No pseudopotential on this center.
   83          1
                                   No pseudopotential on this center.
   84          6
                                   No pseudopotential on this center.
   85          8
                                   No pseudopotential on this center.
   86          6
                                   No pseudopotential on this center.
   87          1
                                   No pseudopotential on this center.
   88          1
                                   No pseudopotential on this center.
   89          6
                                   No pseudopotential on this center.
   90          1
                                   No pseudopotential on this center.
   91          1
                                   No pseudopotential on this center.
   92          7
                                   No pseudopotential on this center.
   93          6
                                   No pseudopotential on this center.
   94          1
                                   No pseudopotential on this center.
   95          1
                                   No pseudopotential on this center.
   96          1
                                   No pseudopotential on this center.
   97          6
                                   No pseudopotential on this center.
   98          1
                                   No pseudopotential on this center.
   99          1
                                   No pseudopotential on this center.
  100          6
                                   No pseudopotential on this center.
  101          9
                                   No pseudopotential on this center.
  102          9
                                   No pseudopotential on this center.
  103          9
                                   No pseudopotential on this center.
  104          6
                                   No pseudopotential on this center.
  105          9
                                   No pseudopotential on this center.
  106          9
                                   No pseudopotential on this center.
  107          9
                                   No pseudopotential on this center.
  108          1
                                   No pseudopotential on this center.
 ======================================================================================================
 There are   940 symmetry adapted cartesian basis functions of A   symmetry.
 There are   884 symmetry adapted basis functions of A   symmetry.
   884 basis functions,  1767 primitive gaussians,   940 cartesian basis functions
   213 alpha electrons      213 beta electrons
       nuclear repulsion energy      9656.2437947184 Hartrees.
 NAtoms=  108 NActive=  108 NUniq=  108 SFac= 1.00D+00 NAtFMM=   60 NAOKFM=T Big=T
 Integral buffers will be    131072 words long.
 Raffenetti 2 integral format.
 Two-electron integral symmetry is turned on.
 One-electron integrals computed using PRISM.
   1 Symmetry operations used in ECPInt.
 ECPInt:  NShTT=   54615 NPrTT=  339395 LenC2=   41240 LenP2D=  127743.
 LDataN:  DoStor=T MaxTD1= 6 Len=  172
 NBasis=   884 RedAO= T EigKep=  4.62D-04  NBF=   884
 NBsUse=   884 1.00D-06 EigRej= -1.00D+00 NBFU=   884
 Defaulting to unpruned grid for atomic number  77.
 ExpMin= 2.90D-02 ExpMax= 7.00D+03 ExpMxC= 1.05D+03 IAcc=3 IRadAn=         5 AccDes= 0.00D+00
 Harris functional with IExCor= 1009 and IRadAn=       5 diagonalized for initial guess.
 HarFok:  IExCor= 1009 AccDes= 0.00D+00 IRadAn=         5 IDoV= 1 UseB2=F ITyADJ=14
 ICtDFT=  3500011 ScaDFX=  1.000000  1.000000  1.000000  1.000000
 Defaulting to unpruned grid for atomic number  77.
 FoFCou: FMM=F IPFlag=           0 FMFlag=      100000 FMFlg1=        2001
         NFxFlg=           0 DoJE=T BraDBF=F KetDBF=T FulRan=T
         wScrn=  0.000000 ICntrl=       500 IOpCl=  0 I1Cent=   200000004 NGrid=           0
         NMat0=    1 NMatS0=      1 NMatT0=    0 NMatD0=    1 NMtDS0=    0 NMtDT0=    0
 Petite list used in FoFCou.
 Requested convergence on RMS density matrix=1.00D-08 within 128 cycles.
 Requested convergence on MAX density matrix=1.00D-06.
 Requested convergence on             energy=1.00D-06.
 No special actions if energy rises.
 Defaulting to unpruned grid for atomic number  77.
 Defaulting to unpruned grid for atomic number  77.
 Defaulting to unpruned grid for atomic number  77.
 Defaulting to unpruned grid for atomic number  77.
 Defaulting to unpruned grid for atomic number  77.
 Defaulting to unpruned grid for atomic number  77.
 Defaulting to unpruned grid for atomic number  77.
 Defaulting to unpruned grid for atomic number  77.
 Defaulting to unpruned grid for atomic number  77.
 Defaulting to unpruned grid for atomic number  77.
 Defaulting to unpruned grid for atomic number  77.
 Defaulting to unpruned grid for atomic number  77.
 Defaulting to unpruned grid for atomic number  77.
 Defaulting to unpruned grid for atomic number  77.
 Defaulting to unpruned grid for atomic number  77.
 Defaulting to unpruned grid for atomic number  77.
 SCF Done:  E(RM06) =  -2833.58444966     A.U. after   16 cycles
            NFock= 16  Conv=0.70D-08     -V/T= 2.0320
 DoSCS=F DFT=T ScalE2(SS,OS)=  1.000000  1.000000
 Range of M.O.s used for correlation:     1   884
 NBasis=   884 NAE=   213 NBE=   213 NFC=     0 NFV=     0
 NROrb=    884 NOA=   213 NOB=   213 NVA=   671 NVB=   671

 **** Warning!!: The largest alpha MO coefficient is  0.10649638D+02

   1 Symmetry operations used in ECPInt.
 ECPInt:  NShTT=   54615 NPrTT=  339395 LenC2=   41240 LenP2D=  127743.
 LDataN:  DoStor=T MaxTD1= 7 Len=  274
 Number of processors reduced to   7 by ecpmxn.
 Symmetrizing basis deriv contribution to polar:
 IMax=3 JMax=2 DiffMx= 0.00D+00
 G2DrvN: will do   109 centers at a time, making    1 passes.
 Calling FoFCou, ICntrl=  3107 FMM=T I1Cent=   0 AccDes= 0.00D+00.
 Defaulting to unpruned grid for atomic number  77.
 Defaulting to unpruned grid for atomic number  77.
 Defaulting to unpruned grid for atomic number  77.
 Defaulting to unpruned grid for atomic number  77.
 Defaulting to unpruned grid for atomic number  77.
 Defaulting to unpruned grid for atomic number  77.
 Defaulting to unpruned grid for atomic number  77.
 Defaulting to unpruned grid for atomic number  77.
 Defaulting to unpruned grid for atomic number  77.
 Defaulting to unpruned grid for atomic number  77.
 Defaulting to unpruned grid for atomic number  77.
 Defaulting to unpruned grid for atomic number  77.
 Defaulting to unpruned grid for atomic number  77.
 Defaulting to unpruned grid for atomic number  77.
 Defaulting to unpruned grid for atomic number  77.
 Defaulting to unpruned grid for atomic number  77.
 End of G2Drv F.D. properties file   721 does not exist.
 End of G2Drv F.D. properties file   722 does not exist.
 End of G2Drv F.D. properties file   788 does not exist.
          IDoAtm=11111111111111111111111111111111111111111111111111
          IDoAtm=11111111111111111111111111111111111111111111111111
          IDoAtm=11111111
          Differentiating once with respect to electric field.
                with respect to dipole field.
          Differentiating once with respect to nuclear coordinates.
 Defaulting to unpruned grid for atomic number  77.
 CalDSu exits because no D1Ps are significant.
 Defaulting to unpruned grid for atomic number  77.
 Defaulting to unpruned grid for atomic number  77.
 Defaulting to unpruned grid for atomic number  77.
 Defaulting to unpruned grid for atomic number  77.
 Defaulting to unpruned grid for atomic number  77.
 Defaulting to unpruned grid for atomic number  77.
 Defaulting to unpruned grid for atomic number  77.
 Defaulting to unpruned grid for atomic number  77.
 Defaulting to unpruned grid for atomic number  77.
 Defaulting to unpruned grid for atomic number  77.
 Defaulting to unpruned grid for atomic number  77.
 Defaulting to unpruned grid for atomic number  77.
 Defaulting to unpruned grid for atomic number  77.
 Defaulting to unpruned grid for atomic number  77.
 Defaulting to unpruned grid for atomic number  77.
 Defaulting to unpruned grid for atomic number  77.
          There are   327 degrees of freedom in the 1st order CPHF.  IDoFFX=6 NUNeed=     3.
    324 vectors produced by pass  0 Test12= 1.43D-13 1.00D-09 XBig12= 5.48D+02 1.08D+01.
 AX will form    72 AO Fock derivatives at one time.
    324 vectors produced by pass  1 Test12= 1.43D-13 1.00D-09 XBig12= 7.88D+01 1.17D+00.
    324 vectors produced by pass  2 Test12= 1.43D-13 1.00D-09 XBig12= 1.07D+00 1.20D-01.
    324 vectors produced by pass  3 Test12= 1.43D-13 1.00D-09 XBig12= 8.07D-03 8.16D-03.
    324 vectors produced by pass  4 Test12= 1.43D-13 1.00D-09 XBig12= 3.54D-05 3.60D-04.
    294 vectors produced by pass  5 Test12= 1.43D-13 1.00D-09 XBig12= 7.64D-08 1.73D-05.
     85 vectors produced by pass  6 Test12= 1.43D-13 1.00D-09 XBig12= 1.06D-10 7.06D-07.
      3 vectors produced by pass  7 Test12= 1.43D-13 1.00D-09 XBig12= 1.33D-13 3.15D-08.
 InvSVY:  IOpt=1 It=  1 EMax= 2.49D-14
 Solved reduced A of dimension  2002 with   327 vectors.
 Isotropic polarizability for W=    0.000000      491.29 Bohr**3.
 End of Minotr F.D. properties file   721 does not exist.
 End of Minotr F.D. properties file   722 does not exist.
 End of Minotr F.D. properties file   788 does not exist.
 Hyperfine terms turned off by default for NAtoms > 100.

 **********************************************************************

            Population analysis using the SCF Density.

 **********************************************************************

 Orbital symmetries:
       Occupied  (A) (A) (A) (A) (A) (A) (A) (A) (A) (A) (A) (A)
                 (A) (A) (A) (A) (A) (A) (A) (A) (A) (A) (A) (A)
                 (A) (A) (A) (A) (A) (A) (A) (A) (A) (A) (A) (A)
                 (A) (A) (A) (A) (A) (A) (A) (A) (A) (A) (A) (A)
                 (A) (A) (A) (A) (A) (A) (A) (A) (A) (A) (A) (A)
                 (A) (A) (A) (A) (A) (A) (A) (A) (A) (A) (A) (A)
                 (A) (A) (A) (A) (A) (A) (A) (A) (A) (A) (A) (A)
                 (A) (A) (A) (A) (A) (A) (A) (A) (A) (A) (A) (A)
                 (A) (A) (A) (A) (A) (A) (A) (A) (A) (A) (A) (A)
                 (A) (A) (A) (A) (A) (A) (A) (A) (A) (A) (A) (A)
                 (A) (A) (A) (A) (A) (A) (A) (A) (A) (A) (A) (A)
                 (A) (A) (A) (A) (A) (A) (A) (A) (A) (A) (A) (A)
                 (A) (A) (A) (A) (A) (A) (A) (A) (A) (A) (A) (A)
                 (A) (A) (A) (A) (A) (A) (A) (A) (A) (A) (A) (A)
                 (A) (A) (A) (A) (A) (A) (A) (A) (A) (A) (A) (A)
                 (A) (A) (A) (A) (A) (A) (A) (A) (A) (A) (A) (A)
                 (A) (A) (A) (A) (A) (A) (A) (A) (A) (A) (A) (A)
                 (A) (A) (A) (A) (A) (A) (A) (A) (A)
       Virtual   (A) (A) (A) (A) (A) (A) (A) (A) (A) (A) (A) (A)
                 (A) (A) (A) (A) (A) (A) (A) (A) (A) (A) (A) (A)
                 (A) (A) (A) (A) (A) (A) (A) (A) (A) (A) (A) (A)
                 (A) (A) (A) (A) (A) (A) (A) (A) (A) (A) (A) (A)
                 (A) (A) (A) (A) (A) (A) (A) (A) (A) (A) (A) (A)
                 (A) (A) (A) (A) (A) (A) (A) (A) (A) (A) (A) (A)
                 (A) (A) (A) (A) (A) (A) (A) (A) (A) (A) (A) (A)
                 (A) (A) (A) (A) (A) (A) (A) (A) (A) (A) (A) (A)
                 (A) (A) (A) (A) (A) (A) (A) (A) (A) (A) (A) (A)
                 (A) (A) (A) (A) (A) (A) (A) (A) (A) (A) (A) (A)
                 (A) (A) (A) (A) (A) (A) (A) (A) (A) (A) (A) (A)
                 (A) (A) (A) (A) (A) (A) (A) (A) (A) (A) (A) (A)
                 (A) (A) (A) (A) (A) (A) (A) (A) (A) (A) (A) (A)
                 (A) (A) (A) (A) (A) (A) (A) (A) (A) (A) (A) (A)
                 (A) (A) (A) (A) (A) (A) (A) (A) (A) (A) (A) (A)
                 (A) (A) (A) (A) (A) (A) (A) (A) (A) (A) (A) (A)
                 (A) (A) (A) (A) (A) (A) (A) (A) (A) (A) (A) (A)
                 (A) (A) (A) (A) (A) (A) (A) (A) (A) (A) (A) (A)
                 (A) (A) (A) (A) (A) (A) (A) (A) (A) (A) (A) (A)
                 (A) (A) (A) (A) (A) (A) (A) (A) (A) (A) (A) (A)
                 (A) (A) (A) (A) (A) (A) (A) (A) (A) (A) (A) (A)
                 (A) (A) (A) (A) (A) (A) (A) (A) (A) (A) (A) (A)
                 (A) (A) (A) (A) (A) (A) (A) (A) (A) (A) (A) (A)
                 (A) (A) (A) (A) (A) (A) (A) (A) (A) (A) (A) (A)
                 (A) (A) (A) (A) (A) (A) (A) (A) (A) (A) (A) (A)
                 (A) (A) (A) (A) (A) (A) (A) (A) (A) (A) (A) (A)
                 (A) (A) (A) (A) (A) (A) (A) (A) (A) (A) (A) (A)
                 (A) (A) (A) (A) (A) (A) (A) (A) (A) (A) (A) (A)
                 (A) (A) (A) (A) (A) (A) (A) (A) (A) (A) (A) (A)
                 (A) (A) (A) (A) (A) (A) (A) (A) (A) (A) (A) (A)
                 (A) (A) (A) (A) (A) (A) (A) (A) (A) (A) (A) (A)
                 (A) (A) (A) (A) (A) (A) (A) (A) (A) (A) (A) (A)
                 (A) (A) (A) (A) (A) (A) (A) (A) (A) (A) (A) (A)
                 (A) (A) (A) (A) (A) (A) (A) (A) (A) (A) (A) (A)
                 (A) (A) (A) (A) (A) (A) (A) (A) (A) (A) (A) (A)
                 (A) (A) (A) (A) (A) (A) (A) (A) (A) (A) (A) (A)
                 (A) (A) (A) (A) (A) (A) (A) (A) (A) (A) (A) (A)
                 (A) (A) (A) (A) (A) (A) (A) (A) (A) (A) (A) (A)
                 (A) (A) (A) (A) (A) (A) (A) (A) (A) (A) (A) (A)
                 (A) (A) (A) (A) (A) (A) (A) (A) (A) (A) (A) (A)
                 (A) (A) (A) (A) (A) (A) (A) (A) (A) (A) (A) (A)
                 (A) (A) (A) (A) (A) (A) (A) (A) (A) (A) (A) (A)
                 (A) (A) (A) (A) (A) (A) (A) (A) (A) (A) (A) (A)
                 (A) (A) (A) (A) (A) (A) (A) (A) (A) (A) (A) (A)
                 (A) (A) (A) (A) (A) (A) (A) (A) (A) (A) (A) (A)
                 (A) (A) (A) (A) (A) (A) (A) (A) (A) (A) (A) (A)
                 (A) (A) (A) (A) (A) (A) (A) (A) (A) (A) (A) (A)
                 (A) (A) (A) (A) (A) (A) (A) (A) (A) (A) (A) (A)
                 (A) (A) (A) (A) (A) (A) (A) (A) (A) (A) (A) (A)
                 (A) (A) (A) (A) (A) (A) (A) (A) (A) (A) (A) (A)
                 (A) (A) (A) (A) (A) (A) (A) (A) (A) (A) (A) (A)
                 (A) (A) (A) (A) (A) (A) (A) (A) (A) (A) (A) (A)
                 (A) (A) (A) (A) (A) (A) (A) (A) (A) (A) (A) (A)
                 (A) (A) (A) (A) (A) (A) (A) (A) (A) (A) (A) (A)
                 (A) (A) (A) (A) (A) (A) (A) (A) (A) (A) (A) (A)
                 (A) (A) (A) (A) (A) (A) (A) (A) (A) (A) (A)
 The electronic state is 1-A.
 Alpha  occ. eigenvalues --  -24.83235 -24.83143 -24.82880 -24.82586 -24.82530
 Alpha  occ. eigenvalues --  -24.82482 -19.22110 -19.21856 -19.19894 -19.19775
 Alpha  occ. eigenvalues --  -19.19749 -19.19512 -19.19070 -14.45688 -14.44781
 Alpha  occ. eigenvalues --  -14.42354 -10.51413 -10.51283 -10.34363 -10.32771
 Alpha  occ. eigenvalues --  -10.32689 -10.30924 -10.30818 -10.30436 -10.30145
 Alpha  occ. eigenvalues --  -10.29960 -10.29744 -10.29391 -10.29326 -10.29117
 Alpha  occ. eigenvalues --  -10.29100 -10.29061 -10.29038 -10.28932 -10.28813
 Alpha  occ. eigenvalues --  -10.26437 -10.24724 -10.24206 -10.23120 -10.23085
 Alpha  occ. eigenvalues --  -10.22714 -10.22711 -10.22693 -10.22667 -10.22627
 Alpha  occ. eigenvalues --  -10.22533 -10.22456 -10.22423 -10.22039 -10.21660
 Alpha  occ. eigenvalues --  -10.21133  -6.81596  -6.78919  -6.78123  -3.60411
 Alpha  occ. eigenvalues --   -2.03000  -2.02289  -2.01761  -1.35777  -1.35655
 Alpha  occ. eigenvalues --   -1.27262  -1.27175  -1.26767  -1.26604  -1.07774
 Alpha  occ. eigenvalues --   -1.05756  -1.05418  -1.04447  -1.01245  -1.00598
 Alpha  occ. eigenvalues --   -0.98834  -0.98518  -0.98157  -0.93861  -0.86609
 Alpha  occ. eigenvalues --   -0.85790  -0.84044  -0.81097  -0.80387  -0.80139
 Alpha  occ. eigenvalues --   -0.79957  -0.78058  -0.75560  -0.75329  -0.74695
 Alpha  occ. eigenvalues --   -0.74490  -0.72426  -0.71712  -0.70633  -0.70279
 Alpha  occ. eigenvalues --   -0.70070  -0.69735  -0.69180  -0.68643  -0.67586
 Alpha  occ. eigenvalues --   -0.67482  -0.67318  -0.66335  -0.65149  -0.63199
 Alpha  occ. eigenvalues --   -0.62035  -0.61769  -0.61631  -0.61577  -0.61464
 Alpha  occ. eigenvalues --   -0.61239  -0.61026  -0.60595  -0.60177  -0.56657
 Alpha  occ. eigenvalues --   -0.55983  -0.54825  -0.54309  -0.54250  -0.54030
 Alpha  occ. eigenvalues --   -0.53192  -0.52826  -0.52719  -0.51544  -0.50234
 Alpha  occ. eigenvalues --   -0.49880  -0.49347  -0.49046  -0.49000  -0.48946
 Alpha  occ. eigenvalues --   -0.48675  -0.48204  -0.47975  -0.47578  -0.47258
 Alpha  occ. eigenvalues --   -0.47173  -0.46878  -0.46538  -0.46373  -0.46107
 Alpha  occ. eigenvalues --   -0.45873  -0.45824  -0.45595  -0.45133  -0.44972
 Alpha  occ. eigenvalues --   -0.44839  -0.44723  -0.44443  -0.44367  -0.44177
 Alpha  occ. eigenvalues --   -0.43722  -0.43563  -0.43309  -0.43094  -0.43048
 Alpha  occ. eigenvalues --   -0.42943  -0.42909  -0.42639  -0.41962  -0.40745
 Alpha  occ. eigenvalues --   -0.40617  -0.40392  -0.40293  -0.40107  -0.39953
 Alpha  occ. eigenvalues --   -0.39926  -0.39865  -0.39809  -0.39656  -0.39581
 Alpha  occ. eigenvalues --   -0.39387  -0.39156  -0.38981  -0.38814  -0.38547
 Alpha  occ. eigenvalues --   -0.38320  -0.37550  -0.37348  -0.37333  -0.37318
 Alpha  occ. eigenvalues --   -0.36927  -0.36683  -0.36597  -0.36496  -0.35940
 Alpha  occ. eigenvalues --   -0.35888  -0.35703  -0.35559  -0.35472  -0.35120
 Alpha  occ. eigenvalues --   -0.34802  -0.34506  -0.34409  -0.34316  -0.33979
 Alpha  occ. eigenvalues --   -0.33621  -0.33387  -0.33157  -0.32396  -0.32141
 Alpha  occ. eigenvalues --   -0.31446  -0.31129  -0.30989  -0.30788  -0.30025
 Alpha  occ. eigenvalues --   -0.29748  -0.28247  -0.27832  -0.27732  -0.26942
 Alpha  occ. eigenvalues --   -0.26430  -0.25872  -0.25391  -0.24640  -0.23669
 Alpha  occ. eigenvalues --   -0.20494  -0.19766  -0.19592
 Alpha virt. eigenvalues --   -0.08359  -0.04489  -0.03711  -0.00236   0.03066
 Alpha virt. eigenvalues --    0.04292   0.04672   0.05022   0.06649   0.07297
 Alpha virt. eigenvalues --    0.07681   0.07883   0.08839   0.09447   0.09519
 Alpha virt. eigenvalues --    0.10301   0.10812   0.11331   0.11502   0.11769
 Alpha virt. eigenvalues --    0.12358   0.12550   0.12724   0.12849   0.13063
 Alpha virt. eigenvalues --    0.13349   0.13461   0.13735   0.13995   0.14339
 Alpha virt. eigenvalues --    0.14645   0.15071   0.15158   0.15330   0.15364
 Alpha virt. eigenvalues --    0.15550   0.15956   0.16218   0.16389   0.16685
 Alpha virt. eigenvalues --    0.16748   0.17035   0.17324   0.17332   0.17583
 Alpha virt. eigenvalues --    0.17671   0.18000   0.18282   0.18575   0.18665
 Alpha virt. eigenvalues --    0.18881   0.19063   0.19157   0.19286   0.19516
 Alpha virt. eigenvalues --    0.19720   0.20078   0.20201   0.20282   0.20437
 Alpha virt. eigenvalues --    0.20754   0.20950   0.21065   0.21355   0.21601
 Alpha virt. eigenvalues --    0.21855   0.22057   0.22317   0.22416   0.22636
 Alpha virt. eigenvalues --    0.22689   0.22969   0.23170   0.23557   0.23999
 Alpha virt. eigenvalues --    0.24161   0.24194   0.24661   0.24866   0.25208
 Alpha virt. eigenvalues --    0.25362   0.25422   0.25604   0.26104   0.26282
 Alpha virt. eigenvalues --    0.26645   0.26762   0.26969   0.27099   0.27256
 Alpha virt. eigenvalues --    0.27614   0.27975   0.28057   0.28354   0.28649
 Alpha virt. eigenvalues --    0.29284   0.29876   0.30262   0.30611   0.31223
 Alpha virt. eigenvalues --    0.31713   0.31993   0.32602   0.33197   0.33779
 Alpha virt. eigenvalues --    0.34112   0.34462   0.34865   0.36131   0.36293
 Alpha virt. eigenvalues --    0.36986   0.37719   0.38127   0.38731   0.39210
 Alpha virt. eigenvalues --    0.39506   0.39864   0.40272   0.40707   0.42545
 Alpha virt. eigenvalues --    0.42878   0.45015   0.46106   0.46649   0.46997
 Alpha virt. eigenvalues --    0.47412   0.48455   0.48922   0.49159   0.49322
 Alpha virt. eigenvalues --    0.49878   0.50238   0.50695   0.51040   0.51292
 Alpha virt. eigenvalues --    0.51612   0.51839   0.52020   0.52680   0.52967
 Alpha virt. eigenvalues --    0.53559   0.53606   0.54365   0.54522   0.54899
 Alpha virt. eigenvalues --    0.55337   0.55675   0.56084   0.56284   0.56476
 Alpha virt. eigenvalues --    0.56987   0.57166   0.57358   0.57643   0.57899
 Alpha virt. eigenvalues --    0.58225   0.58386   0.58650   0.59258   0.59462
 Alpha virt. eigenvalues --    0.59648   0.59776   0.59874   0.60364   0.60591
 Alpha virt. eigenvalues --    0.60938   0.61007   0.61462   0.61726   0.62289
 Alpha virt. eigenvalues --    0.62743   0.62833   0.63195   0.63707   0.63962
 Alpha virt. eigenvalues --    0.64288   0.64505   0.65036   0.65322   0.65875
 Alpha virt. eigenvalues --    0.65951   0.66337   0.66426   0.66776   0.67097
 Alpha virt. eigenvalues --    0.67312   0.67828   0.68144   0.68254   0.68887
 Alpha virt. eigenvalues --    0.69579   0.70109   0.70317   0.70462   0.70988
 Alpha virt. eigenvalues --    0.71412   0.71707   0.71962   0.72245   0.72459
 Alpha virt. eigenvalues --    0.72887   0.73054   0.73167   0.74015   0.74117
 Alpha virt. eigenvalues --    0.74266   0.74461   0.74940   0.75113   0.75295
 Alpha virt. eigenvalues --    0.76190   0.76653   0.77286   0.77512   0.77897
 Alpha virt. eigenvalues --    0.78140   0.78854   0.78922   0.79494   0.79554
 Alpha virt. eigenvalues --    0.79985   0.80678   0.81312   0.81954   0.82413
 Alpha virt. eigenvalues --    0.82945   0.83151   0.83324   0.83815   0.83991
 Alpha virt. eigenvalues --    0.84150   0.84589   0.84656   0.85022   0.85119
 Alpha virt. eigenvalues --    0.85219   0.85603   0.86004   0.86073   0.86457
 Alpha virt. eigenvalues --    0.86546   0.86789   0.87319   0.87660   0.88041
 Alpha virt. eigenvalues --    0.88115   0.88345   0.88661   0.88941   0.89385
 Alpha virt. eigenvalues --    0.89430   0.89854   0.90009   0.90314   0.90363
 Alpha virt. eigenvalues --    0.90782   0.91144   0.91597   0.91856   0.91965
 Alpha virt. eigenvalues --    0.92634   0.92935   0.93174   0.93540   0.93810
 Alpha virt. eigenvalues --    0.94147   0.94219   0.94415   0.94699   0.95037
 Alpha virt. eigenvalues --    0.95598   0.95759   0.95895   0.96114   0.96409
 Alpha virt. eigenvalues --    0.96524   0.97076   0.97245   0.97594   0.98112
 Alpha virt. eigenvalues --    0.98444   0.98876   0.98974   0.99712   0.99928
 Alpha virt. eigenvalues --    1.00147   1.00878   1.01193   1.01582   1.02104
 Alpha virt. eigenvalues --    1.02860   1.03129   1.03895   1.04366   1.04655
 Alpha virt. eigenvalues --    1.05131   1.05576   1.05920   1.06525   1.06952
 Alpha virt. eigenvalues --    1.07302   1.08046   1.08745   1.09125   1.09777
 Alpha virt. eigenvalues --    1.10970   1.11563   1.12426   1.13178   1.13754
 Alpha virt. eigenvalues --    1.14186   1.14634   1.14867   1.15383   1.15960
 Alpha virt. eigenvalues --    1.16332   1.16612   1.17284   1.17328   1.17399
 Alpha virt. eigenvalues --    1.17843   1.18927   1.19518   1.19772   1.20153
 Alpha virt. eigenvalues --    1.21033   1.21317   1.21737   1.22087   1.22714
 Alpha virt. eigenvalues --    1.23345   1.24099   1.24461   1.25300   1.25592
 Alpha virt. eigenvalues --    1.26646   1.27209   1.27767   1.28230   1.28310
 Alpha virt. eigenvalues --    1.28564   1.29042   1.29941   1.30176   1.30759
 Alpha virt. eigenvalues --    1.30945   1.32077   1.32468   1.33222   1.33829
 Alpha virt. eigenvalues --    1.34147   1.34314   1.34757   1.35151   1.35741
 Alpha virt. eigenvalues --    1.35995   1.36709   1.36948   1.37293   1.37747
 Alpha virt. eigenvalues --    1.38015   1.38486   1.38697   1.38888   1.39277
 Alpha virt. eigenvalues --    1.39580   1.39816   1.40100   1.41025   1.41890
 Alpha virt. eigenvalues --    1.42299   1.42823   1.43100   1.43796   1.43988
 Alpha virt. eigenvalues --    1.44559   1.45169   1.45758   1.45956   1.46757
 Alpha virt. eigenvalues --    1.47011   1.47520   1.47794   1.48885   1.49646
 Alpha virt. eigenvalues --    1.50225   1.50995   1.51229   1.51626   1.52914
 Alpha virt. eigenvalues --    1.52922   1.53858   1.54520   1.54831   1.55368
 Alpha virt. eigenvalues --    1.55672   1.56566   1.57594   1.58923   1.60160
 Alpha virt. eigenvalues --    1.60944   1.61773   1.62791   1.63340   1.64079
 Alpha virt. eigenvalues --    1.64394   1.64634   1.64904   1.65207   1.66124
 Alpha virt. eigenvalues --    1.66629   1.66895   1.67805   1.68153   1.68438
 Alpha virt. eigenvalues --    1.69126   1.69619   1.70039   1.70879   1.71318
 Alpha virt. eigenvalues --    1.71622   1.72142   1.72838   1.73409   1.74618
 Alpha virt. eigenvalues --    1.74663   1.75734   1.76164   1.76629   1.76933
 Alpha virt. eigenvalues --    1.77580   1.77903   1.78070   1.79051   1.79173
 Alpha virt. eigenvalues --    1.79808   1.80629   1.81351   1.81689   1.81959
 Alpha virt. eigenvalues --    1.82100   1.82544   1.82994   1.83707   1.84153
 Alpha virt. eigenvalues --    1.84657   1.84710   1.85016   1.85628   1.85761
 Alpha virt. eigenvalues --    1.86264   1.86515   1.86652   1.87149   1.87402
 Alpha virt. eigenvalues --    1.87874   1.87992   1.88214   1.88850   1.89166
 Alpha virt. eigenvalues --    1.90018   1.90671   1.90775   1.91219   1.91442
 Alpha virt. eigenvalues --    1.91817   1.92115   1.92445   1.92966   1.93171
 Alpha virt. eigenvalues --    1.93339   1.93537   1.93803   1.93991   1.94267
 Alpha virt. eigenvalues --    1.94957   1.95135   1.95893   1.96536   1.96836
 Alpha virt. eigenvalues --    1.97575   1.98052   1.98590   1.98961   1.99691
 Alpha virt. eigenvalues --    2.00133   2.00982   2.01502   2.01632   2.02095
 Alpha virt. eigenvalues --    2.02214   2.02709   2.02803   2.03344   2.03363
 Alpha virt. eigenvalues --    2.03726   2.04267   2.04689   2.04801   2.04985
 Alpha virt. eigenvalues --    2.05781   2.06009   2.06182   2.06565   2.06934
 Alpha virt. eigenvalues --    2.07159   2.07383   2.07603   2.07679   2.08112
 Alpha virt. eigenvalues --    2.08755   2.09564   2.09804   2.10299   2.10491
 Alpha virt. eigenvalues --    2.10822   2.11015   2.11345   2.11623   2.12166
 Alpha virt. eigenvalues --    2.12492   2.12931   2.13146   2.13654   2.13898
 Alpha virt. eigenvalues --    2.14115   2.14722   2.15569   2.15808   2.15967
 Alpha virt. eigenvalues --    2.16706   2.16992   2.17733   2.18116   2.18739
 Alpha virt. eigenvalues --    2.19055   2.19223   2.19237   2.19900   2.20044
 Alpha virt. eigenvalues --    2.20243   2.20310   2.21004   2.21285   2.21572
 Alpha virt. eigenvalues --    2.22005   2.22488   2.22858   2.22932   2.23141
 Alpha virt. eigenvalues --    2.23596   2.24137   2.24499   2.24751   2.24963
 Alpha virt. eigenvalues --    2.25847   2.26262   2.26474   2.27288   2.27466
 Alpha virt. eigenvalues --    2.27786   2.28061   2.28504   2.29196   2.29505
 Alpha virt. eigenvalues --    2.30914   2.31146   2.31367   2.32059   2.32261
 Alpha virt. eigenvalues --    2.32760   2.33454   2.33791   2.33986   2.34984
 Alpha virt. eigenvalues --    2.35822   2.35999   2.37000   2.38801   2.39523
 Alpha virt. eigenvalues --    2.39730   2.41054   2.41518   2.43054   2.43627
 Alpha virt. eigenvalues --    2.43908   2.44281   2.44355   2.45456   2.46450
 Alpha virt. eigenvalues --    2.47218   2.47846   2.48181   2.49214   2.49266
 Alpha virt. eigenvalues --    2.49774   2.49970   2.51101   2.51567   2.51933
 Alpha virt. eigenvalues --    2.52671   2.54414   2.54632   2.59229   2.60100
 Alpha virt. eigenvalues --    2.60154   2.60642   2.61959   2.62325   2.64029
 Alpha virt. eigenvalues --    2.64776   2.65091   2.65460   2.65774   2.65996
 Alpha virt. eigenvalues --    2.66573   2.67819   2.68902   2.70696   2.71379
 Alpha virt. eigenvalues --    2.74055   2.74561   2.76328   2.76527   2.77223
 Alpha virt. eigenvalues --    2.77490   2.78573   2.78699   2.79435   2.80118
 Alpha virt. eigenvalues --    2.80336   2.80826   2.81155   2.81569   2.82154
 Alpha virt. eigenvalues --    2.82430   2.83739   2.84513   2.88431   2.88650
 Alpha virt. eigenvalues --    2.89983   2.91121   2.91944   2.92264   2.93238
 Alpha virt. eigenvalues --    2.93844   2.94122   2.95690   2.97098   2.98372
 Alpha virt. eigenvalues --    2.99157   3.01829   3.02932   3.04263   3.05459
 Alpha virt. eigenvalues --    3.05873   3.06058   3.06890   3.08614   3.10917
 Alpha virt. eigenvalues --    3.11528   3.11994   3.12558   3.12743   3.12979
 Alpha virt. eigenvalues --    3.14520   3.19813   3.25959   3.32136   3.45340
 Alpha virt. eigenvalues --   12.08295
          Condensed to atoms (all electrons):
 Mulliken charges:
               1
     1  C    0.334133
     2  C    0.051310
     3  C   -0.072762
     4  C   -0.159170
     5  C   -0.187288
     6  C    0.310751
     7  C    0.025135
     8  C   -0.079175
     9  C   -0.161970
    10  C   -0.189285
    11  H    0.225323
    12  H    0.199246
    13  H    0.176749
    14  H    0.239500
    15  H    0.199355
    16  H    0.176988
    17  N   -0.548201
    18  N   -0.486094
    19  Ir  -0.079492
    20  O   -0.515760
    21  O   -0.507894
    22  O   -0.539086
    23  B    0.706383
    24  B    0.461406
    25  B    0.424771
    26  O   -0.522181
    27  O   -0.537783
    28  C    0.292458
    29  C    0.302919
    30  C    0.305800
    31  C    0.291186
    32  C    0.273557
    33  C    0.283155
    34  O   -0.504879
    35  C   -0.513849
    36  H    0.176315
    37  H    0.148723
    38  H    0.164910
    39  C   -0.502108
    40  H    0.150736
    41  H    0.162884
    42  H    0.167422
    43  C   -0.506726
    44  H    0.148283
    45  H    0.188328
    46  H    0.155981
    47  C   -0.506791
    48  H    0.163019
    49  H    0.150411
    50  H    0.167049
    51  C   -0.497013
    52  H    0.153842
    53  H    0.139189
    54  H    0.236379
    55  C   -0.504770
    56  H    0.172622
    57  H    0.163153
    58  H    0.153214
    59  C   -0.514048
    60  H    0.157737
    61  H    0.196522
    62  H    0.150064
    63  C   -0.500066
    64  H    0.162712
    65  H    0.171727
    66  H    0.155841
    67  C   -0.497657
    68  H    0.143769
    69  H    0.159722
    70  H    0.176727
    71  C   -0.512507
    72  H    0.166572
    73  H    0.152126
    74  H    0.161561
    75  C   -0.509902
    76  H    0.155445
    77  H    0.152811
    78  H    0.167126
    79  C   -0.508265
    80  H    0.167576
    81  H    0.148327
    82  H    0.166919
    83  H    0.012943
    84  C    0.648571
    85  O   -0.516087
    86  C   -0.405325
    87  H    0.170213
    88  H    0.196197
    89  C   -0.380428
    90  H    0.164219
    91  H    0.206840
    92  N   -0.379073
    93  C   -0.365975
    94  H    0.209642
    95  H    0.165370
    96  H    0.185300
    97  C   -0.482670
    98  H    0.169882
    99  H    0.184180
   100  C    0.966072
   101  F   -0.307800
   102  F   -0.314548
   103  F   -0.311686
   104  C    0.963883
   105  F   -0.306615
   106  F   -0.316785
   107  F   -0.305146
   108  H    0.157682
 Sum of Mulliken charges =  -0.00000
 Mulliken charges with hydrogens summed into heavy atoms:
               1
     1  C    0.334133
     2  C    0.276633
     3  C   -0.072762
     4  C    0.040076
     5  C   -0.010539
     6  C    0.310751
     7  C    0.264635
     8  C   -0.079175
     9  C    0.037386
    10  C   -0.012297
    17  N   -0.548201
    18  N   -0.486094
    19  Ir  -0.066549
    20  O   -0.515760
    21  O   -0.507894
    22  O   -0.539086
    23  B    0.706383
    24  B    0.461406
    25  B    0.424771
    26  O   -0.522181
    27  O   -0.537783
    28  C    0.292458
    29  C    0.302919
    30  C    0.305800
    31  C    0.291186
    32  C    0.273557
    33  C    0.283155
    34  O   -0.504879
    35  C   -0.023902
    39  C   -0.021067
    43  C   -0.014135
    47  C   -0.026312
    51  C    0.032397
    55  C   -0.015782
    59  C   -0.009726
    63  C   -0.009786
    67  C   -0.017439
    71  C   -0.032248
    75  C   -0.034519
    79  C   -0.025444
    84  C    0.648571
    85  O   -0.516087
    86  C   -0.038914
    89  C   -0.009368
    92  N   -0.379073
    93  C    0.194337
    97  C    0.029074
   100  C    0.966072
   101  F   -0.307800
   102  F   -0.314548
   103  F   -0.311686
   104  C    0.963883
   105  F   -0.306615
   106  F   -0.316785
   107  F   -0.305146
 APT charges:
               1
     1  C    0.139560
     2  C    0.015090
     3  C   -0.140935
     4  C    0.031408
     5  C   -0.153913
     6  C    0.213971
     7  C    0.045607
     8  C   -0.183289
     9  C    0.081849
    10  C   -0.184712
    11  H    0.130495
    12  H    0.055325
    13  H    0.042801
    14  H    0.161141
    15  H    0.057663
    16  H    0.043502
    17  N    0.004584
    18  N   -0.161406
    19  Ir  -0.485891
    20  O   -0.907580
    21  O   -0.874074
    22  O   -0.972091
    23  B    1.144466
    24  B    1.260683
    25  B    1.214101
    26  O   -0.991659
    27  O   -0.982830
    28  C    0.471284
    29  C    0.466867
    30  C    0.495260
    31  C    0.473897
    32  C    0.468440
    33  C    0.479202
    34  O   -0.925533
    35  C   -0.009912
    36  H    0.004862
    37  H   -0.014652
    38  H   -0.006258
    39  C   -0.020180
    40  H   -0.019082
    41  H   -0.003215
    42  H   -0.016267
    43  C   -0.038053
    44  H   -0.026456
    45  H    0.019109
    46  H    0.003710
    47  C   -0.008235
    48  H    0.007235
    49  H   -0.017791
    50  H    0.003566
    51  C   -0.050876
    52  H   -0.005089
    53  H   -0.021946
    54  H    0.072081
    55  C   -0.005746
    56  H    0.001220
    57  H   -0.009733
    58  H   -0.005794
    59  C   -0.041379
    60  H    0.010160
    61  H    0.027358
    62  H   -0.009369
    63  C   -0.017308
    64  H   -0.007252
    65  H    0.003662
    66  H   -0.014247
    67  C   -0.035050
    68  H   -0.028288
    69  H   -0.000348
    70  H    0.015775
    71  C   -0.004747
    72  H   -0.000491
    73  H   -0.018069
    74  H   -0.004285
    75  C   -0.015743
    76  H   -0.008060
    77  H   -0.026676
    78  H   -0.001361
    79  C   -0.005385
    80  H    0.001206
    81  H   -0.022254
    82  H    0.001452
    83  H   -0.156810
    84  C    1.083932
    85  O   -0.899183
    86  C   -0.011696
    87  H   -0.029206
    88  H    0.039740
    89  C    0.003064
    90  H   -0.035386
    91  H    0.057259
    92  N   -0.699321
    93  C    0.289808
    94  H    0.006929
    95  H   -0.027892
    96  H    0.025139
    97  C    0.066099
    98  H   -0.018373
    99  H   -0.001731
   100  C    1.826039
   101  F   -0.519161
   102  F   -0.606934
   103  F   -0.612929
   104  C    1.841749
   105  F   -0.622078
   106  F   -0.597704
   107  F   -0.542002
   108  H   -0.024434
 Sum of APT charges =  -0.00000
 APT charges with hydrogens summed into heavy atoms:
               1
     1  C    0.139560
     2  C    0.145585
     3  C   -0.140935
     4  C    0.086733
     5  C   -0.111112
     6  C    0.213971
     7  C    0.206747
     8  C   -0.183289
     9  C    0.139513
    10  C   -0.141210
    17  N    0.004584
    18  N   -0.161406
    19  Ir  -0.642701
    20  O   -0.907580
    21  O   -0.874074
    22  O   -0.972091
    23  B    1.144466
    24  B    1.260683
    25  B    1.214101
    26  O   -0.991659
    27  O   -0.982830
    28  C    0.471284
    29  C    0.466867
    30  C    0.495260
    31  C    0.473897
    32  C    0.468440
    33  C    0.479202
    34  O   -0.925533
    35  C   -0.025960
    39  C   -0.058745
    43  C   -0.041689
    47  C   -0.015224
    51  C   -0.005831
    55  C   -0.020053
    59  C   -0.013229
    63  C   -0.035145
    67  C   -0.047911
    71  C   -0.027592
    75  C   -0.051840
    79  C   -0.024981
    84  C    1.083932
    85  O   -0.899183
    86  C   -0.001162
    89  C    0.024937
    92  N   -0.699321
    93  C    0.293984
    97  C    0.021562
   100  C    1.826039
   101  F   -0.519161
   102  F   -0.606934
   103  F   -0.612929
   104  C    1.841749
   105  F   -0.622078
   106  F   -0.597704
   107  F   -0.542002
 Electronic spatial extent (au):  <R**2>=          32226.5904
 Charge=              0.0000 electrons
 Dipole moment (field-independent basis, Debye):
    X=              0.3187    Y=              2.2169    Z=             -0.0381  Tot=              2.2401
 Quadrupole moment (field-independent basis, Debye-Ang):
   XX=           -342.1926   YY=           -300.9540   ZZ=           -329.3602
   XY=             -4.7359   XZ=              4.6079   YZ=              0.6174
 Traceless Quadrupole moment (field-independent basis, Debye-Ang):
   XX=            -18.0236   YY=             23.2149   ZZ=             -5.1913
   XY=             -4.7359   XZ=              4.6079   YZ=              0.6174
 Octapole moment (field-independent basis, Debye-Ang**2):
  XXX=             14.8948  YYY=            215.6491  ZZZ=            -50.4654  XYY=            -54.1337
  XXY=            -43.9676  XXZ=            -15.0273  XZZ=             -1.8356  YZZ=            -11.8592
  YYZ=            -60.0715  XYZ=              8.9086
 Hexadecapole moment (field-independent basis, Debye-Ang**3):
 XXXX=         -18668.9105 YYYY=         -12644.7531 ZZZZ=          -8501.1082 XXXY=            -68.5152
 XXXZ=              1.9364 YYYX=            -14.1422 YYYZ=           -167.3715 ZZZX=            -24.0323
 ZZZY=            159.5883 XXYY=          -5211.4218 XXZZ=          -4483.4389 YYZZ=          -3705.9294
 XXYZ=            -33.0305 YYXZ=             37.1087 ZZXY=             11.0792
 N-N= 9.656243794718D+03 E-N=-2.592058635282D+04  KE= 2.745764922976D+03
  Exact polarizability:     545.035      -0.355     534.898       6.584      -3.906     393.925
 Approx polarizability:     776.064      -4.644     790.799       2.386      -6.418     563.301
   1 Symmetry operations used in ECPInt.
 ECPInt:  NShTT=   54615 NPrTT=  339395 LenC2=   41240 LenP2D=  127743.
 LDataN:  DoStor=T MaxTD1= 8 Len=  415
 Calling FoFJK, ICntrl=    100127 FMM=F ISym2X=0 I1Cent= 0 IOpClX= 0 NMat=1 NMatS=1 NMatT=0.
 Defaulting to unpruned grid for atomic number  77.
 Defaulting to unpruned grid for atomic number  77.
 Defaulting to unpruned grid for atomic number  77.
 Defaulting to unpruned grid for atomic number  77.
 Defaulting to unpruned grid for atomic number  77.
 Defaulting to unpruned grid for atomic number  77.
 Defaulting to unpruned grid for atomic number  77.
 Defaulting to unpruned grid for atomic number  77.
 Defaulting to unpruned grid for atomic number  77.
 Defaulting to unpruned grid for atomic number  77.
 Defaulting to unpruned grid for atomic number  77.
 Defaulting to unpruned grid for atomic number  77.
 Defaulting to unpruned grid for atomic number  77.
 Defaulting to unpruned grid for atomic number  77.
 Defaulting to unpruned grid for atomic number  77.
 Defaulting to unpruned grid for atomic number  77.
 Full mass-weighted force constant matrix:
 Low frequencies ---   -0.8798   -0.0008   -0.0005   -0.0003    5.5582    6.1243
 Low frequencies ---   15.0889   21.6729   25.1531
 Diagonal vibrational polarizability:
       83.9963750      60.6229513     161.4011048
 Harmonic frequencies (cm**-1), IR intensities (KM/Mole), Raman scattering
 activities (A**4/AMU), depolarization ratios for plane and unpolarized
 incident light, reduced masses (AMU), force constants (mDyne/A),
 and normal coordinates:
                      1                      2                      3
                      A                      A                      A
 Frequencies --     15.0451                21.5576                25.0244
 Red. masses --      7.6054                 9.2402                 6.9266
 Frc consts  --      0.0010                 0.0025                 0.0026
 IR Inten    --      0.0109                 0.1791                 0.1601
  Atom AN      X      Y      Z        X      Y      Z        X      Y      Z
     1   6     0.01  -0.00   0.00    -0.01  -0.01  -0.07     0.01  -0.01  -0.06
     2   6     0.01  -0.00   0.02    -0.01  -0.01  -0.04     0.01   0.00   0.01
     3   6     0.01   0.01   0.08    -0.01  -0.01  -0.06     0.01   0.00  -0.01
     4   6     0.01   0.01   0.10    -0.01  -0.02  -0.09     0.01  -0.01  -0.06
     5   6     0.01   0.01   0.06    -0.01  -0.02  -0.10     0.01  -0.01  -0.08
     6   6     0.01  -0.01  -0.02    -0.01  -0.01  -0.05     0.01  -0.01  -0.06
     7   6     0.01  -0.01  -0.03    -0.01   0.00   0.00     0.01  -0.01   0.00
     8   6     0.01  -0.01  -0.05    -0.02   0.01   0.02     0.01  -0.01   0.01
     9   6     0.01  -0.01  -0.06    -0.02   0.00  -0.00     0.01  -0.01  -0.04
    10   6     0.01  -0.01  -0.05    -0.02  -0.00  -0.04     0.01  -0.01  -0.07
    11   1     0.01  -0.01  -0.00    -0.01  -0.01  -0.02     0.01   0.01   0.04
    12   1     0.01   0.02   0.15    -0.01  -0.02  -0.11     0.01  -0.01  -0.08
    13   1     0.01   0.01   0.08    -0.01  -0.02  -0.13     0.01  -0.02  -0.12
    14   1     0.01  -0.01  -0.02    -0.01   0.00   0.01     0.01  -0.01   0.02
    15   1     0.02  -0.01  -0.08    -0.03   0.00   0.01     0.01  -0.01  -0.04
    16   1     0.02  -0.00  -0.06    -0.02  -0.01  -0.06     0.01  -0.01  -0.10
    17   7     0.01  -0.00  -0.02    -0.01  -0.01  -0.04     0.01  -0.01  -0.02
    18   7     0.01  -0.01  -0.01    -0.01  -0.00  -0.04     0.01  -0.01  -0.03
    19  77     0.01  -0.01  -0.02    -0.00  -0.00  -0.02     0.00  -0.01  -0.01
    20   8    -0.13  -0.01  -0.03     0.12   0.05  -0.03    -0.10  -0.02  -0.01
    21   8     0.01  -0.01   0.05     0.01  -0.01  -0.02    -0.02  -0.01  -0.01
    22   8    -0.00  -0.01  -0.05    -0.00   0.00  -0.00     0.01   0.00   0.03
    23   5     0.03  -0.02   0.04    -0.00  -0.01  -0.01    -0.02  -0.02  -0.01
    24   5    -0.05   0.00  -0.02     0.03   0.02  -0.02    -0.01   0.00  -0.01
    25   5     0.00  -0.01  -0.04     0.01  -0.00   0.01    -0.00  -0.00   0.00
    26   8     0.01  -0.01  -0.04     0.02  -0.01   0.04    -0.02  -0.00  -0.01
    27   8    -0.02   0.03  -0.00    -0.04  -0.00  -0.01     0.07   0.04  -0.01
    28   6    -0.05   0.03  -0.01    -0.02   0.02  -0.02     0.06   0.04  -0.01
    29   6    -0.13   0.03  -0.03     0.10   0.02  -0.03    -0.07   0.03  -0.02
    30   6    -0.00  -0.01  -0.06     0.01  -0.00   0.02     0.00   0.01   0.03
    31   6     0.00  -0.01  -0.05     0.02   0.00   0.05    -0.01   0.00   0.00
    32   6    -0.01   0.00   0.06    -0.00  -0.00  -0.01    -0.00  -0.01  -0.01
    33   6     0.00  -0.00   0.06    -0.01  -0.00  -0.01     0.01  -0.02  -0.03
    34   8     0.02  -0.01   0.04    -0.01  -0.00  -0.01    -0.00  -0.02  -0.02
    35   6    -0.17  -0.00  -0.04     0.14   0.09  -0.04    -0.12  -0.03  -0.02
    36   1    -0.15  -0.06  -0.04     0.11   0.17  -0.06    -0.09  -0.12   0.01
    37   1    -0.17   0.03  -0.04     0.11   0.06  -0.04    -0.08   0.02  -0.02
    38   1    -0.23  -0.00  -0.06     0.22   0.08  -0.04    -0.22  -0.03  -0.03
    39   6    -0.16   0.10  -0.03     0.14  -0.08  -0.01    -0.12   0.15  -0.05
    40   1    -0.17   0.14  -0.03     0.13  -0.12  -0.00    -0.11   0.20  -0.05
    41   1    -0.13   0.12  -0.01     0.11  -0.12  -0.00    -0.08   0.19  -0.04
    42   1    -0.20   0.09  -0.05     0.21  -0.07   0.00    -0.21   0.13  -0.06
    43   6    -0.03  -0.03  -0.02    -0.06   0.12  -0.03     0.12  -0.07   0.02
    44   1    -0.05  -0.04  -0.02    -0.05   0.14  -0.03     0.11  -0.08   0.02
    45   1    -0.04  -0.07  -0.03    -0.03   0.17  -0.04     0.08  -0.13   0.04
    46   1     0.02  -0.03  -0.01    -0.14   0.11  -0.01     0.20  -0.06   0.03
    47   6    -0.04   0.10   0.01    -0.06  -0.06  -0.01     0.12   0.14  -0.02
    48   1    -0.05   0.15   0.02    -0.04  -0.14  -0.00     0.09   0.22  -0.03
    49   1    -0.07   0.10   0.00    -0.04  -0.04  -0.01     0.10   0.13  -0.02
    50   1     0.02   0.10   0.02    -0.14  -0.05   0.00     0.22   0.13  -0.02
    51   6    -0.02   0.02   0.05    -0.01  -0.01  -0.02     0.01   0.01   0.01
    52   1    -0.02   0.02   0.06    -0.01  -0.01  -0.02    -0.00   0.01   0.02
    53   1    -0.04   0.03   0.05    -0.02  -0.00  -0.02     0.03   0.01  -0.00
    54   1    -0.02   0.02   0.03    -0.01  -0.01  -0.03     0.02   0.01   0.01
    55   6    -0.01  -0.00   0.09     0.00   0.00  -0.00    -0.01  -0.02  -0.02
    56   1    -0.01   0.00   0.09     0.01  -0.00  -0.00    -0.02  -0.02  -0.01
    57   1     0.00  -0.01   0.10     0.01   0.00   0.00    -0.02  -0.03  -0.03
    58   1    -0.03   0.01   0.10    -0.01   0.00   0.00     0.00  -0.02  -0.03
    59   6    -0.02   0.02   0.04    -0.01  -0.01  -0.01     0.05  -0.01  -0.03
    60   1    -0.01   0.02   0.03    -0.02  -0.00  -0.00     0.07  -0.02  -0.04
    61   1    -0.02   0.03   0.03    -0.01  -0.02  -0.01     0.05   0.01  -0.01
    62   1    -0.03   0.03   0.06    -0.01  -0.01  -0.01     0.05  -0.02  -0.03
    63   6     0.01  -0.01   0.08    -0.01   0.01  -0.01     0.01  -0.04  -0.06
    64   1     0.02  -0.02   0.09    -0.01   0.01  -0.01    -0.02  -0.04  -0.06
    65   1     0.01  -0.01   0.07    -0.01   0.01  -0.01     0.02  -0.04  -0.07
    66   1    -0.01  -0.00   0.10    -0.01   0.01  -0.01     0.02  -0.04  -0.07
    67   6    -0.01  -0.01  -0.04     0.02   0.03   0.06     0.01  -0.01  -0.01
    68   1    -0.01  -0.02  -0.05     0.02   0.04   0.07     0.02  -0.00  -0.00
    69   1    -0.00  -0.01  -0.03     0.02   0.03   0.07    -0.00  -0.01  -0.03
    70   1    -0.02  -0.01  -0.04     0.01   0.04   0.04     0.02  -0.01  -0.02
    71   6     0.01  -0.01  -0.06     0.03  -0.02   0.07    -0.03   0.01   0.01
    72   1     0.02  -0.01  -0.05     0.04  -0.01   0.08    -0.04   0.00  -0.01
    73   1     0.01  -0.01  -0.07     0.04  -0.01   0.08    -0.03   0.01   0.02
    74   1     0.02  -0.01  -0.06     0.04  -0.04   0.06    -0.05   0.01   0.02
    75   6     0.01  -0.01  -0.07     0.01  -0.03   0.02    -0.01   0.02   0.04
    76   1     0.02  -0.00  -0.07     0.01  -0.05   0.02    -0.03   0.03   0.04
    77   1     0.01  -0.01  -0.09     0.02  -0.04   0.04    -0.02   0.03   0.05
    78   1     0.01  -0.01  -0.08     0.01  -0.03  -0.00    -0.01   0.03   0.06
    79   6    -0.02  -0.02  -0.07     0.01   0.02   0.03     0.02   0.00   0.04
    80   1    -0.02  -0.02  -0.08     0.00   0.02   0.01     0.03   0.01   0.05
    81   1    -0.02  -0.02  -0.08     0.02   0.02   0.05     0.01   0.01   0.03
    82   1    -0.03  -0.02  -0.06     0.01   0.05   0.03     0.03  -0.01   0.03
    83   1     0.01  -0.00   0.00    -0.00  -0.00  -0.02    -0.00  -0.01  -0.01
    84   6     0.06  -0.01  -0.02    -0.01  -0.03  -0.00    -0.02  -0.01  -0.01
    85   8     0.07  -0.01  -0.02    -0.02  -0.03  -0.02    -0.02  -0.01  -0.01
    86   6     0.06  -0.00  -0.04    -0.01  -0.05   0.02    -0.02  -0.01  -0.00
    87   1     0.07   0.00  -0.04    -0.01  -0.06   0.02    -0.03  -0.01  -0.00
    88   1     0.04  -0.00  -0.04     0.00  -0.04   0.03    -0.02  -0.01  -0.00
    89   6     0.06  -0.03   0.02    -0.01  -0.01  -0.01    -0.02  -0.02  -0.01
    90   1     0.07  -0.04   0.03    -0.01  -0.01  -0.01    -0.02  -0.02  -0.01
    91   1     0.07  -0.03   0.01    -0.02  -0.02  -0.01    -0.02  -0.02  -0.01
    92   7     0.06  -0.02   0.00    -0.01  -0.03  -0.00    -0.02  -0.01  -0.01
    93   6     0.05  -0.02  -0.00     0.00  -0.03   0.01    -0.02  -0.01  -0.01
    94   1     0.03  -0.02  -0.01     0.01  -0.02   0.02    -0.02  -0.01  -0.00
    95   1     0.06  -0.01  -0.01    -0.00  -0.04   0.02    -0.03  -0.01  -0.00
    96   1     0.05  -0.02   0.02     0.00  -0.02   0.01    -0.02  -0.02  -0.01
    97   6     0.07   0.01  -0.05    -0.02  -0.06   0.01    -0.02  -0.01   0.01
    98   1     0.06   0.00  -0.05    -0.02  -0.05   0.01    -0.01  -0.01   0.01
    99   1     0.08   0.01  -0.05    -0.03  -0.07   0.00    -0.02  -0.01   0.01
   100   6     0.02   0.02   0.16    -0.01   0.01   0.01     0.01   0.01   0.03
   101   9     0.02  -0.01   0.06    -0.03  -0.05  -0.23     0.02   0.03   0.11
   102   9     0.09  -0.05   0.27     0.10  -0.16   0.23     0.02   0.07  -0.01
   103   9    -0.06   0.13   0.22    -0.11   0.29   0.12    -0.00  -0.06   0.02
   104   6     0.01  -0.01  -0.07    -0.02   0.02   0.10     0.00   0.00   0.09
   105   9     0.00  -0.04  -0.08     0.03   0.12   0.14     0.06   0.22   0.18
   106   9     0.02   0.00  -0.09    -0.07  -0.04   0.18    -0.06  -0.13   0.27
   107   9     0.01  -0.01  -0.04    -0.02   0.00   0.04     0.01  -0.04  -0.07
   108   1     0.07   0.01  -0.06    -0.02  -0.07   0.02    -0.02  -0.01   0.01
                      4                      5                      6
                      A                      A                      A
 Frequencies --     25.7862                32.6870                33.2526
 Red. masses --      6.6410                 5.9401                 9.2316
 Frc consts  --      0.0026                 0.0037                 0.0060
 IR Inten    --      0.0448                 1.7081                 0.2585
  Atom AN      X      Y      Z        X      Y      Z        X      Y      Z
     1   6    -0.01  -0.01  -0.04    -0.01   0.02   0.09    -0.01  -0.02  -0.12
     2   6     0.01  -0.01   0.03    -0.01  -0.00  -0.03    -0.01   0.01   0.01
     3   6     0.00  -0.01   0.06    -0.01   0.01   0.06    -0.00   0.00  -0.04
     4   6    -0.01  -0.01   0.03    -0.01   0.04   0.18    -0.00  -0.02  -0.16
     5   6    -0.01  -0.01  -0.02    -0.01   0.04   0.19    -0.01  -0.03  -0.20
     6   6    -0.01  -0.00  -0.06    -0.01   0.02   0.09    -0.01  -0.02  -0.10
     7   6    -0.00   0.01  -0.01    -0.01   0.01  -0.02    -0.01  -0.01   0.02
     8   6    -0.01   0.01  -0.02    -0.01  -0.00   0.09    -0.02  -0.01   0.04
     9   6    -0.01   0.01  -0.06    -0.00   0.00   0.20    -0.02  -0.01  -0.04
    10   6    -0.01   0.00  -0.08    -0.00   0.01   0.21    -0.02  -0.02  -0.11
    11   1     0.02  -0.01   0.05    -0.02  -0.02  -0.12    -0.01   0.02   0.08
    12   1    -0.02  -0.01   0.05    -0.00   0.05   0.26    -0.00  -0.03  -0.21
    13   1    -0.02  -0.01  -0.04    -0.00   0.05   0.29    -0.00  -0.05  -0.29
    14   1    -0.00   0.01   0.01    -0.01   0.00  -0.10    -0.01  -0.01   0.06
    15   1    -0.01   0.01  -0.08    -0.00  -0.01   0.30    -0.03  -0.01  -0.03
    16   1    -0.01   0.00  -0.11    -0.00   0.01   0.30    -0.02  -0.02  -0.15
    17   7     0.00  -0.00  -0.02    -0.01   0.01  -0.01    -0.01  -0.01  -0.03
    18   7    -0.00   0.00  -0.03    -0.01   0.01  -0.02    -0.01  -0.02  -0.03
[...]
 004098,0.00000868,-0.00000489,-0.00002784,0.00000119,-0.00002822,-0.00
 001118,0.00003440,0.00006649,-0.00000645,-0.00003302,-0.00001847,-0.00
 000740,-0.00000304,0.00002055,-0.00000100,0.00000716,-0.00001560,-0.00
 039621,-0.00017590,0.00004556,0.00009448,0.00013388,-0.00003588,0.0001
 1746,-0.00000046,-0.00003674,0.00012431,0.00001836,0.00003302,0.097275
 32,-0.23056378,0.04730168,0.00344759,-0.03375190,0.04528724,0.01166851
 ,-0.07660026,-0.01831388,-0.12737676,0.35878531,0.00013982,-0.00003993
 ,0.00000140,0.00003409,0.00000435,-0.00000751,-0.00005830,-0.00000636,
 0.00001152,0.00002013,-0.00003861,0.00002424,-0.00005895,0.00002914,-0
 .00000178,0.00019565,-0.00028773,-0.00005853,0.00064538,0.00075804,-0.
 00031071,-0.00371328,0.00788764,0.00707398,-0.00190314,-0.00096632,0.0
 0117221,0.00012492,0.00067028,-0.00037723,-0.00000752,0.00001340,-0.00
 001410,-0.00000323,0.00000261,-0.00000339,0.00002201,-0.00003222,-0.00
 001680,-0.00049069,0.00019484,0.00006993,-0.00001070,-0.00000482,-0.00
 007268,-0.00015439,-0.00000522,-0.00015282,-0.00013633,-0.00000711,0.0
 0000369,-0.00047674,0.00003464,0.00009361,0.00004529,0.00005645,0.0002
 7341,0.00012803,0.00006225,0.00032232,0.00024484,0.00003226,0.00034059
 ,-0.00002956,-0.00006647,0.00006351,-0.00040235,0.00003461,-0.00045876
 ,-0.00017028,0.00004454,-0.00056845,0.00002916,0.00013053,-0.00013456,
 -0.00001153,-0.00011609,0.00005679,0.00019262,-0.00005101,0.00023778,-
 0.00001266,-0.00004173,-0.00005013,-0.00021098,-0.00006342,-0.00019741
 ,0.00000180,0.00002525,-0.00000600,0.00000541,0.00002719,-0.00004468,-
 0.00014474,-0.00019525,-0.00007691,-0.00023527,-0.00001511,-0.00057738
 ,0.00031224,-0.00016553,0.00063833,0.00006575,0.00003301,0.00003091,0.
 00003299,-0.00000082,-0.00001897,-0.00000783,0.00000063,0.00001509,-0.
 00001715,-0.00000138,-0.00000295,0.00005570,0.00013151,0.00008131,0.00
 001192,-0.00000573,0.00002141,-0.00003471,-0.00011277,-0.00000822,-0.0
 0005038,0.00002546,0.00000469,0.00000571,0.00001967,0.00002130,-0.0000
 0282,-0.00000141,0.00000181,0.00001562,-0.00000715,-0.00000258,0.00000
 060,0.00000994,-0.00000735,-0.00004173,-0.00001315,0.00002355,0.000023
 69,-0.00000085,0.00000600,0.00001059,-0.00000641,0.00000377,0.00000703
 ,0.00000635,0.00000198,0.00001909,0.00005791,0.00003295,0.00001575,0.0
 0004444,0.00000884,0.00000644,-0.00003377,0.00003747,-0.00004383,-0.00
 000137,-0.00003074,0.00003915,0.00002714,0.00001058,0.00001216,0.00003
 482,-0.00000489,-0.00000464,-0.00002282,-0.00001028,0.00000574,-0.0000
 2650,0.00001861,-0.00039760,-0.00036331,-0.00002193,0.00034145,0.00149
 591,-0.00090676,-0.00001537,0.00004904,0.00001673,0.00004338,0.0001815
 2,0.00001756,-0.00016070,-0.00048139,0.00010506,0.00000371,0.00015036,
 0.00005115,0.00042401,-0.00041665,-0.00010510,0.00004271,0.00003766,-0
 .00000180,-0.00000546,-0.00000560,0.00000832,0.00000642,-0.00000297,0.
 00000539,-0.00000138,-0.00001447,-0.00000593,-0.00000836,0.00000682,0.
 00000273,-0.00000257,-0.00000450,0.00000958,0.00000116,-0.00000292,-0.
 00000494,-0.00000240,-0.00000312,-0.00000096,0.00000555,0.00000197,0.0
 0000700,0.00000035,-0.00000638,-0.00000010,-0.00000119,0.00000401,0.00
 000506,-0.00000176,-0.00000214,0.00000010,0.00000600,-0.00000152,-0.00
 000241,-0.00000608,-0.00000281,-0.00000565,0.00000102,-0.00000136,-0.0
 0000113,-0.00000214,-0.00000062,0.00000400,0.00000157,-0.00000304,0.00
 000686,0.00007915,-0.00006144,-0.00003346,-0.00005914,0.00017015,0.000
 03658,-0.00002034,-0.00013854,0.00004001,-0.00000207,-0.00001017,-0.00
 001194,-0.00000101,0.00000189,-0.00000307,-0.00000065,-0.00000192,-0.0
 0000221,0.00000897,0.00002070,0.00005269,0.00000676,0.00003148,0.00001
 657,0.00004707,0.00001623,0.00000387,0.00008152,-0.00010614,0.00002466
 ,-0.00001383,0.00004276,-0.00000282,-0.00001643,-0.00001204,0.00000280
 ,0.00000468,-0.00001039,0.00000691,0.00000351,-0.00000321,-0.00002277,
 0.00000094,0.00000506,-0.00000148,0.00000025,0.00000448,-0.00000224,0.
 00000272,-0.00000348,0.00000697,0.00010959,0.00004111,-0.00005531,-0.0
 0002788,-0.00003742,0.00001673,-0.00003703,0.00000683,0.00002409,-0.00
 002908,-0.00000665,0.00000558,-0.02968104,0.04451891,-0.08876250,-0.01
 077326,0.05654387,-0.03416581,0.00938362,-0.02925116,0.01203305,0.0366
 2700,-0.08043329,0.10412477,-0.00004226,-0.00002013,0.00001310,0.00001
 443,-0.00006443,-0.00003085,0.00001476,0.00006216,-0.00000934,-0.00001
 563,-0.00004326,0.00000920,0.00003378,0.00000620,-0.00000740,0.0000039
 1,0.00001981,0.00001465,0.00000049,0.00001233,0.00000394,0.00000276,0.
 00000058,0.00000084,0.00000637,-0.00001009,0.00000015,-0.00000752,-0.0
 0000538,0.00000252,-0.00002029,-0.00002562,-0.00000072,-0.00000016,-0.
 00000307,-0.00000117,-0.00000155,-0.00000007,0.00000009,-0.00000012,0.
 00001617,0.00001155,0.00000010,-0.00000145,0.00000009,0.00000081,-0.00
 000455,0.00000074,-0.00002479,0.00007091,0.00002396,0.00002263,0.00001
 800,-0.00003161,0.00005797,0.00008784,0.00019051,0.00000561,-0.0000338
 8,-0.00012318,-0.00009045,0.00010099,-0.00021217,0.00028761,0.00015958
 ,-0.00005890,0.00010509,-0.00012155,0.00044745,-0.00001613,-0.00000869
 ,0.00016915,-0.00032289,-0.00014373,0.00018032,0.00018323,0.00012107,-
 0.00013955,0.00000670,0.00002693,-0.00013420,-0.00002521,0.00000713,0.
 00004854,0.00001578,-0.00000719,0.00003632,-0.00024850,-0.00011717,-0.
 00004123,-0.00015535,-0.00011660,0.00007276,0.00003745,-0.00001081,0.0
 0011717,0.00005787,-0.00004912,0.00005816,-0.00012156,-0.00000161,-0.0
 0023648,-0.00000404,0.00000018,-0.00000557,0.00000317,0.,0.00000113,0.
 ,-0.00000126,-0.00000590,0.00000052,-0.00000082,0.00000134,-0.00000326
 ,0.00000382,-0.00000442,-0.00000351,-0.00000063,-0.00000490,0.00000375
 ,-0.00000068,-0.00000011,0.00000111,0.00000218,0.00000130,0.00000478,-
 0.00000216,-0.00000783,0.00000506,0.00000137,-0.00000485,-0.00000154,-
 0.00000824,0.00000357,-0.00000549,0.00000637,-0.00000299,0.00000370,-0
 .00000092,-0.00000742,0.00000399,0.00000216,0.00000356,-0.00000103,-0.
 00000146,-0.00000584,-0.00000324,0.00000277,0.00000200,-0.00000607,-0.
 00000088,-0.00002009,-0.00000103,0.00000536,0.00000836,0.00000022,0.00
 000029,-0.00001501,-0.00000391,-0.00000350,0.00001006,-0.00000244,0.00
 000007,-0.00001649,0.00000264,0.00000367,0.00000452,0.00000341,-0.0000
 0245,0.00000268,-0.00000795,0.00000356,-0.00000798,-0.00001181,0.00000
 740,-0.00001107,0.00000086,-0.00000417,0.00000100,0.00000110,-0.000001
 41,0.00000486,-0.00000345,0.00000070,-0.00001196,-0.00000644,0.0000089
 3,-0.00000975,0.00000696,-0.00000314,0.00000048,0.00000224,-0.00000283
 ,0.00000260,-0.00000936,0.00000375,-0.00000642,0.00003585,0.00002816,-
 0.00001484,0.00000107,0.00001041,-0.00001484,0.00000663,-0.00001706,0.
 00000538,-0.00000063,-0.00000095,0.00001642,-0.00001623,0.00003797,-0.
 00006486,0.00001789,-0.00002563,0.00002323,0.00001331,0.00001012,0.000
 00177,-0.00001887,0.00002911,0.00000936,0.00014316,-0.00002165,0.00011
 702,-0.00005367,0.00004849,-0.00040868,0.00000947,0.00000445,0.0000056
 2,-0.00001282,0.00002501,0.00000866,0.00008090,0.00001035,0.00005267,0
 .00000215,-0.00000582,-0.00001604,0.00000394,0.00000961,-0.00001176,-0
 .00000346,-0.00000942,0.00004023,0.00003687,-0.00003592,-0.00001531,-0
 .00119309,0.00452781,0.00063060,-0.00007922,0.00016049,-0.00031996,-0.
 02017190,-0.01321405,-0.00535072,0.00067465,-0.00038018,0.00050027,0.0
 0084738,-0.00023323,-0.00026546,-0.00010468,0.00046496,-0.00002292,-0.
 00016781,-0.00003142,-0.00002200,0.00004623,0.00000944,0.00001732,-0.0
 0187174,-0.00082436,-0.00030247,-0.00001076,-0.00049269,-0.00007817,0.
 00001315,0.00006204,-0.00001152,0.00004039,0.00002138,0.00004805,-0.00
 002741,0.00006167,0.00001595,-0.23869585,-0.10971304,-0.04760225,0.003
 41607,0.00234283,0.00084659,-0.00238012,-0.00052078,-0.00072034,-0.000
 16297,-0.00012333,-0.00003606,0.00004793,0.00007359,-0.00000390,0.0000
 3377,0.00002191,0.00000841,0.00005801,0.00001725,0.00003831,0.00004217
 ,0.00004815,0.00001737,-0.00001377,-0.00001089,0.00000279,-0.00001832,
 -0.00002230,-0.00001692,-0.00000567,-0.00001589,-0.00000192,0.25970409
 ,0.00006111,0.00015100,0.00000298,-0.00012242,0.00001452,0.00007015,0.
 00000435,0.00005856,-0.00000010,-0.00004121,-0.00003038,0.00001393,0.0
 0004773,-0.00002637,0.00001242,0.00001678,0.00001766,0.00000727,0.0000
 1291,-0.00001607,0.00000893,-0.00001818,0.00001812,-0.00000431,0.00001
 615,-0.00001217,0.00000110,-0.00002199,-0.00000308,-0.00000518,-0.0000
 5465,-0.00001675,0.00002058,-0.00000361,-0.00001407,-0.00000188,0.0000
 0298,-0.00000150,0.00000260,0.00000980,-0.00001134,-0.00000201,-0.0000
 0104,-0.00000121,0.00000050,0.00000266,0.00000034,0.00000096,0.0000350
 7,-0.00002971,-0.00005220,0.00001492,-0.00000017,0.00000811,0.00004754
 ,0.00002051,-0.00009563,0.00000298,-0.00002457,-0.00009873,-0.00000437
 ,0.00000093,0.00002758,0.00010650,0.00007358,-0.00003611,0.00004629,0.
 00001488,-0.00013951,-0.00004834,-0.00002834,0.00019421,-0.00007500,-0
 .00014197,0.00007486,0.00003437,0.00003836,-0.00003851,-0.00001323,0.0
 0003034,-0.00010237,-0.00000695,0.00000878,0.00003546,0.00001693,-0.00
 000253,0.00004110,-0.00008356,-0.00009214,-0.00003170,-0.00002035,0.00
 001362,0.00004461,0.00000491,-0.00000368,-0.00001159,0.00000331,0.0000
 0031,0.00000280,-0.00000856,0.00002217,0.00005832,-0.00000334,-0.00000
 084,-0.00000519,0.00000077,0.00000053,0.00000175,-0.00000030,-0.000000
 46,-0.00000532,0.00000050,-0.00000067,0.00000181,-0.00000251,-0.000000
 26,-0.00000528,-0.00000339,-0.00000033,-0.00000510,0.00000376,-0.00000
 121,0.00000065,0.00000038,0.00000255,0.00000172,0.00000205,-0.00000090
 ,-0.00000663,0.00000253,-0.00000041,-0.00000508,-0.00000316,-0.0000017
 7,0.00000264,-0.00000113,0.00000238,0.00000080,0.00000283,0.00000074,-
 0.00000398,0.00000091,-0.00000075,0.00000125,-0.00000144,-0.00000085,-
 0.00000397,-0.00000052,0.00000278,0.00000032,0.00000261,-0.00000117,-0
 .00000060,-0.00000003,0.00000154,0.00000073,-0.00000255,0.00000005,0.0
 0000047,0.00000332,-0.00000382,0.00000317,-0.00000049,0.00000111,0.000
 00400,0.00000090,0.00000038,-0.00000026,-0.00000222,0.00000035,0.00000
 091,0.00000057,-0.00000120,-0.00000018,0.00000391,-0.00000228,-0.00000
 071,0.00000226,0.00000064,0.00000164,0.00000042,-0.00000111,0.00000190
 ,-0.00000253,0.00000326,0.00000124,-0.00000114,-0.00000204,0.00000140,
 -0.00000127,0.00000142,0.00000161,0.00000130,-0.00000001,-0.00000013,-
 0.00000010,0.00000081,-0.00000076,0.00001081,-0.00001455,-0.00001248,0
 .00000088,0.00000519,-0.00000327,0.00000378,-0.00000190,0.00000436,-0.
 00000388,-0.00000163,-0.00000091,0.00003141,-0.00001017,0.00003221,0.0
 0000008,-0.00000052,-0.00000480,-0.00000185,0.00000869,-0.00001304,-0.
 00002140,0.00000499,-0.00001596,0.00000580,-0.00008873,0.00023473,-0.0
 0007934,0.00013149,-0.00001453,-0.00000255,-0.00001260,0.00002275,0.00
 003490,-0.00001255,-0.00011885,0.00001454,0.00000644,0.00001070,0.0000
 0196,-0.00000620,-0.00000594,0.00000145,0.00000478,-0.00000253,-0.0000
 0040,-0.00000231,0.00000815,-0.00004202,0.00002012,0.00001553,0.002984
 27,-0.00602155,-0.00088704,-0.00179725,0.00148780,-0.00015506,0.020968
 21,0.01098729,0.00535256,-0.00092547,0.00081863,-0.00015845,-0.0009739
 2,0.00086329,0.00021420,0.00019343,-0.00026256,-0.00002465,0.00009321,
 0.00003283,0.00002269,0.00001863,0.00001374,-0.00001075,0.00119877,0.0
 0123421,0.00033823,-0.00007383,0.00024736,0.00004855,-0.00000003,-0.00
 000229,0.00001854,-0.00002916,-0.00000045,-0.00004752,-0.00000853,-0.0
 0002555,-0.00001281,-0.11061025,-0.10996032,-0.02689044,-0.00993198,-0
 .00651050,-0.00061043,-0.01870428,-0.01013016,-0.00738329,-0.00040833,
 -0.00025749,-0.00026701,0.00010036,0.00013321,0.00003917,0.00007595,0.
 00005118,0.00005273,0.00016504,0.00004670,0.00017250,0.00008126,0.0000
 0288,0.00000664,-0.00002531,-0.00000474,0.00000998,-0.00002313,-0.0000
 1093,-0.00001001,-0.00002262,0.00001060,-0.00000395,0.11773409,0.11720
 018,0.00006240,0.00014454,-0.00002982,-0.00011830,0.00003402,0.0000876
 9,0.00000444,0.00007551,-0.00002364,-0.00002608,-0.00004265,0.00001557
 ,0.00005142,-0.00004944,0.00002270,-0.00000764,-0.00000197,-0.00001042
 ,-0.00000514,-0.00001220,0.00000369,-0.00000746,0.00002165,-0.00000990
 ,0.00001359,-0.00002022,0.00000368,-0.00001707,-0.00000929,-0.00000751
 ,-0.00008846,-0.00005454,0.00005241,-0.00000217,-0.00000918,0.00000062
 ,0.00000482,-0.00000457,0.00000434,0.00000949,-0.00000439,-0.00000057,
 -0.00000050,-0.00000144,0.00000038,0.00000191,-0.00000286,-0.00000313,
 0.00003025,-0.00000133,-0.00005587,0.00006130,0.00000672,0.00006531,0.
 00005730,0.00019262,-0.00045918,0.00002223,-0.00002332,-0.00012255,-0.
 00001376,0.00003470,-0.00002656,0.00039636,0.00029406,-0.00005001,0.00
 003331,-0.00005093,0.00000311,-0.00015151,-0.00008787,0.00032440,-0.00
 039777,-0.00049329,0.00025065,0.00022384,0.00018902,-0.00002866,0.0000
 0834,0.00006918,-0.00014459,-0.00002216,0.00000771,0.00004738,0.000021
 20,-0.00001217,0.00004696,-0.00051611,-0.00028504,-0.00009218,-0.00014
 519,-0.00001448,0.00008492,0.00000434,-0.00000626,0.00002463,0.0000153
 3,-0.00001733,0.00001426,-0.00003389,0.00002620,-0.00000858,-0.0000062
 6,0.00000048,-0.00000683,0.00000306,-0.00000168,0.00000123,0.00000012,
 -0.00000198,-0.00000563,0.00000151,0.00000201,0.00000101,-0.00000528,0
 .00000634,-0.00000810,-0.00000345,-0.00000147,-0.00000454,0.00000435,-
 0.00000161,0.00000179,0.00000179,0.00000307,0.00000084,0.00000552,-0.0
 0000305,-0.00001226,0.00000729,0.00000356,-0.00000213,-0.00000133,-0.0
 0001466,0.00000190,-0.00000920,0.00001032,-0.00000759,0.00000696,0.000
 00029,-0.00000741,0.00000493,0.,0.00000198,-0.00000233,-0.00000005,-0.
 00000343,-0.00000325,0.00000432,-0.00000097,0.00000630,-0.00000436,-0.
 00001038,-0.00000577,0.00001122,0.00000405,-0.00000110,0.00000129,-0.0
 0000227,-0.00000466,-0.00001248,0.00000527,0.00000026,-0.00000003,-0.0
 0000232,0.00000003,0.00000284,0.00000136,0.00000117,-0.00000042,-0.000
 00024,-0.00000150,0.00000003,-0.00000099,0.00000240,0.00000227,-0.0000
 0554,0.00000224,0.00000104,0.00000108,0.00000181,-0.00000359,0.0000065
 6,-0.00000436,0.00000200,-0.00000180,-0.00000142,0.00000340,-0.0000015
 2,0.00000006,-0.00000031,0.00000098,0.00000207,0.00000065,0.00000014,-
 0.00000239,0.00000069,-0.00000151,0.00005336,0.00000026,-0.00003193,-0
 .00000404,0.00000963,-0.00000818,0.00001738,-0.00001859,0.00000931,-0.
 00000571,-0.00000127,0.00001388,-0.00000058,0.00000927,-0.00006332,0.0
 0002953,-0.00002268,0.00002005,0.00000608,0.00001592,0.00000648,-0.000
 01501,0.00003951,0.00004714,0.00039156,-0.00007767,0.00003383,-0.00034
 450,0.00032679,-0.00036088,-0.00000813,-0.00002651,0.00006146,0.000028
 50,-0.00003019,-0.00007565,0.00016032,0.00003591,0.00009403,-0.0000011
 4,-0.00000786,-0.00002807,0.00000377,0.00000906,-0.00001908,-0.0000069
 0,-0.00001666,0.00007597,-0.00003831,0.00000473,0.00002537,0.00041546,
 -0.00074114,0.00038408,-0.00030728,0.00023037,0.00047390,0.00201872,0.
 00074887,-0.00074515,0.00008673,0.00040389,0.00014643,-0.00023110,-0.0
 0022645,-0.00007828,0.00002268,0.00001160,-0.00000811,-0.00000535,0.00
 000953,0.00000690,0.00001443,0.00000629,-0.00000933,-0.00001130,0.0000
 9965,0.00014167,-0.00000500,-0.00001083,0.00001601,-0.00001301,0.00001
 008,-0.00001325,0.00000720,-0.00001736,-0.00000646,-0.00000137,0.00000
 424,-0.00001124,-0.04837851,-0.02677260,-0.05981335,-0.02523315,-0.013
 22993,-0.00452574,0.01930850,0.00930136,0.00538426,-0.00028705,-0.0003
 8784,-0.00004873,0.00009797,0.00022280,-0.00001108,0.00005675,0.000067
 70,0.00002071,0.00008146,0.00006366,0.00003684,0.00005382,0.00000552,0
 .00000188,-0.00001695,-0.00000374,0.00000987,-0.00001493,-0.00000711,-
 0.00000692,-0.00001476,0.00000451,-0.00000228,0.05262164,0.03005604,0.
 05893467\\-0.00000413,0.00000178,0.00000163,-0.00000093,0.00000453,0.0
 0000461,0.00001072,-0.00000613,0.00000015,-0.00000428,0.00000232,0.000
 00259,0.00000858,-0.00000294,0.00000446,0.00001074,-0.00001307,0.00000
 229,0.00000372,0.00000811,0.00000527,0.00000811,0.00000228,0.00000106,
 0.00000140,-0.00000349,0.00000417,-0.00000145,0.00001266,0.00000237,0.
 00000122,0.00000393,-0.00000059,0.00000145,0.00000303,0.00000453,0.000
 00220,0.00000277,0.00000490,0.00000484,-0.00001145,0.00000004,0.000003
 38,0.00000203,0.00000480,0.00000458,-0.00000297,0.00000614,-0.00000010
 ,0.00000309,0.00000324,-0.00001508,0.00000428,-0.00000029,-0.00000902,
 0.00000132,0.00000539,-0.00000395,0.00000470,0.00000065,0.00000283,0.0
 0000040,0.00000115,-0.00000577,0.00000849,-0.00000495,0.00000150,-0.00
 000233,-0.00000112,0.00001114,-0.00001119,0.00000234,0.00000487,-0.000
 00605,0.00000292,-0.00000001,0.00000298,-0.00000272,0.00000029,0.00000
 425,-0.00000776,-0.00000189,-0.00000242,-0.00000027,0.00000344,-0.0000
 0633,0.00000432,0.00000694,-0.00000648,0.00000078,-0.00000750,0.000004
 23,-0.00000117,-0.00001040,0.00000651,-0.00000710,-0.00000070,-0.00000
 577,-0.00000515,0.00000012,0.00000953,0.00000694,-0.00000319,-0.000001
 27,-0.00000200,-0.00000005,-0.00000301,0.00000188,0.00000218,-0.000005
 94,0.00000556,0.00000083,-0.00000378,0.00000330,0.00000317,-0.00000613
 ,-0.00000118,0.00000022,-0.00000336,0.00000287,-0.00000139,-0.00000091
 ,0.00000390,0.00000061,-0.00000356,0.00000521,0.00000163,-0.00000509,0
 .00000060,-0.00000141,-0.00000283,0.00000313,0.00000118,-0.00000072,-0
 .00000006,-0.00000092,0.00000102,-0.00000173,-0.00000257,-0.00000469,0
 .00000364,0.00000257,-0.00000352,-0.00000083,0.00000069,-0.00000608,-0
 .00000212,-0.00000144,-0.00000191,-0.00000210,0.00000453,-0.00000037,-
 0.00000623,0.00000011,0.00000071,-0.00000062,-0.00000183,-0.00000434,-
 0.00000476,-0.00000605,-0.00000045,0.00000937,-0.00000133,-0.00001196,
 -0.00000354,0.00000185,0.00000441,-0.00000291,-0.00000127,-0.00000043,
 -0.00000313,-0.00000132,-0.00000219,-0.00000202,-0.00000257,-0.0000008
 3,-0.00000232,-0.00000074,-0.00000422,0.00000108,-0.00000148,-0.000003
 55,0.00000070,0.00000033,-0.00000354,0.00000132,0.00000275,0.00000012,
 -0.00000631,-0.00000284,0.00000086,0.00000383,0.00000044,-0.00000519,0
 .00000072,0.00000027,-0.00000293,0.00000058,0.00000398,0.00000509,-0.0
 0000258,-0.00000221,-0.00000182,-0.00000400,-0.00000112,-0.00000242,-0
 .00000355,-0.00000348,-0.00000369,-0.00000244,0.00000604,-0.00000292,-
 0.00000199,-0.00000436,0.00000156,-0.00000431,-0.00000315,0.00000110,-
 0.00000371,-0.00000304,0.00000459,-0.00000690,-0.00000289,0.00000845,-
 0.00000147,-0.00000004,0.00000295,-0.00000180,-0.00000115,0.00000203,-
 0.00000185,-0.00000265,0.00000364,-0.00000207,-0.00000267,-0.00000414,
 -0.00000868,-0.00000373,0.00000227,0.00000014,-0.00000130,0.00000130,-
 0.00000186,0.00000133,-0.00000081,-0.00000084,0.00000612,-0.00000202,-
 0.00001047,0.00001352,0.00000347,0.00000061,-0.00000401,-0.00000184,0.
 00000003,-0.00000682,0.00001240,-0.00000986,0.00000072,0.00000748,0.00
 000449,-0.00000181,-0.00000088,0.00000039,0.00000016,0.00000266,0.0000
 0360,-0.00000045,0.00000282,0.00000090,0.00000105,-0.00000107,0.000000
 71,-0.00001036,0.00000983,-0.00000895,-0.00000204,0.00000192,-0.000002
 89,-0.00000253,-0.00000082,-0.00000046,-0.00000060,0.00000559,0.000000
 96,0.00000131,0.00000181,-0.00000529,0.00000092,-0.00000258,0.00000544
 ,0.00000095,0.00000069,-0.00000277,0.00000108,0.00000535,-0.00000225,-
 0.00000391,0.00000074,0.00000300,0.00000384,-0.00000312,0.00000133,0.0
 0000030,0.00000471,0.00000219,0.00000061,0.00000598,0.00000204,-0.0000
 0432,-0.00000385,0.00000170,0.00000212,0.00000216,0.00000228,0.0000016
 3,0.00000084,0.00000687,0.00000116,-0.00000348,0.00000345,0.00000202,0
 .00000712,-0.00000063\\\@
 The archive entry for this job was punched.


 HO!  SUCH BUGS AND GOBLINS IN MY LIFE!

                            -- HAMLET, ACT 5, SCENE 2
 Job cpu time:       2 days  0 hours 34 minutes 41.9 seconds.
 Elapsed time:       0 days  3 hours  5 minutes 35.3 seconds.
 File lengths (MBytes):  RWF=   9700 Int=      0 D2E=      0 Chk=     55 Scr=      1
 Normal termination of Gaussian 16 at Sat Dec  7 21:58:54 2024.
