/mnt/lustre/scratch/nvme/SLURM/9663749/usccqdma.ukJo1FoQnr
OMP_STACKSIZE=0m
GAUSS_PDEF=16
GAUSS_MDEF=65536MB
GAUSS_RDEF=SCF=Direct
 Entering Gaussian System, Link 0=g16.exe
 Initial command:
 /opt/cesga/2020/software/Core/g16/c1/l1.exe "/mnt/lustre/scratch/nvme/SLURM/9663749/usccqdma.ukJo1FoQnr/Gau-601594.inp" -scrdir="/mnt/lustre/scratch/nvme/SLURM/9663749/usccqdma.ukJo1FoQnr/"
 Default is to use a total of  16 processors:
                               16 via shared-memory
                                1 via Linda
 Entering Link 1 = /opt/cesga/2020/software/Core/g16/c1/l1.exe PID=    601620.
  
 Copyright (c) 1988-2019, Gaussian, Inc.  All Rights Reserved.
  
 This is part of the Gaussian(R) 16 program.  It is based on
 the Gaussian(R) 09 system (copyright 2009, Gaussian, Inc.),
 the Gaussian(R) 03 system (copyright 2003, Gaussian, Inc.),
 the Gaussian(R) 98 system (copyright 1998, Gaussian, Inc.),
 the Gaussian(R) 94 system (copyright 1995, Gaussian, Inc.),
 the Gaussian 92(TM) system (copyright 1992, Gaussian, Inc.),
 the Gaussian 90(TM) system (copyright 1990, Gaussian, Inc.),
 the Gaussian 88(TM) system (copyright 1988, Gaussian, Inc.),
 the Gaussian 86(TM) system (copyright 1986, Carnegie Mellon
 University), and the Gaussian 82(TM) system (copyright 1983,
 Carnegie Mellon University). Gaussian is a federally registered
 trademark of Gaussian, Inc.
  
 This software contains proprietary and confidential information,
 including trade secrets, belonging to Gaussian, Inc.
  
 This software is provided under written license and may be
 used, copied, transmitted, or stored only in accord with that
 written license.
  
 The following legend is applicable only to US Government
 contracts under FAR:
  
                    RESTRICTED RIGHTS LEGEND
  
 Use, reproduction and disclosure by the US Government is
 subject to restrictions as set forth in subparagraphs (a)
 and (c) of the Commercial Computer Software - Restricted
 Rights clause in FAR 52.227-19.
  
 Gaussian, Inc.
 340 Quinnipiac St., Bldg. 40, Wallingford CT 06492
  
  
 ---------------------------------------------------------------
 Warning -- This program may not be used in any manner that
 competes with the business of Gaussian, Inc. or will provide
 assistance to any competitor of Gaussian, Inc.  The licensee
 of this program is prohibited from giving any competitor of
 Gaussian, Inc. access to this program.  By using this program,
 the user acknowledges that Gaussian, Inc. is engaged in the
 business of creating and licensing software in the field of
 computational chemistry and represents and warrants to the
 licensee that it is not a competitor of Gaussian, Inc. and that
 it will not use this program in any manner prohibited above.
 ---------------------------------------------------------------
  

 Cite this work as:
 Gaussian 16, Revision C.01,
 M. J. Frisch, G. W. Trucks, H. B. Schlegel, G. E. Scuseria, 
 M. A. Robb, J. R. Cheeseman, G. Scalmani, V. Barone, 
 G. A. Petersson, H. Nakatsuji, X. Li, M. Caricato, A. V. Marenich, 
 J. Bloino, B. G. Janesko, R. Gomperts, B. Mennucci, H. P. Hratchian, 
 J. V. Ortiz, A. F. Izmaylov, J. L. Sonnenberg, D. Williams-Young, 
 F. Ding, F. Lipparini, F. Egidi, J. Goings, B. Peng, A. Petrone, 
 T. Henderson, D. Ranasinghe, V. G. Zakrzewski, J. Gao, N. Rega, 
 G. Zheng, W. Liang, M. Hada, M. Ehara, K. Toyota, R. Fukuda, 
 J. Hasegawa, M. Ishida, T. Nakajima, Y. Honda, O. Kitao, H. Nakai, 
 T. Vreven, K. Throssell, J. A. Montgomery, Jr., J. E. Peralta, 
 F. Ogliaro, M. J. Bearpark, J. J. Heyd, E. N. Brothers, K. N. Kudin, 
 V. N. Staroverov, T. A. Keith, R. Kobayashi, J. Normand, 
 K. Raghavachari, A. P. Rendell, J. C. Burant, S. S. Iyengar, 
 J. Tomasi, M. Cossi, J. M. Millam, M. Klene, C. Adamo, R. Cammi, 
 J. W. Ochterski, R. L. Martin, K. Morokuma, O. Farkas, 
 J. B. Foresman, and D. J. Fox, Gaussian, Inc., Wallingford CT, 2019.
 
 ******************************************
 Gaussian 16:  ES64L-G16RevC.01  3-Jul-2019
                 7-Dec-2024 
 ******************************************
 Default route: SCF=Direct
 ----------------------------------------------------
 # m06/genecp scf=tight int=ultrafine 5d freq=noraman
 ----------------------------------------------------
 1/10=4,30=1,38=1/1,3;
 2/12=2,17=6,18=5,40=1/2;
 3/5=7,8=1,11=2,16=1,17=8,25=1,30=1,71=2,74=-54,75=-5,140=1/1,2,3;
 4//1;
 5/5=2,32=2,38=5,98=1/2;
 8/6=4,10=90,11=11/1;
 11/6=1,8=1,9=11,15=111,16=1/1,2,10;
 10/6=1/2;
 6/7=2,8=2,9=2,10=2,28=1/1;
 7/8=1,10=1,25=1/1,2,3,16;
 1/10=4,30=1/3;
 99//99;
 ------
 OPT-TS
 ------
 Symbolic Z-matrix:
 Charge =  0 Multiplicity = 1
 C                    -0.7604   -3.11732   0.21688 
 C                     0.68403  -3.3436   -1.55859 
 C                     0.94357  -4.67424  -1.24988 
 C                     0.33265  -5.22369  -0.12981 
 C                    -0.52906  -4.43572   0.6186 
 C                    -1.69756  -2.2433    0.94938 
 C                    -2.37376  -0.09753   1.53083 
 C                    -3.38342  -0.58285   2.34695 
 C                    -3.56846  -1.95368   2.44004 
 C                    -2.7005   -2.78622   1.7517 
 H                     1.1748   -2.84695  -2.39394 
 H                     0.52878  -6.25311   0.16428 
 H                    -0.99314  -4.83317   1.51825 
 H                    -2.18345   0.96999   1.43267 
 H                    -4.37387  -2.37271   3.03895 
 H                    -2.82573  -3.86483   1.79763 
 N                    -0.14442  -2.58119  -0.84469 
 N                    -1.56826  -0.90117   0.81059 
 Ir                   -0.22706   0.00985  -0.63647 
 O                     2.79645   0.81189  -0.56418 
 O                     0.80041   1.02952   2.00158 
 O                    -1.57783   2.56531   0.37378 
 B                     0.90456   0.01774   1.06809 
 B                     1.7899    0.01303  -1.09709 
 B                    -1.04152   1.93431  -0.7732 
 O                    -0.45611   2.92654  -1.5963 
 O                     2.32664  -0.91824  -1.97995 
 C                     3.74848  -0.93479  -1.77745 
 C                     4.01555   0.50768  -1.26178 
 C                    -1.28163   3.96504   0.31506 
 C                    -0.14753   4.03344  -0.75419 
 C                     1.66288   0.70876   3.10551 
 C                     1.78616  -0.84095   2.99152 
 O                     1.60525  -1.06497   1.5833 
 C                     5.1821    0.63374  -0.30362 
 H                     5.04435   0.00927   0.58735 
 H                     6.12203   0.34006  -0.79273 
 H                     5.28163   1.67663   0.02459 
 C                     4.15003   1.52927  -2.38302 
 H                     4.1398    2.53519  -1.94509 
 H                     5.08776   1.40674  -2.94147 
 H                     3.30861   1.46025  -3.08525 
 C                     4.04458  -2.00766  -0.73665 
 H                     5.12235  -2.1142   -0.55316 
 H                     3.53288  -1.79188   0.21171 
 H                     3.66693  -2.97076  -1.10622 
 C                     4.42399  -1.27957  -3.08895 
 H                     5.51767  -1.2206   -2.99308 
 H                     4.16639  -2.30748  -3.37748 
 H                     4.10547  -0.61323  -3.8978 
 C                     2.97396   1.44159   2.86336 
 H                     3.42939   1.12049   1.91813 
 H                     2.76084   2.51574   2.77768 
 H                     3.68888   1.29505   3.68432 
 C                     1.01873   1.20073   4.38621 
 H                    -0.00431   0.82287   4.49606 
 H                     1.60532   0.89335   5.26414 
 H                     0.97155   2.29718   4.37821 
 C                     3.12724  -1.40731   3.4106 
 H                     3.12867  -2.49671   3.27412 
 H                     3.9449   -0.99064   2.81035 
 H                     3.33024  -1.19609   4.47038 
 C                     0.66082  -1.58758   3.69803 
 H                     0.6843   -2.63921   3.38097 
 H                     0.76245  -1.55223   4.79092 
 H                    -0.32149  -1.17637   3.42587 
 C                    -0.14242   5.30021  -1.58942 
 H                     0.00121   6.18854  -0.95712 
 H                     0.68616   5.26004  -2.30816 
 H                    -1.07234   5.41863  -2.15657 
 C                     1.2416    3.80887  -0.16464 
 H                     1.57857   4.67131   0.42825 
 H                     1.27673   2.90763   0.46017 
 H                     1.9467    3.6614   -0.99353 
 C                    -0.87034   4.42664   1.70087 
 H                    -0.07203   3.79056   2.10212 
 H                    -0.52561   5.47085   1.68392 
 H                    -1.72857   4.36594   2.3837 
 C                    -2.54991   4.68638  -0.12199 
 H                    -2.42139   5.77741  -0.12541 
 H                    -2.85861   4.36887  -1.12719 
 H                    -3.36167   4.44328   0.57665 
 H                     0.65823   0.79438  -1.78509 
 C                    -3.98394  -0.77835  -1.2711 
 O                    -5.00774  -1.10305  -0.67681 
 C                    -3.2219   -1.78588  -2.11206 
 H                    -3.27339  -1.46063  -3.16452 
 H                    -2.1511   -1.7743   -1.86041 
 C                    -2.22035   0.93343  -1.78863 
 H                    -1.85866   0.20039  -2.52392 
 H                    -2.38647   1.82975  -2.40593 
 N                    -3.493     0.50394  -1.23223 
 C                    -4.33487   1.53734  -0.65882 
 H                    -3.84172   2.02973   0.18651 
 H                    -4.54871   2.30636  -1.41824 
 H                    -5.26883   1.07354  -0.33401 
 C                    -3.77461  -3.19007  -1.96279 
 H                    -3.7383   -3.51383  -0.91393 
 H                    -4.82393  -3.24188  -2.27272 
 H                    -4.02206   0.11835   2.8775 
 H                     1.62129  -5.25677  -1.87002 
 H                    -3.1914   -3.90016  -2.56336 
 

 GradGradGradGradGradGradGradGradGradGradGradGradGradGradGradGradGradGrad
 Berny optimization.
 Initialization pass.
 Trust Radius=3.00D-01 FncErr=1.00D-07 GrdErr=1.00D-07 EigMax=2.50D+02 EigMin=1.00D-04
 Number of steps in this run=      2 maximum allowed number of steps=      2.
 GradGradGradGradGradGradGradGradGradGradGradGradGradGradGradGradGradGrad

 Stoichiometry    C33H55B3IrN3O7
 Framework group  C1[X(C33H55B3IrN3O7)]
 Deg. of freedom   300
 Full point group                 C1      NOp   1
 Largest Abelian subgroup         C1      NOp   1
 Largest concise Abelian subgroup C1      NOp   1
                         Standard orientation:                         
 ---------------------------------------------------------------------
 Center     Atomic      Atomic             Coordinates (Angstroms)
 Number     Number       Type             X           Y           Z
 ---------------------------------------------------------------------
      1          6           0       -0.760400   -3.117320    0.216880
      2          6           0        0.684031   -3.343599   -1.558590
      3          6           0        0.943571   -4.674239   -1.249880
      4          6           0        0.332651   -5.223689   -0.129810
      5          6           0       -0.529059   -4.435720    0.618600
      6          6           0       -1.697560   -2.243300    0.949380
      7          6           0       -2.373761   -0.097530    1.530830
      8          6           0       -3.383420   -0.582851    2.346950
      9          6           0       -3.568460   -1.953681    2.440040
     10          6           0       -2.700500   -2.786220    1.751700
     11          1           0        1.174800   -2.846949   -2.393940
     12          1           0        0.528781   -6.253109    0.164280
     13          1           0       -0.993139   -4.833170    1.518250
     14          1           0       -2.183451    0.969990    1.432670
     15          1           0       -4.373870   -2.372711    3.038950
     16          1           0       -2.825729   -3.864830    1.797630
     17          7           0       -0.144420   -2.581190   -0.844690
     18          7           0       -1.568260   -0.901170    0.810590
     19         77           0       -0.227061    0.009850   -0.636470
     20          8           0        2.796449    0.811891   -0.564180
     21          8           0        0.800409    1.029521    2.001580
     22          8           0       -1.577831    2.565310    0.373780
     23          5           0        0.904559    0.017741    1.068090
     24          5           0        1.789899    0.013031   -1.097090
     25          5           0       -1.041521    1.934310   -0.773200
     26          8           0       -0.456112    2.926540   -1.596300
     27          8           0        2.326640   -0.918239   -1.979950
     28          6           0        3.748480   -0.934788   -1.777450
     29          6           0        4.015549    0.507682   -1.261780
     30          6           0       -1.281632    3.965040    0.315060
     31          6           0       -0.147532    4.033440   -0.754190
     32          6           0        1.662879    0.708761    3.105510
     33          6           0        1.786160   -0.840949    2.991520
     34          8           0        1.605250   -1.064969    1.583300
     35          6           0        5.182099    0.633742   -0.303620
     36          1           0        5.044349    0.009272    0.587350
     37          1           0        6.122029    0.340062   -0.792730
     38          1           0        5.281629    1.676632    0.024590
     39          6           0        4.150029    1.529272   -2.383020
     40          1           0        4.139799    2.535192   -1.945090
     41          1           0        5.087759    1.406742   -2.941470
     42          1           0        3.308609    1.460252   -3.085250
     43          6           0        4.044580   -2.007658   -0.736650
     44          1           0        5.122350   -2.114198   -0.553160
     45          1           0        3.532880   -1.791878    0.211710
     46          1           0        3.666930   -2.970758   -1.106220
     47          6           0        4.423990   -1.279568   -3.088950
     48          1           0        5.517670   -1.220598   -2.993080
     49          1           0        4.166390   -2.307478   -3.377480
     50          1           0        4.105470   -0.613228   -3.897800
     51          6           0        2.973959    1.441591    2.863360
     52          1           0        3.429389    1.120492    1.918130
     53          1           0        2.760839    2.515741    2.777680
     54          1           0        3.688879    1.295052    3.684320
     55          6           0        1.018729    1.200731    4.386210
     56          1           0       -0.004311    0.822870    4.496060
     57          1           0        1.605319    0.893351    5.264140
     58          1           0        0.971549    2.297181    4.378210
     59          6           0        3.127240   -1.407309    3.410600
     60          1           0        3.128670   -2.496709    3.274120
     61          1           0        3.944900   -0.990638    2.810350
     62          1           0        3.330240   -1.196088    4.470380
     63          6           0        0.660820   -1.587579    3.698030
     64          1           0        0.684300   -2.639209    3.380970
     65          1           0        0.762450   -1.552229    4.790920
     66          1           0       -0.321490   -1.176370    3.425870
     67          6           0       -0.142422    5.300210   -1.589420
     68          1           0        0.001207    6.188540   -0.957120
     69          1           0        0.686158    5.260041   -2.308160
     70          1           0       -1.072342    5.418630   -2.156570
     71          6           0        1.241598    3.808871   -0.164640
     72          1           0        1.578568    4.671311    0.428250
     73          1           0        1.276728    2.907631    0.460170
     74          1           0        1.946698    3.661401   -0.993530
     75          6           0       -0.870342    4.426640    1.700870
     76          1           0       -0.072032    3.790560    2.102120
     77          1           0       -0.525612    5.470850    1.683920
     78          1           0       -1.728572    4.365940    2.383700
     79          6           0       -2.549912    4.686380   -0.121990
     80          1           0       -2.421392    5.777410   -0.125410
     81          1           0       -2.858612    4.368870   -1.127190
     82          1           0       -3.361672    4.443279    0.576650
     83          1           0        0.658229    0.794381   -1.785090
     84          6           0       -3.983940   -0.778351   -1.271100
     85          8           0       -5.007740   -1.103051   -0.676810
     86          6           0       -3.221900   -1.785881   -2.112060
     87          1           0       -3.273390   -1.460631   -3.164520
     88          1           0       -2.151100   -1.774300   -1.860410
     89          6           0       -2.220351    0.933430   -1.788630
     90          1           0       -1.858661    0.200390   -2.523920
     91          1           0       -2.386471    1.829750   -2.405930
     92          7           0       -3.493001    0.503939   -1.232230
     93          6           0       -4.334871    1.537339   -0.658820
     94          1           0       -3.841721    2.029729    0.186510
     95          1           0       -4.548711    2.306359   -1.418240
     96          1           0       -5.268831    1.073539   -0.334010
     97          6           0       -3.774610   -3.190071   -1.962790
     98          1           0       -3.738299   -3.513831   -0.913930
     99          1           0       -4.823930   -3.241881   -2.272720
    100          1           0       -4.022061    0.118349    2.877500
    101          1           0        1.621291   -5.256769   -1.870020
    102          1           0       -3.191399   -3.900161   -2.563360
 ---------------------------------------------------------------------
 Rotational constants (GHZ):           0.0786478           0.0731740           0.0581669
 General basis read from cards:  (5D, 7F)
 ======================================================================================================
                                       Pseudopotential Parameters
 ======================================================================================================
  Center     Atomic      Valence      Angular      Power
  Number     Number     Electrons     Momentum     of R      Exponent        Coefficient   SO-Coeffient
 ======================================================================================================
    1          6
                                   No pseudopotential on this center.
    2          6
                                   No pseudopotential on this center.
    3          6
                                   No pseudopotential on this center.
    4          6
                                   No pseudopotential on this center.
    5          6
                                   No pseudopotential on this center.
    6          6
                                   No pseudopotential on this center.
    7          6
                                   No pseudopotential on this center.
    8          6
                                   No pseudopotential on this center.
    9          6
                                   No pseudopotential on this center.
   10          6
                                   No pseudopotential on this center.
   11          1
                                   No pseudopotential on this center.
   12          1
                                   No pseudopotential on this center.
   13          1
                                   No pseudopotential on this center.
   14          1
                                   No pseudopotential on this center.
   15          1
                                   No pseudopotential on this center.
   16          1
                                   No pseudopotential on this center.
   17          7
                                   No pseudopotential on this center.
   18          7
                                   No pseudopotential on this center.
   19         77           17
                                      G and up 
                                                     1      823.5880147       -0.15780140    0.00000000
                                                     2      364.6613336    -1517.52704460    0.00000000
                                                     2       55.7082801     -316.53065290    0.00000000
                                                     2       12.0464544      -91.88809410    0.00000000
                                                     2        3.5120610       -9.22417730    0.00000000
                                      S - G
                                                     0      188.0490770        3.15780140    0.00000000
                                                     1      340.4194712       26.83225770    0.00000000
                                                     2      128.2373673      800.42500070    0.00000000
                                                     2       33.8644961      369.40506830    0.00000000
                                                     2        4.7560005      242.41718990    0.00000000
                                                     2        3.9649974     -118.21732820    0.00000000
                                      P - G
                                                     0      289.7291139        2.15780140    0.00000000
                                                     1       87.4633789       61.96786100    0.00000000
                                                     2       30.4363766      269.05819860    0.00000000
                                                     2        4.0553412      231.16547930    0.00000000
                                                     2        3.5525341     -133.69526670    0.00000000
                                      D - G
                                                     0      136.4017106        3.15780140    0.00000000
                                                     1       95.0776925       45.93498030    0.00000000
                                                     2       49.2258410      359.03446680    0.00000000
                                                     2       15.0874145      176.47401190    0.00000000
                                                     2        4.0405764       54.51552860    0.00000000
                                      F - G
                                                     0      127.3507908        3.95461970    0.00000000
                                                     1       66.2364374       52.97736550    0.00000000
                                                     2       34.4299229      274.86433830    0.00000000
                                                     2       10.1995721      137.20473380    0.00000000
                                                     2        2.5409702       14.86333050    0.00000000
   20          8
                                   No pseudopotential on this center.
   21          8
                                   No pseudopotential on this center.
   22          8
                                   No pseudopotential on this center.
   23          5
                                   No pseudopotential on this center.
   24          5
                                   No pseudopotential on this center.
   25          5
                                   No pseudopotential on this center.
   26          8
                                   No pseudopotential on this center.
   27          8
                                   No pseudopotential on this center.
   28          6
                                   No pseudopotential on this center.
   29          6
                                   No pseudopotential on this center.
   30          6
                                   No pseudopotential on this center.
   31          6
                                   No pseudopotential on this center.
   32          6
                                   No pseudopotential on this center.
   33          6
                                   No pseudopotential on this center.
   34          8
                                   No pseudopotential on this center.
   35          6
                                   No pseudopotential on this center.
   36          1
                                   No pseudopotential on this center.
   37          1
                                   No pseudopotential on this center.
   38          1
                                   No pseudopotential on this center.
   39          6
                                   No pseudopotential on this center.
   40          1
                                   No pseudopotential on this center.
   41          1
                                   No pseudopotential on this center.
   42          1
                                   No pseudopotential on this center.
   43          6
                                   No pseudopotential on this center.
   44          1
                                   No pseudopotential on this center.
   45          1
                                   No pseudopotential on this center.
   46          1
                                   No pseudopotential on this center.
   47          6
                                   No pseudopotential on this center.
   48          1
                                   No pseudopotential on this center.
   49          1
                                   No pseudopotential on this center.
   50          1
                                   No pseudopotential on this center.
   51          6
                                   No pseudopotential on this center.
   52          1
                                   No pseudopotential on this center.
   53          1
                                   No pseudopotential on this center.
   54          1
                                   No pseudopotential on this center.
   55          6
                                   No pseudopotential on this center.
   56          1
                                   No pseudopotential on this center.
   57          1
                                   No pseudopotential on this center.
   58          1
                                   No pseudopotential on this center.
   59          6
                                   No pseudopotential on this center.
   60          1
                                   No pseudopotential on this center.
   61          1
                                   No pseudopotential on this center.
   62          1
                                   No pseudopotential on this center.
   63          6
                                   No pseudopotential on this center.
   64          1
                                   No pseudopotential on this center.
   65          1
                                   No pseudopotential on this center.
   66          1
                                   No pseudopotential on this center.
   67          6
                                   No pseudopotential on this center.
   68          1
                                   No pseudopotential on this center.
   69          1
                                   No pseudopotential on this center.
   70          1
                                   No pseudopotential on this center.
   71          6
                                   No pseudopotential on this center.
   72          1
                                   No pseudopotential on this center.
   73          1
                                   No pseudopotential on this center.
   74          1
                                   No pseudopotential on this center.
   75          6
                                   No pseudopotential on this center.
   76          1
                                   No pseudopotential on this center.
   77          1
                                   No pseudopotential on this center.
   78          1
                                   No pseudopotential on this center.
   79          6
                                   No pseudopotential on this center.
   80          1
                                   No pseudopotential on this center.
   81          1
                                   No pseudopotential on this center.
   82          1
                                   No pseudopotential on this center.
   83          1
                                   No pseudopotential on this center.
   84          6
                                   No pseudopotential on this center.
   85          8
                                   No pseudopotential on this center.
   86          6
                                   No pseudopotential on this center.
   87          1
                                   No pseudopotential on this center.
   88          1
                                   No pseudopotential on this center.
   89          6
                                   No pseudopotential on this center.
   90          1
                                   No pseudopotential on this center.
   91          1
                                   No pseudopotential on this center.
   92          7
                                   No pseudopotential on this center.
   93          6
                                   No pseudopotential on this center.
   94          1
                                   No pseudopotential on this center.
   95          1
                                   No pseudopotential on this center.
   96          1
                                   No pseudopotential on this center.
   97          6
                                   No pseudopotential on this center.
   98          1
                                   No pseudopotential on this center.
   99          1
                                   No pseudopotential on this center.
  100          1
                                   No pseudopotential on this center.
  101          1
                                   No pseudopotential on this center.
  102          1
                                   No pseudopotential on this center.
 ======================================================================================================
 There are   824 symmetry adapted cartesian basis functions of A   symmetry.
 There are   776 symmetry adapted basis functions of A   symmetry.
   776 basis functions,  1551 primitive gaussians,   824 cartesian basis functions
   181 alpha electrons      181 beta electrons
       nuclear repulsion energy      7571.7197451123 Hartrees.
 NAtoms=  102 NActive=  102 NUniq=  102 SFac= 1.00D+00 NAtFMM=   60 NAOKFM=T Big=T
 Integral buffers will be    131072 words long.
 Raffenetti 2 integral format.
 Two-electron integral symmetry is turned on.
 One-electron integrals computed using PRISM.
   1 Symmetry operations used in ECPInt.
 ECPInt:  NShTT=   45753 NPrTT=  276657 LenC2=   37020 LenP2D=  116683.
 LDataN:  DoStor=T MaxTD1= 6 Len=  172
 NBasis=   776 RedAO= T EigKep=  6.12D-04  NBF=   776
 NBsUse=   776 1.00D-06 EigRej= -1.00D+00 NBFU=   776
 Defaulting to unpruned grid for atomic number  77.
 ExpMin= 2.90D-02 ExpMax= 5.48D+03 ExpMxC= 8.25D+02 IAcc=3 IRadAn=         5 AccDes= 0.00D+00
 Harris functional with IExCor= 1009 and IRadAn=       5 diagonalized for initial guess.
 HarFok:  IExCor= 1009 AccDes= 0.00D+00 IRadAn=         5 IDoV= 1 UseB2=F ITyADJ=14
 ICtDFT=  3500011 ScaDFX=  1.000000  1.000000  1.000000  1.000000
 Defaulting to unpruned grid for atomic number  77.
 FoFCou: FMM=F IPFlag=           0 FMFlag=      100000 FMFlg1=        2001
         NFxFlg=           0 DoJE=T BraDBF=F KetDBF=T FulRan=T
         wScrn=  0.000000 ICntrl=       500 IOpCl=  0 I1Cent=   200000004 NGrid=           0
         NMat0=    1 NMatS0=      1 NMatT0=    0 NMatD0=    1 NMtDS0=    0 NMtDT0=    0
 Petite list used in FoFCou.
 Requested convergence on RMS density matrix=1.00D-08 within 128 cycles.
 Requested convergence on MAX density matrix=1.00D-06.
 Requested convergence on             energy=1.00D-06.
 No special actions if energy rises.
 Defaulting to unpruned grid for atomic number  77.
 Defaulting to unpruned grid for atomic number  77.
 Defaulting to unpruned grid for atomic number  77.
 Defaulting to unpruned grid for atomic number  77.
 Defaulting to unpruned grid for atomic number  77.
 Defaulting to unpruned grid for atomic number  77.
 Defaulting to unpruned grid for atomic number  77.
 Defaulting to unpruned grid for atomic number  77.
 Defaulting to unpruned grid for atomic number  77.
 Defaulting to unpruned grid for atomic number  77.
 Defaulting to unpruned grid for atomic number  77.
 Defaulting to unpruned grid for atomic number  77.
 Defaulting to unpruned grid for atomic number  77.
 Defaulting to unpruned grid for atomic number  77.
 Defaulting to unpruned grid for atomic number  77.
 Defaulting to unpruned grid for atomic number  77.
 SCF Done:  E(RM06) =  -2159.65203464     A.U. after   16 cycles
            NFock= 16  Conv=0.69D-08     -V/T= 2.0408
 DoSCS=F DFT=T ScalE2(SS,OS)=  1.000000  1.000000
 Range of M.O.s used for correlation:     1   776
 NBasis=   776 NAE=   181 NBE=   181 NFC=     0 NFV=     0
 NROrb=    776 NOA=   181 NOB=   181 NVA=   595 NVB=   595
   1 Symmetry operations used in ECPInt.
 ECPInt:  NShTT=   45753 NPrTT=  276657 LenC2=   37020 LenP2D=  116683.
 LDataN:  DoStor=T MaxTD1= 7 Len=  274
 Number of processors reduced to   8 by ecpmxn.
 Symmetrizing basis deriv contribution to polar:
 IMax=3 JMax=2 DiffMx= 0.00D+00
 G2DrvN: will do   103 centers at a time, making    1 passes.
 Calling FoFCou, ICntrl=  3107 FMM=T I1Cent=   0 AccDes= 0.00D+00.
 Defaulting to unpruned grid for atomic number  77.
 Defaulting to unpruned grid for atomic number  77.
 Defaulting to unpruned grid for atomic number  77.
 Defaulting to unpruned grid for atomic number  77.
 Defaulting to unpruned grid for atomic number  77.
 Defaulting to unpruned grid for atomic number  77.
 Defaulting to unpruned grid for atomic number  77.
 Defaulting to unpruned grid for atomic number  77.
 Defaulting to unpruned grid for atomic number  77.
 Defaulting to unpruned grid for atomic number  77.
 Defaulting to unpruned grid for atomic number  77.
 Defaulting to unpruned grid for atomic number  77.
 Defaulting to unpruned grid for atomic number  77.
 Defaulting to unpruned grid for atomic number  77.
 Defaulting to unpruned grid for atomic number  77.
 Defaulting to unpruned grid for atomic number  77.
 End of G2Drv F.D. properties file   721 does not exist.
 End of G2Drv F.D. properties file   722 does not exist.
 End of G2Drv F.D. properties file   788 does not exist.
          IDoAtm=11111111111111111111111111111111111111111111111111
          IDoAtm=11111111111111111111111111111111111111111111111111
          IDoAtm=11
          Differentiating once with respect to electric field.
                with respect to dipole field.
          Differentiating once with respect to nuclear coordinates.
 Defaulting to unpruned grid for atomic number  77.
 CalDSu exits because no D1Ps are significant.
 Defaulting to unpruned grid for atomic number  77.
 Defaulting to unpruned grid for atomic number  77.
 Defaulting to unpruned grid for atomic number  77.
 Defaulting to unpruned grid for atomic number  77.
 Defaulting to unpruned grid for atomic number  77.
 Defaulting to unpruned grid for atomic number  77.
 Defaulting to unpruned grid for atomic number  77.
 Defaulting to unpruned grid for atomic number  77.
 Defaulting to unpruned grid for atomic number  77.
 Defaulting to unpruned grid for atomic number  77.
 Defaulting to unpruned grid for atomic number  77.
 Defaulting to unpruned grid for atomic number  77.
 Defaulting to unpruned grid for atomic number  77.
 Defaulting to unpruned grid for atomic number  77.
 Defaulting to unpruned grid for atomic number  77.
 Defaulting to unpruned grid for atomic number  77.
          There are   309 degrees of freedom in the 1st order CPHF.  IDoFFX=6 NUNeed=     3.
    306 vectors produced by pass  0 Test12= 1.08D-13 1.00D-09 XBig12= 4.97D+02 7.14D+00.
 AX will form    72 AO Fock derivatives at one time.
    306 vectors produced by pass  1 Test12= 1.08D-13 1.00D-09 XBig12= 8.01D+01 8.82D-01.
    306 vectors produced by pass  2 Test12= 1.08D-13 1.00D-09 XBig12= 7.98D-01 9.73D-02.
    306 vectors produced by pass  3 Test12= 1.08D-13 1.00D-09 XBig12= 4.36D-03 4.79D-03.
    306 vectors produced by pass  4 Test12= 1.08D-13 1.00D-09 XBig12= 1.24D-05 2.50D-04.
    269 vectors produced by pass  5 Test12= 1.08D-13 1.00D-09 XBig12= 2.40D-08 1.87D-05.
     70 vectors produced by pass  6 Test12= 1.08D-13 1.00D-09 XBig12= 3.40D-11 6.36D-07.
      3 vectors produced by pass  7 Test12= 1.08D-13 1.00D-09 XBig12= 4.54D-14 1.52D-08.
 InvSVY:  IOpt=1 It=  1 EMax= 1.78D-14
 Solved reduced A of dimension  1872 with   309 vectors.
 Isotropic polarizability for W=    0.000000      459.12 Bohr**3.
 End of Minotr F.D. properties file   721 does not exist.
 End of Minotr F.D. properties file   722 does not exist.
 End of Minotr F.D. properties file   788 does not exist.
 Hyperfine terms turned off by default for NAtoms > 100.

 **********************************************************************

            Population analysis using the SCF Density.

 **********************************************************************

 Orbital symmetries:
       Occupied  (A) (A) (A) (A) (A) (A) (A) (A) (A) (A) (A) (A)
                 (A) (A) (A) (A) (A) (A) (A) (A) (A) (A) (A) (A)
                 (A) (A) (A) (A) (A) (A) (A) (A) (A) (A) (A) (A)
                 (A) (A) (A) (A) (A) (A) (A) (A) (A) (A) (A) (A)
                 (A) (A) (A) (A) (A) (A) (A) (A) (A) (A) (A) (A)
                 (A) (A) (A) (A) (A) (A) (A) (A) (A) (A) (A) (A)
                 (A) (A) (A) (A) (A) (A) (A) (A) (A) (A) (A) (A)
                 (A) (A) (A) (A) (A) (A) (A) (A) (A) (A) (A) (A)
                 (A) (A) (A) (A) (A) (A) (A) (A) (A) (A) (A) (A)
                 (A) (A) (A) (A) (A) (A) (A) (A) (A) (A) (A) (A)
                 (A) (A) (A) (A) (A) (A) (A) (A) (A) (A) (A) (A)
                 (A) (A) (A) (A) (A) (A) (A) (A) (A) (A) (A) (A)
                 (A) (A) (A) (A) (A) (A) (A) (A) (A) (A) (A) (A)
                 (A) (A) (A) (A) (A) (A) (A) (A) (A) (A) (A) (A)
                 (A) (A) (A) (A) (A) (A) (A) (A) (A) (A) (A) (A)
                 (A)
       Virtual   (A) (A) (A) (A) (A) (A) (A) (A) (A) (A) (A) (A)
                 (A) (A) (A) (A) (A) (A) (A) (A) (A) (A) (A) (A)
                 (A) (A) (A) (A) (A) (A) (A) (A) (A) (A) (A) (A)
                 (A) (A) (A) (A) (A) (A) (A) (A) (A) (A) (A) (A)
                 (A) (A) (A) (A) (A) (A) (A) (A) (A) (A) (A) (A)
                 (A) (A) (A) (A) (A) (A) (A) (A) (A) (A) (A) (A)
                 (A) (A) (A) (A) (A) (A) (A) (A) (A) (A) (A) (A)
                 (A) (A) (A) (A) (A) (A) (A) (A) (A) (A) (A) (A)
                 (A) (A) (A) (A) (A) (A) (A) (A) (A) (A) (A) (A)
                 (A) (A) (A) (A) (A) (A) (A) (A) (A) (A) (A) (A)
                 (A) (A) (A) (A) (A) (A) (A) (A) (A) (A) (A) (A)
                 (A) (A) (A) (A) (A) (A) (A) (A) (A) (A) (A) (A)
                 (A) (A) (A) (A) (A) (A) (A) (A) (A) (A) (A) (A)
                 (A) (A) (A) (A) (A) (A) (A) (A) (A) (A) (A) (A)
                 (A) (A) (A) (A) (A) (A) (A) (A) (A) (A) (A) (A)
                 (A) (A) (A) (A) (A) (A) (A) (A) (A) (A) (A) (A)
                 (A) (A) (A) (A) (A) (A) (A) (A) (A) (A) (A) (A)
                 (A) (A) (A) (A) (A) (A) (A) (A) (A) (A) (A) (A)
                 (A) (A) (A) (A) (A) (A) (A) (A) (A) (A) (A) (A)
                 (A) (A) (A) (A) (A) (A) (A) (A) (A) (A) (A) (A)
                 (A) (A) (A) (A) (A) (A) (A) (A) (A) (A) (A) (A)
                 (A) (A) (A) (A) (A) (A) (A) (A) (A) (A) (A) (A)
                 (A) (A) (A) (A) (A) (A) (A) (A) (A) (A) (A) (A)
                 (A) (A) (A) (A) (A) (A) (A) (A) (A) (A) (A) (A)
                 (A) (A) (A) (A) (A) (A) (A) (A) (A) (A) (A) (A)
                 (A) (A) (A) (A) (A) (A) (A) (A) (A) (A) (A) (A)
                 (A) (A) (A) (A) (A) (A) (A) (A) (A) (A) (A) (A)
                 (A) (A) (A) (A) (A) (A) (A) (A) (A) (A) (A) (A)
                 (A) (A) (A) (A) (A) (A) (A) (A) (A) (A) (A) (A)
                 (A) (A) (A) (A) (A) (A) (A) (A) (A) (A) (A) (A)
                 (A) (A) (A) (A) (A) (A) (A) (A) (A) (A) (A) (A)
                 (A) (A) (A) (A) (A) (A) (A) (A) (A) (A) (A) (A)
                 (A) (A) (A) (A) (A) (A) (A) (A) (A) (A) (A) (A)
                 (A) (A) (A) (A) (A) (A) (A) (A) (A) (A) (A) (A)
                 (A) (A) (A) (A) (A) (A) (A) (A) (A) (A) (A) (A)
                 (A) (A) (A) (A) (A) (A) (A) (A) (A) (A) (A) (A)
                 (A) (A) (A) (A) (A) (A) (A) (A) (A) (A) (A) (A)
                 (A) (A) (A) (A) (A) (A) (A) (A) (A) (A) (A) (A)
                 (A) (A) (A) (A) (A) (A) (A) (A) (A) (A) (A) (A)
                 (A) (A) (A) (A) (A) (A) (A) (A) (A) (A) (A) (A)
                 (A) (A) (A) (A) (A) (A) (A) (A) (A) (A) (A) (A)
                 (A) (A) (A) (A) (A) (A) (A) (A) (A) (A) (A) (A)
                 (A) (A) (A) (A) (A) (A) (A) (A) (A) (A) (A) (A)
                 (A) (A) (A) (A) (A) (A) (A) (A) (A) (A) (A) (A)
                 (A) (A) (A) (A) (A) (A) (A) (A) (A) (A) (A) (A)
                 (A) (A) (A) (A) (A) (A) (A) (A) (A) (A) (A) (A)
                 (A) (A) (A) (A) (A) (A) (A) (A) (A) (A) (A) (A)
                 (A) (A) (A) (A) (A) (A) (A) (A) (A) (A) (A) (A)
                 (A) (A) (A) (A) (A) (A) (A) (A) (A) (A) (A) (A)
                 (A) (A) (A) (A) (A) (A) (A)
 The electronic state is 1-A.
 Alpha  occ. eigenvalues --  -19.21277 -19.21144 -19.21138 -19.20977 -19.18991
 Alpha  occ. eigenvalues --  -19.17952 -19.16653 -14.46002 -14.42506 -14.40776
 Alpha  occ. eigenvalues --  -10.32356 -10.32047 -10.31299 -10.30238 -10.30093
 Alpha  occ. eigenvalues --  -10.30079 -10.29907 -10.29757 -10.29441 -10.28609
 Alpha  occ. eigenvalues --  -10.28420 -10.28397 -10.27898 -10.27873 -10.27681
 Alpha  occ. eigenvalues --  -10.27266 -10.27195 -10.25466 -10.24339 -10.23638
 Alpha  occ. eigenvalues --  -10.23479 -10.23477 -10.23455 -10.23264 -10.23239
 Alpha  occ. eigenvalues --  -10.22816 -10.22624 -10.22422 -10.22048 -10.21858
 Alpha  occ. eigenvalues --  -10.21731 -10.21591 -10.20168  -6.82675  -6.81575
 Alpha  occ. eigenvalues --   -6.80165  -3.62855  -2.06397  -2.05518  -2.02851
 Alpha  occ. eigenvalues --   -1.07292  -1.06986  -1.04583  -1.02531  -1.00289
 Alpha  occ. eigenvalues --   -1.00204  -0.99572  -0.97799  -0.96895  -0.92020
 Alpha  occ. eigenvalues --   -0.84014  -0.83033  -0.82335  -0.81220  -0.81060
 Alpha  occ. eigenvalues --   -0.79168  -0.77083  -0.76793  -0.75553  -0.75527
 Alpha  occ. eigenvalues --   -0.73553  -0.71156  -0.70908  -0.70321  -0.69268
 Alpha  occ. eigenvalues --   -0.68392  -0.68317  -0.68133  -0.68005  -0.67421
 Alpha  occ. eigenvalues --   -0.66298  -0.64166  -0.63050  -0.62667  -0.62008
 Alpha  occ. eigenvalues --   -0.61858  -0.60171  -0.57120  -0.55782  -0.55488
 Alpha  occ. eigenvalues --   -0.54976  -0.54031  -0.53747  -0.52949  -0.52852
 Alpha  occ. eigenvalues --   -0.52692  -0.51434  -0.50349  -0.49607  -0.49175
 Alpha  occ. eigenvalues --   -0.48785  -0.47975  -0.47801  -0.47440  -0.47038
 Alpha  occ. eigenvalues --   -0.46917  -0.46298  -0.46081  -0.45612  -0.45262
 Alpha  occ. eigenvalues --   -0.45217  -0.45063  -0.44753  -0.44373  -0.44125
 Alpha  occ. eigenvalues --   -0.44100  -0.43343  -0.43078  -0.43068  -0.42753
 Alpha  occ. eigenvalues --   -0.42203  -0.41966  -0.40894  -0.40772  -0.40672
 Alpha  occ. eigenvalues --   -0.40548  -0.40229  -0.40132  -0.39964  -0.39917
 Alpha  occ. eigenvalues --   -0.39854  -0.39725  -0.39103  -0.39002  -0.38713
 Alpha  occ. eigenvalues --   -0.38412  -0.38236  -0.38170  -0.38144  -0.37901
 Alpha  occ. eigenvalues --   -0.37397  -0.37194  -0.37163  -0.36946  -0.36634
 Alpha  occ. eigenvalues --   -0.36527  -0.36222  -0.35711  -0.35636  -0.35390
 Alpha  occ. eigenvalues --   -0.35284  -0.35172  -0.34877  -0.34794  -0.34487
 Alpha  occ. eigenvalues --   -0.34005  -0.33616  -0.33362  -0.32997  -0.32638
 Alpha  occ. eigenvalues --   -0.32515  -0.32394  -0.31556  -0.31475  -0.31195
 Alpha  occ. eigenvalues --   -0.30673  -0.30500  -0.30404  -0.30012  -0.29199
 Alpha  occ. eigenvalues --   -0.28700  -0.27364  -0.27123  -0.26645  -0.26155
 Alpha  occ. eigenvalues --   -0.24984  -0.24185  -0.23684  -0.22144  -0.19918
 Alpha  occ. eigenvalues --   -0.17886
 Alpha virt. eigenvalues --   -0.06585  -0.03387  -0.02731   0.00740   0.01839
 Alpha virt. eigenvalues --    0.03385   0.04968   0.05900   0.06074   0.06455
 Alpha virt. eigenvalues --    0.07749   0.08657   0.09194   0.09463   0.10153
 Alpha virt. eigenvalues --    0.10384   0.10784   0.11485   0.11776   0.12166
 Alpha virt. eigenvalues --    0.12304   0.12616   0.12911   0.13323   0.13661
 Alpha virt. eigenvalues --    0.13899   0.14301   0.14565   0.15024   0.15107
 Alpha virt. eigenvalues --    0.15231   0.15371   0.15649   0.15899   0.16214
 Alpha virt. eigenvalues --    0.16419   0.16503   0.16675   0.16716   0.16910
 Alpha virt. eigenvalues --    0.17099   0.17387   0.17652   0.17794   0.17982
 Alpha virt. eigenvalues --    0.18352   0.18569   0.18623   0.18877   0.18907
 Alpha virt. eigenvalues --    0.19257   0.19383   0.19651   0.19753   0.20010
 Alpha virt. eigenvalues --    0.20080   0.20475   0.20577   0.20675   0.20721
 Alpha virt. eigenvalues --    0.21039   0.21346   0.21596   0.21916   0.22229
 Alpha virt. eigenvalues --    0.22419   0.22539   0.23022   0.23138   0.23570
 Alpha virt. eigenvalues --    0.23759   0.23897   0.24121   0.24449   0.24497
 Alpha virt. eigenvalues --    0.25032   0.25275   0.25340   0.25821   0.25980
 Alpha virt. eigenvalues --    0.26217   0.26508   0.26657   0.26748   0.27202
 Alpha virt. eigenvalues --    0.27742   0.27846   0.28014   0.28419   0.28750
 Alpha virt. eigenvalues --    0.29120   0.29439   0.29719   0.30072   0.30214
 Alpha virt. eigenvalues --    0.30324   0.31205   0.31810   0.32646   0.32941
 Alpha virt. eigenvalues --    0.33472   0.33913   0.34301   0.34911   0.35414
 Alpha virt. eigenvalues --    0.36264   0.36674   0.37907   0.38214   0.38778
 Alpha virt. eigenvalues --    0.39254   0.40112   0.41005   0.43041   0.43472
 Alpha virt. eigenvalues --    0.45569   0.46145   0.46817   0.46974   0.47584
 Alpha virt. eigenvalues --    0.49020   0.49431   0.49970   0.50079   0.50667
 Alpha virt. eigenvalues --    0.51145   0.51277   0.52005   0.52647   0.52686
 Alpha virt. eigenvalues --    0.53370   0.53771   0.54192   0.54463   0.54779
 Alpha virt. eigenvalues --    0.55056   0.55409   0.55836   0.56661   0.57199
 Alpha virt. eigenvalues --    0.57412   0.57631   0.57775   0.57885   0.57945
 Alpha virt. eigenvalues --    0.58447   0.58511   0.58751   0.59185   0.59367
 Alpha virt. eigenvalues --    0.59488   0.59883   0.60214   0.60487   0.60618
 Alpha virt. eigenvalues --    0.61008   0.61068   0.61555   0.61988   0.62283
 Alpha virt. eigenvalues --    0.62600   0.63456   0.63674   0.64086   0.64572
 Alpha virt. eigenvalues --    0.64727   0.65223   0.65324   0.65717   0.66093
 Alpha virt. eigenvalues --    0.66240   0.66336   0.66823   0.67274   0.67449
 Alpha virt. eigenvalues --    0.67767   0.68857   0.69102   0.69524   0.70006
 Alpha virt. eigenvalues --    0.70278   0.70565   0.70700   0.70957   0.71639
 Alpha virt. eigenvalues --    0.72098   0.72238   0.73103   0.73547   0.73607
 Alpha virt. eigenvalues --    0.73731   0.73995   0.74335   0.74871   0.75221
 Alpha virt. eigenvalues --    0.76014   0.76095   0.76882   0.77139   0.77912
 Alpha virt. eigenvalues --    0.78295   0.78555   0.78678   0.78881   0.78996
 Alpha virt. eigenvalues --    0.79074   0.79846   0.80689   0.80856   0.81211
 Alpha virt. eigenvalues --    0.81614   0.81914   0.82324   0.82660   0.83109
 Alpha virt. eigenvalues --    0.83274   0.83571   0.83732   0.83856   0.84420
 Alpha virt. eigenvalues --    0.84523   0.84941   0.85046   0.85111   0.85519
 Alpha virt. eigenvalues --    0.85711   0.85911   0.86304   0.86724   0.86997
 Alpha virt. eigenvalues --    0.87366   0.87689   0.87811   0.87933   0.88502
 Alpha virt. eigenvalues --    0.88694   0.89140   0.89328   0.89583   0.89788
 Alpha virt. eigenvalues --    0.89826   0.90096   0.90337   0.90442   0.90814
 Alpha virt. eigenvalues --    0.91243   0.91306   0.91610   0.92050   0.92174
 Alpha virt. eigenvalues --    0.92466   0.92686   0.92970   0.93401   0.93551
 Alpha virt. eigenvalues --    0.93891   0.94415   0.94900   0.95081   0.95792
 Alpha virt. eigenvalues --    0.95911   0.96023   0.96273   0.96651   0.96793
 Alpha virt. eigenvalues --    0.96969   0.97424   0.97982   0.98342   0.99037
 Alpha virt. eigenvalues --    0.99155   0.99520   0.99747   1.00165   1.00972
 Alpha virt. eigenvalues --    1.01374   1.02495   1.02741   1.03051   1.03837
 Alpha virt. eigenvalues --    1.04427   1.05119   1.05709   1.06375   1.06440
 Alpha virt. eigenvalues --    1.06941   1.07699   1.07935   1.08610   1.09163
 Alpha virt. eigenvalues --    1.09938   1.10274   1.11424   1.11962   1.12073
 Alpha virt. eigenvalues --    1.12406   1.13357   1.13742   1.15153   1.15627
 Alpha virt. eigenvalues --    1.16087   1.16815   1.17258   1.17924   1.18704
 Alpha virt. eigenvalues --    1.19495   1.19724   1.20783   1.21430   1.21802
 Alpha virt. eigenvalues --    1.22277   1.23062   1.23209   1.24144   1.24794
 Alpha virt. eigenvalues --    1.25006   1.25801   1.26641   1.27217   1.27948
 Alpha virt. eigenvalues --    1.28508   1.29148   1.30224   1.30381   1.31496
 Alpha virt. eigenvalues --    1.32085   1.32663   1.33169   1.33602   1.34403
 Alpha virt. eigenvalues --    1.34955   1.35856   1.37085   1.37472   1.38578
 Alpha virt. eigenvalues --    1.38783   1.39619   1.40813   1.41250   1.41700
 Alpha virt. eigenvalues --    1.41979   1.43171   1.43597   1.44202   1.44961
 Alpha virt. eigenvalues --    1.45288   1.45693   1.46213   1.46395   1.47098
 Alpha virt. eigenvalues --    1.47234   1.48162   1.48261   1.48633   1.49894
 Alpha virt. eigenvalues --    1.51318   1.51592   1.51924   1.52528   1.53376
 Alpha virt. eigenvalues --    1.54207   1.55433   1.56141   1.56814   1.58389
 Alpha virt. eigenvalues --    1.58748   1.59473   1.61651   1.61942   1.63088
 Alpha virt. eigenvalues --    1.63866   1.64205   1.64701   1.65263   1.65761
 Alpha virt. eigenvalues --    1.66288   1.66476   1.66634   1.67425   1.68272
 Alpha virt. eigenvalues --    1.68380   1.69655   1.70657   1.71234   1.72313
 Alpha virt. eigenvalues --    1.73458   1.73954   1.75005   1.75468   1.76833
 Alpha virt. eigenvalues --    1.77275   1.77944   1.78330   1.79031   1.79362
 Alpha virt. eigenvalues --    1.79887   1.80444   1.80955   1.81317   1.82069
 Alpha virt. eigenvalues --    1.82430   1.82927   1.83234   1.83475   1.84089
 Alpha virt. eigenvalues --    1.84441   1.84748   1.85082   1.85470   1.86650
 Alpha virt. eigenvalues --    1.86978   1.87225   1.87622   1.88013   1.89133
 Alpha virt. eigenvalues --    1.89229   1.89501   1.90125   1.91057   1.91352
 Alpha virt. eigenvalues --    1.91504   1.91813   1.92163   1.92303   1.92514
 Alpha virt. eigenvalues --    1.92719   1.92865   1.93296   1.94012   1.94033
 Alpha virt. eigenvalues --    1.94390   1.94819   1.95426   1.96113   1.96902
 Alpha virt. eigenvalues --    1.97724   1.98279   1.99005   1.99307   1.99961
 Alpha virt. eigenvalues --    2.00699   2.01354   2.01496   2.01779   2.02356
 Alpha virt. eigenvalues --    2.02887   2.04316   2.05184   2.05387   2.05990
 Alpha virt. eigenvalues --    2.06157   2.06661   2.07257   2.07500   2.07922
 Alpha virt. eigenvalues --    2.08294   2.08363   2.09132   2.10029   2.10236
 Alpha virt. eigenvalues --    2.10269   2.10791   2.11500   2.11600   2.12722
 Alpha virt. eigenvalues --    2.13245   2.13754   2.13991   2.14530   2.14927
 Alpha virt. eigenvalues --    2.15230   2.15698   2.16063   2.16419   2.16788
 Alpha virt. eigenvalues --    2.17157   2.17857   2.18331   2.18637   2.18782
 Alpha virt. eigenvalues --    2.19318   2.19731   2.20104   2.20515   2.21305
 Alpha virt. eigenvalues --    2.21744   2.21979   2.22322   2.22889   2.23540
 Alpha virt. eigenvalues --    2.23754   2.24105   2.24243   2.25162   2.25341
 Alpha virt. eigenvalues --    2.25764   2.25866   2.26322   2.26523   2.26785
 Alpha virt. eigenvalues --    2.27697   2.28095   2.28638   2.29355   2.29836
 Alpha virt. eigenvalues --    2.29995   2.30833   2.31420   2.31925   2.32754
 Alpha virt. eigenvalues --    2.33059   2.33201   2.33365   2.34016   2.35177
 Alpha virt. eigenvalues --    2.36886   2.38022   2.38505   2.38514   2.38898
 Alpha virt. eigenvalues --    2.39039   2.40892   2.41867   2.42426   2.43498
 Alpha virt. eigenvalues --    2.43853   2.45641   2.46966   2.47787   2.47927
 Alpha virt. eigenvalues --    2.48392   2.48904   2.49758   2.51070   2.51391
 Alpha virt. eigenvalues --    2.52413   2.54605   2.55875   2.57064   2.57335
 Alpha virt. eigenvalues --    2.59190   2.59671   2.60577   2.61228   2.62391
 Alpha virt. eigenvalues --    2.63173   2.63577   2.64814   2.65203   2.66698
 Alpha virt. eigenvalues --    2.67004   2.67811   2.68803   2.69803   2.70526
 Alpha virt. eigenvalues --    2.71991   2.73386   2.76782   2.77208   2.78366
 Alpha virt. eigenvalues --    2.78810   2.78994   2.79316   2.79929   2.80295
 Alpha virt. eigenvalues --    2.80575   2.81220   2.81366   2.82549   2.82726
 Alpha virt. eigenvalues --    2.83334   2.84396   2.85766   2.86854   2.88256
 Alpha virt. eigenvalues --    2.91270   2.93558   2.94017   2.95083   2.96443
 Alpha virt. eigenvalues --    2.97629   2.99773   3.00990   3.03066   3.04673
 Alpha virt. eigenvalues --    3.06614   3.07613   3.11193   3.12436   3.14762
 Alpha virt. eigenvalues --    3.20972   3.23841   3.31274   3.43841  13.22183
          Condensed to atoms (all electrons):
 Mulliken charges:
               1
     1  C    0.260739
     2  C    0.037164
     3  C   -0.168629
     4  C   -0.138027
     5  C   -0.184173
     6  C    0.280092
     7  C    0.046450
     8  C   -0.150212
     9  C   -0.123599
    10  C   -0.173343
    11  H    0.199208
    12  H    0.178116
    13  H    0.166860
    14  H    0.252912
    15  H    0.187204
    16  H    0.171510
    17  N   -0.397422
    18  N   -0.551503
    19  Ir  -0.084944
    20  O   -0.516638
    21  O   -0.493839
    22  O   -0.562293
    23  B    0.457611
    24  B    0.324182
    25  B    0.656327
    26  O   -0.546119
    27  O   -0.506096
    28  C    0.292218
    29  C    0.295430
    30  C    0.322226
    31  C    0.291681
    32  C    0.286449
    33  C    0.290060
    34  O   -0.518019
    35  C   -0.509249
    36  H    0.162497
    37  H    0.154690
    38  H    0.174082
    39  C   -0.513212
    40  H    0.175786
    41  H    0.151794
    42  H    0.183751
    43  C   -0.506615
    44  H    0.148192
    45  H    0.195266
    46  H    0.150223
    47  C   -0.510072
    48  H    0.153180
    49  H    0.161449
    50  H    0.177097
    51  C   -0.501484
    52  H    0.178343
    53  H    0.166876
    54  H    0.146605
    55  C   -0.506727
    56  H    0.165617
    57  H    0.150035
    58  H    0.173287
    59  C   -0.507259
    60  H    0.169467
    61  H    0.165797
    62  H    0.153934
    63  C   -0.498169
    64  H    0.161900
    65  H    0.154888
    66  H    0.156104
    67  C   -0.510754
    68  H    0.143626
    69  H    0.167916
    70  H    0.163219
    71  C   -0.504174
    72  H    0.132298
    73  H    0.205316
    74  H    0.158751
    75  C   -0.502754
    76  H    0.174488
    77  H    0.144362
    78  H    0.155044
    79  C   -0.503558
    80  H    0.151640
    81  H    0.160592
    82  H    0.155529
    83  H    0.158209
    84  C    0.580422
    85  O   -0.526830
    86  C   -0.439998
    87  H    0.187956
    88  H    0.207721
    89  C   -0.419265
    90  H    0.224073
    91  H    0.214800
    92  N   -0.371178
    93  C   -0.374589
    94  H    0.175238
    95  H    0.156733
    96  H    0.204399
    97  C   -0.469430
    98  H    0.147802
    99  H    0.180453
   100  H    0.186353
   101  H    0.175234
   102  H    0.150702
 Sum of Mulliken charges =  -0.00000
 Mulliken charges with hydrogens summed into heavy atoms:
               1
     1  C    0.260739
     2  C    0.236372
     3  C    0.006605
     4  C    0.040089
     5  C   -0.017313
     6  C    0.280092
     7  C    0.299362
     8  C    0.036142
     9  C    0.063605
    10  C   -0.001833
    17  N   -0.397422
    18  N   -0.551503
    19  Ir  -0.084944
    20  O   -0.516638
    21  O   -0.493839
    22  O   -0.562293
    23  B    0.457611
    24  B    0.482391
    25  B    0.656327
    26  O   -0.546119
    27  O   -0.506096
    28  C    0.292218
    29  C    0.295430
    30  C    0.322226
    31  C    0.291681
    32  C    0.286449
    33  C    0.290060
    34  O   -0.518019
    35  C   -0.017979
    39  C   -0.001881
    43  C   -0.012934
    47  C   -0.018346
    51  C   -0.009661
    55  C   -0.017789
    59  C   -0.018061
    63  C   -0.025276
    67  C   -0.035992
    71  C   -0.007810
    75  C   -0.028860
    79  C   -0.035797
    84  C    0.580422
    85  O   -0.526830
    86  C   -0.044322
    89  C    0.019608
    92  N   -0.371178
    93  C    0.161780
    97  C    0.009526
 APT charges:
               1
     1  C    0.205971
     2  C    0.084407
     3  C   -0.061834
     4  C    0.123390
     5  C   -0.169899
     6  C    0.173167
     7  C    0.036366
     8  C   -0.069365
     9  C    0.145046
    10  C   -0.175414
    11  H    0.070239
    12  H    0.025827
    13  H    0.044030
    14  H    0.159645
    15  H    0.036439
    16  H    0.046833
    17  N   -0.291464
    18  N   -0.160752
    19  Ir  -0.545159
    20  O   -1.016089
    21  O   -0.899985
    22  O   -1.087808
    23  B    1.187808
    24  B    1.317459
    25  B    1.507654
    26  O   -1.035012
    27  O   -0.987992
    28  C    0.506189
    29  C    0.520301
    30  C    0.554756
    31  C    0.501310
    32  C    0.463832
    33  C    0.436514
    34  O   -0.912025
    35  C   -0.012103
    36  H    0.001341
    37  H   -0.015655
    38  H    0.006760
    39  C   -0.045509
    40  H    0.008536
    41  H   -0.023563
    42  H    0.012400
    43  C   -0.044494
    44  H   -0.020245
    45  H    0.027462
    46  H    0.000989
    47  C   -0.008898
    48  H   -0.014499
    49  H   -0.003659
    50  H    0.006330
    51  C   -0.027721
    52  H    0.023804
    53  H    0.005118
    54  H   -0.024645
    55  C   -0.006336
    56  H   -0.001093
    57  H   -0.013549
    58  H    0.003170
    59  C    0.000536
    60  H    0.000291
    61  H    0.002100
    62  H   -0.014513
    63  C   -0.017677
    64  H   -0.005420
    65  H   -0.017597
    66  H   -0.007079
    67  C    0.001223
    68  H   -0.021673
    69  H   -0.005134
    70  H   -0.006440
    71  C   -0.040075
    72  H   -0.028581
    73  H    0.030174
    74  H   -0.005094
    75  C   -0.002982
    76  H    0.005970
    77  H   -0.022984
    78  H   -0.008749
    79  C   -0.047092
    80  H   -0.031283
    81  H    0.005343
    82  H   -0.001683
    83  H   -0.047891
    84  C    0.830266
    85  O   -0.728290
    86  C   -0.012935
    87  H   -0.014862
    88  H    0.027508
    89  C   -0.095956
    90  H    0.047288
    91  H   -0.026492
    92  N   -0.700643
    93  C    0.235324
    94  H    0.022695
    95  H   -0.027760
    96  H    0.061694
    97  C    0.061246
    98  H   -0.013281
    99  H   -0.002046
   100  H    0.043527
   101  H    0.028924
   102  H   -0.018223
 Sum of APT charges =  -0.00000
 APT charges with hydrogens summed into heavy atoms:
               1
     1  C    0.205971
     2  C    0.154646
     3  C   -0.032909
     4  C    0.149217
     5  C   -0.125869
     6  C    0.173167
     7  C    0.196012
     8  C   -0.025837
     9  C    0.181486
    10  C   -0.128581
    17  N   -0.291464
    18  N   -0.160752
    19  Ir  -0.545159
    20  O   -1.016089
    21  O   -0.899985
    22  O   -1.087808
    23  B    1.187808
    24  B    1.269568
    25  B    1.507654
    26  O   -1.035012
    27  O   -0.987992
    28  C    0.506189
    29  C    0.520301
    30  C    0.554756
    31  C    0.501310
    32  C    0.463832
    33  C    0.436514
    34  O   -0.912025
    35  C   -0.019656
    39  C   -0.048135
    43  C   -0.036289
    47  C   -0.020726
    51  C   -0.023444
    55  C   -0.017808
    59  C   -0.011586
    63  C   -0.047773
    67  C   -0.032024
    71  C   -0.043576
    75  C   -0.028745
    79  C   -0.074715
    84  C    0.830266
    85  O   -0.728290
    86  C   -0.000289
    89  C   -0.075160
    92  N   -0.700643
    93  C    0.291953
    97  C    0.027697
 Electronic spatial extent (au):  <R**2>=          22685.1495
 Charge=             -0.0000 electrons
 Dipole moment (field-independent basis, Debye):
    X=              3.2067    Y=             -4.4022    Z=              3.4261  Tot=              6.4343
 Quadrupole moment (field-independent basis, Debye-Ang):
   XX=           -300.5104   YY=           -273.0190   ZZ=           -284.3315
   XY=             -5.3814   XZ=            -12.1084   YZ=             -1.9579
 Traceless Quadrupole moment (field-independent basis, Debye-Ang):
   XX=            -14.5567   YY=             12.9346   ZZ=              1.6221
   XY=             -5.3814   XZ=            -12.1084   YZ=             -1.9579
 Octapole moment (field-independent basis, Debye-Ang**2):
  XXX=            137.4464  YYY=           -105.9825  ZZZ=            -39.1750  XYY=             -8.4138
  XXY=             32.6397  XXZ=              4.0385  XZZ=            -22.3714  YZZ=            -22.5754
  YYZ=             -6.4400  XYZ=             30.1145
 Hexadecapole moment (field-independent basis, Debye-Ang**3):
 XXXX=         -12943.9857 YYYY=         -10598.4737 ZZZZ=          -6438.5923 XXXY=           -205.7994
 XXXZ=           -316.3745 YYYX=            -77.2321 YYYZ=            -11.8932 ZZZX=             32.5552
 ZZZY=              5.4414 XXYY=          -3979.0370 XXZZ=          -2946.3415 YYZZ=          -2979.1268
 XXYZ=            -76.2152 YYXZ=           -108.2582 ZZXY=             33.6102
 N-N= 7.571719745112D+03 E-N=-2.014786329401D+04  KE= 2.074988557761D+03
  Exact polarizability:     471.080     -15.981     510.205     -39.988      -3.018     396.082
 Approx polarizability:     672.574     -34.914     747.909     -89.050      -7.982     623.876
   1 Symmetry operations used in ECPInt.
 ECPInt:  NShTT=   45753 NPrTT=  276657 LenC2=   37020 LenP2D=  116683.
 LDataN:  DoStor=T MaxTD1= 8 Len=  415
 Calling FoFJK, ICntrl=    100127 FMM=F ISym2X=0 I1Cent= 0 IOpClX= 0 NMat=1 NMatS=1 NMatT=0.
 Defaulting to unpruned grid for atomic number  77.
 Defaulting to unpruned grid for atomic number  77.
 Defaulting to unpruned grid for atomic number  77.
 Defaulting to unpruned grid for atomic number  77.
 Defaulting to unpruned grid for atomic number  77.
 Defaulting to unpruned grid for atomic number  77.
 Defaulting to unpruned grid for atomic number  77.
 Defaulting to unpruned grid for atomic number  77.
 Defaulting to unpruned grid for atomic number  77.
 Defaulting to unpruned grid for atomic number  77.
 Defaulting to unpruned grid for atomic number  77.
 Defaulting to unpruned grid for atomic number  77.
 Defaulting to unpruned grid for atomic number  77.
 Defaulting to unpruned grid for atomic number  77.
 Defaulting to unpruned grid for atomic number  77.
 Defaulting to unpruned grid for atomic number  77.
 Full mass-weighted force constant matrix:
 Low frequencies --- -134.5122   -6.9817    0.0005    0.0007    0.0009    2.8048
 Low frequencies ---   10.3071   25.0770   28.6871
 ******    1 imaginary frequencies (negative Signs) ****** 
 Diagonal vibrational polarizability:
       91.7471045     115.5106687      62.3934759
 Harmonic frequencies (cm**-1), IR intensities (KM/Mole), Raman scattering
 activities (A**4/AMU), depolarization ratios for plane and unpolarized
 incident light, reduced masses (AMU), force constants (mDyne/A),
 and normal coordinates:
                      1                      2                      3
                      A                      A                      A
 Frequencies --   -134.5049                24.9677                28.6639
 Red. masses --      5.2527                 5.1778                 4.7163
 Frc consts  --      0.0560                 0.0019                 0.0023
 IR Inten    --     13.2725                 1.2275                 0.0456
  Atom AN      X      Y      Z        X      Y      Z        X      Y      Z
     1   6     0.00   0.05   0.01     0.05   0.02   0.06     0.08   0.01  -0.04
     2   6     0.00   0.07   0.00     0.06  -0.02   0.08    -0.01   0.02  -0.11
     3   6    -0.02   0.06  -0.02     0.18   0.03   0.20     0.07   0.05  -0.09
     4   6    -0.02   0.04  -0.03     0.22   0.08   0.25     0.16   0.05  -0.03
     5   6    -0.01   0.04  -0.02     0.15   0.07   0.17     0.16   0.04  -0.01
     6   6     0.00   0.03   0.01    -0.00   0.01   0.00     0.07  -0.01  -0.02
     7   6    -0.01   0.02   0.02    -0.06   0.00  -0.04     0.02  -0.03  -0.01
     8   6    -0.02   0.01   0.01    -0.07  -0.01  -0.06     0.05  -0.06   0.02
     9   6    -0.01   0.01  -0.00    -0.04  -0.01  -0.05     0.10  -0.07   0.03
    10   6    -0.00   0.02  -0.00    -0.01  -0.00  -0.02     0.11  -0.04   0.01
    11   1     0.01   0.07   0.01     0.02  -0.06   0.03    -0.08   0.02  -0.15
    12   1    -0.03   0.03  -0.05     0.31   0.12   0.34     0.22   0.07  -0.01
    13   1    -0.02   0.03  -0.03     0.19   0.12   0.21     0.23   0.05   0.03
    14   1    -0.02   0.02   0.03    -0.07   0.00  -0.05    -0.02  -0.03  -0.01
    15   1    -0.02   0.00  -0.01    -0.05  -0.02  -0.06     0.13  -0.09   0.05
    16   1     0.00   0.02  -0.01     0.02  -0.01  -0.01     0.14  -0.05   0.01
    17   7     0.02   0.08   0.02    -0.00  -0.02   0.01    -0.00   0.01  -0.09
    18   7    -0.00   0.04   0.02    -0.03   0.01  -0.02     0.02  -0.01  -0.02
    19  77    -0.05   0.01  -0.03    -0.02   0.01  -0.01    -0.00   0.01  -0.03
    20   8    -0.01   0.02   0.01    -0.02  -0.01  -0.01     0.01  -0.04   0.02
    21   8     0.02  -0.02  -0.04     0.00  -0.04  -0.01     0.00   0.04  -0.04
    22   8     0.11  -0.00   0.04     0.00   0.00   0.01     0.02   0.01   0.02
    23   5     0.03  -0.04  -0.03    -0.02  -0.04  -0.01    -0.02   0.02  -0.01
    24   5    -0.00  -0.02   0.06    -0.02  -0.01  -0.01     0.00  -0.01   0.00
    25   5     0.30  -0.01   0.16     0.01   0.01   0.01    -0.00   0.01   0.01
    26   8     0.14  -0.02   0.07     0.02   0.02   0.02    -0.03   0.01  -0.01
    27   8    -0.00  -0.01   0.05    -0.03  -0.00  -0.01    -0.01  -0.01  -0.00
    28   6     0.00   0.01   0.02    -0.02   0.00  -0.03    -0.01  -0.06   0.03
    29   6    -0.01   0.02   0.00    -0.02  -0.00  -0.03     0.02  -0.07   0.04
    30   6     0.03   0.02   0.01     0.01   0.00   0.03     0.01   0.01   0.01
    31   6     0.05   0.05   0.03     0.02   0.01   0.03    -0.01   0.02  -0.01
    32   6     0.00  -0.01  -0.02     0.01  -0.06  -0.02    -0.04   0.03  -0.01
    33   6     0.00  -0.01   0.00    -0.01  -0.06  -0.02    -0.09   0.02   0.02
    34   8     0.02  -0.03   0.01    -0.03  -0.05  -0.02    -0.08  -0.00   0.02
    35   6    -0.00   0.02  -0.00    -0.01   0.00  -0.04     0.01  -0.11   0.06
    36   1     0.00   0.03   0.00     0.01  -0.01  -0.05    -0.03  -0.11   0.06
    37   1    -0.00   0.03  -0.01    -0.01   0.01  -0.06     0.00  -0.14   0.07
    38   1    -0.01   0.03  -0.00    -0.01  -0.00  -0.04     0.04  -0.11   0.07
    39   6    -0.02   0.01  -0.00    -0.04   0.00  -0.03     0.07  -0.07   0.05
    40   1    -0.01   0.01  -0.01    -0.04   0.00  -0.02     0.07  -0.07   0.05
    41   1    -0.02   0.00  -0.01    -0.05   0.01  -0.04     0.08  -0.08   0.07
    42   1    -0.02   0.00   0.00    -0.05   0.01  -0.01     0.08  -0.05   0.03
    43   6     0.03   0.01   0.01    -0.00  -0.00  -0.04    -0.08  -0.07   0.04
    44   1     0.03   0.02   0.00    -0.00   0.00  -0.06    -0.09  -0.12   0.06
    45   1     0.04   0.01   0.02     0.01  -0.01  -0.03    -0.09  -0.05   0.03
    46   1     0.03   0.01   0.02    -0.01  -0.00  -0.03    -0.11  -0.05   0.03
    47   6    -0.02   0.01   0.01    -0.04   0.01  -0.04     0.01  -0.08   0.05
    48   1    -0.02   0.02  -0.01    -0.04   0.01  -0.05     0.01  -0.12   0.08
    49   1    -0.01   0.00   0.02    -0.04   0.01  -0.04    -0.02  -0.07   0.04
    50   1    -0.03   0.00   0.01    -0.05   0.01  -0.03     0.05  -0.07   0.04
    51   6     0.01  -0.01  -0.00     0.02  -0.07  -0.03    -0.01  -0.02   0.01
    52   1     0.02  -0.01   0.01     0.00  -0.07  -0.03     0.00  -0.05   0.02
    53   1     0.01  -0.01  -0.01     0.03  -0.07  -0.02     0.03  -0.01  -0.02
    54   1    -0.01  -0.01   0.01     0.03  -0.08  -0.04    -0.03  -0.03   0.03
    55   6    -0.02   0.00  -0.03     0.03  -0.05  -0.01    -0.05   0.07  -0.03
    56   1    -0.02   0.01  -0.04     0.03  -0.04   0.00    -0.06   0.11  -0.05
    57   1    -0.03   0.01  -0.02     0.04  -0.06  -0.02    -0.08   0.07  -0.02
    58   1    -0.01   0.00  -0.04     0.04  -0.05  -0.00    -0.01   0.08  -0.05
    59   6     0.00  -0.00   0.02    -0.00  -0.07  -0.05    -0.11  -0.01   0.04
    60   1     0.01  -0.00   0.03    -0.01  -0.07  -0.06    -0.14  -0.02   0.06
    61   1     0.01  -0.01   0.02    -0.01  -0.07  -0.06    -0.09  -0.05   0.04
    62   1    -0.00   0.01   0.02     0.01  -0.08  -0.05    -0.11   0.00   0.04
    63   6     0.00  -0.00   0.00     0.00  -0.05  -0.00    -0.11   0.07   0.03
    64   1     0.00  -0.01   0.02     0.00  -0.05   0.02    -0.15   0.07   0.05
    65   1    -0.01   0.01   0.00     0.01  -0.02  -0.01    -0.12   0.09   0.03
    66   1     0.00  -0.01  -0.01    -0.00  -0.05  -0.01    -0.10   0.10   0.02
    67   6     0.00   0.01  -0.02     0.03   0.01   0.05    -0.04   0.02  -0.01
    68   1    -0.04   0.04  -0.04     0.04   0.01   0.06    -0.03   0.02  -0.01
    69   1     0.01   0.02  -0.01     0.04   0.02   0.05    -0.05   0.02  -0.03
    70   1     0.00  -0.04  -0.03     0.04   0.03   0.04    -0.05   0.01   0.01
    71   6     0.05   0.11   0.05     0.02  -0.01   0.04     0.00   0.02  -0.05
    72   1     0.01   0.13   0.05     0.02  -0.02   0.06     0.02   0.03  -0.06
    73   1     0.08   0.12   0.06     0.01  -0.02   0.02     0.02   0.03  -0.04
    74   1     0.07   0.13   0.07     0.02  -0.00   0.04    -0.02   0.01  -0.06
    75   6     0.00   0.05   0.01     0.01  -0.02   0.03     0.04   0.02   0.00
    76   1     0.02   0.08   0.03     0.00  -0.03   0.03     0.05   0.03  -0.02
    77   1    -0.03   0.06   0.01     0.02  -0.02   0.05     0.03   0.02  -0.01
    78   1    -0.00   0.02   0.00     0.01  -0.02   0.03     0.05   0.01   0.02
    79   6     0.01  -0.04  -0.01     0.02   0.02   0.03    -0.01  -0.00   0.04
    80   1    -0.03  -0.04  -0.01     0.03   0.02   0.04    -0.01  -0.00   0.03
    81   1     0.03  -0.06  -0.01     0.02   0.03   0.02    -0.02  -0.00   0.04
    82   1     0.01  -0.07  -0.02     0.02   0.02   0.02     0.01  -0.01   0.05
    83   1    -0.10  -0.19  -0.19    -0.02  -0.01  -0.02     0.01   0.02  -0.02
    84   6    -0.03  -0.08   0.00    -0.02   0.03  -0.04    -0.02   0.01   0.06
    85   8    -0.03  -0.05   0.01    -0.03   0.04  -0.06    -0.01   0.01   0.08
    86   6    -0.03  -0.08   0.01    -0.00   0.02  -0.01    -0.06   0.01   0.02
    87   1    -0.06  -0.09   0.00     0.03   0.02  -0.02    -0.11   0.02   0.02
    88   1    -0.03  -0.04  -0.01    -0.01   0.01   0.02    -0.05   0.01  -0.03
    89   6     0.04  -0.21  -0.01     0.00   0.02  -0.02    -0.03   0.00   0.03
    90   1    -0.20   0.03  -0.35    -0.00   0.02  -0.02    -0.05   0.01   0.01
    91   1     0.16   0.10   0.42     0.02   0.03  -0.00    -0.04   0.01   0.04
    92   7     0.01  -0.09  -0.03    -0.01   0.03  -0.03    -0.01   0.00   0.06
    93   6     0.06  -0.06  -0.02    -0.01   0.04  -0.05     0.00   0.00   0.08
    94   1     0.11  -0.04  -0.06    -0.01   0.05  -0.06     0.03   0.01   0.06
    95   1     0.04  -0.07  -0.03    -0.01   0.03  -0.06    -0.03  -0.00   0.08
    96   1     0.07  -0.03   0.04    -0.01   0.04  -0.04     0.01  -0.00   0.12
    97   6    -0.01  -0.08   0.03    -0.02   0.03  -0.02    -0.06   0.01   0.04
    98   1     0.00  -0.07   0.03    -0.03   0.02  -0.03     0.00   0.00   0.03
    99   1    -0.02  -0.09   0.04    -0.02   0.05  -0.03    -0.07   0.02   0.09
   100   1    -0.02   0.00   0.01    -0.09  -0.01  -0.08     0.04  -0.08   0.03
   101   1    -0.03   0.06  -0.04     0.23   0.03   0.25     0.06   0.06  -0.11
   102   1    -0.01  -0.08   0.03    -0.03   0.03  -0.03    -0.09   0.01  -0.00
                      4                      5                      6
                      A                      A                      A
 Frequencies --     37.8729                43.7153                51.6090
 Red. masses --      4.6025                 4.6735                 3.7300
 Frc consts  --      0.0039                 0.0053                 0.0059
 IR Inten    --      0.3340                 0.0961                 0.0799
  Atom AN      X      Y      Z        X      Y      Z        X      Y      Z
     1   6     0.00   0.01   0.01     0.02   0.03   0.03     0.02  -0.00   0.00
     2   6    -0.03  -0.00  -0.01    -0.03   0.03  -0.00    -0.03  -0.01  -0.03
     3   6    -0.04  -0.01  -0.01    -0.04   0.02  -0.02    -0.01  -0.01  -0.03
     4   6    -0.03   0.00  -0.00    -0.01   0.03  -0.00     0.02   0.00  -0.01
     5   6    -0.00   0.01   0.01     0.02   0.03   0.02     0.04   0.00   0.01
     6   6    -0.00   0.01   0.01     0.03   0.04   0.05     0.03  -0.01   0.01
     7   6    -0.02   0.01  -0.00     0.02   0.04   0.02     0.00  -0.01  -0.00
     8   6    -0.04  -0.00  -0.02     0.06   0.05   0.07     0.03  -0.01   0.03
     9   6    -0.03  -0.00  -0.03     0.10   0.05   0.13     0.06  -0.02   0.06
    10   6    -0.01   0.01  -0.01     0.08   0.05   0.12     0.05  -0.01   0.05
    11   1    -0.03  -0.01  -0.02    -0.04   0.03  -0.01    -0.05  -0.02  -0.05
    12   1    -0.03  -0.00  -0.00    -0.02   0.02  -0.01     0.04   0.00  -0.00
    13   1     0.01   0.02   0.02     0.04   0.03   0.03     0.07   0.01   0.03
    14   1    -0.03   0.01   0.01    -0.01   0.05  -0.03    -0.02  -0.01  -0.02
    15   1    -0.04  -0.01  -0.04     0.13   0.05   0.18     0.08  -0.02   0.09
    16   1    -0.01   0.00  -0.01     0.10   0.05   0.16     0.07  -0.01   0.06
    17   7    -0.00   0.01   0.01    -0.00   0.03   0.02    -0.01  -0.01  -0.02
    18   7    -0.01   0.01   0.01     0.00   0.04   0.01     0.00  -0.00  -0.01
    19  77    -0.00   0.03   0.02    -0.01   0.03  -0.01    -0.01  -0.01  -0.02
    20   8     0.02  -0.04  -0.01     0.00  -0.01   0.03    -0.01   0.00  -0.05
    21   8     0.04   0.04   0.01    -0.01  -0.05   0.03    -0.08  -0.01   0.00
    22   8    -0.02   0.01   0.03    -0.06   0.03  -0.07    -0.02  -0.02  -0.01
    23   5     0.00   0.02   0.02    -0.01  -0.03  -0.00    -0.01   0.01  -0.01
    24   5    -0.01  -0.00   0.00    -0.01   0.02  -0.00    -0.01  -0.02  -0.02
    25   5    -0.01   0.02   0.03    -0.02   0.02  -0.05     0.01   0.00  -0.00
    26   8    -0.02   0.04   0.03    -0.00   0.02  -0.04     0.05   0.02   0.04
    27   8    -0.05  -0.02  -0.01    -0.02   0.04  -0.02    -0.01  -0.05   0.02
    28   6    -0.05  -0.07  -0.02    -0.02   0.01  -0.02    -0.01  -0.05   0.02
    29   6     0.00  -0.08  -0.04     0.00  -0.02   0.03    -0.01  -0.03  -0.04
    30   6    -0.03   0.01   0.04    -0.04   0.02  -0.06    -0.01  -0.02   0.03
    31   6    -0.04   0.03   0.04    -0.01   0.01  -0.03     0.02   0.00   0.07
    32   6     0.06   0.04  -0.01    -0.02  -0.09   0.02    -0.06   0.03   0.00
    33   6     0.01   0.03   0.02    -0.02  -0.09  -0.02     0.03   0.04  -0.01
    34   8    -0.02   0.01   0.02    -0.03  -0.05  -0.03     0.05   0.04  -0.01
    35   6     0.03  -0.11  -0.06    -0.00  -0.07   0.05    -0.02   0.01  -0.04
    36   1     0.02  -0.09  -0.05    -0.03  -0.10   0.03    -0.03   0.07  -0.01
    37   1     0.00  -0.15  -0.08    -0.01  -0.08   0.05    -0.01  -0.02  -0.02
    38   1     0.07  -0.11  -0.07     0.02  -0.08   0.08    -0.01   0.03  -0.10
    39   6     0.01  -0.09  -0.04     0.04   0.02   0.07    -0.01  -0.08  -0.09
    40   1     0.03  -0.08  -0.05     0.05   0.00   0.10    -0.02  -0.06  -0.14
    41   1     0.00  -0.11  -0.05     0.04   0.02   0.07    -0.00  -0.11  -0.08
    42   1     0.00  -0.08  -0.04     0.04   0.06   0.06    -0.00  -0.12  -0.09
    43   6    -0.08  -0.07  -0.01    -0.04  -0.04  -0.05    -0.02  -0.01   0.07
    44   1    -0.09  -0.11  -0.03    -0.04  -0.06  -0.05    -0.02  -0.00   0.08
    45   1    -0.06  -0.04  -0.01    -0.04  -0.06  -0.05    -0.03   0.03   0.06
    46   1    -0.13  -0.06   0.00    -0.06  -0.02  -0.09    -0.02  -0.02   0.11
    47   6    -0.08  -0.11  -0.02    -0.02   0.04  -0.03    -0.01  -0.12   0.04
    48   1    -0.08  -0.15  -0.04    -0.02   0.02  -0.02    -0.01  -0.12   0.04
    49   1    -0.12  -0.10  -0.01    -0.04   0.06  -0.07    -0.02  -0.13   0.09
    50   1    -0.06  -0.10  -0.03    -0.00   0.08  -0.00    -0.00  -0.16   0.01
    51   6     0.07  -0.01  -0.06    -0.02  -0.09   0.05    -0.11   0.12   0.01
    52   1     0.04  -0.05  -0.06    -0.01  -0.05   0.04    -0.09   0.17   0.00
    53   1     0.10  -0.00  -0.08    -0.02  -0.08   0.09    -0.18   0.11   0.04
    54   1     0.09  -0.01  -0.07    -0.02  -0.11   0.05    -0.10   0.15   0.01
    55   6     0.11   0.08  -0.00    -0.03  -0.13   0.04    -0.10  -0.02   0.00
    56   1     0.10   0.11   0.03    -0.02  -0.14   0.02    -0.08  -0.08  -0.01
    57   1     0.12   0.08  -0.01    -0.03  -0.15   0.03    -0.09  -0.00   0.00
    58   1     0.14   0.08  -0.02    -0.03  -0.13   0.06    -0.16  -0.02   0.02
    59   6    -0.00  -0.00   0.01    -0.02  -0.10  -0.05     0.07   0.12  -0.02
    60   1    -0.04  -0.01   0.03    -0.02  -0.10  -0.09     0.14   0.13  -0.03
    61   1    -0.00  -0.04  -0.01    -0.02  -0.08  -0.03     0.05   0.18  -0.01
    62   1     0.02   0.01   0.00    -0.01  -0.14  -0.04     0.05   0.13  -0.01
    63   6    -0.01   0.08   0.04    -0.01  -0.11  -0.03     0.08  -0.04  -0.02
    64   1    -0.05   0.07   0.05    -0.01  -0.10  -0.05     0.15  -0.03  -0.03
    65   1     0.01   0.09   0.04    -0.01  -0.13  -0.03     0.08  -0.04  -0.02
    66   1     0.00   0.11   0.05    -0.01  -0.11  -0.02     0.06  -0.10  -0.02
    67   6    -0.05   0.04   0.05     0.03   0.01  -0.03     0.06   0.02   0.10
    68   1    -0.07   0.04   0.06     0.02   0.01  -0.02     0.04   0.00   0.13
    69   1    -0.06   0.06   0.05     0.05   0.00  -0.00     0.08   0.03   0.13
    70   1    -0.06   0.03   0.06     0.04   0.03  -0.05     0.08   0.04   0.07
    71   6    -0.03   0.05   0.03    -0.03  -0.01   0.01     0.00  -0.02   0.12
    72   1    -0.04   0.04   0.04    -0.04  -0.01   0.02    -0.02  -0.04   0.16
    73   1    -0.02   0.04   0.03    -0.06  -0.01   0.01    -0.02  -0.04   0.09
    74   1    -0.03   0.06   0.03    -0.01  -0.02   0.03     0.04   0.01   0.14
    75   6    -0.04   0.00   0.05    -0.08   0.02  -0.05    -0.07  -0.05   0.06
    76   1    -0.02   0.01   0.04    -0.10   0.01  -0.02    -0.08  -0.06   0.07
[...]
 00000550,-0.00000070,-0.00000382,0.00000846,0.00000145,-0.00000536,0.0
 0000118,0.00000011,0.00000303,0.00000042,-0.00000161,-0.00000611,-0.00
 000272,0.00000069,0.00000110,-0.00000144,-0.00000763,-0.00002049,0.000
 00107,0.00000533,-0.00001026,0.00000136,-0.00000235,0.00000347,-0.0000
 0166,-0.00000088,0.00000266,-0.00000020,-0.00001642,-0.00006425,0.0000
 0713,-0.00002982,0.00000942,0.00005162,0.00003950,0.00000793,-0.000037
 97,0.00000817,-0.00003826,0.00000268,0.00002174,-0.00000718,0.00000929
 ,-0.00003879,0.00002700,-0.00004131,0.00001422,0.00004358,0.00003848,0
 .00002446,0.00000390,-0.00000098,-0.00000090,-0.00000623,-0.00000830,0
 .00002048,0.00000973,0.00001051,-0.00000950,0.00001359,0.00000049,-0.0
 0000327,-0.00000336,0.00000067,-0.00000006,-0.00000508,0.00000238,0.00
 000150,0.00000294,0.00000010,0.00000989,-0.00002374,0.00000223,-0.0000
 0576,0.00000292,0.00000115,0.00000677,0.00000950,-0.00000023,0.0000118
 3,0.00000174,0.00000536,-0.10845754,0.13979228,-0.00022934,0.00119547,
 -0.00054093,-0.00610914,0.00437350,0.00682815,0.11016047,-0.08234694,-
 0.14201471,0.01430715,-0.01550634,-0.00897537,0.00443609,0.00402080,-0
 .00063682,-0.00076833,-0.00030304,-0.00049497,-0.00011014,-0.00000184,
 0.00006771,0.00004997,0.00007698,-0.00007108,-0.00001275,-0.00014166,0
 .00000984,-0.00000582,0.00014614,0.00007603,-0.00114254,-0.00076203,-0
 .00100753,-0.00219283,-0.00076027,-0.00037243,0.00081899,-0.00074858,-
 0.00035879,0.00001050,0.00000142,0.00000141,-0.00000432,0.00000098,-0.
 00000791,-0.00004347,-0.00005496,0.00003990,0.00224275,0.00319403,0.00
 332380,0.00018559,-0.00011312,-0.00000970,-0.00012644,-0.00027816,-0.0
 0003309,-0.00012011,-0.00000337,-0.00000506,-0.00003912,0.00000255,-0.
 00005142,0.00000688,-0.00007831,-0.00003981,0.00006516,-0.00002154,0.0
 0007207,0.00013745,0.00001507,-0.00000418,-0.00001989,0.00023758,-0.00
 000025,-0.00002692,-0.00007880,0.00001866,-0.00023803,-0.00006595,-0.0
 0002370,0.00020423,-0.00008349,0.00014678,0.00003083,-0.00002292,-0.00
 006391,0.00001605,0.00004400,0.00000312,0.00001541,0.00003150,0.000023
 31,0.00001930,-0.00000582,0.00001693,0.00003653,-0.00000001,0.00000656
 ,-0.00007550,0.00003303,-0.00003054,-0.00000679,-0.00000077,0.00000572
 ,0.00000187,-0.00000651,-0.00001592,-0.00000741,-0.00000393,0.00000369
 ,-0.00000033,0.00000920,-0.00000482,-0.00000826,0.00002188,0.00001791,
 0.00000293,0.00000886,-0.00000535,-0.00000248,-0.00000248,0.00000291,-
 0.00000132,0.00000040,-0.00000601,-0.00001373,-0.00001404,-0.00011957,
 -0.00000332,0.00001674,-0.00000144,0.00001643,-0.00000581,-0.00000750,
 -0.00009815,-0.00012807,0.00004972,-0.00002607,0.00003701,-0.00001234,
 -0.00001202,-0.00001176,0.00000165,0.00000128,-0.00003403,0.00003076,0
 .00000480,0.00001484,-0.00001740,-0.00000105,-0.00000198,-0.00000282,0
 .00000199,-0.00000188,0.00000235,-0.00000115,0.00000148,0.00000168,-0.
 00000377,-0.00000156,-0.00000427,-0.00000065,0.00000141,-0.00000274,-0
 .00000338,-0.00000034,0.00000261,-0.00000086,0.00000016,-0.00000388,0.
 00000040,0.00000011,0.00000151,-0.00000240,-0.00001168,0.00000141,0.00
 000973,0.00001004,-0.00000879,-0.00000866,-0.00001096,0.00000004,-0.00
 000463,0.00000481,0.00000172,-0.00001043,0.00000822,-0.00000278,0.0000
 1722,-0.00000481,0.00001037,-0.00000184,-0.00000573,-0.00000511,-0.000
 00772,0.00000947,0.00000382,-0.00000269,-0.00000227,-0.00000241,-0.000
 00016,-0.00000338,-0.00000089,-0.00000106,0.00000006,0.00000238,-0.000
 00030,0.00000175,-0.00000093,-0.00000260,-0.00000266,-0.00000532,-0.00
 000296,-0.00000256,-0.00000288,0.00000337,0.00000061,0.00000016,-0.000
 00009,-0.00000078,0.00000340,0.00000063,-0.00000349,-0.00000027,0.0000
 0005,0.00000163,-0.00000010,-0.00000110,-0.00000379,-0.00000131,0.0000
 0026,0.00000112,-0.00000047,-0.00000314,-0.00000952,0.00000130,0.00000
 160,-0.00000537,0.00000030,-0.00000110,0.00000211,-0.00000206,-0.00000
 080,0.00000225,0.00000050,-0.00000812,-0.00001858,0.00001730,-0.000017
 83,-0.00001537,0.00000576,0.00002407,-0.00000301,-0.00000985,0.0000095
 2,-0.00001299,0.00001019,0.00000169,-0.00000142,0.00000060,0.00000778,
 0.00000246,-0.00000592,-0.00002530,-0.00002059,0.00000131,0.00001240,0
 .00000110,0.00001394,0.00000719,0.00000463,0.00001555,0.00003295,0.000
 02231,0.00000147,-0.00001132,0.00001766,0.00000361,-0.00000153,-0.0000
 0082,-0.00000335,-0.00000047,-0.00000389,0.00000257,0.00000053,0.00000
 280,-0.00000045,-0.00000737,0.00000467,-0.00000748,-0.00000451,-0.0000
 0018,0.00000306,0.00000210,-0.00000331,0.00000188,0.00001424,-0.000007
 75,0.00001845,-0.12133572,0.08816342,0.14413108,0.00011115,-0.00002716
 ,-0.00005121,0.00008581,0.00004691,0.00021122,0.00007440,0.00004575,0.
 00006039,0.00006332,0.00003979,0.00001940,0.00007610,0.00000753,0.0000
 5986,0.00001311,-0.00004100,-0.00001769,0.00000964,-0.00000931,-0.0000
 1733,-0.00000112,-0.00002242,0.00000449,-0.00000301,0.00001317,-0.0000
 0219,0.00001074,0.00001957,0.00000885,-0.00000629,-0.00000418,0.000001
 81,0.00001301,-0.00000997,0.00001272,0.00000324,0.00000337,0.00001627,
 -0.00000351,-0.00000671,-0.00000150,-0.00000300,0.00000333,-0.00001030
 ,-0.00000315,0.00001061,-0.00000744,0.00003018,-0.00013329,-0.00001185
 ,-0.00000457,0.00004230,0.00001445,0.00005639,-0.00001793,0.00002640,0
 .00006997,0.00001352,-0.00000700,0.00002656,0.00001538,0.00005108,0.00
 000745,0.00006819,0.00002466,-0.00005174,-0.00000077,-0.00007586,-0.00
 010278,-0.00001171,0.00003010,-0.00002411,-0.00010313,-0.00002382,0.00
 002359,0.00006722,-0.00000231,0.00006658,-0.00000583,-0.00002311,-0.00
 003919,0.00000222,0.00000135,-0.00002642,0.00000371,0.00001460,-0.0000
 0718,-0.00003649,-0.00000012,-0.00001192,-0.00003111,-0.00001433,-0.00
 001785,0.00000126,-0.00001845,-0.00000659,-0.00000303,-0.00002206,0.00
 003058,-0.00000421,0.00004601,0.00000240,0.00000132,-0.00000099,-0.000
 00168,0.00000028,-0.00000053,0.00000336,-0.00000087,-0.00000090,-0.000
 00084,0.00000094,0.00000126,0.00000314,0.00000121,-0.00000188,-0.00000
 164,0.00000034,0.00000050,0.00000415,0.00000025,-0.00000241,-0.0000001
 8,-0.00000080,0.00000229,0.00000504,-0.00000296,-0.00000118,0.00000572
 ,0.00000083,0.00000120,-0.00000283,0.00000051,-0.00000265,-0.00000639,
 0.00000200,0.00000229,0.00000376,-0.00000089,-0.00000050,0.00000388,0.
 00000037,-0.00000090,-0.00000250,-0.00000217,0.00000137,-0.00000099,0.
 00000238,-0.00000032,0.00000236,0.00000053,0.00000190,-0.00000207,-0.0
 0000018,-0.00000118,-0.00000105,0.00000075,-0.00000109,0.00000313,-0.0
 0000015,0.00000266,0.00000052,0.00000018,0.00000206,0.00000080,0.00000
 012,-0.00000181,0.00000146,-0.00000077,0.00000292,-0.00000094,0.000001
 54,-0.00000077,0.00000112,-0.00000011,0.00000171,-0.00000095,-0.000001
 01,-0.00000155,0.00000098,0.00000053,-0.00000138,0.00000118,0.00000062
 ,0.00000310,-0.00000157,0.00000112,0.00000198,-0.00000206,0.00000191,-
 0.00000403,0.00000134,0.00000111,0.00000448,0.00000244,-0.00000281,-0.
 00000226,0.00000152,0.00000204,0.00000069,0.00000038,0.00000333,0.0000
 0083,0.00000215,-0.00000058,-0.00000172,-0.00000174,-0.00000097,0.0000
 0046,0.00000289,0.00000250,0.00000251,0.00000204,0.00000369,0.00000197
 ,-0.00000216,-0.00000084,-0.00000197,-0.00000006,-0.00000321,-0.000001
 42,-0.00000015,0.00000282,0.00000151,-0.00000058,-0.00000225,-0.000000
 41,0.00000140,0.00000421,0.00000080,-0.00000040,-0.00000134,0.00000044
 ,-0.00000044,0.00000494,-0.00000191,0.00000027,0.00000570,0.00000075,0
 .00000050,-0.00000290,0.00000282,0.00000036,-0.00000217,-0.00000135,0.
 00000383,0.00000557,-0.00000828,-0.00300960,-0.00331907,0.00177101,0.0
 0111574,0.00203128,0.00016336,0.00672194,-0.01026374,-0.00848000,0.000
 17800,0.00082728,0.00005611,0.00058817,0.00065314,-0.00032670,0.000084
 34,0.00010113,-0.00004411,-0.00000453,0.00002029,0.00004895,-0.0000024
 4,0.00001825,-0.00000616,0.00088201,-0.00024830,-0.00047915,-0.0001052
 1,-0.00017299,-0.00006182,0.00003563,-0.00003088,-0.00001680,0.0000166
 4,-0.00000698,-0.00001683,0.00001973,-0.00003280,-0.00001144,-0.124054
 48,0.09145261,0.07733923,0.00029742,-0.00235708,-0.00205944,-0.0130626
 0,0.01909110,0.01821677,-0.00000348,-0.00000150,-0.00000474,0.00001640
 ,-0.00000532,0.00000087,0.12979596,0.00002565,-0.00006534,-0.00017388,
 -0.00019887,0.00010397,-0.00009057,-0.00009824,-0.00004246,0.00005707,
 -0.00000767,0.00003047,-0.00010252,-0.00010085,0.00003584,-0.00002921,
 0.00007288,-0.00007284,-0.00001258,-0.00002858,0.00000237,0.00009775,0
 .00001976,0.00006652,-0.00001370,0.00002470,-0.00006286,0.00000239,-0.
 00006325,0.00000509,0.00004541,-0.00005366,-0.00003705,0.00000916,0.00
 000245,-0.00000291,0.00000454,-0.00000164,-0.00000673,0.00000689,0.000
 01586,-0.00000558,0.00001725,0.00000198,-0.00000175,-0.00000160,-0.000
 00084,0.00002660,-0.00002191,0.00006448,0.00006056,0.00010219,-0.00007
 182,0.00001866,-0.00000329,-0.00005243,-0.00007146,-0.00005480,-0.0000
 9302,0.00001015,0.00003244,-0.00002812,0.00000659,-0.00003996,-0.00011
 697,-0.00001692,-0.00000319,0.00004521,-0.00000310,0.00009668,0.000175
 48,-0.00002872,-0.00012997,0.00026335,-0.00004286,0.00013318,-0.000090
 16,-0.00005809,-0.00003393,-0.00008162,0.00008018,0.00008701,0.0000198
 4,-0.00000732,0.00000237,0.00003322,-0.00002046,-0.00001914,0.00001596
 ,0.00004088,0.00000250,0.00001447,0.00002388,0.00001240,0.00001934,-0.
 00000555,0.00001752,-0.00000034,0.00000148,0.00001047,-0.00004286,0.00
 004309,-0.00006318,-0.00000393,0.00000302,0.00000325,0.00000144,-0.000
 00182,-0.00000106,-0.00000480,-0.00000004,0.00000043,0.00000216,0.0000
 0187,-0.00000004,-0.00000780,0.00000366,0.00000440,0.00000342,0.000003
 34,0.00000097,-0.00000538,-0.00000154,0.00000335,0.00000327,-0.0000030
 6,-0.00000326,-0.00000523,-0.00000575,-0.00000317,-0.00000110,0.000002
 78,-0.00000140,0.00000300,-0.00000320,0.00000160,-0.00000123,0.0000067
 4,0.00000295,-0.00000442,-0.00000369,-0.00000356,-0.00000027,0.0000019
 6,0.00000433,-0.00000251,0.00000988,0.00000019,-0.00000168,-0.00000554
 ,-0.00000036,-0.00000244,-0.00000016,-0.00000260,0.00000165,-0.0000001
 3,0.00000096,0.00000127,0.00000148,0.00000139,-0.00000292,0.00000005,-
 0.00000263,-0.00000181,0.00000016,-0.00000277,-0.00000028,-0.00000191,
 0.00000152,-0.00000191,0.00000082,-0.00000316,0.00000202,0.00000136,0.
 00000178,0.00000123,-0.00000197,-0.00000351,-0.00000036,0.00000381,-0.
 00000065,-0.00000090,-0.00000165,0.00000041,-0.00000224,0.00000077,-0.
 00000139,0.00000243,-0.00000934,-0.00000409,-0.00000012,0.00000502,0.0
 0000064,0.00000035,0.00000191,-0.00000223,-0.00000270,-0.00000011,0.00
 000070,-0.00000204,-0.00000187,0.00000029,0.00000055,-0.00000336,-0.00
 000109,-0.00000552,-0.00000032,0.00000383,0.00000083,0.00000335,-0.000
 00421,-0.00000337,-0.00000543,-0.00000173,-0.00000400,-0.00000298,-0.0
 0000420,0.00000324,-0.00000050,0.00000095,-0.00000384,-0.00000063,0.00
 000387,-0.00000344,-0.00000264,-0.00000166,-0.00000353,0.00000071,-0.0
 0000317,-0.00000220,-0.00000588,-0.00000208,0.00000113,0.00000178,0.00
 000325,0.00000829,-0.00000446,0.00000225,-0.00001189,-0.00001029,-0.00
 000345,0.00000651,0.00001140,-0.00001654,-0.00000478,0.00001308,0.0000
 1770,0.00000601,-0.00001223,0.00001957,-0.00401965,-0.00351140,0.00241
 240,-0.00025540,0.00037020,0.00001763,0.01695667,-0.01878237,-0.017394
 11,0.00058996,0.00098986,0.00042550,0.00011661,0.00117346,-0.00024910,
 0.00052003,0.00018906,-0.00028414,0.00002127,0.00007013,0.00002455,-0.
 00007997,-0.00006342,0.00002031,0.00114426,-0.00184718,-0.00127064,-0.
 00052348,-0.00022352,0.00000975,0.00012899,-0.00017159,-0.00007256,0.0
 0006284,-0.00013572,-0.00002576,-0.00002606,0.00005446,0.00002481,0.09
 106418,-0.15544714,-0.09291782,-0.00623726,0.00645939,0.00504807,-0.00
 136913,0.00069345,0.00189043,0.00000040,0.00000239,0.00001320,-0.00000
 946,0.00000927,-0.00000100,-0.09771865,0.17017789,0.00013774,-0.000268
 66,-0.00024226,-0.00022550,0.00000573,-0.00002629,-0.00009509,0.000005
 30,0.00014114,0.00001727,0.00010018,-0.00004241,0.00008146,0.00012374,
 -0.00000900,0.00024900,-0.00011860,-0.00026669,0.00003002,-0.00003869,
 0.00000334,-0.00005470,0.00002372,0.00005092,-0.00007645,0.00010139,0.
 00004502,-0.00017393,-0.00009258,-0.00001776,-0.00001243,-0.00001894,0
 .00001357,-0.00001516,0.00000957,-0.00000701,-0.00000092,-0.00002297,-
 0.00000652,0.00000570,0.00002415,-0.00000406,-0.00000654,0.00000083,0.
 00002597,0.00007398,-0.00006751,0.00003386,0.00001389,0.00005987,0.000
 09054,-0.00004251,0.00014966,0.00004431,-0.00003470,-0.00009116,-0.000
 04930,-0.00004374,0.00001620,0.00001749,-0.00002551,0.00001320,-0.0000
 0558,-0.00006121,-0.00000522,0.00001555,0.00005279,-0.00001177,0.00003
 365,0.00011057,-0.00005064,-0.00006074,0.00015820,-0.00006765,0.000060
 35,-0.00004070,-0.00000441,-0.00002417,-0.00004238,0.00007973,0.000040
 82,0.00000279,-0.00000739,0.00000939,0.00001586,-0.00001510,-0.0000094
 5,0.00000046,0.00001767,0.00000130,0.00000574,0.00000192,0.00000385,0.
 00001164,-0.00000604,0.00001044,0.00000226,0.00000345,-0.00000779,-0.0
 0002831,0.00004299,-0.00002071,-0.00000218,0.00000368,0.00000155,0.000
 00041,-0.00000153,-0.00000244,-0.00000251,-0.00000071,0.00000049,0.000
 00117,0.00000241,0.00000051,-0.00000273,0.00000488,0.00000443,0.000001
 29,0.00000300,0.00000024,-0.00000222,-0.00000108,0.00000141,0.00000068
 ,-0.00000164,-0.00000133,-0.00000206,-0.00001010,-0.00000818,0.0000018
 4,0.00000449,-0.00000100,0.00000063,-0.00000397,-0.00000169,-0.0000067
 2,0.00000874,0.00000759,-0.00000258,-0.00000454,-0.00000249,0.00000025
 ,0.00000115,0.00000148,-0.00000170,0.00000469,0.00000337,0.00000008,0.
 00000072,-0.00000191,-0.00000200,0.00000109,-0.00000138,0.00000004,0.0
 0000006,0.00000041,0.00000056,0.00000169,0.00000001,-0.00000175,-0.000
 00048,-0.00000159,0.00000186,0.00000280,-0.00000222,-0.00000049,-0.000
 00169,0.00000243,-0.00000187,0.00000004,-0.00000161,0.00000067,0.00000
 170,0.00000115,-0.00000054,-0.00000508,0.00000075,-0.00000050,0.000004
 13,-0.00000157,-0.00000197,-0.00000117,-0.00000019,-0.00000082,0.00000
 105,0.00000045,0.00000910,-0.00001708,-0.00000072,-0.00000052,0.000004
 90,-0.00000175,-0.00000193,0.00000229,-0.00000034,-0.00000368,0.000004
 29,0.00000071,-0.00000108,-0.00000017,0.00000089,0.00000046,-0.0000009
 1,-0.00000102,-0.00000162,-0.00000053,0.00000181,-0.00000078,0.0000015
 1,-0.00000158,-0.00000106,-0.00000199,-0.00000046,-0.00000133,-0.00000
 091,-0.00000189,0.00000344,-0.00000113,-0.00000137,-0.00000210,-0.0000
 0376,0.00000170,-0.00000063,-0.00000203,-0.00000115,-0.00000140,-0.000
 00070,-0.00000132,-0.00000097,-0.00000267,-0.00000040,-0.00000043,0.00
 000136,0.00000186,0.00000318,0.00000105,0.00000174,-0.00000381,-0.0000
 0276,-0.00000136,0.00000185,0.00000282,-0.00000535,-0.00000213,0.00000
 372,0.00000510,-0.00000546,-0.00000265,0.00002120,0.00168098,0.0017224
 0,-0.00010531,-0.00040385,-0.00136814,0.00056243,-0.00287153,0.0042093
 0,0.00200996,-0.00040954,-0.00038307,0.00029327,-0.00001465,-0.0004074
 6,0.00002899,0.00000079,0.00000954,-0.00008832,0.00002432,-0.00000830,
 -0.00000725,-0.00003206,-0.00001938,0.00000436,-0.00030192,-0.00017843
 ,0.00022997,-0.00003647,0.00005671,0.00003218,0.00000366,-0.00000237,-
 0.00000675,0.00000369,-0.00002743,0.00001334,-0.00002657,0.00003270,0.
 00001456,0.07766058,-0.09358763,-0.12867411,0.01644801,-0.02012190,-0.
 01420594,-0.00529055,0.00780780,0.00548949,0.00000121,-0.00000225,0.00
 000481,-0.00000637,-0.00000115,-0.00000033,-0.08638526,0.10237811,0.13
 454790\\-0.00000170,-0.00000115,0.00000559,-0.00000252,-0.00000130,0.0
 0000680,0.00000134,0.00000487,-0.00000339,-0.00000036,0.00000229,0.000
 00348,0.00000109,-0.00000276,0.00000526,-0.00000130,-0.00000307,0.0000
 0177,-0.00000437,-0.00000243,0.00000458,0.00000021,-0.00000229,0.00000
 176,0.00000690,0.00000082,-0.00000219,0.00000138,0.00000689,0.00000284
 ,-0.00000125,-0.00000078,0.00000035,0.00000121,-0.00000201,0.00000131,
 0.00000133,0.00000126,-0.00000121,0.00000055,0.00000064,0.00000025,-0.
 00000084,-0.00000044,0.00000188,0.00000050,-0.00000308,0.00000040,0.00
 000823,-0.00000013,-0.00000878,0.00000525,-0.00000201,-0.00000136,0.00
 000045,-0.00000270,-0.00000162,-0.00000144,0.00000327,0.00000046,0.000
 00014,0.00000285,0.00000355,-0.00000009,-0.00000070,-0.00000127,0.0000
 0137,-0.00000172,-0.00000025,-0.00000509,-0.00000115,-0.00000071,0.000
 00092,0.00000028,-0.00000123,-0.00000487,-0.00000530,0.00000075,0.0000
 0086,0.00000191,0.00000075,-0.00000013,0.00000368,-0.00000410,0.000002
 74,-0.00000167,-0.00000400,-0.00000281,-0.00000095,-0.00000302,0.00000
 364,0.00000285,-0.00000243,-0.00000040,-0.00000180,-0.00000521,0.00000
 563,-0.00000145,-0.00000386,0.00000154,0.00000296,0.00000242,0.0000010
 3,0.00000362,0.00000283,-0.00000080,0.00000117,-0.00000124,-0.00000076
 ,0.00000126,-0.00000140,-0.00000018,-0.00000153,-0.00000197,0.00000233
 ,0.00000703,-0.00000261,-0.00000053,-0.00000386,-0.00000173,-0.0000033
 9,0.00000020,0.00000164,-0.00000148,-0.00000103,-0.00000071,0.00000565
 ,-0.00000008,0.00000269,-0.00000225,0.00000094,-0.00000099,-0.00000085
 ,-0.00000022,0.00000185,-0.00000069,-0.00000145,-0.00000064,-0.0000004
 4,0.00000802,0.00000337,0.00000136,0.00000058,-0.00000047,-0.00000193,
 -0.00000589,-0.00000266,-0.00000023,-0.00000034,0.00000012,-0.00000305
 ,0.00000877,0.00000355,0.00000236,-0.00000070,-0.00000491,0.00000070,-
 0.00000287,-0.00000058,0.00000069,0.00000050,-0.00000098,0.00000080,-0
 .00000373,0.00000515,0.00000262,0.00000162,-0.00000079,-0.00000219,0.0
 0000281,-0.00000356,0.00000007,0.00000426,0.00000005,-0.00000566,0.000
 00602,0.00000054,0.00000041,-0.00000198,0.00000008,0.00000290,0.000002
 49,-0.00000204,0.00000149,0.00000036,0.00000061,0.00000129,-0.00000188
 ,0.00000185,0.00000090,0.00000242,0.00000020,0.00000080,0.00000122,-0.
 00000053,-0.00000010,0.00000079,-0.00000021,-0.00000676,0.00000167,0.0
 0000356,-0.00000132,-0.00000106,-0.00000170,0.00000162,-0.00000125,-0.
 00000294,-0.00000071,-0.00000009,-0.00000110,-0.00000252,-0.00000412,-
 0.00000157,-0.00000033,0.00000124,-0.00000014,0.00000111,0.00000136,-0
 .00000219,-0.00000156,0.00000097,-0.00000002,-0.00000564,0.00000211,0.
 00000365,0.00000049,0.00000001,0.00000018,-0.00000014,0.,-0.00000050,0
 .00000207,0.00000004,-0.00000309,0.00000098,0.00000305,-0.00000179,-0.
 00000124,-0.00000270,0.00000048,-0.00000150,-0.00000182,-0.00000147,-0
 .00000233,-0.00000092,0.00000145,0.00000014,0.00000028,0.00000026,0.00
 000012,0.00000136,0.00000050,-0.00000304,-0.00000422,0.00000250,-0.000
 00032,-0.00000569,-0.00000145,-0.00000091,-0.00000061,0.00000118,0.000
 00207,0.,0.00000109,-0.00000500,0.00000365,-0.00000066,0.00000064,-0.0
 0000229,-0.00000030,-0.00000020,-0.00000371,0.00000264,0.00000200,-0.0
 0000055,0.00000078,0.00000003,0.00000053,-0.00000621,0.00000006,-0.000
 00028,0.00000161,0.00000043,-0.00000406,0.00000324,-0.00000095,-0.0000
 0144,0.00000193,-0.00000158,-0.00000122,-0.00000046,0.00000054,-0.0000
 0076,0.00000270,0.00000102,-0.00000081,0.00000172,0.00000047,-0.000000
 86,0.00000003,0.00000230,-0.00000141,-0.00000025,0.00000100,-0.0000005
 8,0.00000022\\\@
 The archive entry for this job was punched.


 IF I AM NOT FOR MYSELF, WHO WILL BE?
 BUT IF I AM ONLY FOR MYSELF, WHAT AM I?
 THOUGH A SEEKER SINCE MY BIRTH,
 HERE IS ALL I'VE LEARNED ON EARTH,
 THIS IS THE GIST OF WHAT I KNOW:
 GIVE ADVICE AND BUY A FOE.

 PRESSED FOR RULES AND VERITIES,
 ALL I RECOLLECT ARE THESE:
 FEED A COLD TO STARVE A FEVER,
 ARGUE WITH NO TRUE-BELIEVER.
 THINK-TOO-LONG IS NEVER-ACT,
 SCRATCH A MYTH AND FIND A FACT.

 STITCH IN TIME SAVES TWENTY STITCHES,
 GIVE THE RICH TO PLEASE THEM, RICHES.
 GIVE TO LOVE YOU HEARTH AND HALL,
 BUT DO NOT GIVE ADVICE AT ALL.

                                  -- HILLEL
 Job cpu time:       1 days 11 hours 16 minutes 36.1 seconds.
 Elapsed time:       0 days  2 hours 14 minutes 43.6 seconds.
 File lengths (MBytes):  RWF=   6947 Int=      0 D2E=      0 Chk=     43 Scr=      1
 Normal termination of Gaussian 16 at Sun Dec  8 00:13:34 2024.
