/mnt/lustre/scratch/nvme/SLURM/9663720/usccqdma.ahC5NhFKmW
OMP_STACKSIZE=0m
GAUSS_PDEF=16
GAUSS_MDEF=65536MB
GAUSS_RDEF=SCF=Direct
 Entering Gaussian System, Link 0=g16.exe
 Initial command:
 /opt/cesga/2020/software/Core/g16/c1/l1.exe "/mnt/lustre/scratch/nvme/SLURM/9663720/usccqdma.ahC5NhFKmW/Gau-419929.inp" -scrdir="/mnt/lustre/scratch/nvme/SLURM/9663720/usccqdma.ahC5NhFKmW/"
 Default is to use a total of  16 processors:
                               16 via shared-memory
                                1 via Linda
 Entering Link 1 = /opt/cesga/2020/software/Core/g16/c1/l1.exe PID=    419955.
  
 Copyright (c) 1988-2019, Gaussian, Inc.  All Rights Reserved.
  
 This is part of the Gaussian(R) 16 program.  It is based on
 the Gaussian(R) 09 system (copyright 2009, Gaussian, Inc.),
 the Gaussian(R) 03 system (copyright 2003, Gaussian, Inc.),
 the Gaussian(R) 98 system (copyright 1998, Gaussian, Inc.),
 the Gaussian(R) 94 system (copyright 1995, Gaussian, Inc.),
 the Gaussian 92(TM) system (copyright 1992, Gaussian, Inc.),
 the Gaussian 90(TM) system (copyright 1990, Gaussian, Inc.),
 the Gaussian 88(TM) system (copyright 1988, Gaussian, Inc.),
 the Gaussian 86(TM) system (copyright 1986, Carnegie Mellon
 University), and the Gaussian 82(TM) system (copyright 1983,
 Carnegie Mellon University). Gaussian is a federally registered
 trademark of Gaussian, Inc.
  
 This software contains proprietary and confidential information,
 including trade secrets, belonging to Gaussian, Inc.
  
 This software is provided under written license and may be
 used, copied, transmitted, or stored only in accord with that
 written license.
  
 The following legend is applicable only to US Government
 contracts under FAR:
  
                    RESTRICTED RIGHTS LEGEND
  
 Use, reproduction and disclosure by the US Government is
 subject to restrictions as set forth in subparagraphs (a)
 and (c) of the Commercial Computer Software - Restricted
 Rights clause in FAR 52.227-19.
  
 Gaussian, Inc.
 340 Quinnipiac St., Bldg. 40, Wallingford CT 06492
  
  
 ---------------------------------------------------------------
 Warning -- This program may not be used in any manner that
 competes with the business of Gaussian, Inc. or will provide
 assistance to any competitor of Gaussian, Inc.  The licensee
 of this program is prohibited from giving any competitor of
 Gaussian, Inc. access to this program.  By using this program,
 the user acknowledges that Gaussian, Inc. is engaged in the
 business of creating and licensing software in the field of
 computational chemistry and represents and warrants to the
 licensee that it is not a competitor of Gaussian, Inc. and that
 it will not use this program in any manner prohibited above.
 ---------------------------------------------------------------
  

 Cite this work as:
 Gaussian 16, Revision C.01,
 M. J. Frisch, G. W. Trucks, H. B. Schlegel, G. E. Scuseria, 
 M. A. Robb, J. R. Cheeseman, G. Scalmani, V. Barone, 
 G. A. Petersson, H. Nakatsuji, X. Li, M. Caricato, A. V. Marenich, 
 J. Bloino, B. G. Janesko, R. Gomperts, B. Mennucci, H. P. Hratchian, 
 J. V. Ortiz, A. F. Izmaylov, J. L. Sonnenberg, D. Williams-Young, 
 F. Ding, F. Lipparini, F. Egidi, J. Goings, B. Peng, A. Petrone, 
 T. Henderson, D. Ranasinghe, V. G. Zakrzewski, J. Gao, N. Rega, 
 G. Zheng, W. Liang, M. Hada, M. Ehara, K. Toyota, R. Fukuda, 
 J. Hasegawa, M. Ishida, T. Nakajima, Y. Honda, O. Kitao, H. Nakai, 
 T. Vreven, K. Throssell, J. A. Montgomery, Jr., J. E. Peralta, 
 F. Ogliaro, M. J. Bearpark, J. J. Heyd, E. N. Brothers, K. N. Kudin, 
 V. N. Staroverov, T. A. Keith, R. Kobayashi, J. Normand, 
 K. Raghavachari, A. P. Rendell, J. C. Burant, S. S. Iyengar, 
 J. Tomasi, M. Cossi, J. M. Millam, M. Klene, C. Adamo, R. Cammi, 
 J. W. Ochterski, R. L. Martin, K. Morokuma, O. Farkas, 
 J. B. Foresman, and D. J. Fox, Gaussian, Inc., Wallingford CT, 2019.
 
 ******************************************
 Gaussian 16:  ES64L-G16RevC.01  3-Jul-2019
                 7-Dec-2024 
 ******************************************
 Default route: SCF=Direct
 ----------------------------------------------------
 # m06/genecp scf=tight int=ultrafine 5d freq=noraman
 ----------------------------------------------------
 1/10=4,30=1,38=1/1,3;
 2/12=2,17=6,18=5,40=1/2;
 3/5=7,8=1,11=2,16=1,17=8,25=1,30=1,71=2,74=-54,75=-5,140=1/1,2,3;
 4//1;
 5/5=2,32=2,38=5,98=1/2;
 8/6=4,10=90,11=11/1;
 11/6=1,8=1,9=11,15=111,16=1/1,2,10;
 10/6=1/2;
 6/7=2,8=2,9=2,10=2,28=1/1;
 7/8=1,10=1,25=1/1,2,3,16;
 1/10=4,30=1/3;
 99//99;
 ------
 OPT-TS
 ------
 Symbolic Z-matrix:
 Charge =  0 Multiplicity = 1
 C                     3.10609   1.50715  -1.15698 
 C                     4.45676   1.8276   -1.17478 
 C                     5.3619    0.91891  -0.6393 
 C                     4.8869   -0.26628  -0.09547 
 C                     3.67408  -2.76385   1.02685 
 C                     3.04068  -3.85211   1.60945 
 C                     1.65298  -3.88774   1.63746 
 C                     0.94671  -2.83965   1.06383 
 H                    -0.14389  -2.80136   1.0513 
 C                     2.91155  -1.73376   0.47987 
 C                     3.51572  -0.52146  -0.11247 
 C                    -3.17692  -2.25781   0.24137 
 C                    -3.6953   -1.16502  -0.73459 
 C                    -2.95564  -3.60527  -0.43745 
 H                    -2.36026  -3.49147  -1.35308 
 H                    -3.9015   -4.10189  -0.69325 
 H                    -2.40243  -4.26179   0.24849 
 C                    -4.00791  -2.44443   1.49524 
 H                    -3.56747  -3.23217   2.12107 
 H                    -5.03502  -2.74735   1.24438 
 H                    -4.04761  -1.5254    2.08958 
 C                    -4.61094  -1.67547  -1.83074 
 H                    -4.92388  -0.83825  -2.46761 
 H                    -5.51554  -2.13584  -1.40651 
 H                    -4.10862  -2.41038  -2.46949 
 C                    -4.35746   0.00419  -0.01413 
 H                    -3.70592   0.39924   0.77582 
 H                    -5.33029  -0.27465   0.41441 
 H                    -4.52105   0.809    -0.7434 
 B                    -1.43413  -0.91645  -0.4408 
 N                     2.64797   0.35854  -0.65017 
 N                     1.55678  -1.78868   0.49327 
 O                    -1.88697  -1.75053   0.60063 
 O                    -2.48577  -0.67943  -1.32158 
 Ir                    0.47194  -0.25439  -0.59974 
 B                    -0.28693   1.4621    0.04803 
 O                     0.4339    2.66199   0.01275 
 O                    -1.5323    1.66976   0.63005 
 C                    -0.29017   3.62319   0.79282 
 C                    -1.7453    3.08488   0.69892 
 C                     0.26611   3.57714   2.21029 
 C                    -0.08155   5.00262   0.20044 
 C                    -2.62478   3.39809   1.89224 
 C                    -2.44671   3.4958   -0.58988 
 H                     0.10031   2.59293   2.66695 
 H                    -0.1847    4.34464   2.85407 
 H                     1.34847   3.75401   2.17034 
 H                     0.96768   5.30396   0.3181 
 H                    -0.70601   5.74761   0.71453 
 H                    -0.32118   5.023    -0.8683 
 H                    -3.62773   2.98075   1.73173 
 H                    -2.72869   4.48434   2.0292 
 H                    -2.22365   2.96378   2.81454 
 H                    -1.81657   3.29274  -1.46576 
 H                    -2.72261   4.55928  -0.58969 
 H                    -3.36158   2.89927  -0.69497 
 H                     2.34322   2.18396  -1.53682 
 H                    -0.16367   0.7487   -1.70047 
 H                     4.78625   2.77218  -1.60006 
 H                     6.42888   1.13255  -0.63535 
 H                     5.58257  -0.97575   0.34532 
 H                     4.75954  -2.72184   0.99656 
 H                     3.62882  -4.66142   2.03771 
 H                     1.11489  -4.71656   2.09007 
 

 GradGradGradGradGradGradGradGradGradGradGradGradGradGradGradGradGradGrad
 Berny optimization.
 Initialization pass.
 Trust Radius=3.00D-01 FncErr=1.00D-07 GrdErr=1.00D-07 EigMax=2.50D+02 EigMin=1.00D-04
 Number of steps in this run=      2 maximum allowed number of steps=      2.
 GradGradGradGradGradGradGradGradGradGradGradGradGradGradGradGradGradGrad

 Stoichiometry    C22H33B2IrN2O4
 Framework group  C1[X(C22H33B2IrN2O4)]
 Deg. of freedom   186
 Full point group                 C1      NOp   1
 Largest Abelian subgroup         C1      NOp   1
 Largest concise Abelian subgroup C1      NOp   1
                         Standard orientation:                         
 ---------------------------------------------------------------------
 Center     Atomic      Atomic             Coordinates (Angstroms)
 Number     Number       Type             X           Y           Z
 ---------------------------------------------------------------------
      1          6           0        3.106093    1.507146   -1.156980
      2          6           0        4.456764    1.827593   -1.174780
      3          6           0        5.361902    0.918902   -0.639300
      4          6           0        4.886900   -0.266288   -0.095470
      5          6           0        3.674076   -2.763855    1.026850
      6          6           0        3.040674   -3.852114    1.609450
      7          6           0        1.652974   -3.887742    1.637460
      8          6           0        0.946706   -2.839651    1.063830
      9          1           0       -0.143894   -2.801359    1.051300
     10          6           0        2.911548   -1.733764    0.479870
     11          6           0        3.515720   -0.521465   -0.112470
     12          6           0       -3.176923   -2.257803    0.241370
     13          6           0       -3.695301   -1.165012   -0.734590
     14          6           0       -2.955646   -3.605264   -0.437450
     15          1           0       -2.360265   -3.491465   -1.353080
     16          1           0       -3.901506   -4.101882   -0.693250
     17          1           0       -2.402437   -4.261785    0.248490
     18          6           0       -4.007914   -2.444422    1.495240
     19          1           0       -3.567475   -3.232163    2.121070
     20          1           0       -5.035024   -2.747340    1.244380
     21          1           0       -4.047612   -1.525392    2.089580
     22          6           0       -4.610942   -1.675461   -1.830740
     23          1           0       -4.923881   -0.838240   -2.467610
     24          1           0       -5.515543   -2.135829   -1.406510
     25          1           0       -4.108623   -2.410372   -2.469490
     26          6           0       -4.357459    0.004199   -0.014130
     27          1           0       -3.705919    0.399248    0.775820
     28          1           0       -5.330290   -0.274640    0.414410
     29          1           0       -4.521048    0.809009   -0.743400
     30          5           0       -1.434131   -0.916446   -0.440800
     31          7           0        2.647971    0.358536   -0.650170
     32          7           0        1.556778   -1.788682    0.493270
     33          8           0       -1.886972   -1.750526    0.600630
     34          8           0       -2.485770   -0.679425   -1.321580
     35         77           0        0.471940   -0.254390   -0.599740
     36          5           0       -0.286927    1.462102    0.048030
     37          8           0        0.433905    2.661990    0.012750
     38          8           0       -1.532296    1.669764    0.630050
     39          6           0       -0.290163    3.623192    0.792820
     40          6           0       -1.745294    3.084884    0.698920
     41          6           0        0.266117    3.577141    2.210290
     42          6           0       -0.081540    5.002621    0.200440
     43          6           0       -2.624773    3.398096    1.892240
     44          6           0       -2.446703    3.495805   -0.589880
     45          1           0        0.100315    2.592931    2.666950
     46          1           0       -0.184692    4.344641    2.854070
     47          1           0        1.348477    3.754009    2.170340
     48          1           0        0.967690    5.303959    0.318100
     49          1           0       -0.705999    5.747612    0.714530
     50          1           0       -0.321170    5.023002   -0.868300
     51          1           0       -3.627724    2.980757    1.731730
     52          1           0       -2.728681    4.484346    2.029200
     53          1           0       -2.223644    2.963785    2.814540
     54          1           0       -1.816563    3.292744   -1.465760
     55          1           0       -2.722601    4.559286   -0.589690
     56          1           0       -3.361574    2.899277   -0.694970
     57          1           0        2.343225    2.183957   -1.536820
     58          1           0       -0.163668    0.748701   -1.700470
     59          1           0        4.786256    2.772173   -1.600060
     60          1           0        6.428883    1.132540   -0.635350
     61          1           0        5.582569   -0.975759    0.345320
     62          1           0        4.759536   -2.721847    0.996560
     63          1           0        3.628813   -4.661425    2.037710
     64          1           0        1.114882   -4.716561    2.090070
 ---------------------------------------------------------------------
 Rotational constants (GHZ):           0.1572914           0.1220295           0.0803521
 General basis read from cards:  (5D, 7F)
 ======================================================================================================
                                       Pseudopotential Parameters
 ======================================================================================================
  Center     Atomic      Valence      Angular      Power
  Number     Number     Electrons     Momentum     of R      Exponent        Coefficient   SO-Coeffient
 ======================================================================================================
    1          6
                                   No pseudopotential on this center.
    2          6
                                   No pseudopotential on this center.
    3          6
                                   No pseudopotential on this center.
    4          6
                                   No pseudopotential on this center.
    5          6
                                   No pseudopotential on this center.
    6          6
                                   No pseudopotential on this center.
    7          6
                                   No pseudopotential on this center.
    8          6
                                   No pseudopotential on this center.
    9          1
                                   No pseudopotential on this center.
   10          6
                                   No pseudopotential on this center.
   11          6
                                   No pseudopotential on this center.
   12          6
                                   No pseudopotential on this center.
   13          6
                                   No pseudopotential on this center.
   14          6
                                   No pseudopotential on this center.
   15          1
                                   No pseudopotential on this center.
   16          1
                                   No pseudopotential on this center.
   17          1
                                   No pseudopotential on this center.
   18          6
                                   No pseudopotential on this center.
   19          1
                                   No pseudopotential on this center.
   20          1
                                   No pseudopotential on this center.
   21          1
                                   No pseudopotential on this center.
   22          6
                                   No pseudopotential on this center.
   23          1
                                   No pseudopotential on this center.
   24          1
                                   No pseudopotential on this center.
   25          1
                                   No pseudopotential on this center.
   26          6
                                   No pseudopotential on this center.
   27          1
                                   No pseudopotential on this center.
   28          1
                                   No pseudopotential on this center.
   29          1
                                   No pseudopotential on this center.
   30          5
                                   No pseudopotential on this center.
   31          7
                                   No pseudopotential on this center.
   32          7
                                   No pseudopotential on this center.
   33          8
                                   No pseudopotential on this center.
   34          8
                                   No pseudopotential on this center.
   35         77           17
                                      G and up 
                                                     1      823.5880147       -0.15780140    0.00000000
                                                     2      364.6613336    -1517.52704460    0.00000000
                                                     2       55.7082801     -316.53065290    0.00000000
                                                     2       12.0464544      -91.88809410    0.00000000
                                                     2        3.5120610       -9.22417730    0.00000000
                                      S - G
                                                     0      188.0490770        3.15780140    0.00000000
                                                     1      340.4194712       26.83225770    0.00000000
                                                     2      128.2373673      800.42500070    0.00000000
                                                     2       33.8644961      369.40506830    0.00000000
                                                     2        4.7560005      242.41718990    0.00000000
                                                     2        3.9649974     -118.21732820    0.00000000
                                      P - G
                                                     0      289.7291139        2.15780140    0.00000000
                                                     1       87.4633789       61.96786100    0.00000000
                                                     2       30.4363766      269.05819860    0.00000000
                                                     2        4.0553412      231.16547930    0.00000000
                                                     2        3.5525341     -133.69526670    0.00000000
                                      D - G
                                                     0      136.4017106        3.15780140    0.00000000
                                                     1       95.0776925       45.93498030    0.00000000
                                                     2       49.2258410      359.03446680    0.00000000
                                                     2       15.0874145      176.47401190    0.00000000
                                                     2        4.0405764       54.51552860    0.00000000
                                      F - G
                                                     0      127.3507908        3.95461970    0.00000000
                                                     1       66.2364374       52.97736550    0.00000000
                                                     2       34.4299229      274.86433830    0.00000000
                                                     2       10.1995721      137.20473380    0.00000000
                                                     2        2.5409702       14.86333050    0.00000000
   36          5
                                   No pseudopotential on this center.
   37          8
                                   No pseudopotential on this center.
   38          8
                                   No pseudopotential on this center.
   39          6
                                   No pseudopotential on this center.
   40          6
                                   No pseudopotential on this center.
   41          6
                                   No pseudopotential on this center.
   42          6
                                   No pseudopotential on this center.
   43          6
                                   No pseudopotential on this center.
   44          6
                                   No pseudopotential on this center.
   45          1
                                   No pseudopotential on this center.
   46          1
                                   No pseudopotential on this center.
   47          1
                                   No pseudopotential on this center.
   48          1
                                   No pseudopotential on this center.
   49          1
                                   No pseudopotential on this center.
   50          1
                                   No pseudopotential on this center.
   51          1
                                   No pseudopotential on this center.
   52          1
                                   No pseudopotential on this center.
   53          1
                                   No pseudopotential on this center.
   54          1
                                   No pseudopotential on this center.
   55          1
                                   No pseudopotential on this center.
   56          1
                                   No pseudopotential on this center.
   57          1
                                   No pseudopotential on this center.
   58          1
                                   No pseudopotential on this center.
   59          1
                                   No pseudopotential on this center.
   60          1
                                   No pseudopotential on this center.
   61          1
                                   No pseudopotential on this center.
   62          1
                                   No pseudopotential on this center.
   63          1
                                   No pseudopotential on this center.
   64          1
                                   No pseudopotential on this center.
 ======================================================================================================
 There are   540 symmetry adapted cartesian basis functions of A   symmetry.
 There are   508 symmetry adapted basis functions of A   symmetry.
   508 basis functions,  1015 primitive gaussians,   540 cartesian basis functions
   119 alpha electrons      119 beta electrons
       nuclear repulsion energy      3545.0409467385 Hartrees.
 NAtoms=   64 NActive=   64 NUniq=   64 SFac= 1.00D+00 NAtFMM=   60 NAOKFM=T Big=T
 Integral buffers will be    131072 words long.
 Raffenetti 2 integral format.
 Two-electron integral symmetry is turned on.
 One-electron integrals computed using PRISM.
   1 Symmetry operations used in ECPInt.
 ECPInt:  NShTT=   18915 NPrTT=  115131 LenC2=   15507 LenP2D=   52053.
 LDataN:  DoStor=T MaxTD1= 6 Len=  172
 NBasis=   508 RedAO= T EigKep=  5.65D-04  NBF=   508
 NBsUse=   508 1.00D-06 EigRej= -1.00D+00 NBFU=   508
 Defaulting to unpruned grid for atomic number  77.
 ExpMin= 2.90D-02 ExpMax= 5.48D+03 ExpMxC= 8.25D+02 IAcc=3 IRadAn=         5 AccDes= 0.00D+00
 Harris functional with IExCor= 1009 and IRadAn=       5 diagonalized for initial guess.
 HarFok:  IExCor= 1009 AccDes= 0.00D+00 IRadAn=         5 IDoV= 1 UseB2=F ITyADJ=14
 ICtDFT=  3500011 ScaDFX=  1.000000  1.000000  1.000000  1.000000
 Defaulting to unpruned grid for atomic number  77.
 FoFCou: FMM=F IPFlag=           0 FMFlag=      100000 FMFlg1=        2001
         NFxFlg=           0 DoJE=T BraDBF=F KetDBF=T FulRan=T
         wScrn=  0.000000 ICntrl=       500 IOpCl=  0 I1Cent=   200000004 NGrid=           0
         NMat0=    1 NMatS0=      1 NMatT0=    0 NMatD0=    1 NMtDS0=    0 NMtDT0=    0
 Petite list used in FoFCou.
 Requested convergence on RMS density matrix=1.00D-08 within 128 cycles.
 Requested convergence on MAX density matrix=1.00D-06.
 Requested convergence on             energy=1.00D-06.
 No special actions if energy rises.
 Defaulting to unpruned grid for atomic number  77.
 Defaulting to unpruned grid for atomic number  77.
 Defaulting to unpruned grid for atomic number  77.
 Defaulting to unpruned grid for atomic number  77.
 Defaulting to unpruned grid for atomic number  77.
 Defaulting to unpruned grid for atomic number  77.
 Defaulting to unpruned grid for atomic number  77.
 Defaulting to unpruned grid for atomic number  77.
 Defaulting to unpruned grid for atomic number  77.
 Defaulting to unpruned grid for atomic number  77.
 Defaulting to unpruned grid for atomic number  77.
 Defaulting to unpruned grid for atomic number  77.
 Defaulting to unpruned grid for atomic number  77.
 Defaulting to unpruned grid for atomic number  77.
 Defaulting to unpruned grid for atomic number  77.
 Defaulting to unpruned grid for atomic number  77.
 SCF Done:  E(RM06) =  -1422.32995803     A.U. after   16 cycles
            NFock= 16  Conv=0.44D-08     -V/T= 2.0596
 DoSCS=F DFT=T ScalE2(SS,OS)=  1.000000  1.000000
 Range of M.O.s used for correlation:     1   508
 NBasis=   508 NAE=   119 NBE=   119 NFC=     0 NFV=     0
 NROrb=    508 NOA=   119 NOB=   119 NVA=   389 NVB=   389
   1 Symmetry operations used in ECPInt.
 ECPInt:  NShTT=   18915 NPrTT=  115131 LenC2=   15507 LenP2D=   52053.
 LDataN:  DoStor=T MaxTD1= 7 Len=  274
 Symmetrizing basis deriv contribution to polar:
 IMax=3 JMax=2 DiffMx= 0.00D+00
 G2DrvN: will do    65 centers at a time, making    1 passes.
 Calling FoFCou, ICntrl=  3107 FMM=T I1Cent=   0 AccDes= 0.00D+00.
 Defaulting to unpruned grid for atomic number  77.
 Defaulting to unpruned grid for atomic number  77.
 Defaulting to unpruned grid for atomic number  77.
 Defaulting to unpruned grid for atomic number  77.
 Defaulting to unpruned grid for atomic number  77.
 Defaulting to unpruned grid for atomic number  77.
 Defaulting to unpruned grid for atomic number  77.
 Defaulting to unpruned grid for atomic number  77.
 Defaulting to unpruned grid for atomic number  77.
 Defaulting to unpruned grid for atomic number  77.
 Defaulting to unpruned grid for atomic number  77.
 Defaulting to unpruned grid for atomic number  77.
 Defaulting to unpruned grid for atomic number  77.
 Defaulting to unpruned grid for atomic number  77.
 Defaulting to unpruned grid for atomic number  77.
 Defaulting to unpruned grid for atomic number  77.
 End of G2Drv F.D. properties file   721 does not exist.
 End of G2Drv F.D. properties file   722 does not exist.
 End of G2Drv F.D. properties file   788 does not exist.
          IDoAtm=11111111111111111111111111111111111111111111111111
          IDoAtm=11111111111111
          Differentiating once with respect to electric field.
                with respect to dipole field.
          Differentiating once with respect to nuclear coordinates.
 Defaulting to unpruned grid for atomic number  77.
 CalDSu exits because no D1Ps are significant.
 Defaulting to unpruned grid for atomic number  77.
 Defaulting to unpruned grid for atomic number  77.
 Defaulting to unpruned grid for atomic number  77.
 Defaulting to unpruned grid for atomic number  77.
 Defaulting to unpruned grid for atomic number  77.
 Defaulting to unpruned grid for atomic number  77.
 Defaulting to unpruned grid for atomic number  77.
 Defaulting to unpruned grid for atomic number  77.
 Defaulting to unpruned grid for atomic number  77.
 Defaulting to unpruned grid for atomic number  77.
 Defaulting to unpruned grid for atomic number  77.
 Defaulting to unpruned grid for atomic number  77.
 Defaulting to unpruned grid for atomic number  77.
 Defaulting to unpruned grid for atomic number  77.
 Defaulting to unpruned grid for atomic number  77.
 Defaulting to unpruned grid for atomic number  77.
          There are   195 degrees of freedom in the 1st order CPHF.  IDoFFX=6 NUNeed=     3.
    192 vectors produced by pass  0 Test12= 4.63D-14 1.00D-09 XBig12= 4.53D+02 9.34D+00.
 AX will form    72 AO Fock derivatives at one time.
    192 vectors produced by pass  1 Test12= 4.63D-14 1.00D-09 XBig12= 5.47D+01 1.31D+00.
    192 vectors produced by pass  2 Test12= 4.63D-14 1.00D-09 XBig12= 7.84D-01 1.20D-01.
    192 vectors produced by pass  3 Test12= 4.63D-14 1.00D-09 XBig12= 4.66D-03 7.47D-03.
    192 vectors produced by pass  4 Test12= 4.63D-14 1.00D-09 XBig12= 1.58D-05 3.55D-04.
    177 vectors produced by pass  5 Test12= 4.63D-14 1.00D-09 XBig12= 3.79D-08 2.05D-05.
     59 vectors produced by pass  6 Test12= 4.63D-14 1.00D-09 XBig12= 5.94D-11 5.74D-07.
      3 vectors produced by pass  7 Test12= 4.63D-14 1.00D-09 XBig12= 8.59D-14 2.50D-08.
      1 vectors produced by pass  8 Test12= 4.63D-14 1.00D-09 XBig12= 1.27D-16 1.03D-09.
 InvSVY:  IOpt=1 It=  1 EMax= 1.78D-14
 Solved reduced A of dimension  1200 with   195 vectors.
 Isotropic polarizability for W=    0.000000      333.95 Bohr**3.
 End of Minotr F.D. properties file   721 does not exist.
 End of Minotr F.D. properties file   722 does not exist.
 End of Minotr F.D. properties file   788 does not exist.

 **********************************************************************

            Population analysis using the SCF Density.

 **********************************************************************

 Orbital symmetries:
       Occupied  (A) (A) (A) (A) (A) (A) (A) (A) (A) (A) (A) (A)
                 (A) (A) (A) (A) (A) (A) (A) (A) (A) (A) (A) (A)
                 (A) (A) (A) (A) (A) (A) (A) (A) (A) (A) (A) (A)
                 (A) (A) (A) (A) (A) (A) (A) (A) (A) (A) (A) (A)
                 (A) (A) (A) (A) (A) (A) (A) (A) (A) (A) (A) (A)
                 (A) (A) (A) (A) (A) (A) (A) (A) (A) (A) (A) (A)
                 (A) (A) (A) (A) (A) (A) (A) (A) (A) (A) (A) (A)
                 (A) (A) (A) (A) (A) (A) (A) (A) (A) (A) (A) (A)
                 (A) (A) (A) (A) (A) (A) (A) (A) (A) (A) (A) (A)
                 (A) (A) (A) (A) (A) (A) (A) (A) (A) (A) (A)
       Virtual   (A) (A) (A) (A) (A) (A) (A) (A) (A) (A) (A) (A)
                 (A) (A) (A) (A) (A) (A) (A) (A) (A) (A) (A) (A)
                 (A) (A) (A) (A) (A) (A) (A) (A) (A) (A) (A) (A)
                 (A) (A) (A) (A) (A) (A) (A) (A) (A) (A) (A) (A)
                 (A) (A) (A) (A) (A) (A) (A) (A) (A) (A) (A) (A)
                 (A) (A) (A) (A) (A) (A) (A) (A) (A) (A) (A) (A)
                 (A) (A) (A) (A) (A) (A) (A) (A) (A) (A) (A) (A)
                 (A) (A) (A) (A) (A) (A) (A) (A) (A) (A) (A) (A)
                 (A) (A) (A) (A) (A) (A) (A) (A) (A) (A) (A) (A)
                 (A) (A) (A) (A) (A) (A) (A) (A) (A) (A) (A) (A)
                 (A) (A) (A) (A) (A) (A) (A) (A) (A) (A) (A) (A)
                 (A) (A) (A) (A) (A) (A) (A) (A) (A) (A) (A) (A)
                 (A) (A) (A) (A) (A) (A) (A) (A) (A) (A) (A) (A)
                 (A) (A) (A) (A) (A) (A) (A) (A) (A) (A) (A) (A)
                 (A) (A) (A) (A) (A) (A) (A) (A) (A) (A) (A) (A)
                 (A) (A) (A) (A) (A) (A) (A) (A) (A) (A) (A) (A)
                 (A) (A) (A) (A) (A) (A) (A) (A) (A) (A) (A) (A)
                 (A) (A) (A) (A) (A) (A) (A) (A) (A) (A) (A) (A)
                 (A) (A) (A) (A) (A) (A) (A) (A) (A) (A) (A) (A)
                 (A) (A) (A) (A) (A) (A) (A) (A) (A) (A) (A) (A)
                 (A) (A) (A) (A) (A) (A) (A) (A) (A) (A) (A) (A)
                 (A) (A) (A) (A) (A) (A) (A) (A) (A) (A) (A) (A)
                 (A) (A) (A) (A) (A) (A) (A) (A) (A) (A) (A) (A)
                 (A) (A) (A) (A) (A) (A) (A) (A) (A) (A) (A) (A)
                 (A) (A) (A) (A) (A) (A) (A) (A) (A) (A) (A) (A)
                 (A) (A) (A) (A) (A) (A) (A) (A) (A) (A) (A) (A)
                 (A) (A) (A) (A) (A) (A) (A) (A) (A) (A) (A) (A)
                 (A) (A) (A) (A) (A) (A) (A) (A) (A) (A) (A) (A)
                 (A) (A) (A) (A) (A) (A) (A) (A) (A) (A) (A) (A)
                 (A) (A) (A) (A) (A) (A) (A) (A) (A) (A) (A) (A)
                 (A) (A) (A) (A) (A) (A) (A) (A) (A) (A) (A) (A)
                 (A) (A) (A) (A) (A) (A) (A) (A) (A) (A) (A) (A)
                 (A) (A) (A) (A) (A)
 The electronic state is 1-A.
 Alpha  occ. eigenvalues --  -19.19403 -19.19112 -19.18653 -19.17846 -14.45477
 Alpha  occ. eigenvalues --  -14.44225 -10.32484 -10.31955 -10.30185 -10.30076
 Alpha  occ. eigenvalues --  -10.29339 -10.28867 -10.28702 -10.28617 -10.28510
 Alpha  occ. eigenvalues --  -10.28369 -10.28002 -10.27890 -10.27675 -10.27549
 Alpha  occ. eigenvalues --  -10.22387 -10.22089 -10.21886 -10.21777 -10.21770
 Alpha  occ. eigenvalues --  -10.21428 -10.21350 -10.20474  -6.79787  -6.76777
 Alpha  occ. eigenvalues --   -3.59347  -2.02758  -2.00938  -2.00410  -1.05340
 Alpha  occ. eigenvalues --   -1.04242  -1.00025  -0.98389  -0.97451  -0.97253
 Alpha  occ. eigenvalues --   -0.84558  -0.83603  -0.82883  -0.79689  -0.78950
 Alpha  occ. eigenvalues --   -0.77483  -0.74207  -0.73447  -0.69754  -0.69180
 Alpha  occ. eigenvalues --   -0.69029  -0.68027  -0.67059  -0.66331  -0.64622
 Alpha  occ. eigenvalues --   -0.63606  -0.60933  -0.60086  -0.57620  -0.53879
 Alpha  occ. eigenvalues --   -0.53453  -0.53356  -0.52874  -0.52733  -0.51642
 Alpha  occ. eigenvalues --   -0.50924  -0.49837  -0.47212  -0.46816  -0.46232
 Alpha  occ. eigenvalues --   -0.46186  -0.45841  -0.45619  -0.45116  -0.44799
 Alpha  occ. eigenvalues --   -0.44083  -0.43757  -0.43103  -0.42841  -0.42483
 Alpha  occ. eigenvalues --   -0.42048  -0.40618  -0.40090  -0.39481  -0.39371
 Alpha  occ. eigenvalues --   -0.39079  -0.38839  -0.38596  -0.38466  -0.38135
 Alpha  occ. eigenvalues --   -0.37695  -0.37016  -0.36897  -0.36139  -0.36055
 Alpha  occ. eigenvalues --   -0.35339  -0.35166  -0.34799  -0.34658  -0.34269
 Alpha  occ. eigenvalues --   -0.33541  -0.33444  -0.32530  -0.32202  -0.31755
 Alpha  occ. eigenvalues --   -0.31166  -0.30327  -0.29838  -0.29568  -0.29344
 Alpha  occ. eigenvalues --   -0.28554  -0.26893  -0.26293  -0.25358  -0.24463
 Alpha  occ. eigenvalues --   -0.23252  -0.20245  -0.18710  -0.18447
 Alpha virt. eigenvalues --   -0.07641  -0.04174  -0.03005   0.00201   0.01628
 Alpha virt. eigenvalues --    0.02868   0.04341   0.06481   0.07564   0.08453
 Alpha virt. eigenvalues --    0.09314   0.10474   0.10967   0.11680   0.12068
 Alpha virt. eigenvalues --    0.12814   0.13493   0.14099   0.14405   0.15112
 Alpha virt. eigenvalues --    0.15217   0.15340   0.15583   0.15821   0.16389
 Alpha virt. eigenvalues --    0.16440   0.16795   0.17039   0.17353   0.17541
 Alpha virt. eigenvalues --    0.17952   0.18332   0.18680   0.19000   0.19214
 Alpha virt. eigenvalues --    0.19657   0.19851   0.19990   0.20346   0.20585
 Alpha virt. eigenvalues --    0.21084   0.21149   0.21413   0.21664   0.22199
 Alpha virt. eigenvalues --    0.22941   0.23573   0.24377   0.24714   0.24839
 Alpha virt. eigenvalues --    0.25489   0.25793   0.25878   0.26985   0.27317
 Alpha virt. eigenvalues --    0.27448   0.27897   0.28180   0.28511   0.28805
 Alpha virt. eigenvalues --    0.29270   0.29753   0.30276   0.30805   0.32110
 Alpha virt. eigenvalues --    0.32725   0.33315   0.34784   0.35753   0.36507
 Alpha virt. eigenvalues --    0.36930   0.37681   0.38391   0.40116   0.40808
 Alpha virt. eigenvalues --    0.42747   0.44837   0.46553   0.47649   0.48300
 Alpha virt. eigenvalues --    0.49696   0.50142   0.51047   0.51458   0.51810
 Alpha virt. eigenvalues --    0.52562   0.52728   0.53297   0.53498   0.54167
 Alpha virt. eigenvalues --    0.55310   0.55463   0.56592   0.57233   0.57476
 Alpha virt. eigenvalues --    0.57808   0.58224   0.58534   0.58732   0.58823
 Alpha virt. eigenvalues --    0.59070   0.59346   0.59543   0.59707   0.60630
 Alpha virt. eigenvalues --    0.60818   0.61191   0.61265   0.61618   0.61670
 Alpha virt. eigenvalues --    0.62722   0.62954   0.63959   0.64293   0.64693
 Alpha virt. eigenvalues --    0.65082   0.65833   0.66727   0.67278   0.68084
 Alpha virt. eigenvalues --    0.68600   0.69327   0.70454   0.70774   0.71118
 Alpha virt. eigenvalues --    0.71678   0.72314   0.72930   0.73178   0.73890
 Alpha virt. eigenvalues --    0.74218   0.74825   0.75609   0.75973   0.76905
 Alpha virt. eigenvalues --    0.77003   0.78182   0.78416   0.78693   0.79287
 Alpha virt. eigenvalues --    0.80557   0.81137   0.81567   0.81782   0.81968
 Alpha virt. eigenvalues --    0.82943   0.83926   0.84677   0.84915   0.85386
 Alpha virt. eigenvalues --    0.85731   0.86013   0.86400   0.86496   0.87146
 Alpha virt. eigenvalues --    0.87685   0.88160   0.88525   0.89018   0.89290
 Alpha virt. eigenvalues --    0.89610   0.89916   0.90463   0.90947   0.91356
 Alpha virt. eigenvalues --    0.91412   0.91864   0.92359   0.92713   0.93262
 Alpha virt. eigenvalues --    0.93740   0.94319   0.95007   0.95575   0.96033
 Alpha virt. eigenvalues --    0.96107   0.96502   0.96803   0.97570   0.97834
 Alpha virt. eigenvalues --    0.98451   0.98819   0.99385   0.99689   1.00271
 Alpha virt. eigenvalues --    1.00723   1.01771   1.02800   1.03760   1.04628
 Alpha virt. eigenvalues --    1.05927   1.06733   1.07857   1.08060   1.09551
 Alpha virt. eigenvalues --    1.09934   1.11732   1.12649   1.14514   1.14845
 Alpha virt. eigenvalues --    1.16348   1.17347   1.18812   1.19532   1.19855
 Alpha virt. eigenvalues --    1.21175   1.21586   1.22284   1.23723   1.24217
 Alpha virt. eigenvalues --    1.24636   1.25227   1.26800   1.27683   1.28248
 Alpha virt. eigenvalues --    1.30566   1.32110   1.33182   1.33631   1.35880
 Alpha virt. eigenvalues --    1.36559   1.37488   1.38485   1.39448   1.40108
 Alpha virt. eigenvalues --    1.40818   1.43170   1.43606   1.44719   1.45041
 Alpha virt. eigenvalues --    1.45185   1.45789   1.46035   1.46527   1.47657
 Alpha virt. eigenvalues --    1.48346   1.49034   1.50631   1.51679   1.53552
 Alpha virt. eigenvalues --    1.54454   1.56402   1.58024   1.59508   1.60001
 Alpha virt. eigenvalues --    1.60553   1.62909   1.64627   1.65087   1.66573
 Alpha virt. eigenvalues --    1.68157   1.68339   1.69434   1.70002   1.70874
 Alpha virt. eigenvalues --    1.72189   1.73137   1.75034   1.76032   1.77094
 Alpha virt. eigenvalues --    1.77757   1.78761   1.79060   1.79907   1.80232
 Alpha virt. eigenvalues --    1.80930   1.82084   1.82611   1.83376   1.85181
 Alpha virt. eigenvalues --    1.85903   1.86127   1.86543   1.87127   1.88645
 Alpha virt. eigenvalues --    1.88733   1.90427   1.91433   1.92455   1.92870
 Alpha virt. eigenvalues --    1.93328   1.93598   1.93816   1.94734   1.94840
 Alpha virt. eigenvalues --    1.95614   1.96371   1.98289   1.98972   1.99807
 Alpha virt. eigenvalues --    2.00839   2.02646   2.02913   2.03379   2.04083
 Alpha virt. eigenvalues --    2.06709   2.07291   2.07558   2.07784   2.08639
 Alpha virt. eigenvalues --    2.08676   2.10263   2.10764   2.11734   2.12222
 Alpha virt. eigenvalues --    2.12423   2.13340   2.14349   2.14417   2.15202
 Alpha virt. eigenvalues --    2.15993   2.16608   2.16952   2.17169   2.18380
 Alpha virt. eigenvalues --    2.19507   2.19598   2.20334   2.21112   2.21561
 Alpha virt. eigenvalues --    2.22572   2.23267   2.24248   2.25178   2.26248
 Alpha virt. eigenvalues --    2.26270   2.26472   2.27350   2.28007   2.28157
 Alpha virt. eigenvalues --    2.29985   2.30985   2.31658   2.32331   2.33501
 Alpha virt. eigenvalues --    2.33772   2.35330   2.35500   2.38628   2.39496
 Alpha virt. eigenvalues --    2.39851   2.44218   2.45394   2.45783   2.46734
 Alpha virt. eigenvalues --    2.48583   2.49212   2.49798   2.50430   2.51969
 Alpha virt. eigenvalues --    2.55379   2.58824   2.58963   2.59368   2.61204
 Alpha virt. eigenvalues --    2.61255   2.62392   2.65137   2.65593   2.66187
 Alpha virt. eigenvalues --    2.67046   2.68270   2.70791   2.75047   2.77863
 Alpha virt. eigenvalues --    2.78862   2.79038   2.80031   2.80188   2.81283
 Alpha virt. eigenvalues --    2.81702   2.82678   2.84555   2.85769   2.87327
 Alpha virt. eigenvalues --    2.87771   2.89330   2.92486   2.95918   2.96837
 Alpha virt. eigenvalues --    2.98327   3.04207   3.04893   3.10949   3.11934
 Alpha virt. eigenvalues --    3.23985   3.28686   3.43427   8.36849
          Condensed to atoms (all electrons):
 Mulliken charges:
               1
     1  C    0.066160
     2  C   -0.178837
     3  C   -0.136794
     4  C   -0.187017
     5  C   -0.189123
     6  C   -0.130829
     7  C   -0.177584
     8  C    0.057997
     9  H    0.239258
    10  C    0.319465
    11  C    0.296989
    12  C    0.309592
    13  C    0.296814
    14  C   -0.511214
    15  H    0.177788
    16  H    0.150488
    17  H    0.148222
    18  C   -0.508891
    19  H    0.155656
    20  H    0.146584
    21  H    0.176585
    22  C   -0.509210
    23  H    0.169051
    24  H    0.141912
    25  H    0.166454
    26  C   -0.504029
    27  H    0.185906
    28  H    0.137226
    29  H    0.158161
    30  B    0.390612
    31  N   -0.507222
    32  N   -0.596696
    33  O   -0.531141
    34  O   -0.505982
    35  Ir  -0.036526
    36  B    0.456315
    37  O   -0.536576
    38  O   -0.510080
    39  C    0.305750
    40  C    0.297452
    41  C   -0.512589
    42  C   -0.512072
    43  C   -0.512200
    44  C   -0.504522
    45  H    0.180463
    46  H    0.147945
    47  H    0.164497
    48  H    0.161611
    49  H    0.149832
    50  H    0.171768
    51  H    0.168520
    52  H    0.147480
    53  H    0.171311
    54  H    0.180054
    55  H    0.144647
    56  H    0.168628
    57  H    0.217942
    58  H    0.101992
    59  H    0.182789
    60  H    0.180823
    61  H    0.168471
    62  H    0.170736
    63  H    0.184271
    64  H    0.184919
 Sum of Mulliken charges =  -0.00000
 Mulliken charges with hydrogens summed into heavy atoms:
               1
     1  C    0.284103
     2  C    0.003953
     3  C    0.044029
     4  C   -0.018546
     5  C   -0.018387
     6  C    0.053442
     7  C    0.007335
     8  C    0.297255
    10  C    0.319465
    11  C    0.296989
    12  C    0.309592
    13  C    0.296814
    14  C   -0.034716
    18  C   -0.030065
    22  C   -0.031794
    26  C   -0.022736
    30  B    0.390612
    31  N   -0.507222
    32  N   -0.596696
    33  O   -0.531141
    34  O   -0.505982
    35  Ir   0.065465
    36  B    0.456315
    37  O   -0.536576
    38  O   -0.510080
    39  C    0.305750
    40  C    0.297452
    41  C   -0.019684
    42  C   -0.028862
    43  C   -0.024889
    44  C   -0.011194
 APT charges:
               1
     1  C    0.027511
     2  C    0.000697
     3  C    0.057792
     4  C   -0.162565
     5  C   -0.193808
     6  C    0.103030
     7  C   -0.040667
     8  C    0.011825
     9  H    0.157735
    10  C    0.181348
    11  C    0.137764
    12  C    0.529347
    13  C    0.506168
    14  C   -0.040829
    15  H    0.007119
    16  H   -0.024663
    17  H   -0.011074
    18  C   -0.012090
    19  H   -0.009520
    20  H   -0.024380
    21  H    0.004677
    22  C   -0.004724
    23  H   -0.004608
    24  H   -0.026093
    25  H   -0.004041
    26  C   -0.052548
    27  H    0.024138
    28  H   -0.035845
    29  H   -0.003790
    30  B    1.321508
    31  N   -0.081197
    32  N   -0.085556
    33  O   -1.040896
    34  O   -1.024428
    35  Ir  -0.599065
    36  B    1.341287
    37  O   -1.013502
    38  O   -1.020984
    39  C    0.528901
    40  C    0.513205
    41  C   -0.042018
    42  C   -0.015490
    43  C   -0.012802
    44  C   -0.042252
    45  H    0.008388
    46  H   -0.018838
    47  H   -0.004713
    48  H   -0.008100
    49  H   -0.017680
    50  H    0.003434
    51  H    0.001156
    52  H   -0.020142
    53  H    0.004747
    54  H    0.011560
    55  H   -0.026651
    56  H    0.010441
    57  H    0.080246
    58  H   -0.067137
    59  H    0.036227
    60  H    0.029766
    61  H    0.037238
    62  H    0.041335
    63  H    0.031550
    64  H    0.042555
 Sum of APT charges =  -0.00000
 APT charges with hydrogens summed into heavy atoms:
               1
     1  C    0.107757
     2  C    0.036924
     3  C    0.087558
     4  C   -0.125328
     5  C   -0.152474
     6  C    0.134579
     7  C    0.001888
     8  C    0.169560
    10  C    0.181348
    11  C    0.137764
    12  C    0.529347
    13  C    0.506168
    14  C   -0.069446
    18  C   -0.041314
    22  C   -0.039466
    26  C   -0.068044
    30  B    1.321508
    31  N   -0.081197
    32  N   -0.085556
    33  O   -1.040896
    34  O   -1.024428
    35  Ir  -0.666202
    36  B    1.341287
    37  O   -1.013502
    38  O   -1.020984
    39  C    0.528901
    40  C    0.513205
    41  C   -0.057181
    42  C   -0.037836
    43  C   -0.027041
    44  C   -0.046902
 Electronic spatial extent (au):  <R**2>=          13908.3799
 Charge=              0.0000 electrons
 Dipole moment (field-independent basis, Debye):
    X=              6.7519    Y=             -1.9074    Z=              2.3832  Tot=              7.4098
 Quadrupole moment (field-independent basis, Debye-Ang):
   XX=           -163.0813   YY=           -175.3913   ZZ=           -204.6872
   XY=             -5.7652   XZ=             -0.4078   YZ=             -8.6016
 Traceless Quadrupole moment (field-independent basis, Debye-Ang):
   XX=             17.9720   YY=              5.6620   ZZ=            -23.6339
   XY=             -5.7652   XZ=             -0.4078   YZ=             -8.6016
 Octapole moment (field-independent basis, Debye-Ang**2):
  XXX=            213.1439  YYY=            -58.6517  ZZZ=            -60.2300  XYY=             51.2014
  XXY=            -25.7011  XXZ=            -20.8697  XZZ=             22.3022  YZZ=            -10.8338
  YYZ=             12.2032  XYZ=            -35.1157
 Hexadecapole moment (field-independent basis, Debye-Ang**3):
 XXXX=          -8722.0029 YYYY=          -7124.7302 ZZZZ=          -1626.8130 XXXY=             33.3670
 XXXZ=            -34.8572 YYYX=           -162.1219 YYYZ=           -145.9480 ZZZX=            -37.4985
 ZZZY=             -6.1904 XXYY=          -2654.8727 XXZZ=          -1940.2090 YYZZ=          -1438.7968
 XXYZ=           -125.8481 YYXZ=             36.4616 ZZXY=            -20.6800
 N-N= 3.545040946739D+03 E-N=-1.037528196376D+04  KE= 1.342270064159D+03
  Exact polarizability:     414.986       6.237     360.973       4.491     -44.592     225.877
 Approx polarizability:     566.598      15.696     513.766       6.741     -81.268     370.736
   1 Symmetry operations used in ECPInt.
 ECPInt:  NShTT=   18915 NPrTT=  115131 LenC2=   15507 LenP2D=   52053.
 LDataN:  DoStor=T MaxTD1= 8 Len=  415
 Calling FoFJK, ICntrl=    100127 FMM=F ISym2X=0 I1Cent= 0 IOpClX= 0 NMat=1 NMatS=1 NMatT=0.
 Defaulting to unpruned grid for atomic number  77.
 Defaulting to unpruned grid for atomic number  77.
 Defaulting to unpruned grid for atomic number  77.
 Defaulting to unpruned grid for atomic number  77.
 Defaulting to unpruned grid for atomic number  77.
 Defaulting to unpruned grid for atomic number  77.
 Defaulting to unpruned grid for atomic number  77.
 Defaulting to unpruned grid for atomic number  77.
 Defaulting to unpruned grid for atomic number  77.
 Defaulting to unpruned grid for atomic number  77.
 Defaulting to unpruned grid for atomic number  77.
 Defaulting to unpruned grid for atomic number  77.
 Defaulting to unpruned grid for atomic number  77.
 Defaulting to unpruned grid for atomic number  77.
 Defaulting to unpruned grid for atomic number  77.
 Defaulting to unpruned grid for atomic number  77.
 Full mass-weighted force constant matrix:
 Low frequencies ---   -5.6705   -0.0005   -0.0005    0.0004    2.3907    6.9964
 Low frequencies ---   10.5711   18.7002   23.3818
 Diagonal vibrational polarizability:
       59.1171989     118.7216939     241.7609411
 Harmonic frequencies (cm**-1), IR intensities (KM/Mole), Raman scattering
 activities (A**4/AMU), depolarization ratios for plane and unpolarized
 incident light, reduced masses (AMU), force constants (mDyne/A),
 and normal coordinates:
                      1                      2                      3
                      A                      A                      A
 Frequencies --      8.6533                18.5647                23.1457
 Red. masses --      5.6867                 4.3547                 4.2106
 Frc consts  --      0.0003                 0.0009                 0.0013
 IR Inten    --      0.7353                 0.0271                 0.3691
  Atom AN      X      Y      Z        X      Y      Z        X      Y      Z
     1   6     0.01   0.03   0.11    -0.01   0.02   0.06    -0.00   0.01  -0.01
     2   6     0.02  -0.01   0.05    -0.01   0.06   0.14    -0.01   0.05   0.08
     3   6     0.03  -0.07  -0.06    -0.02   0.08   0.19    -0.02   0.09   0.16
     4   6     0.02  -0.09  -0.11    -0.01   0.06   0.15    -0.02   0.08   0.13
     5   6     0.00  -0.10  -0.16     0.01  -0.04  -0.05    -0.01   0.00  -0.03
     6   6    -0.00  -0.12  -0.19     0.01  -0.07  -0.11    -0.01  -0.02  -0.06
     7   6    -0.00  -0.09  -0.14     0.01  -0.08  -0.12    -0.01  -0.02  -0.07
     8   6     0.00  -0.05  -0.07     0.01  -0.06  -0.07    -0.01  -0.01  -0.05
     9   1     0.00  -0.03  -0.04     0.01  -0.07  -0.07    -0.01  -0.01  -0.05
    10   6     0.01  -0.06  -0.09     0.00  -0.01  -0.00    -0.01   0.01  -0.00
    11   6     0.01  -0.05  -0.05    -0.00   0.02   0.06    -0.01   0.03   0.03
    12   6     0.01   0.00   0.04     0.00  -0.01   0.01    -0.00   0.05   0.09
    13   6     0.03  -0.03  -0.01    -0.02   0.03   0.06    -0.00  -0.04  -0.00
    14   6     0.04  -0.02   0.09    -0.03   0.01  -0.06     0.01  -0.01   0.21
    15   1     0.07  -0.04   0.11    -0.05   0.05  -0.07     0.02  -0.09   0.21
    16   1     0.05  -0.03   0.08    -0.04   0.03  -0.05     0.01  -0.03   0.23
    17   1     0.02   0.01   0.13    -0.01  -0.02  -0.10    -0.00   0.05   0.27
    18   6    -0.02   0.04   0.03     0.03  -0.06   0.02    -0.01   0.15   0.10
    19   1    -0.02   0.06   0.07     0.05  -0.09  -0.02    -0.01   0.20   0.17
    20   1    -0.01   0.02   0.01     0.03  -0.04   0.04    -0.01   0.12   0.12
    21   1    -0.04   0.06  -0.00     0.05  -0.08   0.06    -0.02   0.20   0.03
    22   6     0.06  -0.08  -0.01    -0.05   0.08   0.07     0.02  -0.13   0.03
    23   1     0.06  -0.10  -0.04    -0.05   0.11   0.11     0.01  -0.19  -0.04
    24   1     0.05  -0.07  -0.02    -0.04   0.07   0.07     0.02  -0.11   0.06
    25   1     0.08  -0.09   0.03    -0.07   0.10   0.02     0.03  -0.18   0.09
    26   6     0.00  -0.01  -0.06     0.01   0.00   0.13    -0.02   0.02  -0.11
    27   1    -0.02   0.01  -0.05     0.04  -0.02   0.12    -0.03   0.07  -0.12
    28   1    -0.01  -0.00  -0.08     0.02  -0.02   0.16    -0.03   0.06  -0.11
    29   1     0.03  -0.04  -0.09    -0.03   0.03   0.17     0.01  -0.03  -0.17
    30   5     0.02  -0.00   0.04    -0.01   0.00   0.01    -0.00   0.00  -0.00
    31   7     0.01   0.01   0.06    -0.00   0.00   0.03    -0.00  -0.00  -0.03
    32   7     0.01  -0.04  -0.05     0.00  -0.02  -0.01    -0.01   0.01  -0.02
    33   8     0.00   0.03   0.06     0.01  -0.04  -0.01    -0.01   0.08   0.06
    34   8     0.04  -0.05   0.01    -0.03   0.05   0.05     0.00  -0.07  -0.03
    35  77     0.01   0.02   0.07    -0.00  -0.01  -0.00    -0.01  -0.01  -0.04
    36   5    -0.03   0.04  -0.03     0.01   0.00  -0.02     0.01  -0.01  -0.01
    37   8    -0.03   0.05  -0.01    -0.00   0.01  -0.08     0.02  -0.03   0.02
    38   8    -0.05   0.05  -0.08     0.03   0.01   0.03    -0.00  -0.01  -0.03
    39   6    -0.05   0.05  -0.03     0.01   0.03  -0.10     0.03  -0.03   0.03
    40   6    -0.05   0.05  -0.09     0.02   0.00  -0.02     0.02  -0.00   0.00
    41   6    -0.11   0.04  -0.01     0.06   0.10  -0.11     0.01  -0.08   0.04
    42   6    -0.03   0.05  -0.02    -0.03   0.01  -0.16     0.06  -0.02   0.07
    43   6    -0.09   0.05  -0.12     0.05   0.04  -0.01     0.02  -0.02   0.00
    44   6    -0.01   0.06  -0.11    -0.03  -0.06  -0.02     0.04   0.04   0.01
    45   1    -0.12   0.04  -0.02     0.09   0.12  -0.07    -0.01  -0.09   0.01
    46   1    -0.13   0.04  -0.02     0.07   0.12  -0.13     0.02  -0.09   0.05
    47   1    -0.11   0.04   0.03     0.06   0.11  -0.16     0.02  -0.10   0.06
    48   1    -0.03   0.04   0.02    -0.03   0.03  -0.22     0.07  -0.04   0.09
    49   1    -0.05   0.05  -0.04    -0.02   0.02  -0.17     0.07  -0.02   0.08
    50   1     0.01   0.05  -0.03    -0.07  -0.04  -0.16     0.08   0.01   0.07
    51   1    -0.09   0.05  -0.16     0.05   0.02   0.04     0.01   0.00  -0.02
    52   1    -0.10   0.05  -0.11     0.04   0.05  -0.05     0.03  -0.02   0.03
    53   1    -0.13   0.04  -0.10     0.09   0.09  -0.00    -0.00  -0.05  -0.01
    54   1     0.03   0.06  -0.09    -0.06  -0.09  -0.03     0.05   0.05   0.01
    55   1    -0.00   0.06  -0.11    -0.05  -0.07  -0.06     0.06   0.05   0.03
    56   1    -0.00   0.06  -0.14    -0.03  -0.08   0.03     0.03   0.07  -0.02
    57   1     0.01   0.08   0.20    -0.00   0.00   0.03     0.00  -0.02  -0.07
    58   1     0.01   0.08   0.12    -0.01  -0.03  -0.01    -0.01  -0.02  -0.06
    59   1     0.03   0.01   0.10    -0.02   0.07   0.17    -0.02   0.06   0.09
    60   1     0.03  -0.11  -0.12    -0.02   0.12   0.26    -0.03   0.13   0.24
    61   1     0.03  -0.15  -0.21    -0.02   0.08   0.19    -0.03   0.11   0.20
    62   1     0.00  -0.12  -0.18     0.01  -0.03  -0.05    -0.01   0.00  -0.03
    63   1    -0.00  -0.15  -0.24     0.02  -0.09  -0.16    -0.01  -0.03  -0.09
    64   1    -0.00  -0.10  -0.16     0.02  -0.11  -0.17    -0.01  -0.04  -0.10
                      4                      5                      6
                      A                      A                      A
 Frequencies --     31.7614                44.1563                58.8307
 Red. masses --      3.4782                 4.6240                 4.7051
 Frc consts  --      0.0021                 0.0053                 0.0096
 IR Inten    --      0.1354                 0.9245                 1.1474
  Atom AN      X      Y      Z        X      Y      Z        X      Y      Z
     1   6     0.02   0.00   0.03    -0.06   0.05   0.04     0.07  -0.03   0.02
     2   6     0.02  -0.02   0.02    -0.06   0.06   0.01     0.08  -0.07   0.05
     3   6     0.02  -0.04  -0.01    -0.04   0.06  -0.02     0.05  -0.10   0.06
     4   6     0.01  -0.04  -0.02    -0.02   0.05  -0.03     0.00  -0.09   0.05
     5   6    -0.02  -0.03  -0.01     0.02   0.06   0.04    -0.08  -0.04   0.03
     6   6    -0.03  -0.02  -0.00     0.04   0.04   0.03    -0.12  -0.02   0.04
     7   6    -0.03   0.00   0.01     0.04  -0.01  -0.01    -0.12   0.02   0.03
     8   6    -0.02   0.01   0.01     0.02  -0.03  -0.03    -0.08   0.03  -0.00
     9   1    -0.02   0.03   0.02     0.02  -0.06  -0.06    -0.08   0.06  -0.01
    10   6    -0.01  -0.02  -0.00     0.00   0.03   0.01    -0.05  -0.03   0.01
    11   6     0.00  -0.02  -0.00    -0.02   0.04   0.01    -0.01  -0.05   0.02
    12   6    -0.00   0.02  -0.01    -0.02  -0.06  -0.03     0.09  -0.04   0.03
    13   6     0.02  -0.02  -0.06     0.00  -0.05  -0.02     0.01  -0.05   0.06
    14   6     0.02  -0.00   0.05    -0.03  -0.06  -0.04     0.16  -0.01  -0.02
    15   1     0.05  -0.04   0.06    -0.03  -0.06  -0.04     0.14   0.05  -0.03
    16   1     0.03  -0.02   0.04    -0.04  -0.05  -0.05     0.19  -0.07  -0.01
    17   1     0.00   0.02   0.09    -0.04  -0.07  -0.05     0.22   0.00  -0.05
    18   6    -0.04   0.07  -0.02    -0.04  -0.06  -0.04     0.12  -0.13   0.04
    19   1    -0.05   0.09   0.02    -0.05  -0.08  -0.04     0.19  -0.12   0.01
    20   1    -0.03   0.05  -0.04    -0.04  -0.05  -0.05     0.14  -0.20   0.05
    21   1    -0.05   0.09  -0.06    -0.03  -0.07  -0.03     0.07  -0.15   0.06
    22   6     0.05  -0.07  -0.07    -0.01  -0.02  -0.03    -0.02  -0.07   0.10
    23   1     0.06  -0.10  -0.11     0.01  -0.01  -0.02    -0.09  -0.07   0.13
    24   1     0.05  -0.06  -0.08    -0.02  -0.01  -0.03     0.02  -0.12   0.14
    25   1     0.08  -0.09  -0.03    -0.02  -0.03  -0.03    -0.02  -0.04   0.06
    26   6    -0.02   0.00  -0.13     0.03  -0.03  -0.02     0.00  -0.09   0.11
    27   1    -0.04   0.05  -0.13     0.03  -0.06  -0.00     0.02  -0.08   0.10
    28   1    -0.02   0.01  -0.14     0.01  -0.00  -0.04     0.02  -0.12   0.14
    29   1    -0.01  -0.03  -0.17     0.07  -0.02  -0.01    -0.04  -0.07   0.14
    30   5     0.01   0.01  -0.01    -0.00  -0.07   0.00     0.01   0.04  -0.01
    31   7     0.01  -0.00   0.02    -0.04   0.04   0.04     0.03  -0.02  -0.00
    32   7    -0.01   0.00   0.01     0.00  -0.01  -0.02    -0.05   0.01  -0.01
    33   8    -0.01   0.04   0.01    -0.02  -0.08  -0.01     0.06   0.03   0.01
    34   8     0.03  -0.03  -0.05     0.01  -0.07  -0.02    -0.03  -0.00   0.02
    35  77     0.01   0.01   0.01    -0.02  -0.02   0.04     0.00   0.04  -0.03
    36   5    -0.01   0.01  -0.01    -0.04   0.03  -0.11    -0.02   0.05  -0.08
    37   8    -0.05   0.03  -0.09    -0.00   0.02  -0.12    -0.04   0.05  -0.07
    38   8     0.02  -0.02   0.07    -0.04   0.08  -0.13    -0.03   0.03  -0.09
    39   6    -0.02   0.02  -0.04     0.08   0.00  -0.04    -0.02   0.01  -0.01
    40   6    -0.01  -0.02   0.09     0.04   0.09  -0.02    -0.02   0.03  -0.01
    41   6     0.11   0.06  -0.09     0.13  -0.12  -0.06     0.00  -0.07  -0.02
    42   6    -0.11   0.02  -0.08     0.13   0.03   0.04    -0.03   0.05   0.07
    43   6     0.09  -0.05   0.17     0.11   0.05   0.04    -0.00  -0.04   0.02
    44   6    -0.14  -0.04   0.15     0.01   0.22   0.05    -0.05   0.10   0.03
    45   1     0.18   0.06  -0.06     0.10  -0.14  -0.12     0.01  -0.09  -0.07
    46   1     0.14   0.05  -0.06     0.20  -0.13   0.00     0.02  -0.10   0.03
    47   1     0.10   0.10  -0.19     0.14  -0.17  -0.10     0.00  -0.07  -0.03
    48   1    -0.11   0.05  -0.18     0.15  -0.03   0.02    -0.02   0.04   0.06
    49   1    -0.08   0.01  -0.04     0.19   0.03   0.11    -0.02   0.02   0.12
    50   1    -0.20  -0.01  -0.06     0.09   0.11   0.05    -0.04   0.11   0.07
    51   1     0.09  -0.07   0.26     0.09   0.11   0.06    -0.01  -0.03   0.02
    52   1     0.08  -0.05   0.17     0.18   0.04   0.13     0.00  -0.05   0.09
    53   1     0.19  -0.03   0.13     0.13  -0.04  -0.01     0.01  -0.10  -0.01
    54   1    -0.22  -0.04   0.09    -0.05   0.24   0.00    -0.07   0.15   0.00
    55   1    -0.15  -0.05   0.17     0.08   0.24   0.13    -0.05   0.10   0.09
    56   1    -0.14  -0.05   0.24    -0.04   0.29   0.05    -0.05   0.11   0.01
    57   1     0.02   0.02   0.05    -0.07   0.05   0.07     0.10  -0.01   0.00
    58   1     0.02   0.01  -0.00    -0.04   0.02   0.07     0.03   0.05  -0.04
    59   1     0.03  -0.02   0.02    -0.08   0.06   0.01     0.12  -0.08   0.07
    60   1     0.02  -0.06  -0.03    -0.04   0.06  -0.05     0.05  -0.13   0.09
    61   1     0.00  -0.06  -0.04    -0.00   0.04  -0.06    -0.03  -0.11   0.06
    62   1    -0.02  -0.04  -0.02     0.02   0.09   0.07    -0.08  -0.07   0.05
    63   1    -0.04  -0.03  -0.01     0.05   0.06   0.05    -0.14  -0.02   0.07
    64   1    -0.04   0.01   0.01     0.05  -0.02  -0.02    -0.15   0.05   0.04
                      7                      8                      9
                      A                      A                      A
 Frequencies --     66.6349                77.4801                79.5322
 Red. masses --      4.1088                 4.1598                 4.2851
 Frc consts  --      0.0107                 0.0147                 0.0160
 IR Inten    --      0.9250                 0.0987                 2.2366
  Atom AN      X      Y      Z        X      Y      Z        X      Y      Z
     1   6    -0.02  -0.03  -0.08     0.01  -0.04  -0.08    -0.02   0.12   0.22
     2   6    -0.02  -0.02  -0.05     0.00   0.00  -0.02    -0.02   0.10   0.21
     3   6    -0.03   0.02   0.02    -0.00   0.05   0.07    -0.00  -0.00   0.01
     4   6    -0.03   0.03   0.04     0.00   0.04   0.06     0.01  -0.07  -0.13
     5   6    -0.02  -0.04  -0.09     0.02  -0.09  -0.19    -0.00  -0.05  -0.11
     6   6    -0.02  -0.04  -0.08     0.03  -0.06  -0.12    -0.00   0.02   0.01
     7   6    -0.02   0.01   0.01     0.03   0.06   0.10    -0.00   0.10   0.16
     8   6    -0.02   0.05   0.08     0.02   0.11   0.21    -0.00   0.09   0.14
     9   1    -0.02   0.08   0.14     0.02   0.17   0.32    -0.00   0.12   0.21
    10   6    -0.02   0.00  -0.00     0.02  -0.01  -0.03    -0.00  -0.03  -0.07
    11   6    -0.02   0.00  -0.01     0.01  -0.01  -0.03    -0.00  -0.02  -0.07
    12   6     0.03  -0.06  -0.03    -0.02   0.03  -0.00     0.00  -0.02  -0.00
    13   6     0.00  -0.08  -0.03     0.01   0.05   0.01    -0.02  -0.02  -0.00
    14   6     0.15  -0.03  -0.04    -0.01   0.04  -0.03    -0.05  -0.03   0.01
    15   1     0.18   0.03  -0.02     0.01   0.07  -0.02    -0.09  -0.05  -0.02
    16   1     0.20  -0.10  -0.09    -0.00   0.05  -0.05    -0.06  -0.03   0.06
    17   1     0.17  -0.00  -0.03    -0.01   0.03  -0.04    -0.02  -0.02  -0.01
    18   6    -0.02  -0.13  -0.07    -0.06   0.00  -0.03     0.05   0.02   0.03
    19   1    -0.00  -0.12  -0.06    -0.08  -0.02  -0.04     0.06   0.02   0.02
    20   1     0.01  -0.20  -0.13    -0.05   0.02  -0.07     0.03   0.03   0.08
    21   1    -0.11  -0.15  -0.06    -0.07  -0.01  -0.01     0.08   0.02   0.02
    22   6     0.05  -0.11  -0.05     0.02   0.08  -0.02    -0.06  -0.03   0.03
    23   1     0.02  -0.13  -0.06     0.05   0.10  -0.01    -0.07  -0.03   0.03
    24   1     0.06  -0.16  -0.07     0.01   0.09  -0.05    -0.05  -0.01   0.07
    25   1     0.09  -0.09  -0.04     0.03   0.09  -0.03    -0.09  -0.04   0.03
    26   6    -0.04  -0.09  -0.05     0.00   0.04   0.02     0.02  -0.01   0.00
    27   1    -0.06  -0.05  -0.05    -0.02   0.01   0.04     0.04  -0.01  -0.02
    28   1    -0.03  -0.12  -0.04    -0.01   0.04  -0.02     0.03   0.01   0.04
    29   1    -0.07  -0.11  -0.06     0.04   0.06   0.03     0.00  -0.01   0.00
    30   5    -0.02   0.02   0.03     0.01   0.02   0.05    -0.00  -0.03  -0.07
    31   7    -0.02  -0.02  -0.05     0.02  -0.04  -0.08    -0.01   0.05   0.07
    32   7    -0.02   0.04   0.07     0.02   0.07   0.13    -0.00   0.03   0.03
    33   8    -0.02   0.03   0.04    -0.03   0.02   0.04     0.02  -0.03  -0.06
    34   8    -0.00  -0.03  -0.01     0.02   0.04   0.04    -0.03  -0.04  -0.04
    35  77    -0.03   0.01   0.01     0.01  -0.01   0.01    -0.01  -0.00  -0.03
    36   5     0.02  -0.00   0.09    -0.03  -0.01  -0.07     0.01  -0.02   0.02
    37   8     0.06  -0.03   0.08    -0.05   0.00  -0.08     0.03  -0.03   0.02
    38   8     0.03   0.04   0.09    -0.04  -0.02  -0.08     0.02  -0.01   0.03
    39   6     0.07   0.03   0.02    -0.03  -0.03  -0.02     0.03  -0.01   0.00
    40   6     0.06   0.05   0.02    -0.03  -0.02  -0.02     0.03  -0.00   0.00
    41   6     0.05   0.10   0.03    -0.01  -0.12  -0.03     0.02   0.01   0.01
    42   6     0.11  -0.01  -0.06    -0.03   0.00   0.05     0.04  -0.02  -0.02
    43   6     0.05   0.13  -0.00    -0.02  -0.07  -0.00     0.02   0.03  -0.01
    44   6     0.08  -0.00  -0.00    -0.05   0.04   0.00     0.04  -0.03  -0.01
    45   1     0.02   0.13   0.08    -0.01  -0.14  -0.08     0.01   0.02   0.02
    46   1     0.06   0.15  -0.03     0.01  -0.15   0.02     0.03   0.03  -0.01
    47   1     0.05   0.08   0.03    -0.01  -0.13  -0.04     0.02  -0.00   0.01
    48   1     0.11  -0.03  -0.07    -0.03  -0.01   0.06     0.05  -0.03  -0.02
    49   1     0.12   0.03  -0.12    -0.02  -0.03   0.11     0.05  -0.01  -0.04
    50   1     0.12  -0.07  -0.07    -0.05   0.06   0.06     0.05  -0.04  -0.03
    51   1     0.04   0.15   0.01    -0.02  -0.06  -0.01     0.02   0.03  -0.01
    52   1     0.08   0.14  -0.06    -0.02  -0.08   0.05     0.03   0.03  -0.04
    53   1     0.03   0.17   0.03    -0.01  -0.11  -0.03     0.01   0.05   0.00
    54   1     0.09  -0.06   0.01    -0.06   0.07  -0.01     0.05  -0.05  -0.00
    55   1     0.10   0.01  -0.06    -0.04   0.04   0.05     0.05  -0.03  -0.04
    56   1     0.07   0.01   0.02    -0.05   0.05  -0.01     0.04  -0.03  -0.01
    57   1    -0.01  -0.06  -0.13     0.01  -0.06  -0.13    -0.03   0.18   0.35
    58   1    -0.03  -0.05  -0.04     0.02  -0.12  -0.09    -0.00  -0.04  -0.06
    59   1    -0.02  -0.03  -0.08    -0.00   0.00  -0.02    -0.02   0.17   0.34
    60   1    -0.03   0.04   0.06    -0.01   0.09   0.14     0.00  -0.03  -0.03
    61   1    -0.04   0.06   0.11    -0.01   0.08   0.14     0.02  -0.15  -0.28
    62   1    -0.02  -0.08  -0.17     0.02  -0.18  -0.37    -0.00  -0.10  -0.21
    63   1    -0.02  -0.07  -0.16     0.03  -0.12  -0.25    -0.00   0.01  -0.01
    64   1    -0.02   0.02   0.02     0.04   0.09   0.17    -0.00   0.15   0.26
                     10                     11                     12
                      A                      A                      A
 Frequencies --    106.0847               124.3669               133.4300
 Red. masses --      4.5216                 4.1650                 4.4040
 Frc consts  --      0.0300                 0.0380                 0.0462
 IR Inten    --      0.0560                 0.3725                 0.9422
  Atom AN      X      Y      Z        X      Y      Z        X      Y      Z
     1   6    -0.06   0.02   0.04     0.04  -0.05  -0.07     0.11  -0.03  -0.04
     2   6    -0.07   0.08   0.12     0.03   0.00   0.06     0.12  -0.02   0.05
     3   6    -0.05   0.06   0.03     0.02   0.02   0.11     0.09  -0.02   0.08
     4   6    -0.01  -0.01  -0.09     0.02  -0.02   0.02     0.06  -0.04   0.02
     5   6     0.00   0.02   0.03     0.02  -0.03  -0.04     0.05   0.00  -0.01
     6   6     0.00   0.06   0.11     0.03   0.03   0.07     0.06   0.03   0.05
     7   6    -0.00   0.03   0.05     0.03   0.04   0.09     0.06   0.02   0.03
     8   6     0.00  -0.04  -0.07     0.03  -0.02  -0.03     0.06  -0.01  -0.03
     9   1     0.00  -0.05  -0.10     0.03  -0.03  -0.04     0.06  -0.03  -0.05
    10   6     0.01  -0.04  -0.09     0.02  -0.06  -0.10     0.05  -0.03  -0.06
    11   6    -0.01  -0.04  -0.10     0.03  -0.06  -0.10     0.06  -0.03  -0.05
    12   6     0.00   0.06   0.03    -0.01  -0.03   0.00    -0.02  -0.03  -0.00
    13   6    -0.00   0.05   0.02     0.02  -0.01   0.00    -0.02  -0.02  -0.00
    14   6     0.18   0.10  -0.01    -0.07  -0.04   0.00    -0.10  -0.05   0.02
    15   1     0.26   0.19   0.05    -0.07  -0.07   0.00    -0.09  -0.10   0.02
    16   1     0.25   0.03  -0.13    -0.09   0.00   0.01    -0.13  -0.00   0.03
    17   1     0.17   0.12   0.02    -0.10  -0.06   0.00    -0.14  -0.07   0.03
    18   6    -0.10  -0.06  -0.06    -0.02   0.00   0.00     0.01   0.02   0.03
    19   1    -0.10  -0.05  -0.05    -0.05  -0.01   0.00     0.01   0.02   0.03
    20   1    -0.05  -0.14  -0.18    -0.03   0.05   0.00    -0.01   0.05   0.08
    21   1    -0.24  -0.09  -0.03     0.02   0.01   0.00     0.06   0.03   0.02
    22   6     0.07   0.02  -0.03     0.01   0.02  -0.01     0.07  -0.03  -0.07
    23   1     0.06   0.02  -0.03     0.05   0.04  -0.01     0.09  -0.03  -0.08
    24   1     0.07  -0.03  -0.08    -0.01   0.05  -0.03     0.05  -0.07  -0.15
    25   1     0.14   0.06  -0.02    -0.00   0.01  -0.01     0.14   0.00  -0.05
    26   6    -0.07   0.01   0.01     0.04   0.00   0.00    -0.12  -0.06  -0.01
    27   1    -0.12   0.03   0.04     0.03  -0.03   0.02    -0.15   0.01  -0.02
    28   1    -0.08  -0.03  -0.03     0.02   0.03  -0.03    -0.09  -0.14  -0.00
    29   1    -0.08   0.02   0.01     0.09   0.02   0.01    -0.20  -0.09  -0.02
    30   5    -0.02   0.07   0.10     0.01  -0.03   0.03    -0.02   0.00   0.03
    31   7    -0.02  -0.04  -0.06     0.04  -0.07  -0.13     0.08  -0.03  -0.07
    32   7     0.00  -0.07  -0.13     0.02  -0.06  -0.11     0.05  -0.03  -0.07
    33   8    -0.06   0.14   0.14     0.01  -0.07  -0.00     0.01  -0.08  -0.03
    34   8     0.01   0.08   0.08     0.03  -0.03   0.01    -0.03   0.06   0.06
    35  77     0.00  -0.03  -0.00    -0.00  -0.00  -0.00    -0.03   0.02   0.00
    36   5     0.02  -0.01  -0.02    -0.03   0.01   0.02    -0.06   0.00   0.02
    37   8     0.01   0.00  -0.03     0.02  -0.02   0.13    -0.08   0.01  -0.09
    38   8     0.03  -0.02  -0.00    -0.07   0.04  -0.09    -0.02   0.01   0.12
    39   6     0.01  -0.01  -0.01    -0.02   0.03   0.02    -0.01  -0.01  -0.01
    40   6     0.01  -0.02  -0.01    -0.03   0.04   0.01    -0.01   0.03   0.01
    41   6     0.02  -0.04  -0.02    -0.08   0.18   0.05     0.04  -0.13  -0.03
    42   6    -0.00  -0.00   0.01     0.02  -0.02  -0.10    -0.00   0.03   0.08
    43   6     0.01  -0.02  -0.02    -0.01  -0.03   0.06    -0.02   0.16  -0.03
    44   6     0.02  -0.04  -0.02    -0.08   0.16   0.07     0.02  -0.07  -0.04
    45   1     0.02  -0.05  -0.03    -0.05   0.20   0.12    -0.02  -0.13  -0.08
    46   1     0.02  -0.05   0.00    -0.15   0.21  -0.04     0.14  -0.12   0.03
    47   1     0.02  -0.04  -0.02    -0.09   0.22   0.08     0.06  -0.21  -0.07
    48   1    -0.01   0.00   0.01     0.02  -0.03  -0.08     0.01  -0.01   0.05
    49   1    -0.01  -0.02   0.03     0.01   0.04  -0.19     0.04   0.00   0.15
    50   1    -0.01   0.01   0.01     0.06  -0.12  -0.11    -0.05   0.10   0.09
    51   1     0.01  -0.03  -0.02    -0.01  -0.02   0.05    -0.04   0.21  -0.01
    52   1     0.00  -0.02  -0.02    -0.00  -0.04   0.14     0.04   0.18  -0.13
    53   1     0.01  -0.02  -0.01     0.01  -0.10   0.02    -0.06   0.23   0.02
    54   1     0.03  -0.02  -0.01    -0.14   0.15   0.03     0.07  -0.10  -0.00
    55   1    -0.01  -0.05  -0.02     0.01   0.18   0.14    -0.02  -0.08  -0.11
    56   1     0.03  -0.06  -0.03    -0.13   0.24   0.09     0.05  -0.12  -0.04
    57   1    -0.07   0.03   0.08     0.06  -0.06  -0.12     0.14  -0.02  -0.07
    58   1    -0.02   0.08   0.09    -0.03   0.09   0.09    -0.07   0.02   0.03
    59   1    -0.10   0.14   0.22     0.04   0.03   0.12     0.13  -0.01   0.08
    60   1    -0.05   0.09   0.06     0.01   0.07   0.23     0.09  -0.02   0.15
    61   1     0.01  -0.03  -0.16     0.00  -0.00   0.06     0.04  -0.04   0.05
    62   1     0.00   0.05   0.08     0.02  -0.03  -0.05     0.05   0.00  -0.01
    63   1     0.00   0.12   0.23     0.03   0.08   0.15     0.06   0.06   0.11
    64   1     0.00   0.07   0.11     0.02   0.10   0.18     0.06   0.05   0.08
                     13                     14                     15
                      A                      A                      A
 Frequencies --    135.7628               148.7936               154.9896
 Red. masses --      5.3636                 3.7883                 5.0891
 Frc consts  --      0.0582                 0.0494                 0.0720
 IR Inten    --      1.8313                 0.2979                 1.4246
  Atom AN      X      Y      Z        X      Y      Z        X      Y      Z
     1   6    -0.10  -0.02  -0.09     0.09   0.02  -0.03     0.11   0.11   0.02
     2   6    -0.11   0.03  -0.01     0.10   0.00   0.01     0.13   0.03   0.00
     3   6    -0.11   0.06   0.05     0.07  -0.01   0.03     0.09  -0.03  -0.03
     4   6    -0.09   0.03   0.01     0.03  -0.00   0.01     0.03   0.01  -0.02
     5   6    -0.10  -0.03  -0.05    -0.01   0.03  -0.01    -0.07   0.07  -0.00
     6   6    -0.13   0.02   0.02    -0.02   0.04  -0.00    -0.11   0.06  -0.07
     7   6    -0.13   0.06   0.05    -0.02   0.05  -0.02    -0.12   0.09  -0.10
     8   6    -0.11   0.03  -0.03    -0.01   0.04  -0.05    -0.08   0.13  -0.05
     9   1    -0.10   0.04  -0.03    -0.01   0.04  -0.05    -0.07   0.15  -0.06
    10   6    -0.08  -0.03  -0.08     0.01   0.03  -0.03    -0.03   0.11   0.00
    11   6    -0.08  -0.02  -0.07     0.03   0.02  -0.03     0.01   0.09   0.01
    12   6     0.00  -0.06  -0.00    -0.03  -0.02   0.01    -0.05  -0.04   0.04
    13   6     0.04  -0.04  -0.00     0.03  -0.02   0.00    -0.01  -0.01   0.04
    14   6    -0.11  -0.09   0.02     0.04   0.00  -0.01    -0.09  -0.05   0.04
    15   1    -0.12  -0.15   0.01     0.04   0.03  -0.00    -0.03  -0.08   0.07
    16   1    -0.15  -0.02   0.05     0.06  -0.03  -0.02    -0.10   0.01  -0.01
    17   1    -0.14  -0.12   0.02     0.05   0.01  -0.01    -0.16  -0.09   0.06
    18   6     0.03   0.01   0.03    -0.14  -0.05  -0.07    -0.11  -0.04   0.01
    19   1    -0.00  -0.01   0.02    -0.23  -0.10  -0.06    -0.17  -0.08   0.00
    20   1    -0.00   0.08   0.07    -0.12  -0.00  -0.19    -0.11   0.00  -0.05
    21   1     0.11   0.02   0.02    -0.17  -0.07  -0.04    -0.10  -0.06   0.04
    22   6     0.06   0.00  -0.03    -0.12   0.04   0.10     0.10   0.02  -0.07
    23   1     0.12   0.02  -0.04    -0.08   0.04   0.09     0.18   0.05  -0.07
    24   1     0.02   0.04  -0.06    -0.13   0.16   0.21     0.05   0.00  -0.20
    25   1     0.04  -0.02  -0.01    -0.26  -0.05   0.09     0.18   0.05  -0.04
    26   6     0.06  -0.03   0.00     0.22   0.08   0.00    -0.10  -0.06   0.04
    27   1     0.08  -0.02  -0.02     0.27  -0.03   0.01    -0.15  -0.06   0.08
    28   1     0.07  -0.02   0.03     0.16   0.24  -0.01    -0.10  -0.12  -0.00
    29   1     0.05  -0.03  -0.00     0.36   0.11  -0.00    -0.10  -0.05   0.06
    30   5     0.04  -0.05   0.03     0.01  -0.07   0.02     0.00  -0.05   0.10
    31   7    -0.08  -0.04  -0.10     0.05   0.03  -0.04     0.05   0.12   0.01
    32   7    -0.08  -0.02  -0.08     0.01   0.03  -0.05    -0.03   0.13  -0.01
    33   8     0.04  -0.12  -0.03    -0.05   0.02   0.08    -0.04  -0.08   0.07
    34   8     0.05  -0.04   0.02     0.06  -0.18  -0.07     0.01   0.04   0.13
    35  77     0.04   0.01   0.02    -0.02   0.00   0.01     0.01  -0.02  -0.00
    36   5     0.09   0.06  -0.02    -0.01  -0.00   0.02     0.02  -0.02  -0.02
    37   8     0.04   0.10  -0.05    -0.03   0.01  -0.03     0.05  -0.05   0.04
    38   8     0.11  -0.00   0.05     0.01  -0.01   0.07     0.01  -0.03  -0.06
    39   6     0.02   0.05   0.01    -0.01  -0.01   0.00     0.03  -0.03  -0.01
    40   6     0.04  -0.01  -0.00    -0.01  -0.01   0.01     0.02  -0.04  -0.02
    41   6     0.03  -0.00   0.00     0.01  -0.04  -0.01     0.00   0.02   0.01
    42   6    -0.07   0.09   0.09    -0.03   0.01   0.03     0.05  -0.06  -0.06
    43   6     0.00  -0.01  -0.04    -0.02   0.05  -0.01     0.02  -0.10   0.00
    44   6     0.07  -0.09  -0.04     0.01  -0.06  -0.02     0.01  -0.01   0.00
    45   1     0.07  -0.02  -0.04    -0.01  -0.04  -0.02     0.02   0.02   0.03
    46   1     0.02  -0.04   0.04     0.04  -0.04   0.01    -0.03   0.02  -0.02
    47   1     0.03   0.03  -0.00     0.01  -0.06  -0.03    -0.00   0.05   0.02
    48   1    -0.09   0.16   0.11    -0.04   0.02   0.02     0.05  -0.07  -0.06
    49   1    -0.12   0.02   0.14    -0.04  -0.01   0.05     0.05  -0.03  -0.11
    50   1    -0.08   0.15   0.09    -0.04   0.03   0.03     0.06  -0.11  -0.07
    51   1     0.03  -0.07  -0.04    -0.02   0.04  -0.00     0.03  -0.12  -0.01
    52   1    -0.06  -0.02  -0.08    -0.02   0.06  -0.07     0.00  -0.11   0.05
    53   1     0.00   0.04  -0.01    -0.03   0.10   0.01     0.04  -0.13  -0.02
    54   1     0.13  -0.05  -0.01     0.03  -0.10   0.00    -0.00   0.00  -0.01
    55   1    -0.03  -0.12  -0.07     0.01  -0.07  -0.07     0.02  -0.00   0.02
    56   1     0.13  -0.19  -0.08     0.01  -0.07  -0.01     0.00   0.01   0.00
    57   1    -0.11  -0.05  -0.13     0.11   0.04  -0.04     0.14   0.15   0.04
    58   1     0.02   0.17   0.14    -0.08   0.03   0.05    -0.10   0.01   0.05
    59   1    -0.12   0.04   0.01     0.12  -0.00   0.02     0.18   0.02  -0.00
    60   1    -0.12   0.11   0.13     0.07  -0.03   0.07     0.11  -0.10  -0.07
    61   1    -0.09   0.06   0.05     0.01  -0.02   0.03    -0.01  -0.04  -0.04
    62   1    -0.10  -0.06  -0.07    -0.01   0.02   0.01    -0.07   0.05   0.03
    63   1    -0.14   0.03   0.07    -0.03   0.05   0.02    -0.14   0.03  -0.09
    64   1    -0.14   0.10   0.11    -0.03   0.06  -0.01    -0.14   0.08  -0.15
                     16                     17                     18
                      A                      A                      A
 Frequencies --    161.4202               194.9151               208.2249
 Red. masses --      4.3750                 4.2024                 4.4948
 Frc consts  --      0.0672                 0.0941                 0.1148
 IR Inten    --      0.5814                 0.0512                 0.0462
  Atom AN      X      Y      Z        X      Y      Z        X      Y      Z
     1   6     0.05  -0.01   0.01     0.02  -0.00  -0.05    -0.06  -0.04   0.03
     2   6     0.05  -0.02   0.01     0.02   0.02  -0.04    -0.08   0.01   0.02
     3   6     0.05  -0.02   0.01     0.02   0.06   0.03    -0.04   0.02  -0.03
     4   6     0.03  -0.01   0.02     0.03   0.04   0.01     0.02  -0.01  -0.03
     5   6     0.06   0.00  -0.01    -0.01  -0.01  -0.04     0.02  -0.04   0.07
     6   6     0.08  -0.00  -0.00    -0.06   0.03   0.01    -0.00  -0.06   0.01
     7   6     0.08  -0.01   0.02    -0.06   0.07   0.00    -0.00  -0.05  -0.02
     8   6     0.06  -0.02   0.03    -0.02   0.05  -0.07     0.02  -0.00   0.03
     9   1     0.06  -0.04   0.04    -0.02   0.08  -0.10     0.02   0.02   0.03
    10   6     0.03  -0.00   0.01     0.03  -0.00  -0.06     0.04  -0.03   0.06
    11   6     0.03  -0.00   0.01     0.04   0.01  -0.03     0.02  -0.04   0.02
    12   6    -0.06  -0.02  -0.00    -0.03   0.03  -0.04    -0.07  -0.04   0.02
    13   6    -0.08  -0.03  -0.01    -0.09  -0.00  -0.03    -0.05  -0.03   0.03
    14   6    -0.04  -0.02  -0.00    -0.02   0.04  -0.06    -0.08  -0.05   0.03
    15   1    -0.05  -0.01  -0.01    -0.09   0.07  -0.10    -0.07  -0.08   0.04
    16   1    -0.03  -0.04   0.01    -0.01  -0.01   0.01    -0.09  -0.04   0.04
    17   1    -0.02  -0.00  -0.00     0.06   0.06  -0.10    -0.10  -0.04   0.05
    18   6    -0.09  -0.04  -0.03     0.03   0.00   0.00    -0.22  -0.05  -0.07
    19   1    -0.11  -0.05  -0.02     0.12   0.05   0.00    -0.45  -0.21  -0.11
    20   1    -0.08  -0.04  -0.06     0.04  -0.07   0.07    -0.24   0.16  -0.25
    21   1    -0.12  -0.05  -0.01     0.00   0.02  -0.02    -0.15  -0.11   0.03
    22   6    -0.09  -0.07   0.02    -0.18  -0.11   0.09    -0.07  -0.06   0.06
    23   1    -0.15  -0.09   0.02    -0.46  -0.16   0.16    -0.17  -0.07   0.10
    24   1    -0.06  -0.10   0.06    -0.03  -0.27   0.26    -0.01  -0.14   0.10
    25   1    -0.09  -0.06   0.01    -0.19  -0.03  -0.01    -0.05  -0.00   0.01
    26   6    -0.09  -0.03  -0.02    -0.12  -0.01  -0.05    -0.07  -0.04   0.04
    27   1    -0.08   0.01  -0.04    -0.12   0.05  -0.07    -0.09  -0.05   0.06
    28   1    -0.08  -0.04   0.02    -0.10  -0.05  -0.01    -0.08  -0.05   0.00
    29   1    -0.14  -0.05  -0.03    -0.19  -0.04  -0.07    -0.05  -0.03   0.04
    30   5    -0.07   0.01  -0.00    -0.05   0.04  -0.08    -0.02  -0.02   0.04
    31   7     0.03  -0.00   0.02     0.03   0.00  -0.03    -0.01  -0.07   0.01
    32   7     0.03  -0.01   0.02     0.02   0.01  -0.08     0.04   0.00   0.06
    33   8    -0.07   0.00   0.00    -0.04   0.05  -0.08    -0.06  -0.04   0.04
    34   8    -0.08  -0.02  -0.01    -0.10   0.01  -0.07    -0.04  -0.03   0.05
    35  77    -0.02  -0.00  -0.00     0.04   0.01   0.05     0.07   0.03  -0.04
[...]
 00400,-0.00000199,0.00000037,-0.00000280,0.00000182,0.00000128,0.00000
 185,-0.00000147,-0.00000185,0.00000042,-0.00000102,0.00000028,0.000000
 19,-0.00000011,0.00000022,0.00000150,-0.00000051,-0.00000064,0.0000009
 5,-0.00000062,0.,-0.00000036,0.00000027,0.00000033,-0.00000083,0.00000
 029,-0.00000146,-0.00000097,-0.00000065,0.00000001,-0.00000079,-0.0000
 0023,-0.00000036,0.00000038,0.00000076,-0.00000034,0.00000117,-0.00000
 022,0.00003356,-0.00002453,0.00002380,-0.00002980,0.00023750,-0.000162
 57,0.00382317,-0.00207187,0.00550204,-0.00003933,-0.00000034,0.0000039
 1,-0.00001794,0.00000562,-0.00001241,0.00029080,0.00074996,-0.00051926
 ,-0.00003461,0.00006813,0.00024378,-0.00005545,-0.00012925,-0.00005400
 ,0.00001200,-0.00003136,-0.00003718,-0.00001476,0.00000101,0.00000200,
 0.00000147,0.00002525,0.00000597,0.00001273,-0.00000331,-0.00000481,0.
 00000643,0.00000151,-0.00000415,-0.00000271,-0.00000406,-0.00000039,-0
 .00000513,-0.00000559,0.00000248,0.00000424,0.00000137,0.00000132,-0.0
 0000454,0.00000112,-0.00000392,-0.00000615,-0.00000779,-0.00000106,-0.
 00000450,-0.00000585,-0.00000262,-0.00000295,-0.00000208,0.00000256,0.
 00000261,0.00000077,-0.00000054,-0.00000229,-0.00000022,0.00000008,0.0
 0000202,-0.00000117,-0.00000100,0.00000113,0.00000120,-0.00000126,0.00
 000108,0.00000516,-0.00000117,0.00000237,-0.00000170,-0.00000060,-0.00
 000261,-0.00000038,-0.00000056,0.00002655,0.00003475,-0.00001119,-0.00
 003563,-0.00028943,0.00009430,-0.00003532,0.00005790,0.00000488,0.0000
 2124,-0.00002114,0.00000368,-0.00190497,-0.00237541,0.00142424,0.01421
 538,0.05119083,-0.00000021,0.00008397,0.00024285,0.00001910,-0.0000061
 6,0.00004087,0.00019272,-0.00012708,-0.00034560,-0.00006307,0.00055161
 ,-0.00050258,0.00728688,0.00896710,-0.03936168,0.01396198,0.00010243,0
 .00297809,0.00080460,0.00518816,0.00484125,0.00016122,0.00045213,-0.00
 080433,-0.00004005,-0.00073964,-0.00112144,-0.01167262,-0.00291289,0.0
 0173863,0.00013388,-0.00161848,-0.00193199,0.00000581,-0.00000110,0.00
 000177,-0.00000706,-0.00000534,0.00000572,-0.00000198,-0.00000171,0.00
 000014,0.00000142,-0.00000016,-0.00000023,-0.00000006,0.00000051,0.000
 00045,-0.00000053,0.00000137,-0.00000063,-0.00000006,0.00000120,-0.000
 00137,-0.00000095,0.00000070,0.00000062,0.00000094,-0.00000009,0.00000
 018,0.00000069,-0.00000166,-0.00000014,0.00000080,0.00000072,-0.000000
 59,-0.00000029,-0.00000022,0.00000049,0.00000133,0.00000068,-0.0000001
 5,-0.00000036,-0.00000113,-0.00000064,0.00000284,0.00000078,-0.0000009
 3,-0.00000061,-0.00000016,-0.00000019,0.00000190,-0.00000062,-0.000000
 96,-0.00000008,-0.00000023,0.00000041,-0.00005371,-0.00001112,0.000062
 47,-0.00014187,-0.00000668,-0.00009113,-0.00221434,0.00530845,0.005238
 32,0.00001134,0.00001858,-0.00001048,0.00003621,0.00000201,-0.00000421
 ,0.00022935,-0.00027229,0.00016356,-0.00006954,0.00002407,-0.00002440,
 0.00003170,-0.00002844,-0.00002461,0.00001876,-0.00001818,-0.00000793,
 -0.00000302,0.00001684,0.00002777,-0.00000144,0.00000494,-0.00000200,-
 0.00000256,-0.00000255,-0.00000504,0.00000022,-0.00000328,-0.00000485,
 0.00000284,-0.00000092,0.00000200,0.00000075,-0.00000129,-0.00000148,0
 .00000449,0.00000264,0.00000118,0.00000111,-0.00000119,-0.00000204,-0.
 00000171,-0.00000162,0.00000452,-0.00000005,0.00000133,0.00000298,0.00
 000193,-0.00000216,-0.00000058,-0.00000226,0.00000149,-0.00000212,0.00
 000019,0.00000043,-0.00000069,0.00000023,-0.00000100,-0.00000028,-0.00
 000018,0.00000091,-0.00000123,0.00000026,-0.00000148,-0.00000123,-0.00
 000007,-0.00000065,0.00000080,-0.00000020,0.00000058,-0.00000016,-0.00
 001268,0.00000178,0.00002488,-0.00004067,0.00008372,-0.00012988,0.0000
 0460,0.00001446,0.00007006,-0.00001119,-0.00001262,-0.00002230,0.00056
 496,0.00154792,0.00094757,-0.00955003,-0.01451923,0.03069075,0.0000964
 8,0.00000535,0.00000675,-0.00004293,0.00001923,-0.00001408,-0.00003368
 ,-0.00001765,-0.00000043,0.00006790,0.00003858,0.00000041,0.01156085,-
 0.01191443,0.00633506,-0.14068843,0.11287600,-0.05952615,-0.01003052,0
 .02459921,-0.01305352,-0.00634833,-0.00137727,0.00089696,0.00009727,0.
 00106741,-0.00067011,-0.00084639,-0.00298398,0.00160819,0.00066781,-0.
 00017941,0.00011567,0.00014426,0.00011796,0.00001486,0.00001800,-0.000
 01062,-0.00001490,-0.00001016,-0.00002040,-0.00000009,0.00000469,0.000
 00443,0.00000699,-0.00001534,-0.00000409,-0.00000773,0.00001100,0.0000
 1641,0.00000068,-0.00001305,-0.00000504,-0.00000717,0.00000789,0.00000
 016,0.00000068,-0.00001186,-0.00000233,0.00000292,0.00000290,0.0000013
 5,-0.00000090,-0.00000390,0.00001320,-0.00000416,-0.00000331,0.0000007
 5,-0.00000610,-0.00000468,-0.00000259,0.00000134,0.00000236,-0.0000008
 9,0.00000014,-0.00000265,-0.00000026,-0.00000098,0.00000383,-0.0000034
 6,-0.00000251,-0.00000675,-0.00000014,0.00000242,-0.00000037,0.0000031
 4,-0.00000156,0.00003140,-0.00012009,0.00015905,-0.00002246,-0.0003200
 5,0.00014376,-0.00055863,-0.00068045,0.00031778,-0.00030487,0.00013124
 ,-0.00012113,-0.00008930,0.00000953,-0.00006301,-0.00002485,0.00002492
 ,0.00005236,0.00005071,-0.00010578,-0.00005861,-0.00000730,0.00007566,
 0.00002754,-0.00003879,0.00005543,0.00002670,0.00001378,-0.00002198,-0
 .00002172,0.00000938,-0.00003306,-0.00000284,-0.00000074,0.00000292,0.
 00000420,-0.00000044,0.00000292,0.00000348,-0.00000269,0.00000333,-0.0
 0000053,-0.00000113,0.00000440,-0.00000093,-0.00000033,-0.00000134,-0.
 00000363,-0.00000145,0.00000339,0.00000325,0.00000099,-0.00000089,-0.0
 0000143,0.00000178,-0.00000014,-0.00000087,-0.00000167,0.00000341,0.00
 000078,0.00000023,-0.00000164,0.00000001,-0.00000059,-0.00000190,-0.00
 000036,-0.00000074,0.00000352,0.00000132,0.00000120,-0.00000137,-0.000
 00014,0.00000059,-0.00000232,0.00000260,-0.00000136,0.00000460,-0.0000
 0059,0.00000080,-0.00000247,0.00000021,-0.00001074,-0.00001648,0.00000
 755,-0.00001208,0.00001813,-0.00002218,-0.00000086,0.00000215,0.000000
 24,0.00000309,-0.00001001,0.00000570,-0.00003012,-0.00000569,-0.000002
 77,0.00078658,0.00040114,-0.00023137,0.14431574,0.00006713,0.00001447,
 0.00002598,-0.00001557,-0.00003881,0.00001028,-0.00000597,0.00002988,0
 .00000123,-0.00000704,-0.00007238,0.00007688,0.01488355,-0.01297446,0.
 00913044,0.11257979,-0.20929034,0.08987051,-0.00221229,0.00517693,-0.0
 0002219,-0.00074972,0.00305182,0.00281018,-0.00022944,-0.00003355,-0.0
 0032467,-0.00373184,-0.00048131,0.00464009,0.00120717,-0.00001518,0.00
 002967,-0.00004489,-0.00002421,-0.00000521,-0.00002258,0.00000248,0.00
 000791,0.00000529,0.00000530,-0.00000373,-0.00000126,-0.00000144,-0.00
 000363,0.00000536,0.00000284,0.00000265,-0.00000366,-0.00000432,0.0000
 0311,0.00000438,0.00000318,0.00000121,-0.00000238,0.00000106,0.0000007
 5,0.00000498,0.00000129,-0.00000124,-0.00000041,-0.00000274,0.00000025
 ,0.00000259,-0.00000346,0.00000061,0.00000080,-0.00000161,0.00000251,0
 .00000293,0.00000222,-0.00000039,-0.00000109,0.00000005,-0.00000111,0.
 00000317,-0.00000007,-0.00000084,-0.00000242,0.00000123,0.00000143,0.0
 0000450,0.00000028,-0.00000193,-0.00000041,-0.00000190,0.00000099,-0.0
 0009428,-0.00000187,-0.00003731,-0.00018754,-0.00055339,0.00011746,-0.
 00044081,-0.00059200,-0.00125953,0.00009679,0.00001254,0.00000518,0.00
 006958,0.00000266,0.00001279,-0.00010138,-0.00001789,-0.00017423,-0.00
 006105,0.00007115,0.00000121,0.00002281,-0.00005529,-0.00003114,0.0000
 3314,-0.00004168,-0.00001938,-0.00001277,0.00002824,0.00003091,-0.0000
 0441,0.00002309,0.00000665,-0.00000139,-0.00000303,-0.00000612,0.00000
 057,-0.00000391,-0.00000407,0.00000334,-0.00000096,0.00000114,0.000000
 22,-0.00000437,0.00000098,0.00000131,0.00000188,0.00000386,0.00000261,
 -0.00000374,-0.00000315,-0.00000113,0.00000110,0.00000358,-0.00000144,
 0.00000134,0.00000202,0.00000256,-0.00000347,-0.00000118,-0.00000120,0
 .00000214,-0.00000112,0.00000071,0.00000138,-0.00000028,0.00000040,-0.
 00000295,-0.00000079,-0.00000085,0.00000141,-0.00000069,-0.00000049,0.
 00000238,-0.00000285,0.00000133,-0.00000395,0.00000036,-0.00000055,0.0
 0000184,-0.00000027,-0.00001774,-0.00002304,0.00002726,0.00003201,0.00
 000527,0.00007318,-0.00000523,-0.00000878,-0.00000203,-0.00001545,-0.0
 0001889,0.00001039,0.00000119,-0.00000561,-0.00001877,0.00006883,0.000
 00443,-0.00210738,-0.12136589,0.21632827,-0.00004300,0.00001461,0.0000
 1528,-0.00001282,0.00001205,-0.00002462,0.00000967,-0.00002286,0.00005
 271,-0.00001334,0.00006290,0.00000062,-0.00805420,0.00902665,-0.000468
 56,-0.05913090,0.08988778,-0.08768879,0.00116561,-0.00012113,0.0051622
 9,0.00054125,0.00290822,0.00676308,0.00008720,-0.00033555,-0.00043388,
 0.00184277,0.00478802,0.00580280,-0.00068956,-0.00005511,-0.00008687,0
 .00001440,0.00001726,0.00000713,0.00001161,0.00001389,-0.00000313,0.00
 000240,-0.00000946,-0.00000062,0.00000142,0.00000506,-0.00000142,-0.00
 000395,-0.00000007,-0.00000064,0.00000023,0.00000312,0.00000282,-0.000
 00117,-0.00000478,0.00000005,0.00000115,0.00000278,0.00000106,-0.00000
 300,0.00000003,-0.00000064,0.00000198,-0.00000189,-0.00000106,-0.00000
 251,0.00000002,0.00000206,-0.00000009,0.00000091,-0.00000035,-0.000001
 76,-0.00000053,-0.00000016,0.00000136,-0.00000121,-0.00000088,-0.00000
 304,-0.00000267,0.00000050,0.00000158,-0.00000063,-0.00000200,-0.00000
 175,0.00000036,0.00000143,0.00000100,0.00000043,-0.00000034,0.00005211
 ,-0.00000852,-0.00000538,0.00008440,0.00013973,-0.00031525,0.00040935,
 -0.00114666,-0.00229851,-0.00001875,-0.00000712,0.00000317,-0.00004127
 ,-0.00001290,-0.00002404,0.00000961,-0.00027710,-0.00022051,-0.0000243
 4,-0.00004425,-0.00007025,-0.00001160,0.00002914,0.00001222,-0.0000353
 7,0.00003913,0.00002263,0.00001175,-0.00001416,-0.00000193,0.00000755,
 -0.00001945,0.00001083,-0.00000197,0.00000185,0.00000057,0.00000064,0.
 00000123,0.00000027,-0.00000058,0.00000370,-0.00000032,-0.00000111,0.0
 0000029,-0.00000087,0.00000206,0.00000062,-0.00000099,-0.00000105,0.00
 000143,0.00000194,-0.00000099,-0.00000245,-0.00000040,0.00000025,-0.00
 000108,-0.00000037,-0.00000124,0.00000139,0.00000097,0.00000027,-0.000
 00026,-0.00000135,-0.00000153,-0.00000081,0.00000010,-0.00000087,0.000
 00181,0.00000122,0.00000065,-0.00000015,-0.00000133,0.00000150,-0.0000
 0003,0.00000103,-0.00000063,0.00000200,-0.00000056,-0.00000125,-0.0000
 0080,0.00000030,0.00000898,0.00002963,0.00001227,0.00005069,0.00011380
 ,0.00010499,0.00000270,-0.00000052,-0.00000871,0.00000781,0.00001210,-
 0.00000054,0.00000766,-0.00002448,-0.00001722,-0.00006428,-0.00210363,
 -0.00285587,0.06399826,-0.10110862,0.07939046,-0.00000546,-0.00002827,
 0.00002052,0.00001905,-0.00001587,0.00001210,0.00006442,0.00002252,-0.
 00000426,-0.00009804,0.00000036,-0.00001393,-0.00536519,0.00099577,-0.
 00042244,-0.00907848,-0.02498328,0.01357590,-0.12763871,-0.10740177,0.
 05872902,0.01249239,0.01264622,-0.00682075,0.00026698,-0.00039817,0.00
 022636,-0.00152002,0.00081549,-0.00048302,0.00018049,-0.00000044,-0.00
 001344,-0.00000798,0.00001257,0.00002768,-0.00000588,0.00001842,-0.000
 02813,-0.00004223,0.00007246,-0.00007232,0.00000746,-0.00001190,0.0000
 1254,0.00001786,-0.00001712,0.00001487,0.00002776,-0.00006392,0.000037
 80,-0.00001091,0.00002524,-0.00002567,-0.00000828,-0.00001411,0.000019
 74,0.00000883,-0.00000645,0.00001011,0.00000286,-0.00000761,-0.0000000
 4,-0.00000017,-0.00000999,0.00000548,0.00000412,-0.00000620,0.00000454
 ,-0.00000257,0.00000211,-0.00000188,-0.00000064,0.00000156,-0.00000641
 ,0.00000174,-0.00000967,0.00001107,0.00000056,0.00000521,-0.00000213,-
 0.00000092,0.00000136,-0.00000209,0.00000328,-0.00000809,0.00000382,0.
 00010557,0.00007519,-0.00005634,-0.00002496,-0.00000280,0.00002003,-0.
 00068453,0.00396154,-0.00218442,-0.00004271,-0.00012042,0.00008754,-0.
 00000058,-0.00003949,0.00003960,0.00033634,-0.00027783,0.00005057,-0.0
 0003907,0.00006604,-0.00002679,0.00000679,-0.00002093,-0.00000148,-0.0
 0000150,-0.00002003,0.00000890,0.00000058,0.00000817,0.00001113,-0.000
 00311,0.00001263,0.00000131,-0.00000285,-0.00000056,-0.00000134,-0.000
 00150,-0.00000168,-0.00000172,0.00000292,-0.00000049,0.00000025,0.0000
 0346,-0.00000040,-0.00000112,0.00000131,0.00000040,0.00000164,0.000001
 57,-0.00000120,-0.00000066,-0.00000103,0.00000062,0.00000118,-0.000001
 18,0.00000031,0.00000084,0.00000143,-0.00000103,-0.00000045,-0.0000000
 2,0.00000077,-0.00000023,-0.00000182,0.00000205,-0.00000021,-0.0000005
 8,-0.00000258,0.00000004,0.00000044,0.00000139,0.00000052,-0.00000003,
 -0.00000041,-0.00000027,-0.00000026,-0.00000266,0.00000025,-0.00000175
 ,0.00000254,-0.00000015,-0.00000322,-0.00000349,0.00000210,-0.00007330
 ,0.00012391,-0.00003304,0.00000625,-0.00000696,0.00000262,-0.00000292,
 -0.00000097,-0.00000024,0.00007439,0.00000741,0.00001093,-0.00047629,-
 0.00123534,0.00063975,0.00127202,0.00023552,-0.00017194,0.13023779,0.0
 0000809,0.00003612,-0.00001151,-0.00001576,-0.00000269,-0.00001100,-0.
 00002753,-0.00001820,-0.00001793,0.00002436,-0.00003391,0.00004070,0.0
 0057434,0.00283804,0.00241931,0.00210292,0.00385189,-0.00068541,-0.107
 05919,-0.21906906,0.10022152,-0.01503328,-0.01247010,0.00708593,-0.000
 04205,-0.00024748,-0.00162509,0.00150085,0.00008668,-0.00021487,-0.000
 09075,-0.00029395,-0.00059596,-0.00004129,-0.00009068,0.00000339,-0.00
 003607,-0.00003654,0.00005520,0.00003128,-0.00004860,0.00003797,-0.000
 00018,-0.00000171,-0.00000959,-0.00001491,0.00002125,-0.00000845,0.000
 02221,0.00003376,0.00000135,0.00001943,-0.00002711,0.00003205,0.000011
 94,0.00003399,-0.00001877,-0.00000473,0.00001081,-0.00002044,0.0000020
 4,-0.00000430,0.00000354,0.00000806,0.00000631,-0.00000909,-0.00000450
 ,0.00000485,-0.00000206,0.00001058,0.00000225,0.00000276,-0.00000141,-
 0.00000234,0.00000555,0.00000813,0.00001336,-0.00001267,-0.00000691,-0
 .00000769,0.00000736,0.00001256,-0.00000189,-0.00000181,-0.00000630,0.
 00000671,-0.00000578,-0.00042216,-0.00017646,0.00009156,0.00001262,-0.
 00004540,0.00001397,0.00279791,-0.00105101,0.00537336,0.00027156,0.000
 24900,-0.00015618,0.00016511,0.00008635,-0.00004364,-0.00050630,0.0000
 3824,-0.00034879,-0.00007426,0.00018421,0.00022817,0.00002246,-0.00014
 230,-0.00007585,0.00010926,-0.00009736,-0.00009648,-0.00003453,0.00004
 634,0.00004570,-0.00001134,0.00004943,0.00000620,0.00000287,-0.0000121
 2,-0.00000762,0.00000364,-0.00000549,-0.00000854,0.00000328,-0.0000074
 4,0.00000467,-0.00000425,-0.00001008,0.00000286,-0.00000010,0.00000368
 ,0.00000595,0.00000147,-0.00000554,-0.00000744,-0.00000019,0.00000216,
 0.00000230,-0.00000168,0.00000070,0.00000179,0.00000212,-0.00000699,-0
 .00000095,-0.00000135,0.00000367,-0.00000128,0.00000523,0.00000010,0.0
 0000079,0.00000305,-0.00000259,-0.00000429,-0.00000410,-0.00000049,-0.
 00000325,-0.00000056,0.00000523,-0.00000702,0.00000369,-0.00000540,0.0
 0000104,0.00000122,0.00000080,0.00000010,0.00000312,0.00000272,0.00000
 291,0.00018648,-0.00008773,0.00012706,-0.00000650,0.00000435,0.0000181
 0,-0.00000579,-0.00000593,0.00000033,-0.00000302,0.00002826,0.00002894
 ,0.00022061,0.00018308,0.00002723,-0.00029579,-0.00049153,-0.00179307,
 0.11560434,0.22667573,-0.00000415,-0.00001967,0.00002486,0.00000968,0.
 00000418,-0.00001627,0.00000453,-0.00001362,-0.00003156,0.00001775,0.0
 0002439,0.00003549,-0.00022911,0.00233715,0.00603394,-0.00112559,-0.00
 049574,0.00290795,0.05873196,0.10002229,-0.09002993,0.00802765,0.00736
 734,-0.00328722,-0.00002548,-0.00167661,-0.00236280,-0.00074106,-0.000
 27169,-0.00016687,0.00005694,-0.00062123,-0.00110706,0.00005298,0.0001
 0749,0.00009876,0.00002933,0.00002272,-0.00003659,-0.00001819,0.000038
 19,-0.00009292,0.00000215,0.00001690,-0.00001681,0.00001758,-0.0000257
 5,0.00001078,-0.00002204,-0.00003270,0.00007103,-0.00001096,-0.0000197
 0,-0.00001733,-0.00000170,0.00000639,0.00001954,-0.00000528,-0.0000007
 5,0.00000256,0.00001056,-0.00001317,-0.00000905,-0.00000573,-0.0000039
 4,0.00000730,0.00000420,-0.00000722,0.00000122,-0.00000677,0.00000072,
 -0.00000085,0.00000211,-0.00000058,-0.00001295,-0.00000572,-0.00001622
 ,0.00001716,0.00000270,0.00000077,-0.00000686,-0.00000355,0.00000119,0
 .00000084,0.00000633,-0.00000781,0.00000149,0.00017065,0.00006811,-0.0
 0006686,-0.00006182,0.00009862,-0.00002983,-0.00162023,0.00522659,0.00
 542399,-0.00013290,-0.00008023,0.00005925,-0.00008219,-0.00005165,-0.0
 0000161,0.00025687,-0.00036306,0.00012490,0.00000773,-0.00009655,-0.00
 016393,-0.00000481,0.00004702,0.00001840,-0.00005672,0.00003525,0.0000
 3923,0.00002099,-0.00002133,-0.00000022,0.00000778,-0.00002281,0.00000
 885,-0.00000604,0.00000312,0.00000256,-0.00000079,0.00000086,-0.000000
 54,0.00000231,0.00000398,0.00000052,0.00000280,0.00000208,-0.00000291,
 0.00000244,0.00000133,-0.00000067,-0.00000040,0.00000187,0.00000313,-0
 .00000150,-0.00000190,-0.00000045,-0.00000002,-0.00000093,-0.00000004,
 -0.00000085,0.00000184,0.00000116,0.00000052,-0.00000042,-0.00000172,-
 0.00000342,0.00000025,0.00000029,-0.00000158,0.00000115,0.00000140,0.0
 0000079,0.00000016,-0.00000127,0.00000173,-0.00000124,0.00000199,-0.00
 000171,0.00000193,-0.00000049,-0.00000285,0.00000070,0.00000058,0.,0.0
 0000302,0.00000116,-0.00001903,0.00019366,0.00000270,-0.00000124,0.000
 01726,0.00002946,0.00000346,-0.00000115,-0.00000453,-0.00001691,0.0000
 2735,0.00005617,-0.00011495,0.00004636,0.00017765,0.00009465,-0.001769
 80,-0.00283650,-0.06321385,-0.11009480,0.08512030\\-0.00000435,-0.0000
 0344,0.00000133,0.00000786,-0.00000020,0.00000098,-0.00001096,0.000009
 00,-0.00000417,0.00000080,-0.00000058,-0.00000007,-0.00000554,0.000008
 34,-0.00000457,-0.00000424,0.00000369,-0.00000223,0.00000674,0.0000027
 4,-0.00000123,0.00000723,0.00000098,0.00000052,-0.00000128,0.00000021,
 0.00000008,0.00000017,-0.00000810,0.00000517,0.00000283,0.00000874,-0.
 00000410,-0.00000213,-0.00000070,0.00000405,-0.00000225,0.00000357,0.0
 0000316,-0.00000590,-0.00000444,-0.00000123,0.00000342,-0.00000075,-0.
 00000231,0.00000699,0.00000053,0.00000252,0.00000264,-0.00000200,0.000
 00087,0.00000652,-0.00000197,0.00000233,0.,0.00000025,-0.00000088,0.00
 000037,-0.00000215,-0.00000034,0.00000088,-0.00000281,-0.00000054,0.00
 000217,-0.00000417,0.00000070,-0.00000024,-0.00000023,-0.00000007,0.00
 000184,-0.00000145,0.00000072,0.00000076,-0.00000150,0.00000093,0.0000
 0088,-0.00000654,-0.00000476,0.00000123,-0.00000046,0.00000144,0.00000
 036,-0.00000177,0.00000042,-0.00000107,-0.00000060,0.00000144,0.000006
 33,0.00000119,-0.00000076,0.00000209,0.00000274,0.00000064,0.00000151,
 -0.00000010,0.00000049,-0.00000106,-0.00000122,0.00000023,-0.00000242,
 -0.00000090,-0.00000088,-0.00000100,-0.00000547,-0.00000206,0.00000475
 ,0.00000358,-0.00000238,-0.00000072,-0.00000051,-0.00000004,-0.0000068
 0,-0.00000210,0.00000135,-0.00000639,0.00000057,-0.00000085,0.00000245
 ,0.00000349,0.,-0.00000151,0.00000405,0.00000401,0.00000317,-0.0000020
 4,0.00000445,-0.00000137,-0.00000399,0.00000429,-0.00000706,-0.0000077
 6,0.00000384,-0.00000143,-0.00000086,0.00000010,-0.00000019,-0.0000027
 8,-0.00000276,0.00000005,0.00000144,-0.00000063,-0.00000515,0.00000060
 ,-0.00000039,-0.00000283,0.00000109,0.00000024,-0.00000351,-0.00000003
 ,-0.00000385,-0.00000127,-0.00000155,-0.00000014,-0.00000180,0.0000006
 4,0.00000003,-0.00000167,0.00000093,-0.00000223,-0.00000032,-0.0000013
 8,-0.00000231,-0.00000226,0.00000084,0.00000031,0.00000339,0.00000287,
 -0.00000035,-0.00000211,0.00000158,-0.00000013,0.00000047,0.00000117,0
 .00000046,-0.00000123,0.00000142,-0.00000047,0.00000375,0.00000289,-0.
 00000028,0.00000019,0.00000313,-0.00000028,0.00000287,0.00000222,-0.00
 000038,0.00000341,-0.00000084,0.00000131,0.00000195,0.00000090,-0.0000
 0076\\\@
 The archive entry for this job was punched.


 THE REASON MAN'S BEST FRIEND IS A DOG IS BECAUSE
 HE WAGS HIS TAIL INSTEAD OF HIS TONGUE.
 Job cpu time:       0 days  7 hours 47 minutes  2.5 seconds.
 Elapsed time:       0 days  0 hours 29 minutes 48.8 seconds.
 File lengths (MBytes):  RWF=   1876 Int=      0 D2E=      0 Chk=     19 Scr=      1
 Normal termination of Gaussian 16 at Sat Dec  7 22:10:42 2024.
