/mnt/lustre/scratch/nvme/SLURM/9663624/usccqdma.7RgOyNTKw1
OMP_STACKSIZE=0m
GAUSS_PDEF=16
GAUSS_MDEF=65536MB
GAUSS_RDEF=SCF=Direct
 Entering Gaussian System, Link 0=g16.exe
 Initial command:
 /opt/cesga/2020/software/Core/g16/c1/l1.exe "/mnt/lustre/scratch/nvme/SLURM/9663624/usccqdma.7RgOyNTKw1/Gau-3456323.inp" -scrdir="/mnt/lustre/scratch/nvme/SLURM/9663624/usccqdma.7RgOyNTKw1/"
 Default is to use a total of  16 processors:
                               16 via shared-memory
                                1 via Linda
 Entering Link 1 = /opt/cesga/2020/software/Core/g16/c1/l1.exe PID=   3456349.
  
 Copyright (c) 1988-2019, Gaussian, Inc.  All Rights Reserved.
  
 This is part of the Gaussian(R) 16 program.  It is based on
 the Gaussian(R) 09 system (copyright 2009, Gaussian, Inc.),
 the Gaussian(R) 03 system (copyright 2003, Gaussian, Inc.),
 the Gaussian(R) 98 system (copyright 1998, Gaussian, Inc.),
 the Gaussian(R) 94 system (copyright 1995, Gaussian, Inc.),
 the Gaussian 92(TM) system (copyright 1992, Gaussian, Inc.),
 the Gaussian 90(TM) system (copyright 1990, Gaussian, Inc.),
 the Gaussian 88(TM) system (copyright 1988, Gaussian, Inc.),
 the Gaussian 86(TM) system (copyright 1986, Carnegie Mellon
 University), and the Gaussian 82(TM) system (copyright 1983,
 Carnegie Mellon University). Gaussian is a federally registered
 trademark of Gaussian, Inc.
  
 This software contains proprietary and confidential information,
 including trade secrets, belonging to Gaussian, Inc.
  
 This software is provided under written license and may be
 used, copied, transmitted, or stored only in accord with that
 written license.
  
 The following legend is applicable only to US Government
 contracts under FAR:
  
                    RESTRICTED RIGHTS LEGEND
  
 Use, reproduction and disclosure by the US Government is
 subject to restrictions as set forth in subparagraphs (a)
 and (c) of the Commercial Computer Software - Restricted
 Rights clause in FAR 52.227-19.
  
 Gaussian, Inc.
 340 Quinnipiac St., Bldg. 40, Wallingford CT 06492
  
  
 ---------------------------------------------------------------
 Warning -- This program may not be used in any manner that
 competes with the business of Gaussian, Inc. or will provide
 assistance to any competitor of Gaussian, Inc.  The licensee
 of this program is prohibited from giving any competitor of
 Gaussian, Inc. access to this program.  By using this program,
 the user acknowledges that Gaussian, Inc. is engaged in the
 business of creating and licensing software in the field of
 computational chemistry and represents and warrants to the
 licensee that it is not a competitor of Gaussian, Inc. and that
 it will not use this program in any manner prohibited above.
 ---------------------------------------------------------------
  

 Cite this work as:
 Gaussian 16, Revision C.01,
 M. J. Frisch, G. W. Trucks, H. B. Schlegel, G. E. Scuseria, 
 M. A. Robb, J. R. Cheeseman, G. Scalmani, V. Barone, 
 G. A. Petersson, H. Nakatsuji, X. Li, M. Caricato, A. V. Marenich, 
 J. Bloino, B. G. Janesko, R. Gomperts, B. Mennucci, H. P. Hratchian, 
 J. V. Ortiz, A. F. Izmaylov, J. L. Sonnenberg, D. Williams-Young, 
 F. Ding, F. Lipparini, F. Egidi, J. Goings, B. Peng, A. Petrone, 
 T. Henderson, D. Ranasinghe, V. G. Zakrzewski, J. Gao, N. Rega, 
 G. Zheng, W. Liang, M. Hada, M. Ehara, K. Toyota, R. Fukuda, 
 J. Hasegawa, M. Ishida, T. Nakajima, Y. Honda, O. Kitao, H. Nakai, 
 T. Vreven, K. Throssell, J. A. Montgomery, Jr., J. E. Peralta, 
 F. Ogliaro, M. J. Bearpark, J. J. Heyd, E. N. Brothers, K. N. Kudin, 
 V. N. Staroverov, T. A. Keith, R. Kobayashi, J. Normand, 
 K. Raghavachari, A. P. Rendell, J. C. Burant, S. S. Iyengar, 
 J. Tomasi, M. Cossi, J. M. Millam, M. Klene, C. Adamo, R. Cammi, 
 J. W. Ochterski, R. L. Martin, K. Morokuma, O. Farkas, 
 J. B. Foresman, and D. J. Fox, Gaussian, Inc., Wallingford CT, 2019.
 
 ******************************************
 Gaussian 16:  ES64L-G16RevC.01  3-Jul-2019
                 7-Dec-2024 
 ******************************************
 Default route: SCF=Direct
 ----------------------------------------------------
 # m06/genecp scf=tight int=ultrafine 5d freq=noraman
 ----------------------------------------------------
 1/10=4,30=1,38=1/1,3;
 2/12=2,17=6,18=5,40=1/2;
 3/5=7,8=1,11=2,16=1,17=8,25=1,30=1,71=2,74=-54,75=-5,140=1/1,2,3;
 4//1;
 5/5=2,32=2,38=5,98=1/2;
 8/6=4,10=90,11=11/1;
 11/6=1,8=1,9=11,15=111,16=1/1,2,10;
 10/6=1/2;
 6/7=2,8=2,9=2,10=2,28=1/1;
 7/8=1,10=1,25=1/1,2,3,16;
 1/10=4,30=1/3;
 99//99;
 ------
 OPT-TS
 ------
 Symbolic Z-matrix:
 Charge =  0 Multiplicity = 1
 C                     1.79462  -0.20864   1.6985 
 C                     2.84068   0.8874   -0.04512 
 C                     3.96316   1.13877   0.72662 
 C                     3.99596   0.67969   2.04393 
 C                     2.89449   0.00221   2.53562 
 C                     0.53405  -0.79075   2.1855 
 C                    -1.76825  -0.77308   1.96746 
 C                    -1.9192   -1.56602   3.09768 
 C                    -0.78944  -2.01654   3.7699 
 C                     0.45432  -1.60072   3.31682 
 H                     2.76077   1.24322  -1.07167 
 H                     4.8641    0.87394   2.67197 
 H                     2.86741  -0.32259   3.57323 
 H                    -2.62344  -0.38741   1.408 
 H                    -0.88251  -2.6664    4.63654 
 H                     1.35997  -1.92118   3.82759 
 N                     1.78399   0.21935   0.42265 
 N                    -0.57006  -0.42968   1.49045 
 O                    -3.17143   0.98619  -0.13532 
 O                     1.01642  -3.88619  -2.1075 
 O                    -0.92281   3.31529  -0.80606 
 B                     1.27322  -2.58926  -1.61235 
 B                    -2.16023   0.74179  -1.08549 
 B                    -0.29901   2.27346  -0.12501 
 O                     0.41339   2.78393   0.97216 
 O                    -2.70858   0.80982  -2.3617 
 C                    -4.03034   1.35138  -2.26804 
 C                    -4.43663   0.99633  -0.8081 
 C                    -0.82812   4.4923    0.00327 
 C                     0.451     4.20961   0.84091 
 C                    -0.21524  -4.32082  -1.5446 
 C                    -1.00139  -2.98591  -1.41194 
 O                     0.05308  -2.07074  -1.04638 
 C                    -5.34689   2.00157  -0.13093 
 H                    -5.57524   1.66625   0.8896 
 H                    -4.87401   2.98777  -0.06345 
 H                    -6.29701   2.10297  -0.67543 
 C                    -5.0302   -0.40194  -0.67692 
 H                    -5.06546  -0.67635   0.38759 
 H                    -6.05211  -0.45674  -1.07621 
 H                    -4.41525  -1.14725  -1.20029 
 C                    -3.9179    2.85163  -2.51007 
 H                    -3.25838   3.31896  -1.76698 
 H                    -3.4616    3.0106   -3.49516 
 H                    -4.89919   3.34613  -2.49766 
 C                    -4.89938   0.72046  -3.33915 
 H                    -5.94501   1.04783  -3.24231 
 H                    -4.53937   1.02441  -4.33021 
 H                    -4.86786  -0.37449  -3.29432 
 C                    -0.84609  -5.33436  -2.48026 
 H                    -1.85465  -5.61306  -2.14307 
 H                    -0.91085  -4.94714  -3.50273 
 H                    -0.23326  -6.24508  -2.50274 
 C                     0.06068  -4.97681  -0.19288 
 H                     0.43672  -4.25106   0.53975 
 H                    -0.83701  -5.4584    0.2188 
 H                     0.83113  -5.74609  -0.33322 
 C                    -1.5952   -2.51729  -2.73345 
 H                    -2.45433  -3.13523  -3.0309 
 H                    -1.93222  -1.47632  -2.6395 
 H                    -0.84494  -2.55528  -3.53501 
 C                    -2.06536  -2.99939  -0.33547 
 H                    -2.56376  -2.02205  -0.2898 
 H                    -2.83144  -3.75631  -0.55809 
 H                    -1.64428  -3.21463   0.65458 
 C                     1.73839   4.55424   0.09872 
 H                     1.73659   4.12617  -0.91337 
 H                     1.89645   5.63839   0.01945 
 H                     2.58826   4.1245    0.64863 
 C                     0.4654    4.84029   2.21875 
 H                     0.39761   5.93579   2.15024 
 H                    -0.3633    4.47569   2.8356 
 H                     1.40359   4.59137   2.73217 
 C                    -2.09191   4.55631   0.85341 
 H                    -2.96385   4.57777   0.18577 
 H                    -2.1856    3.66746   1.49169 
 H                    -2.1238    5.45615   1.48274 
 C                    -0.74866   5.70777  -0.89846 
 H                     0.06669   5.61967  -1.62475 
 H                    -1.68634   5.8109   -1.46041 
 H                    -0.60139   6.62546  -0.31038 
 H                     0.03413   0.77597  -2.06639 
 C                     3.46805  -2.23551  -0.71361 
 O                     2.36145  -2.7301   -0.35326 
 C                     4.68233  -2.38462   0.15333 
 H                     5.47134  -2.86663  -0.44396 
 H                     5.06915  -1.38229   0.3947 
 C                     2.19601  -1.65264  -2.56551 
 H                     1.8024   -0.63191  -2.68769 
 H                     2.3413   -2.09845  -3.55979 
 N                     3.49377  -1.60065  -1.87983 
 C                     4.63867  -0.96214  -2.48548 
 H                     4.35365   0.0426   -2.82492 
 H                     5.46602  -0.86155  -1.77621 
 H                     4.98082  -1.53275  -3.35965 
 C                     4.40682  -3.17859   1.41736 
 H                     3.62002  -2.70192   2.01486 
 H                     4.06442  -4.19184   1.18103 
 C                     5.15435   1.83771   0.15959 
 F                     6.19192   0.98268   0.04763 
 F                     4.92163   2.33729  -1.05413 
 F                     5.56189   2.83349   0.94879 
 C                    -3.30382  -1.99002   3.47582 
 F                    -3.77831  -2.89008   2.60515 
 F                    -3.33977  -2.54603   4.69044 
 F                    -4.15137  -0.95762   3.46845 
 Ir                   -0.26465   0.32796  -0.54555 
 H                     5.31347  -3.24983   2.02838 
 

 GradGradGradGradGradGradGradGradGradGradGradGradGradGradGradGradGradGrad
 Berny optimization.
 Initialization pass.
 Trust Radius=3.00D-01 FncErr=1.00D-07 GrdErr=1.00D-07 EigMax=2.50D+02 EigMin=1.00D-04
 Number of steps in this run=      2 maximum allowed number of steps=      2.
 GradGradGradGradGradGradGradGradGradGradGradGradGradGradGradGradGradGrad

 Stoichiometry    C35H53B3F6IrN3O7
 Framework group  C1[X(C35H53B3F6IrN3O7)]
 Deg. of freedom   318
 Full point group                 C1      NOp   1
 Largest Abelian subgroup         C1      NOp   1
 Largest concise Abelian subgroup C1      NOp   1
                         Standard orientation:                         
 ---------------------------------------------------------------------
 Center     Atomic      Atomic             Coordinates (Angstroms)
 Number     Number       Type             X           Y           Z
 ---------------------------------------------------------------------
      1          6           0        1.794620   -0.208641    1.698501
      2          6           0        2.840680    0.887398   -0.045119
      3          6           0        3.963160    1.138768    0.726621
      4          6           0        3.995960    0.679688    2.043931
      5          6           0        2.894490    0.002208    2.535621
      6          6           0        0.534049   -0.790751    2.185501
      7          6           0       -1.768251   -0.773080    1.967461
      8          6           0       -1.919201   -1.566020    3.097681
      9          6           0       -0.789441   -2.016540    3.769901
     10          6           0        0.454319   -1.600721    3.316821
     11          1           0        2.760770    1.243218   -1.071669
     12          1           0        4.864100    0.873937    2.671971
     13          1           0        2.867410   -0.322592    3.573231
     14          1           0       -2.623440   -0.387409    1.408001
     15          1           0       -0.882511   -2.666400    4.636541
     16          1           0        1.359969   -1.921181    3.827591
     17          7           0        1.783990    0.219349    0.422651
     18          7           0       -0.570060   -0.429680    1.490451
     19          8           0       -3.171430    0.986191   -0.135319
     20          8           0        1.016418   -3.886191   -2.107499
     21          8           0       -0.922809    3.315290   -0.806059
     22          5           0        1.273219   -2.589261   -1.612349
     23          5           0       -2.160230    0.741791   -1.085489
     24          5           0       -0.299009    2.273460   -0.125009
     25          8           0        0.413391    2.783929    0.972161
     26          8           0       -2.708580    0.809821   -2.361699
     27          6           0       -4.030340    1.351381   -2.268039
     28          6           0       -4.436630    0.996332   -0.808099
     29          6           0       -0.828118    4.492300    0.003271
     30          6           0        0.451002    4.209609    0.840911
     31          6           0       -0.215242   -4.320820   -1.544599
     32          6           0       -1.001392   -2.985910   -1.411939
     33          8           0        0.053079   -2.070740   -1.046379
     34          6           0       -5.346889    2.001572   -0.130929
     35          1           0       -5.575240    1.666252    0.889601
     36          1           0       -4.874009    2.987772   -0.063449
     37          1           0       -6.297009    2.102972   -0.675429
     38          6           0       -5.030200   -0.401938   -0.676919
     39          1           0       -5.065461   -0.676348    0.387591
     40          1           0       -6.052110   -0.456738   -1.076209
     41          1           0       -4.415251   -1.147249   -1.200289
     42          6           0       -3.917899    2.851631   -2.510069
     43          1           0       -3.258379    3.318961   -1.766979
     44          1           0       -3.461599    3.010601   -3.495159
     45          1           0       -4.899189    3.346132   -2.497659
     46          6           0       -4.899380    0.720462   -3.339149
     47          1           0       -5.945010    1.047832   -3.242309
     48          1           0       -4.539370    1.024412   -4.330209
     49          1           0       -4.867860   -0.374488   -3.294319
     50          6           0       -0.846093   -5.334360   -2.480259
     51          1           0       -1.854653   -5.613060   -2.143069
     52          1           0       -0.910852   -4.947140   -3.502729
     53          1           0       -0.233263   -6.245080   -2.502739
     54          6           0        0.060678   -4.976810   -0.192879
     55          1           0        0.436718   -4.251061    0.539751
     56          1           0       -0.837013   -5.458400    0.218801
     57          1           0        0.831127   -5.746091   -0.333219
     58          6           0       -1.595201   -2.517290   -2.733449
     59          1           0       -2.454332   -3.135229   -3.030899
     60          1           0       -1.932221   -1.476320   -2.639499
     61          1           0       -0.844941   -2.555280   -3.535009
     62          6           0       -2.065362   -2.999390   -0.335469
     63          1           0       -2.563761   -2.022049   -0.289799
     64          1           0       -2.831442   -3.756309   -0.558089
     65          1           0       -1.644282   -3.214630    0.654581
     66          6           0        1.738392    4.554239    0.098721
     67          1           0        1.736592    4.126169   -0.913369
     68          1           0        1.896452    5.638389    0.019451
     69          1           0        2.588262    4.124498    0.648631
     70          6           0        0.465402    4.840289    2.218751
     71          1           0        0.397612    5.935789    2.150241
     72          1           0       -0.363298    4.475690    2.835601
     73          1           0        1.403592    4.591369    2.732171
     74          6           0       -2.091908    4.556310    0.853411
     75          1           0       -2.963848    4.577771    0.185771
     76          1           0       -2.185599    3.667461    1.491691
     77          1           0       -2.123798    5.456151    1.482741
     78          6           0       -0.748658    5.707770   -0.898459
     79          1           0        0.066692    5.619670   -1.624749
     80          1           0       -1.686338    5.810900   -1.460409
     81          1           0       -0.601387    6.625460   -0.310379
     82          1           0        0.034130    0.775970   -2.066389
     83          6           0        3.468049   -2.235512   -0.713609
     84          8           0        2.361449   -2.730101   -0.353259
     85          6           0        4.682329   -2.384622    0.153331
     86          1           0        5.471338   -2.866633   -0.443959
     87          1           0        5.069149   -1.382293    0.394701
     88          6           0        2.196009   -1.652641   -2.565509
     89          1           0        1.802399   -0.631911   -2.687689
     90          1           0        2.341299   -2.098451   -3.559789
     91          7           0        3.493769   -1.600652   -1.879829
     92          6           0        4.638669   -0.962142   -2.485479
     93          1           0        4.353650    0.042598   -2.824919
     94          1           0        5.466019   -0.861553   -1.776209
     95          1           0        4.980819   -1.532753   -3.359649
     96          6           0        4.406818   -3.178592    1.417361
     97          1           0        3.620019   -2.701922    2.014861
     98          1           0        4.064418   -4.191842    1.181031
     99          6           0        5.154351    1.837707    0.159591
    100          9           0        6.191920    0.982677    0.047631
    101          9           0        4.921631    2.337287   -1.054129
    102          9           0        5.561891    2.833487    0.948791
    103          6           0       -3.303821   -1.990019    3.475821
    104          9           0       -3.778312   -2.890079    2.605151
    105          9           0       -3.339771   -2.546029    4.690441
    106          9           0       -4.151371   -0.957619    3.468451
    107         77           0       -0.264650    0.327960   -0.545549
    108          1           0        5.313468   -3.249833    2.028381
 ---------------------------------------------------------------------
 Rotational constants (GHZ):           0.0577555           0.0464540           0.0374650
 General basis read from cards:  (5D, 7F)
 ======================================================================================================
                                       Pseudopotential Parameters
 ======================================================================================================
  Center     Atomic      Valence      Angular      Power
  Number     Number     Electrons     Momentum     of R      Exponent        Coefficient   SO-Coeffient
 ======================================================================================================
    1          6
                                   No pseudopotential on this center.
    2          6
                                   No pseudopotential on this center.
    3          6
                                   No pseudopotential on this center.
    4          6
                                   No pseudopotential on this center.
    5          6
                                   No pseudopotential on this center.
    6          6
                                   No pseudopotential on this center.
    7          6
                                   No pseudopotential on this center.
    8          6
                                   No pseudopotential on this center.
    9          6
                                   No pseudopotential on this center.
   10          6
                                   No pseudopotential on this center.
   11          1
                                   No pseudopotential on this center.
   12          1
                                   No pseudopotential on this center.
   13          1
                                   No pseudopotential on this center.
   14          1
                                   No pseudopotential on this center.
   15          1
                                   No pseudopotential on this center.
   16          1
                                   No pseudopotential on this center.
   17          7
                                   No pseudopotential on this center.
   18          7
                                   No pseudopotential on this center.
   19          8
                                   No pseudopotential on this center.
   20          8
                                   No pseudopotential on this center.
   21          8
                                   No pseudopotential on this center.
   22          5
                                   No pseudopotential on this center.
   23          5
                                   No pseudopotential on this center.
   24          5
                                   No pseudopotential on this center.
   25          8
                                   No pseudopotential on this center.
   26          8
                                   No pseudopotential on this center.
   27          6
                                   No pseudopotential on this center.
   28          6
                                   No pseudopotential on this center.
   29          6
                                   No pseudopotential on this center.
   30          6
                                   No pseudopotential on this center.
   31          6
                                   No pseudopotential on this center.
   32          6
                                   No pseudopotential on this center.
   33          8
                                   No pseudopotential on this center.
   34          6
                                   No pseudopotential on this center.
   35          1
                                   No pseudopotential on this center.
   36          1
                                   No pseudopotential on this center.
   37          1
                                   No pseudopotential on this center.
   38          6
                                   No pseudopotential on this center.
   39          1
                                   No pseudopotential on this center.
   40          1
                                   No pseudopotential on this center.
   41          1
                                   No pseudopotential on this center.
   42          6
                                   No pseudopotential on this center.
   43          1
                                   No pseudopotential on this center.
   44          1
                                   No pseudopotential on this center.
   45          1
                                   No pseudopotential on this center.
   46          6
                                   No pseudopotential on this center.
   47          1
                                   No pseudopotential on this center.
   48          1
                                   No pseudopotential on this center.
   49          1
                                   No pseudopotential on this center.
   50          6
                                   No pseudopotential on this center.
   51          1
                                   No pseudopotential on this center.
   52          1
                                   No pseudopotential on this center.
   53          1
                                   No pseudopotential on this center.
   54          6
                                   No pseudopotential on this center.
   55          1
                                   No pseudopotential on this center.
   56          1
                                   No pseudopotential on this center.
   57          1
                                   No pseudopotential on this center.
   58          6
                                   No pseudopotential on this center.
   59          1
                                   No pseudopotential on this center.
   60          1
                                   No pseudopotential on this center.
   61          1
                                   No pseudopotential on this center.
   62          6
                                   No pseudopotential on this center.
   63          1
                                   No pseudopotential on this center.
   64          1
                                   No pseudopotential on this center.
   65          1
                                   No pseudopotential on this center.
   66          6
                                   No pseudopotential on this center.
   67          1
                                   No pseudopotential on this center.
   68          1
                                   No pseudopotential on this center.
   69          1
                                   No pseudopotential on this center.
   70          6
                                   No pseudopotential on this center.
   71          1
                                   No pseudopotential on this center.
   72          1
                                   No pseudopotential on this center.
   73          1
                                   No pseudopotential on this center.
   74          6
                                   No pseudopotential on this center.
   75          1
                                   No pseudopotential on this center.
   76          1
                                   No pseudopotential on this center.
   77          1
                                   No pseudopotential on this center.
   78          6
                                   No pseudopotential on this center.
   79          1
                                   No pseudopotential on this center.
   80          1
                                   No pseudopotential on this center.
   81          1
                                   No pseudopotential on this center.
   82          1
                                   No pseudopotential on this center.
   83          6
                                   No pseudopotential on this center.
   84          8
                                   No pseudopotential on this center.
   85          6
                                   No pseudopotential on this center.
   86          1
                                   No pseudopotential on this center.
   87          1
                                   No pseudopotential on this center.
   88          6
                                   No pseudopotential on this center.
   89          1
                                   No pseudopotential on this center.
   90          1
                                   No pseudopotential on this center.
   91          7
                                   No pseudopotential on this center.
   92          6
                                   No pseudopotential on this center.
   93          1
                                   No pseudopotential on this center.
   94          1
                                   No pseudopotential on this center.
   95          1
                                   No pseudopotential on this center.
   96          6
                                   No pseudopotential on this center.
   97          1
                                   No pseudopotential on this center.
   98          1
                                   No pseudopotential on this center.
   99          6
                                   No pseudopotential on this center.
  100          9
                                   No pseudopotential on this center.
  101          9
                                   No pseudopotential on this center.
  102          9
                                   No pseudopotential on this center.
  103          6
                                   No pseudopotential on this center.
  104          9
                                   No pseudopotential on this center.
  105          9
                                   No pseudopotential on this center.
  106          9
                                   No pseudopotential on this center.
  107         77           17
                                      G and up 
                                                     1      823.5880147       -0.15780140    0.00000000
                                                     2      364.6613336    -1517.52704460    0.00000000
                                                     2       55.7082801     -316.53065290    0.00000000
                                                     2       12.0464544      -91.88809410    0.00000000
                                                     2        3.5120610       -9.22417730    0.00000000
                                      S - G
                                                     0      188.0490770        3.15780140    0.00000000
                                                     1      340.4194712       26.83225770    0.00000000
                                                     2      128.2373673      800.42500070    0.00000000
                                                     2       33.8644961      369.40506830    0.00000000
                                                     2        4.7560005      242.41718990    0.00000000
                                                     2        3.9649974     -118.21732820    0.00000000
                                      P - G
                                                     0      289.7291139        2.15780140    0.00000000
                                                     1       87.4633789       61.96786100    0.00000000
                                                     2       30.4363766      269.05819860    0.00000000
                                                     2        4.0553412      231.16547930    0.00000000
                                                     2        3.5525341     -133.69526670    0.00000000
                                      D - G
                                                     0      136.4017106        3.15780140    0.00000000
                                                     1       95.0776925       45.93498030    0.00000000
                                                     2       49.2258410      359.03446680    0.00000000
                                                     2       15.0874145      176.47401190    0.00000000
                                                     2        4.0405764       54.51552860    0.00000000
                                      F - G
                                                     0      127.3507908        3.95461970    0.00000000
                                                     1       66.2364374       52.97736550    0.00000000
                                                     2       34.4299229      274.86433830    0.00000000
                                                     2       10.1995721      137.20473380    0.00000000
                                                     2        2.5409702       14.86333050    0.00000000
  108          1
                                   No pseudopotential on this center.
 ======================================================================================================
 There are   940 symmetry adapted cartesian basis functions of A   symmetry.
 There are   884 symmetry adapted basis functions of A   symmetry.
   884 basis functions,  1767 primitive gaussians,   940 cartesian basis functions
   213 alpha electrons      213 beta electrons
       nuclear repulsion energy      9693.2898063324 Hartrees.
 NAtoms=  108 NActive=  108 NUniq=  108 SFac= 1.00D+00 NAtFMM=   60 NAOKFM=T Big=T
 Integral buffers will be    131072 words long.
 Raffenetti 2 integral format.
 Two-electron integral symmetry is turned on.
 One-electron integrals computed using PRISM.
   1 Symmetry operations used in ECPInt.
 ECPInt:  NShTT=   54615 NPrTT=  339395 LenC2=   40725 LenP2D=  125842.
 LDataN:  DoStor=T MaxTD1= 6 Len=  172
 NBasis=   884 RedAO= T EigKep=  5.06D-04  NBF=   884
 NBsUse=   884 1.00D-06 EigRej= -1.00D+00 NBFU=   884
 Defaulting to unpruned grid for atomic number  77.
 ExpMin= 2.90D-02 ExpMax= 7.00D+03 ExpMxC= 1.05D+03 IAcc=3 IRadAn=         5 AccDes= 0.00D+00
 Harris functional with IExCor= 1009 and IRadAn=       5 diagonalized for initial guess.
 HarFok:  IExCor= 1009 AccDes= 0.00D+00 IRadAn=         5 IDoV= 1 UseB2=F ITyADJ=14
 ICtDFT=  3500011 ScaDFX=  1.000000  1.000000  1.000000  1.000000
 Defaulting to unpruned grid for atomic number  77.
 FoFCou: FMM=F IPFlag=           0 FMFlag=      100000 FMFlg1=        2001
         NFxFlg=           0 DoJE=T BraDBF=F KetDBF=T FulRan=T
         wScrn=  0.000000 ICntrl=       500 IOpCl=  0 I1Cent=   200000004 NGrid=           0
         NMat0=    1 NMatS0=      1 NMatT0=    0 NMatD0=    1 NMtDS0=    0 NMtDT0=    0
 Petite list used in FoFCou.
 Requested convergence on RMS density matrix=1.00D-08 within 128 cycles.
 Requested convergence on MAX density matrix=1.00D-06.
 Requested convergence on             energy=1.00D-06.
 No special actions if energy rises.
 Defaulting to unpruned grid for atomic number  77.
 Defaulting to unpruned grid for atomic number  77.
 Defaulting to unpruned grid for atomic number  77.
 Defaulting to unpruned grid for atomic number  77.
 Defaulting to unpruned grid for atomic number  77.
 Defaulting to unpruned grid for atomic number  77.
 Defaulting to unpruned grid for atomic number  77.
 Defaulting to unpruned grid for atomic number  77.
 Defaulting to unpruned grid for atomic number  77.
 Defaulting to unpruned grid for atomic number  77.
 Defaulting to unpruned grid for atomic number  77.
 Defaulting to unpruned grid for atomic number  77.
 Defaulting to unpruned grid for atomic number  77.
 Defaulting to unpruned grid for atomic number  77.
 Defaulting to unpruned grid for atomic number  77.
 Defaulting to unpruned grid for atomic number  77.
 SCF Done:  E(RM06) =  -2833.58257861     A.U. after   17 cycles
            NFock= 17  Conv=0.43D-08     -V/T= 2.0320
 DoSCS=F DFT=T ScalE2(SS,OS)=  1.000000  1.000000
 Range of M.O.s used for correlation:     1   884
 NBasis=   884 NAE=   213 NBE=   213 NFC=     0 NFV=     0
 NROrb=    884 NOA=   213 NOB=   213 NVA=   671 NVB=   671
   1 Symmetry operations used in ECPInt.
 ECPInt:  NShTT=   54615 NPrTT=  339395 LenC2=   40725 LenP2D=  125842.
 LDataN:  DoStor=T MaxTD1= 7 Len=  274
 Number of processors reduced to   7 by ecpmxn.
 Symmetrizing basis deriv contribution to polar:
 IMax=3 JMax=2 DiffMx= 0.00D+00
 G2DrvN: will do   109 centers at a time, making    1 passes.
 Calling FoFCou, ICntrl=  3107 FMM=T I1Cent=   0 AccDes= 0.00D+00.
 Defaulting to unpruned grid for atomic number  77.
 Defaulting to unpruned grid for atomic number  77.
 Defaulting to unpruned grid for atomic number  77.
 Defaulting to unpruned grid for atomic number  77.
 Defaulting to unpruned grid for atomic number  77.
 Defaulting to unpruned grid for atomic number  77.
 Defaulting to unpruned grid for atomic number  77.
 Defaulting to unpruned grid for atomic number  77.
 Defaulting to unpruned grid for atomic number  77.
 Defaulting to unpruned grid for atomic number  77.
 Defaulting to unpruned grid for atomic number  77.
 Defaulting to unpruned grid for atomic number  77.
 Defaulting to unpruned grid for atomic number  77.
 Defaulting to unpruned grid for atomic number  77.
 Defaulting to unpruned grid for atomic number  77.
 Defaulting to unpruned grid for atomic number  77.
 End of G2Drv F.D. properties file   721 does not exist.
 End of G2Drv F.D. properties file   722 does not exist.
 End of G2Drv F.D. properties file   788 does not exist.
          IDoAtm=11111111111111111111111111111111111111111111111111
          IDoAtm=11111111111111111111111111111111111111111111111111
          IDoAtm=11111111
          Differentiating once with respect to electric field.
                with respect to dipole field.
          Differentiating once with respect to nuclear coordinates.
 Defaulting to unpruned grid for atomic number  77.
 CalDSu exits because no D1Ps are significant.
 Defaulting to unpruned grid for atomic number  77.
 Defaulting to unpruned grid for atomic number  77.
 Defaulting to unpruned grid for atomic number  77.
 Defaulting to unpruned grid for atomic number  77.
 Defaulting to unpruned grid for atomic number  77.
 Defaulting to unpruned grid for atomic number  77.
 Defaulting to unpruned grid for atomic number  77.
 Defaulting to unpruned grid for atomic number  77.
 Defaulting to unpruned grid for atomic number  77.
 Defaulting to unpruned grid for atomic number  77.
 Defaulting to unpruned grid for atomic number  77.
 Defaulting to unpruned grid for atomic number  77.
 Defaulting to unpruned grid for atomic number  77.
 Defaulting to unpruned grid for atomic number  77.
 Defaulting to unpruned grid for atomic number  77.
 Defaulting to unpruned grid for atomic number  77.
          There are   327 degrees of freedom in the 1st order CPHF.  IDoFFX=6 NUNeed=     3.
    324 vectors produced by pass  0 Test12= 1.43D-13 1.00D-09 XBig12= 5.59D+02 8.47D+00.
 AX will form    72 AO Fock derivatives at one time.
    324 vectors produced by pass  1 Test12= 1.43D-13 1.00D-09 XBig12= 1.09D+02 8.74D-01.
    324 vectors produced by pass  2 Test12= 1.43D-13 1.00D-09 XBig12= 1.56D+00 1.06D-01.
    324 vectors produced by pass  3 Test12= 1.43D-13 1.00D-09 XBig12= 1.00D-02 9.71D-03.
    324 vectors produced by pass  4 Test12= 1.43D-13 1.00D-09 XBig12= 3.09D-05 3.84D-04.
    298 vectors produced by pass  5 Test12= 1.43D-13 1.00D-09 XBig12= 6.49D-08 1.92D-05.
     88 vectors produced by pass  6 Test12= 1.43D-13 1.00D-09 XBig12= 1.02D-10 8.26D-07.
      3 vectors produced by pass  7 Test12= 1.43D-13 1.00D-09 XBig12= 1.40D-13 2.94D-08.
 InvSVY:  IOpt=1 It=  1 EMax= 2.49D-14
 Solved reduced A of dimension  2009 with   327 vectors.
 Isotropic polarizability for W=    0.000000      486.64 Bohr**3.
 End of Minotr F.D. properties file   721 does not exist.
 End of Minotr F.D. properties file   722 does not exist.
 End of Minotr F.D. properties file   788 does not exist.
 Hyperfine terms turned off by default for NAtoms > 100.

 **********************************************************************

            Population analysis using the SCF Density.

 **********************************************************************

 Orbital symmetries:
       Occupied  (A) (A) (A) (A) (A) (A) (A) (A) (A) (A) (A) (A)
                 (A) (A) (A) (A) (A) (A) (A) (A) (A) (A) (A) (A)
                 (A) (A) (A) (A) (A) (A) (A) (A) (A) (A) (A) (A)
                 (A) (A) (A) (A) (A) (A) (A) (A) (A) (A) (A) (A)
                 (A) (A) (A) (A) (A) (A) (A) (A) (A) (A) (A) (A)
                 (A) (A) (A) (A) (A) (A) (A) (A) (A) (A) (A) (A)
                 (A) (A) (A) (A) (A) (A) (A) (A) (A) (A) (A) (A)
                 (A) (A) (A) (A) (A) (A) (A) (A) (A) (A) (A) (A)
                 (A) (A) (A) (A) (A) (A) (A) (A) (A) (A) (A) (A)
                 (A) (A) (A) (A) (A) (A) (A) (A) (A) (A) (A) (A)
                 (A) (A) (A) (A) (A) (A) (A) (A) (A) (A) (A) (A)
                 (A) (A) (A) (A) (A) (A) (A) (A) (A) (A) (A) (A)
                 (A) (A) (A) (A) (A) (A) (A) (A) (A) (A) (A) (A)
                 (A) (A) (A) (A) (A) (A) (A) (A) (A) (A) (A) (A)
                 (A) (A) (A) (A) (A) (A) (A) (A) (A) (A) (A) (A)
                 (A) (A) (A) (A) (A) (A) (A) (A) (A) (A) (A) (A)
                 (A) (A) (A) (A) (A) (A) (A) (A) (A) (A) (A) (A)
                 (A) (A) (A) (A) (A) (A) (A) (A) (A)
       Virtual   (A) (A) (A) (A) (A) (A) (A) (A) (A) (A) (A) (A)
                 (A) (A) (A) (A) (A) (A) (A) (A) (A) (A) (A) (A)
                 (A) (A) (A) (A) (A) (A) (A) (A) (A) (A) (A) (A)
                 (A) (A) (A) (A) (A) (A) (A) (A) (A) (A) (A) (A)
                 (A) (A) (A) (A) (A) (A) (A) (A) (A) (A) (A) (A)
                 (A) (A) (A) (A) (A) (A) (A) (A) (A) (A) (A) (A)
                 (A) (A) (A) (A) (A) (A) (A) (A) (A) (A) (A) (A)
                 (A) (A) (A) (A) (A) (A) (A) (A) (A) (A) (A) (A)
                 (A) (A) (A) (A) (A) (A) (A) (A) (A) (A) (A) (A)
                 (A) (A) (A) (A) (A) (A) (A) (A) (A) (A) (A) (A)
                 (A) (A) (A) (A) (A) (A) (A) (A) (A) (A) (A) (A)
                 (A) (A) (A) (A) (A) (A) (A) (A) (A) (A) (A) (A)
                 (A) (A) (A) (A) (A) (A) (A) (A) (A) (A) (A) (A)
                 (A) (A) (A) (A) (A) (A) (A) (A) (A) (A) (A) (A)
                 (A) (A) (A) (A) (A) (A) (A) (A) (A) (A) (A) (A)
                 (A) (A) (A) (A) (A) (A) (A) (A) (A) (A) (A) (A)
                 (A) (A) (A) (A) (A) (A) (A) (A) (A) (A) (A) (A)
                 (A) (A) (A) (A) (A) (A) (A) (A) (A) (A) (A) (A)
                 (A) (A) (A) (A) (A) (A) (A) (A) (A) (A) (A) (A)
                 (A) (A) (A) (A) (A) (A) (A) (A) (A) (A) (A) (A)
                 (A) (A) (A) (A) (A) (A) (A) (A) (A) (A) (A) (A)
                 (A) (A) (A) (A) (A) (A) (A) (A) (A) (A) (A) (A)
                 (A) (A) (A) (A) (A) (A) (A) (A) (A) (A) (A) (A)
                 (A) (A) (A) (A) (A) (A) (A) (A) (A) (A) (A) (A)
                 (A) (A) (A) (A) (A) (A) (A) (A) (A) (A) (A) (A)
                 (A) (A) (A) (A) (A) (A) (A) (A) (A) (A) (A) (A)
                 (A) (A) (A) (A) (A) (A) (A) (A) (A) (A) (A) (A)
                 (A) (A) (A) (A) (A) (A) (A) (A) (A) (A) (A) (A)
                 (A) (A) (A) (A) (A) (A) (A) (A) (A) (A) (A) (A)
                 (A) (A) (A) (A) (A) (A) (A) (A) (A) (A) (A) (A)
                 (A) (A) (A) (A) (A) (A) (A) (A) (A) (A) (A) (A)
                 (A) (A) (A) (A) (A) (A) (A) (A) (A) (A) (A) (A)
                 (A) (A) (A) (A) (A) (A) (A) (A) (A) (A) (A) (A)
                 (A) (A) (A) (A) (A) (A) (A) (A) (A) (A) (A) (A)
                 (A) (A) (A) (A) (A) (A) (A) (A) (A) (A) (A) (A)
                 (A) (A) (A) (A) (A) (A) (A) (A) (A) (A) (A) (A)
                 (A) (A) (A) (A) (A) (A) (A) (A) (A) (A) (A) (A)
                 (A) (A) (A) (A) (A) (A) (A) (A) (A) (A) (A) (A)
                 (A) (A) (A) (A) (A) (A) (A) (A) (A) (A) (A) (A)
                 (A) (A) (A) (A) (A) (A) (A) (A) (A) (A) (A) (A)
                 (A) (A) (A) (A) (A) (A) (A) (A) (A) (A) (A) (A)
                 (A) (A) (A) (A) (A) (A) (A) (A) (A) (A) (A) (A)
                 (A) (A) (A) (A) (A) (A) (A) (A) (A) (A) (A) (A)
                 (A) (A) (A) (A) (A) (A) (A) (A) (A) (A) (A) (A)
                 (A) (A) (A) (A) (A) (A) (A) (A) (A) (A) (A) (A)
                 (A) (A) (A) (A) (A) (A) (A) (A) (A) (A) (A) (A)
                 (A) (A) (A) (A) (A) (A) (A) (A) (A) (A) (A) (A)
                 (A) (A) (A) (A) (A) (A) (A) (A) (A) (A) (A) (A)
                 (A) (A) (A) (A) (A) (A) (A) (A) (A) (A) (A) (A)
                 (A) (A) (A) (A) (A) (A) (A) (A) (A) (A) (A) (A)
                 (A) (A) (A) (A) (A) (A) (A) (A) (A) (A) (A) (A)
                 (A) (A) (A) (A) (A) (A) (A) (A) (A) (A) (A) (A)
                 (A) (A) (A) (A) (A) (A) (A) (A) (A) (A) (A) (A)
                 (A) (A) (A) (A) (A) (A) (A) (A) (A) (A) (A) (A)
                 (A) (A) (A) (A) (A) (A) (A) (A) (A) (A) (A) (A)
                 (A) (A) (A) (A) (A) (A) (A) (A) (A) (A) (A)
 The electronic state is 1-A.
 Alpha  occ. eigenvalues --  -24.84734 -24.84353 -24.84261 -24.83212 -24.82706
 Alpha  occ. eigenvalues --  -24.82428 -19.25314 -19.20120 -19.19546 -19.19238
 Alpha  occ. eigenvalues --  -19.19072 -19.18372 -19.18143 -14.46420 -14.45569
 Alpha  occ. eigenvalues --  -14.45397 -10.52841 -10.51313 -10.38764 -10.33255
 Alpha  occ. eigenvalues --  -10.32805 -10.32357 -10.30855 -10.30787 -10.30432
 Alpha  occ. eigenvalues --  -10.30388 -10.29941 -10.29849 -10.29387 -10.29259
 Alpha  occ. eigenvalues --  -10.28877 -10.28761 -10.28651 -10.28609 -10.28362
 Alpha  occ. eigenvalues --  -10.28248 -10.27837 -10.26013 -10.24436 -10.22593
 Alpha  occ. eigenvalues --  -10.22471 -10.22180 -10.22120 -10.21884 -10.21869
 Alpha  occ. eigenvalues --  -10.21865 -10.21774 -10.21632 -10.21542 -10.20532
 Alpha  occ. eigenvalues --  -10.20524  -6.81551  -6.78521  -6.77479  -3.60084
 Alpha  occ. eigenvalues --   -2.02635  -2.01928  -2.01500  -1.37234  -1.35671
 Alpha  occ. eigenvalues --   -1.28783  -1.28243  -1.27225  -1.26601  -1.11449
 Alpha  occ. eigenvalues --   -1.05384  -1.04884  -1.04620  -1.01100  -0.98643
 Alpha  occ. eigenvalues --   -0.98414  -0.98253  -0.97890  -0.97704  -0.87371
 Alpha  occ. eigenvalues --   -0.86109  -0.84565  -0.82515  -0.80972  -0.79831
 Alpha  occ. eigenvalues --   -0.79483  -0.79157  -0.76265  -0.75349  -0.74404
 Alpha  occ. eigenvalues --   -0.73917  -0.73612  -0.73014  -0.72416  -0.70014
 Alpha  occ. eigenvalues --   -0.69718  -0.69401  -0.69306  -0.69261  -0.67308
 Alpha  occ. eigenvalues --   -0.66944  -0.66704  -0.66427  -0.65797  -0.65670
 Alpha  occ. eigenvalues --   -0.63288  -0.63089  -0.61655  -0.61617  -0.61538
 Alpha  occ. eigenvalues --   -0.61101  -0.60966  -0.60518  -0.60161  -0.58130
 Alpha  occ. eigenvalues --   -0.57155  -0.56468  -0.54807  -0.54340  -0.53948
 Alpha  occ. eigenvalues --   -0.53254  -0.52847  -0.52683  -0.52241  -0.52076
 Alpha  occ. eigenvalues --   -0.51957  -0.50774  -0.50665  -0.49873  -0.49673
 Alpha  occ. eigenvalues --   -0.49434  -0.49040  -0.48554  -0.48153  -0.47994
 Alpha  occ. eigenvalues --   -0.47271  -0.47071  -0.46978  -0.46668  -0.46417
 Alpha  occ. eigenvalues --   -0.46322  -0.46115  -0.46005  -0.45585  -0.45436
 Alpha  occ. eigenvalues --   -0.45255  -0.45074  -0.44992  -0.44668  -0.44391
 Alpha  occ. eigenvalues --   -0.43981  -0.43845  -0.43562  -0.43447  -0.43111
 Alpha  occ. eigenvalues --   -0.43066  -0.43011  -0.42923  -0.42716  -0.42549
 Alpha  occ. eigenvalues --   -0.42204  -0.41215  -0.40955  -0.40470  -0.40031
 Alpha  occ. eigenvalues --   -0.39885  -0.39784  -0.39662  -0.39386  -0.39251
 Alpha  occ. eigenvalues --   -0.38976  -0.38936  -0.38837  -0.38606  -0.38459
 Alpha  occ. eigenvalues --   -0.38423  -0.38234  -0.37932  -0.37772  -0.37086
 Alpha  occ. eigenvalues --   -0.36906  -0.36588  -0.36496  -0.36458  -0.36152
 Alpha  occ. eigenvalues --   -0.35718  -0.35644  -0.35551  -0.35375  -0.34918
 Alpha  occ. eigenvalues --   -0.34765  -0.34471  -0.34288  -0.34129  -0.33609
 Alpha  occ. eigenvalues --   -0.33440  -0.33221  -0.33103  -0.32458  -0.31745
 Alpha  occ. eigenvalues --   -0.31176  -0.30466  -0.30236  -0.29611  -0.29414
 Alpha  occ. eigenvalues --   -0.28846  -0.28637  -0.28119  -0.27410  -0.26501
 Alpha  occ. eigenvalues --   -0.26280  -0.25406  -0.25222  -0.24777  -0.24151
 Alpha  occ. eigenvalues --   -0.20067  -0.19719  -0.19179
 Alpha virt. eigenvalues --   -0.08689  -0.05262  -0.04335  -0.01107  -0.00687
 Alpha virt. eigenvalues --    0.02717   0.04719   0.05642   0.06773   0.07417
 Alpha virt. eigenvalues --    0.07597   0.08237   0.08951   0.09517   0.09902
 Alpha virt. eigenvalues --    0.10187   0.10938   0.11178   0.11787   0.12090
 Alpha virt. eigenvalues --    0.12548   0.12619   0.12681   0.12863   0.13062
 Alpha virt. eigenvalues --    0.13653   0.13993   0.14154   0.14363   0.14384
 Alpha virt. eigenvalues --    0.14447   0.14671   0.15121   0.15244   0.15525
 Alpha virt. eigenvalues --    0.15600   0.15806   0.16187   0.16272   0.16514
 Alpha virt. eigenvalues --    0.16634   0.16684   0.16857   0.16994   0.17307
 Alpha virt. eigenvalues --    0.17657   0.17804   0.18009   0.18100   0.18404
 Alpha virt. eigenvalues --    0.18605   0.18690   0.18815   0.19237   0.19407
 Alpha virt. eigenvalues --    0.19602   0.19780   0.20150   0.20252   0.20542
 Alpha virt. eigenvalues --    0.20733   0.20773   0.20999   0.21107   0.21424
 Alpha virt. eigenvalues --    0.21721   0.21869   0.21911   0.22133   0.22416
 Alpha virt. eigenvalues --    0.22532   0.22654   0.23001   0.23079   0.23491
 Alpha virt. eigenvalues --    0.23739   0.23912   0.24245   0.24690   0.24797
 Alpha virt. eigenvalues --    0.24987   0.25319   0.25412   0.25590   0.26051
 Alpha virt. eigenvalues --    0.26093   0.26404   0.26854   0.26877   0.27264
 Alpha virt. eigenvalues --    0.27346   0.27729   0.28021   0.28143   0.28651
 Alpha virt. eigenvalues --    0.29092   0.29423   0.29969   0.30496   0.31172
 Alpha virt. eigenvalues --    0.31500   0.32439   0.32493   0.32667   0.32889
 Alpha virt. eigenvalues --    0.33982   0.34466   0.35195   0.35324   0.35746
 Alpha virt. eigenvalues --    0.35933   0.36595   0.37242   0.37636   0.38157
 Alpha virt. eigenvalues --    0.38654   0.38971   0.39400   0.39670   0.41214
 Alpha virt. eigenvalues --    0.41615   0.41969   0.43442   0.45100   0.45594
 Alpha virt. eigenvalues --    0.45883   0.46311   0.47254   0.48008   0.48094
 Alpha virt. eigenvalues --    0.48516   0.49129   0.49426   0.50830   0.51092
 Alpha virt. eigenvalues --    0.51172   0.51746   0.51978   0.52291   0.52428
 Alpha virt. eigenvalues --    0.53097   0.53370   0.53720   0.53942   0.54321
 Alpha virt. eigenvalues --    0.54493   0.54809   0.55460   0.55845   0.55936
 Alpha virt. eigenvalues --    0.56203   0.56660   0.56907   0.57133   0.57328
 Alpha virt. eigenvalues --    0.57620   0.58002   0.58374   0.58709   0.58970
 Alpha virt. eigenvalues --    0.59063   0.59226   0.59677   0.60092   0.60322
 Alpha virt. eigenvalues --    0.60464   0.60736   0.61288   0.61505   0.61830
 Alpha virt. eigenvalues --    0.62135   0.62175   0.62767   0.63271   0.63438
 Alpha virt. eigenvalues --    0.63842   0.64377   0.64821   0.64996   0.65672
 Alpha virt. eigenvalues --    0.65751   0.66243   0.66659   0.67006   0.67564
 Alpha virt. eigenvalues --    0.67807   0.68129   0.68283   0.68766   0.68914
 Alpha virt. eigenvalues --    0.69195   0.69689   0.70082   0.70467   0.71026
 Alpha virt. eigenvalues --    0.71059   0.71461   0.71606   0.72070   0.72727
 Alpha virt. eigenvalues --    0.72964   0.73463   0.73607   0.73968   0.74376
 Alpha virt. eigenvalues --    0.74685   0.74838   0.75046   0.75422   0.75978
 Alpha virt. eigenvalues --    0.76533   0.76668   0.77197   0.77436   0.77593
 Alpha virt. eigenvalues --    0.78044   0.78485   0.78953   0.79136   0.79617
 Alpha virt. eigenvalues --    0.79813   0.80220   0.80836   0.81217   0.81522
 Alpha virt. eigenvalues --    0.81732   0.82387   0.82887   0.82973   0.83450
 Alpha virt. eigenvalues --    0.83642   0.84209   0.84687   0.84865   0.85072
 Alpha virt. eigenvalues --    0.85304   0.85473   0.85826   0.86041   0.86349
 Alpha virt. eigenvalues --    0.86465   0.86745   0.86876   0.87135   0.87353
 Alpha virt. eigenvalues --    0.87976   0.88199   0.88615   0.88623   0.88718
 Alpha virt. eigenvalues --    0.89282   0.89499   0.89676   0.89811   0.90023
 Alpha virt. eigenvalues --    0.90306   0.90610   0.90705   0.90872   0.91207
 Alpha virt. eigenvalues --    0.91318   0.91583   0.91801   0.92068   0.92434
 Alpha virt. eigenvalues --    0.92654   0.93041   0.93313   0.93663   0.94032
 Alpha virt. eigenvalues --    0.94660   0.94692   0.95262   0.95536   0.95915
 Alpha virt. eigenvalues --    0.96553   0.96599   0.96687   0.97016   0.97308
 Alpha virt. eigenvalues --    0.97586   0.98036   0.98574   0.99086   0.99213
 Alpha virt. eigenvalues --    0.99802   1.00223   1.00529   1.00652   1.01299
 Alpha virt. eigenvalues --    1.01759   1.02579   1.02850   1.03717   1.03800
 Alpha virt. eigenvalues --    1.04359   1.04923   1.05207   1.05486   1.05993
 Alpha virt. eigenvalues --    1.06489   1.06958   1.07228   1.08033   1.08610
 Alpha virt. eigenvalues --    1.09646   1.10043   1.10306   1.11361   1.12187
 Alpha virt. eigenvalues --    1.12980   1.13376   1.13820   1.14616   1.15475
 Alpha virt. eigenvalues --    1.15570   1.16194   1.16304   1.16517   1.17051
 Alpha virt. eigenvalues --    1.17722   1.17853   1.18552   1.18799   1.19578
 Alpha virt. eigenvalues --    1.20053   1.20348   1.21081   1.21718   1.22089
 Alpha virt. eigenvalues --    1.22695   1.23323   1.23609   1.24177   1.25274
 Alpha virt. eigenvalues --    1.25526   1.25696   1.26434   1.26934   1.27503
 Alpha virt. eigenvalues --    1.27695   1.28825   1.28994   1.29961   1.30266
 Alpha virt. eigenvalues --    1.30795   1.31697   1.32016   1.32570   1.33251
 Alpha virt. eigenvalues --    1.33503   1.33891   1.34150   1.34390   1.34802
 Alpha virt. eigenvalues --    1.35299   1.35924   1.36112   1.37097   1.37721
 Alpha virt. eigenvalues --    1.37986   1.38467   1.38947   1.39344   1.39482
 Alpha virt. eigenvalues --    1.39869   1.40443   1.40927   1.41280   1.41510
 Alpha virt. eigenvalues --    1.41768   1.42555   1.42890   1.43428   1.44142
 Alpha virt. eigenvalues --    1.44398   1.45171   1.45740   1.46372   1.46704
 Alpha virt. eigenvalues --    1.47178   1.47445   1.47872   1.47953   1.48164
 Alpha virt. eigenvalues --    1.49421   1.50031   1.51366   1.51846   1.52726
 Alpha virt. eigenvalues --    1.53133   1.53446   1.54783   1.55201   1.56287
 Alpha virt. eigenvalues --    1.56796   1.57327   1.59084   1.59650   1.60092
 Alpha virt. eigenvalues --    1.61742   1.62295   1.62838   1.63271   1.64185
 Alpha virt. eigenvalues --    1.64916   1.65539   1.65625   1.66144   1.66502
 Alpha virt. eigenvalues --    1.67127   1.67552   1.67754   1.68071   1.68691
 Alpha virt. eigenvalues --    1.68904   1.69568   1.69682   1.70152   1.70566
 Alpha virt. eigenvalues --    1.71227   1.71573   1.72568   1.73114   1.73606
 Alpha virt. eigenvalues --    1.74413   1.75354   1.75882   1.76407   1.76842
 Alpha virt. eigenvalues --    1.76886   1.77710   1.77945   1.78733   1.79088
 Alpha virt. eigenvalues --    1.79617   1.80110   1.80270   1.80914   1.81688
 Alpha virt. eigenvalues --    1.81899   1.82264   1.82587   1.83425   1.83666
 Alpha virt. eigenvalues --    1.83833   1.84092   1.84874   1.85627   1.85672
 Alpha virt. eigenvalues --    1.86295   1.86540   1.86767   1.86984   1.87282
 Alpha virt. eigenvalues --    1.87620   1.87924   1.88247   1.88635   1.88913
 Alpha virt. eigenvalues --    1.89502   1.90660   1.90879   1.91356   1.91959
 Alpha virt. eigenvalues --    1.92030   1.92484   1.92693   1.92978   1.93303
 Alpha virt. eigenvalues --    1.93522   1.94047   1.94112   1.94284   1.94738
 Alpha virt. eigenvalues --    1.94868   1.95372   1.95905   1.96284   1.96498
 Alpha virt. eigenvalues --    1.97011   1.97264   1.97899   1.98291   1.99008
 Alpha virt. eigenvalues --    1.99610   1.99974   2.00742   2.01005   2.01554
 Alpha virt. eigenvalues --    2.01915   2.02177   2.02472   2.02941   2.03212
 Alpha virt. eigenvalues --    2.03304   2.03436   2.03825   2.04313   2.04753
 Alpha virt. eigenvalues --    2.05330   2.05582   2.06000   2.07152   2.07189
 Alpha virt. eigenvalues --    2.07555   2.07848   2.07876   2.08133   2.08420
 Alpha virt. eigenvalues --    2.09240   2.09859   2.09891   2.10195   2.10430
 Alpha virt. eigenvalues --    2.10759   2.11054   2.11496   2.11768   2.11878
 Alpha virt. eigenvalues --    2.12670   2.12899   2.13081   2.13863   2.14174
 Alpha virt. eigenvalues --    2.14570   2.14867   2.15417   2.16164   2.16364
 Alpha virt. eigenvalues --    2.16603   2.17191   2.17721   2.18454   2.18659
 Alpha virt. eigenvalues --    2.18844   2.19308   2.19509   2.19700   2.20002
 Alpha virt. eigenvalues --    2.20512   2.20869   2.21551   2.21771   2.21957
 Alpha virt. eigenvalues --    2.22207   2.22617   2.23279   2.23545   2.23680
 Alpha virt. eigenvalues --    2.24093   2.24362   2.24710   2.24896   2.25664
 Alpha virt. eigenvalues --    2.26038   2.26375   2.26864   2.27608   2.27764
 Alpha virt. eigenvalues --    2.27846   2.28651   2.28959   2.29436   2.30187
 Alpha virt. eigenvalues --    2.30749   2.31012   2.31669   2.32314   2.32938
 Alpha virt. eigenvalues --    2.33360   2.33940   2.34480   2.34579   2.35836
 Alpha virt. eigenvalues --    2.36521   2.36823   2.38854   2.39191   2.39678
 Alpha virt. eigenvalues --    2.40014   2.40418   2.41381   2.42913   2.43661
 Alpha virt. eigenvalues --    2.44600   2.45071   2.45788   2.46413   2.46985
 Alpha virt. eigenvalues --    2.48273   2.48820   2.49343   2.49772   2.50026
 Alpha virt. eigenvalues --    2.50436   2.50919   2.51778   2.51824   2.52705
 Alpha virt. eigenvalues --    2.54304   2.54805   2.56406   2.59550   2.59889
 Alpha virt. eigenvalues --    2.60207   2.60885   2.61621   2.62428   2.63290
 Alpha virt. eigenvalues --    2.64270   2.64932   2.65481   2.65810   2.66221
 Alpha virt. eigenvalues --    2.67168   2.68269   2.68575   2.70776   2.72234
 Alpha virt. eigenvalues --    2.73941   2.75380   2.76523   2.76941   2.78131
 Alpha virt. eigenvalues --    2.78487   2.78861   2.79688   2.80003   2.80220
 Alpha virt. eigenvalues --    2.80697   2.81104   2.81631   2.82027   2.82196
 Alpha virt. eigenvalues --    2.82980   2.83887   2.84306   2.85602   2.86398
 Alpha virt. eigenvalues --    2.88068   2.88397   2.90882   2.91064   2.92589
 Alpha virt. eigenvalues --    2.94112   2.94993   2.95591   2.95873   2.97082
 Alpha virt. eigenvalues --    2.97449   3.02322   3.02993   3.05093   3.06240
 Alpha virt. eigenvalues --    3.06531   3.06881   3.07182   3.08570   3.08845
 Alpha virt. eigenvalues --    3.11293   3.11991   3.12317   3.12810   3.13232
 Alpha virt. eigenvalues --    3.15925   3.19805   3.24693   3.32012   3.43965
 Alpha virt. eigenvalues --   11.38253
          Condensed to atoms (all electrons):
 Mulliken charges:
               1
     1  C    0.307871
     2  C    0.023087
     3  C   -0.076243
     4  C   -0.173137
     5  C   -0.181307
     6  C    0.304819
     7  C    0.038241
     8  C   -0.070769
     9  C   -0.161276
    10  C   -0.185864
    11  H    0.211076
    12  H    0.200589
    13  H    0.181890
    14  H    0.235026
    15  H    0.199035
    16  H    0.172309
    17  N   -0.470885
    18  N   -0.523641
    19  O   -0.536137
    20  O   -0.558581
    21  O   -0.510028
    22  B    0.852620
    23  B    0.437094
    24  B    0.416147
    25  O   -0.526276
    26  O   -0.506533
    27  C    0.291225
    28  C    0.302768
    29  C    0.295634
    30  C    0.304982
    31  C    0.309338
    32  C    0.329242
    33  O   -0.582234
    34  C   -0.505619
    35  H    0.164146
    36  H    0.168095
    37  H    0.147559
    38  C   -0.500832
    39  H    0.154842
    40  H    0.153456
    41  H    0.159182
    42  C   -0.504325
    43  H    0.179379
    44  H    0.172486
    45  H    0.136706
    46  C   -0.505992
    47  H    0.144122
    48  H    0.171144
    49  H    0.162686
    50  C   -0.516271
    51  H    0.146755
    52  H    0.171534
    53  H    0.162874
    54  C   -0.508294
    55  H    0.170568
    56  H    0.145390
    57  H    0.160008
    58  C   -0.524610
    59  H    0.140962
    60  H    0.218988
    61  H    0.167310
    62  C   -0.492389
    63  H    0.158280
    64  H    0.155091
    65  H    0.143284
    66  C   -0.507707
    67  H    0.176659
    68  H    0.153139
    69  H    0.148253
    70  C   -0.511230
    71  H    0.149508
    72  H    0.173554
    73  H    0.161154
    74  C   -0.505545
    75  H    0.159618
    76  H    0.186665
    77  H    0.146450
    78  C   -0.508623
    79  H    0.172302
    80  H    0.169685
    81  H    0.145898
    82  H    0.081760
    83  C    0.617716
    84  O   -0.517589
    85  C   -0.416410
    86  H    0.202440
    87  H    0.178408
    88  C   -0.403398
    89  H    0.206350
    90  H    0.175097
    91  N   -0.378504
    92  C   -0.395070
    93  H    0.200491
    94  H    0.185741
    95  H    0.201885
    96  C   -0.480281
    97  H    0.158458
    98  H    0.196123
    99  C    0.973088
   100  F   -0.317378
   101  F   -0.308930
   102  F   -0.307720
   103  C    0.967927
   104  F   -0.303003
   105  F   -0.318724
   106  F   -0.309250
   107  Ir  -0.117581
   108  H    0.171978
 Sum of Mulliken charges =  -0.00000
 Mulliken charges with hydrogens summed into heavy atoms:
               1
     1  C    0.307871
     2  C    0.234163
     3  C   -0.076243
     4  C    0.027453
     5  C    0.000582
     6  C    0.304819
     7  C    0.273267
     8  C   -0.070769
     9  C    0.037759
    10  C   -0.013555
    17  N   -0.470885
    18  N   -0.523641
    19  O   -0.536137
    20  O   -0.558581
    21  O   -0.510028
    22  B    0.852620
    23  B    0.437094
    24  B    0.416147
    25  O   -0.526276
    26  O   -0.506533
    27  C    0.291225
    28  C    0.302768
    29  C    0.295634
    30  C    0.304982
    31  C    0.309338
    32  C    0.329242
    33  O   -0.582234
    34  C   -0.025819
    38  C   -0.033351
    42  C   -0.015753
    46  C   -0.028040
    50  C   -0.035108
    54  C   -0.032327
    58  C    0.002650
    62  C   -0.035734
    66  C   -0.029656
    70  C   -0.027015
    74  C   -0.012812
    78  C   -0.020738
    83  C    0.617716
    84  O   -0.517589
    85  C   -0.035562
    88  C   -0.021951
    91  N   -0.378504
    92  C    0.193047
    96  C    0.046278
    99  C    0.973088
   100  F   -0.317378
   101  F   -0.308930
   102  F   -0.307720
   103  C    0.967927
   104  F   -0.303003
   105  F   -0.318724
   106  F   -0.309250
   107  Ir  -0.035820
 APT charges:
               1
     1  C    0.190728
     2  C    0.051064
     3  C   -0.155929
     4  C    0.011083
     5  C   -0.134989
     6  C    0.125960
     7  C    0.018276
     8  C   -0.145411
     9  C    0.026081
    10  C   -0.142128
    11  H    0.074933
    12  H    0.063033
    13  H    0.053120
    14  H    0.146776
    15  H    0.066308
    16  H    0.046749
    17  N   -0.072849
    18  N    0.000659
    19  O   -1.006593
    20  O   -0.919964
    21  O   -1.001817
    22  B    1.295765
    23  B    1.312765
    24  B    1.296825
    25  O   -0.933455
    26  O   -1.046526
    27  C    0.503513
    28  C    0.511256
    29  C    0.481655
    30  C    0.492250
    31  C    0.481653
    32  C    0.446108
    33  O   -0.957085
    34  C    0.000758
    35  H   -0.002698
    36  H   -0.005199
    37  H   -0.025782
    38  C   -0.025237
    39  H   -0.008224
    40  H   -0.029916
    41  H   -0.000662
    42  C   -0.037318
    43  H    0.027265
    44  H   -0.000169
    45  H   -0.035069
    46  C   -0.003243
    47  H   -0.024775
    48  H   -0.001727
    49  H   -0.003165
    50  C   -0.006611
    51  H   -0.008622
    52  H    0.007300
    53  H   -0.019200
    54  C   -0.033099
    55  H   -0.011765
    56  H   -0.013892
    57  H   -0.011562
    58  C   -0.060496
    59  H   -0.015123
    60  H    0.061927
    61  H    0.004117
    62  C   -0.019463
    63  H    0.006223
    64  H   -0.006068
    65  H   -0.005951
    66  C   -0.038554
    67  H    0.009757
    68  H   -0.020967
    69  H   -0.015905
    70  C   -0.015986
    71  H   -0.016150
    72  H    0.005101
    73  H   -0.005678
    74  C   -0.027671
    75  H    0.003274
    76  H    0.007257
    77  H   -0.027184
    78  C   -0.004530
    79  H    0.003016
    80  H    0.000013
    81  H   -0.021685
    82  H   -0.091880
    83  C    0.864388
    84  O   -0.874120
    85  C   -0.010610
    86  H   -0.001495
    87  H    0.024480
    88  C   -0.025967
    89  H    0.035748
    90  H   -0.008661
    91  N   -0.593098
    92  C    0.290654
    93  H    0.012546
    94  H    0.023149
    95  H   -0.012860
    96  C    0.066100
    97  H   -0.006158
    98  H    0.015791
    99  C    1.791164
   100  F   -0.631526
   101  F   -0.496325
   102  F   -0.588655
   103  C    1.773886
   104  F   -0.560246
   105  F   -0.586216
   106  F   -0.539996
   107  Ir  -0.565203
   108  H   -0.011368
 Sum of APT charges =  -0.00000
 APT charges with hydrogens summed into heavy atoms:
               1
     1  C    0.190728
     2  C    0.125996
     3  C   -0.155929
     4  C    0.074116
     5  C   -0.081869
     6  C    0.125960
     7  C    0.165052
     8  C   -0.145411
     9  C    0.092389
    10  C   -0.095379
    17  N   -0.072849
    18  N    0.000659
    19  O   -1.006593
    20  O   -0.919964
    21  O   -1.001817
    22  B    1.295765
    23  B    1.312765
    24  B    1.296825
    25  O   -0.933455
    26  O   -1.046526
    27  C    0.503513
    28  C    0.511256
    29  C    0.481655
    30  C    0.492250
    31  C    0.481653
    32  C    0.446108
    33  O   -0.957085
    34  C   -0.032921
    38  C   -0.064039
    42  C   -0.045291
    46  C   -0.032910
    50  C   -0.027132
    54  C   -0.070317
    58  C   -0.009574
    62  C   -0.025259
    66  C   -0.065670
    70  C   -0.032713
    74  C   -0.044323
    78  C   -0.023186
    83  C    0.864388
    84  O   -0.874120
    85  C    0.012375
    88  C    0.001120
    91  N   -0.593098
    92  C    0.313488
    96  C    0.064365
    99  C    1.791164
   100  F   -0.631526
   101  F   -0.496325
   102  F   -0.588655
   103  C    1.773886
   104  F   -0.560246
   105  F   -0.586216
   106  F   -0.539996
   107  Ir  -0.657083
 Electronic spatial extent (au):  <R**2>=          32475.3276
 Charge=             -0.0000 electrons
 Dipole moment (field-independent basis, Debye):
    X=              6.9729    Y=             -1.7827    Z=              4.6254  Tot=              8.5553
 Quadrupole moment (field-independent basis, Debye-Ang):
   XX=           -309.6593   YY=           -337.8107   ZZ=           -328.2274
   XY=            -10.1272   XZ=              6.2430   YZ=             -4.2055
 Traceless Quadrupole moment (field-independent basis, Debye-Ang):
   XX=             15.5731   YY=            -12.5782   ZZ=             -2.9949
   XY=            -10.1272   XZ=              6.2430   YZ=             -4.2055
 Octapole moment (field-independent basis, Debye-Ang**2):
  XXX=             98.0000  YYY=             93.9097  ZZZ=             38.1125  XYY=             -5.7638
  XXY=            -42.7285  XXZ=            -49.3639  XZZ=             79.5104  YZZ=            -12.5356
  YYZ=             23.7118  XYZ=            -15.2619
 Hexadecapole moment (field-independent basis, Debye-Ang**3):
 XXXX=         -17954.2428 YYYY=         -14842.5613 ZZZZ=          -7427.8182 XXXY=           -208.3045
 XXXZ=           -132.4991 YYYX=            287.8559 YYYZ=           -180.9327 ZZZX=           -177.6633
 ZZZY=           -245.4628 XXYY=          -5569.4557 XXZZ=          -4190.8833 YYZZ=          -3814.6063
 XXYZ=             15.0655 YYXZ=            -23.4593 ZZXY=             42.6066
 N-N= 9.693289806332D+03 E-N=-2.599353582721D+04  KE= 2.745761226202D+03
  Exact polarizability:     555.676      19.525     457.602      29.759     -36.340     446.643
 Approx polarizability:     796.467      49.174     624.528      36.007     -84.502     740.110
   1 Symmetry operations used in ECPInt.
 ECPInt:  NShTT=   54615 NPrTT=  339395 LenC2=   40725 LenP2D=  125842.
 LDataN:  DoStor=T MaxTD1= 8 Len=  415
 Calling FoFJK, ICntrl=    100127 FMM=F ISym2X=0 I1Cent= 0 IOpClX= 0 NMat=1 NMatS=1 NMatT=0.
 Defaulting to unpruned grid for atomic number  77.
 Defaulting to unpruned grid for atomic number  77.
 Defaulting to unpruned grid for atomic number  77.
 Defaulting to unpruned grid for atomic number  77.
 Defaulting to unpruned grid for atomic number  77.
 Defaulting to unpruned grid for atomic number  77.
 Defaulting to unpruned grid for atomic number  77.
 Defaulting to unpruned grid for atomic number  77.
 Defaulting to unpruned grid for atomic number  77.
 Defaulting to unpruned grid for atomic number  77.
 Defaulting to unpruned grid for atomic number  77.
 Defaulting to unpruned grid for atomic number  77.
 Defaulting to unpruned grid for atomic number  77.
 Defaulting to unpruned grid for atomic number  77.
 Defaulting to unpruned grid for atomic number  77.
 Defaulting to unpruned grid for atomic number  77.
 Full mass-weighted force constant matrix:
 Low frequencies ---   -6.5084   -0.0008   -0.0005    0.0001    2.1261    6.4580
 Low frequencies ---   22.4108   29.6930   32.1802
 Diagonal vibrational polarizability:
      108.7173630     120.1818287      70.6270061
 Harmonic frequencies (cm**-1), IR intensities (KM/Mole), Raman scattering
 activities (A**4/AMU), depolarization ratios for plane and unpolarized
 incident light, reduced masses (AMU), force constants (mDyne/A),
 and normal coordinates:
                      1                      2                      3
                      A                      A                      A
 Frequencies --     22.2119                29.6488                32.0015
 Red. masses --      5.1229                 3.7505                 5.0274
 Frc consts  --      0.0015                 0.0019                 0.0030
 IR Inten    --      0.3346                 0.0245                 0.4176
  Atom AN      X      Y      Z        X      Y      Z        X      Y      Z
     1   6     0.01   0.02  -0.01    -0.00  -0.00  -0.00     0.01  -0.04  -0.01
     2   6     0.00  -0.01  -0.04    -0.01   0.00  -0.00     0.00  -0.00   0.02
     3   6    -0.01   0.03  -0.03    -0.01   0.01  -0.00     0.02  -0.05   0.01
     4   6    -0.01   0.06  -0.02    -0.00   0.01  -0.00     0.04  -0.11  -0.01
     5   6    -0.00   0.06  -0.01    -0.00  -0.00  -0.00     0.03  -0.10  -0.02
     6   6     0.01   0.03  -0.00     0.00  -0.01  -0.00     0.00  -0.02  -0.01
     7   6     0.01   0.02  -0.02     0.00  -0.01  -0.00    -0.00   0.05   0.03
     8   6     0.00   0.06   0.01     0.00  -0.01  -0.00    -0.01   0.04   0.02
     9   6    -0.00   0.08   0.03     0.00  -0.01  -0.00    -0.02  -0.00  -0.00
    10   6    -0.00   0.07   0.02     0.00  -0.01  -0.00    -0.01  -0.04  -0.02
    11   1     0.00  -0.04  -0.04    -0.01   0.00  -0.00    -0.00   0.04   0.03
    12   1    -0.01   0.09  -0.02    -0.00   0.01  -0.00     0.05  -0.15  -0.02
    13   1    -0.00   0.09  -0.00     0.00  -0.00  -0.00     0.04  -0.14  -0.03
    14   1     0.01   0.00  -0.04    -0.00  -0.01   0.00     0.00   0.08   0.04
    15   1    -0.01   0.11   0.05     0.01  -0.01  -0.01    -0.02  -0.01  -0.01
    16   1    -0.00   0.09   0.04     0.00  -0.01  -0.01    -0.01  -0.08  -0.04
    17   7     0.01  -0.01  -0.02    -0.00  -0.00  -0.00    -0.00   0.00   0.01
    18   7     0.01   0.00  -0.02    -0.00  -0.01  -0.00     0.00   0.02   0.01
    19   8     0.01  -0.01  -0.04     0.02   0.08  -0.00    -0.03  -0.04  -0.02
    20   8    -0.01  -0.04   0.02     0.01  -0.00  -0.00    -0.02   0.03  -0.03
    21   8     0.00  -0.00   0.07     0.06   0.00  -0.03     0.02   0.02  -0.01
    22   5    -0.00  -0.03  -0.00    -0.00  -0.00  -0.01    -0.01   0.02  -0.02
    23   5     0.02  -0.01  -0.04    -0.00  -0.01   0.00     0.00  -0.00  -0.00
    24   5     0.01  -0.03   0.02    -0.01  -0.01   0.01    -0.01   0.02   0.02
    25   8     0.00  -0.07   0.05    -0.07  -0.02   0.06    -0.05   0.01   0.05
    26   8     0.03   0.00  -0.04    -0.01  -0.08   0.00     0.02  -0.00  -0.01
    27   6     0.03   0.01  -0.04     0.00  -0.04  -0.02     0.00  -0.06  -0.04
    28   6     0.02   0.00  -0.05     0.01   0.07   0.01    -0.01  -0.09  -0.05
    29   6    -0.03  -0.05   0.13     0.04   0.01  -0.03     0.01   0.03  -0.01
    30   6    -0.03  -0.06   0.12    -0.03  -0.02   0.06    -0.03   0.01   0.04
    31   6    -0.01  -0.02   0.03     0.01  -0.01   0.00     0.00   0.01   0.01
    32   6    -0.01  -0.02   0.00     0.00  -0.02   0.00    -0.00   0.01   0.04
    33   8    -0.00  -0.02  -0.01    -0.00  -0.01  -0.00     0.01   0.01   0.01
    34   6     0.02   0.00  -0.05     0.05   0.15  -0.05    -0.07  -0.14  -0.06
    35   1     0.01  -0.00  -0.05     0.05   0.22  -0.02    -0.08  -0.16  -0.07
    36   1     0.02   0.00  -0.04     0.08   0.14  -0.12    -0.12  -0.12  -0.03
    37   1     0.02   0.01  -0.05     0.05   0.14  -0.04    -0.06  -0.17  -0.08
    38   6     0.01   0.00  -0.06    -0.03   0.10   0.11     0.05  -0.12  -0.08
    39   1     0.01  -0.00  -0.06    -0.04   0.18   0.13     0.04  -0.13  -0.08
    40   1     0.01   0.01  -0.07    -0.04   0.10   0.12     0.06  -0.16  -0.10
    41   1     0.01   0.01  -0.07    -0.06   0.05   0.16     0.09  -0.08  -0.08
    42   6     0.05   0.01  -0.03     0.04  -0.06  -0.12    -0.05  -0.05  -0.01
    43   1     0.05   0.00  -0.03     0.07  -0.03  -0.16    -0.09  -0.04   0.02
    44   1     0.05   0.01  -0.03     0.03  -0.14  -0.14    -0.02  -0.01   0.01
    45   1     0.05   0.02  -0.03     0.06  -0.02  -0.13    -0.07  -0.09  -0.03
    46   6     0.03   0.03  -0.06    -0.03  -0.08   0.04     0.05  -0.08  -0.06
    47   1     0.04   0.03  -0.06    -0.02  -0.04   0.02     0.03  -0.12  -0.08
    48   1     0.04   0.03  -0.05    -0.03  -0.17   0.01     0.06  -0.04  -0.05
    49   1     0.03   0.03  -0.06    -0.07  -0.08   0.12     0.10  -0.08  -0.08
    50   6    -0.02  -0.04   0.05     0.01  -0.02   0.01    -0.02   0.02   0.02
    51   1    -0.02  -0.03   0.06     0.02  -0.03   0.02    -0.01   0.01   0.05
    52   1    -0.01  -0.06   0.04     0.01  -0.02   0.01    -0.06   0.02   0.03
    53   1    -0.02  -0.04   0.07     0.02  -0.01   0.01    -0.02   0.02  -0.00
    54   6    -0.01   0.00   0.04     0.02  -0.00   0.01     0.05   0.01  -0.01
    55   1    -0.01   0.02   0.03     0.02   0.00   0.00     0.07  -0.00  -0.01
    56   1    -0.01   0.01   0.05     0.03  -0.01   0.01     0.06   0.00   0.02
    57   1    -0.01  -0.00   0.06     0.03   0.00   0.00     0.05   0.01  -0.04
    58   6    -0.00  -0.04  -0.01    -0.01  -0.03   0.01    -0.04   0.01   0.06
    59   1    -0.01  -0.04   0.00    -0.00  -0.04   0.01    -0.06   0.01   0.09
    60   1     0.01  -0.03  -0.02    -0.02  -0.03   0.00    -0.04   0.01   0.07
    61   1    -0.00  -0.06  -0.00    -0.01  -0.02   0.00    -0.07   0.00   0.04
    62   6    -0.01   0.00   0.00     0.01  -0.02   0.01     0.03  -0.00   0.08
    63   1    -0.01   0.01  -0.02    -0.00  -0.03   0.00     0.03  -0.01   0.09
    64   1    -0.01   0.00   0.01     0.01  -0.03   0.02     0.03  -0.01   0.10
    65   1    -0.02   0.02   0.01     0.01  -0.01   0.01     0.07   0.01   0.07
    66   6    -0.03   0.00   0.14     0.03  -0.05   0.15     0.01  -0.01   0.10
    67   1    -0.02   0.05   0.11     0.09  -0.05   0.15     0.04  -0.00   0.10
    68   1    -0.05   0.01   0.19     0.06  -0.06   0.17     0.03  -0.01   0.11
    69   1    -0.02  -0.01   0.11    -0.02  -0.08   0.21    -0.02  -0.03   0.13
    70   6    -0.04  -0.13   0.15    -0.11  -0.03   0.06    -0.08   0.01   0.04
    71   1    -0.06  -0.13   0.21    -0.08  -0.02   0.06    -0.07   0.01   0.04
    72   1    -0.03  -0.18   0.13    -0.17  -0.00   0.00    -0.11   0.02   0.01
    73   1    -0.03  -0.13   0.14    -0.16  -0.05   0.13    -0.11   0.00   0.09
    74   6    -0.03  -0.13   0.14    -0.02   0.05  -0.12    -0.03   0.05  -0.07
    75   1    -0.03  -0.14   0.14     0.03   0.06  -0.18     0.00   0.08  -0.10
    76   1    -0.00  -0.16   0.10    -0.09   0.07  -0.10    -0.08   0.04  -0.08
    77   1    -0.07  -0.16   0.17    -0.04   0.07  -0.14    -0.03   0.04  -0.06
    78   6    -0.06   0.01   0.20     0.13  -0.00  -0.03     0.06   0.02  -0.01
    79   1    -0.06   0.07   0.20     0.18  -0.03   0.02     0.10   0.01   0.02
    80   1    -0.07   0.02   0.21     0.17   0.02  -0.09     0.09   0.03  -0.06
    81   1    -0.08  -0.02   0.26     0.12  -0.00  -0.03     0.05   0.02  -0.01
    82   1     0.02  -0.01  -0.02    -0.00  -0.00   0.00     0.00   0.02   0.02
    83   6    -0.01  -0.01  -0.00     0.00   0.01  -0.02     0.01   0.01  -0.07
    84   8    -0.01  -0.01  -0.00     0.01   0.01  -0.02     0.02   0.00  -0.05
    85   6    -0.01   0.02   0.01     0.01   0.02  -0.03     0.04  -0.02  -0.11
    86   1     0.00   0.03   0.02     0.01   0.03  -0.04     0.01  -0.03  -0.14
    87   1    -0.03   0.03  -0.00     0.00   0.02  -0.03     0.06  -0.03  -0.10
    88   6    -0.01  -0.05  -0.02    -0.01   0.01  -0.02    -0.03   0.04  -0.03
    89   1    -0.01  -0.05  -0.03    -0.02   0.00  -0.01    -0.04   0.04  -0.01
    90   1    -0.00  -0.06  -0.01    -0.02   0.01  -0.02    -0.05   0.05  -0.04
    91   7    -0.01  -0.03  -0.02    -0.01   0.01  -0.02    -0.02   0.03  -0.05
    92   6    -0.01  -0.03  -0.02    -0.02   0.03  -0.03    -0.03   0.05  -0.06
    93   1    -0.01  -0.03  -0.03    -0.03   0.03  -0.02    -0.05   0.05  -0.04
    94   1    -0.01  -0.02  -0.02    -0.02   0.03  -0.03    -0.02   0.05  -0.07
    95   1    -0.01  -0.03  -0.02    -0.02   0.03  -0.03    -0.04   0.07  -0.08
    96   6    -0.01   0.03   0.01     0.02   0.02  -0.03     0.07  -0.04  -0.11
    97   1    -0.02   0.02  -0.00     0.02   0.01  -0.02     0.09  -0.03  -0.08
    98   1     0.01   0.02   0.02     0.03   0.01  -0.03     0.04  -0.03  -0.12
    99   6    -0.01   0.03  -0.05    -0.01   0.02  -0.00     0.02  -0.04   0.02
   100   9    -0.01   0.03  -0.05    -0.01   0.02  -0.01     0.02  -0.04  -0.02
   101   9    -0.03   0.02  -0.05    -0.02   0.02   0.00     0.01   0.01   0.04
   102   9    -0.01   0.04  -0.06    -0.01   0.01   0.00     0.03  -0.07   0.05
   103   6    -0.00   0.08   0.01     0.00  -0.01   0.00    -0.02   0.06   0.03
   104   9    -0.01   0.06   0.02    -0.03   0.04  -0.03     0.01  -0.01   0.09
   105   9    -0.02   0.10   0.02     0.02  -0.07  -0.02    -0.03   0.16   0.07
   106   9     0.00   0.08  -0.02     0.02   0.01   0.07    -0.02   0.06  -0.07
   107  77     0.02  -0.02  -0.03    -0.00  -0.01   0.00     0.00   0.02   0.01
   108   1    -0.01   0.06   0.02     0.03   0.02  -0.04     0.08  -0.06  -0.14
                      4                      5                      6
                      A                      A                      A
 Frequencies --     35.6250                41.7991                44.0324
 Red. masses --      3.8763                 7.3230                 5.2663
 Frc consts  --      0.0029                 0.0075                 0.0060
 IR Inten    --      0.1748                 0.7675                 0.2455
  Atom AN      X      Y      Z        X      Y      Z        X      Y      Z
     1   6    -0.01   0.04   0.00     0.01  -0.01   0.04    -0.02  -0.04  -0.04
     2   6    -0.00   0.00  -0.02     0.01  -0.01   0.05    -0.02  -0.02  -0.02
     3   6    -0.01   0.03  -0.02    -0.02   0.05   0.07    -0.02  -0.03  -0.01
     4   6    -0.02   0.07  -0.01    -0.03   0.07   0.08    -0.02  -0.06  -0.02
     5   6    -0.01   0.08   0.01    -0.02   0.04   0.06    -0.02  -0.07  -0.03
     6   6     0.00   0.03   0.01     0.01  -0.02   0.03    -0.03  -0.04  -0.04
     7   6     0.00  -0.02  -0.01     0.01  -0.03   0.01    -0.03   0.02  -0.02
     8   6     0.01  -0.01   0.00     0.00   0.00   0.03    -0.04   0.01  -0.03
     9   6     0.02   0.03   0.02    -0.00   0.01   0.05    -0.04  -0.03  -0.05
    10   6     0.01   0.05   0.03     0.00  -0.00   0.05    -0.04  -0.05  -0.05
    11   1    -0.00  -0.03  -0.03     0.02  -0.02   0.04    -0.02   0.00  -0.01
    12   1    -0.02   0.10  -0.01    -0.05   0.12   0.09    -0.02  -0.07  -0.02
    13   1    -0.02   0.11   0.02    -0.03   0.06   0.07    -0.02  -0.09  -0.04
    14   1    -0.00  -0.05  -0.02     0.02  -0.03   0.00    -0.03   0.04  -0.01
    15   1     0.02   0.05   0.04    -0.01   0.03   0.06    -0.05  -0.04  -0.06
    16   1     0.01   0.09   0.04    -0.00   0.01   0.06    -0.04  -0.08  -0.07
    17   7    -0.00   0.01  -0.01     0.02  -0.04   0.03    -0.02  -0.02  -0.03
    18   7    -0.00  -0.00  -0.00     0.02  -0.04   0.01    -0.03  -0.00  -0.03
    19   8    -0.01  -0.06   0.01     0.04  -0.05   0.01    -0.00   0.02   0.02
[...]
 099,0.00008449,0.00010002,-0.00010228,0.00006615,-0.00010593,-0.000015
 54,-0.00221892,-0.00256486,0.00090436,0.00095787,0.00019378,-0.0003060
 5,0.00039734,0.00076167,-0.00086297,0.00048566,0.00077981,0.00002752,0
 .00303186,0.00047690,-0.00090178,-0.00125058,-0.00084093,-0.00030574,-
 0.00058258,-0.00016317,0.00023477,-0.00107827,0.00022386,0.00014123,-0
 .02781121,0.31512021,-0.00609764,0.00597628,-0.01268945,-0.00154893,-0
 .00065973,0.00654594,0.00152634,0.00311183,0.00012042,-0.00030536,-0.0
 0035964,-0.00040124,-0.00008516,0.00281430,0.00063461,-0.01977911,0.00
 287632,-0.01619623,0.01937854,0.00675940,-0.01083129,-0.00287290,-0.00
 301715,0.00709883,-0.00214076,0.00271505,-0.00402318,0.00288521,-0.000
 71581,0.00311274,0.00175400,-0.00021930,-0.00037492,0.00019233,-0.0002
 5027,-0.00007214,-0.00003589,-0.00014592,-0.00003446,-0.00137507,-0.00
 091609,-0.00053665,-0.00010806,-0.00031871,0.00007476,0.00004905,-0.00
 035926,0.00059432,0.00586732,-0.00721338,-0.02481654,0.00118137,-0.008
 54611,-0.00972301,0.01228471,-0.00240204,0.00893979,0.00046265,0.00060
 574,0.00023417,-0.00205472,0.00866398,0.00877249,0.00236741,-0.0035577
 4,-0.00034251,-0.00760525,0.01019575,-0.05284154,0.00776682,-0.0221008
 6,-0.04616641,-0.00597655,-0.01709964,-0.00213408,-0.02264002,0.004500
 95,-0.00763985,0.00311651,-0.00146201,-0.00307618,0.00105082,-0.001678
 82,-0.00220343,-0.00137758,0.00055400,-0.00104344,-0.00287808,0.000782
 53,-0.00106426,0.00025316,0.00002827,0.00030437,-0.00242497,-0.0014096
 0,-0.00216519,0.00124331,0.00211343,-0.00830041,0.00078357,-0.00001938
 ,0.00104853,-0.00013012,0.00006926,0.00012072,-0.00003619,-0.00000462,
 -0.00007701,0.00039474,-0.00026074,-0.00018738,0.00006436,-0.00012943,
 0.00025992,-0.00009152,-0.00003519,0.00008342,0.00009710,0.00011532,-0
 .00003814,0.00003130,0.00018305,-0.00010194,-0.00079389,0.00014650,0.0
 0029099,0.00015157,-0.00000121,-0.00002023,0.00002802,-0.00011740,0.00
 006841,-0.00019855,0.00047214,-0.00005547,-0.00125629,0.00054401,0.000
 58649,-0.00050495,-0.00012256,-0.00040466,0.00011652,0.00005963,0.0000
 9723,0.00008673,-0.00005206,0.00000547,-0.00010596,0.00008372,-0.00003
 878,0.00005255,0.00002710,-0.00001530,-0.00001439,-0.00000808,0.000028
 63,0.00001211,0.00005004,0.00007514,0.00009357,0.00004087,0.00008047,-
 0.00002273,-0.00000422,0.00008717,0.00003080,0.00006364,-0.00002890,-0
 .00003246,0.00000121,-0.00001544,-0.00013812,-0.00092399,-0.00010455,0
 .00013515,-0.00001494,0.00003453,-0.00037280,0.00038882,0.00013433,0.0
 0014378,-0.00011998,-0.00018555,0.00029905,0.00034782,0.00053071,-0.00
 012513,-0.00011343,-0.00002138,0.00013114,0.00012134,-0.00014531,-0.00
 004696,0.00011591,-0.00007557,0.00034942,-0.00088596,-0.00002972,-0.00
 011095,0.00002103,0.00009938,-0.00031988,-0.00015660,0.00021449,0.0000
 5017,-0.00000830,-0.00003265,0.00024156,-0.00059035,0.00032774,-0.0000
 1192,-0.00018260,-0.00021859,-0.00000065,0.00007301,-0.00001972,-0.000
 00320,0.00002266,0.00009511,0.00019347,0.00068080,0.00017888,0.0000730
 6,-0.00008246,-0.00002124,-0.00006464,0.00005981,0.00007585,-0.0002252
 7,0.00006126,0.00021796,0.00010099,0.00029827,0.00054837,-0.00000702,-
 0.00002541,-0.00005524,0.00003605,-0.00009340,0.00002353,0.00002340,0.
 00027016,-0.00010044,0.01295829,0.03851802,-0.14104646,-0.00045785,-0.
 00027837,0.00093544,-0.00028175,-0.00001137,-0.00101969,-0.00004872,-0
 .00001305,-0.00007855,-0.00001262,-0.00000416,-0.00004771,-0.00009676,
 0.00004470,-0.00000875,0.00098329,-0.00096730,0.00064096,0.00080493,0.
 00062067,-0.00105967,-0.00038519,0.00035017,-0.00005510,-0.00068564,0.
 00023529,-0.00056654,0.00009797,0.00006745,-0.00029302,0.00008396,0.00
 004947,0.00004222,-0.00012307,0.00001958,0.00001703,0.00002006,0.00000
 457,0.00002495,-0.00011995,-0.00002743,0.00002763,0.00004825,0.0000120
 9,-0.00004900,0.00003292,-0.00003214,-0.00000359,-0.00034970,-0.000509
 69,0.00080438,0.00051536,-0.00012774,-0.00021171,0.00007494,0.00011361
 ,-0.00021974,0.00021710,0.00028887,-0.00004598,0.00102113,-0.00002938,
 0.00027644,-0.00032245,-0.00016797,-0.00025682,-0.00027791,-0.00037770
 ,0.00052171,-0.00004738,0.00003268,-0.00004969,0.00519055,-0.01745933,
 0.30868346,-0.00008407,-0.00002277,-0.00008191,0.00003875,-0.00000694,
 0.00001657,0.00002235,0.00002835,-0.00007104,-0.00013412,0.00000037,0.
 00005158,0.00006842,0.00010546,-0.00006952,0.00006936,-0.00002979,-0.0
 0002844,-0.00000119,-0.00000699,-0.00000145,-0.00002199,0.00000409,-0.
 00000486,0.00003925,0.00002153,-0.00001427,-0.00002012,0.00002644,0.00
 004161,0.00000595,-0.00000346,0.00000062,0.00001843,0.00007950,0.00000
 156,-0.00006899,0.00001317,0.00002291,0.00000317,-0.00000571,0.0000025
 5,-0.00000726,-0.00000241,-0.00000159,-0.00000821,-0.00001375,-0.00009
 353,-0.00000364,-0.00001916,0.00015222,0.00001503,-0.00001098,0.000025
 62,-0.00004461,0.00001796,-0.00000033,-0.00015460,-0.00011104,-0.00009
 079,-0.00000786,0.00006658,0.00000811,0.00067713,0.00001798,0.00046477
 ,0.00005988,-0.00002745,0.00001201,-0.00000045,-0.00010046,-0.00002227
 ,0.00001179,0.00006585,0.00002926,-0.00004025,0.00002223,-0.00001439,0
 .00002339,-0.00001238,0.00000149,0.00001845,-0.00000533,0.00000768,-0.
 00000063,-0.00002281,-0.00001607,-0.00000155,-0.00003186,-0.00000170,0
 .00009232,-0.00000059,0.00000907,0.00006455,0.00004569,0.00001418,-0.0
 0022190,0.00005781,0.00000239,-0.00000090,0.00000103,-0.00000015,0.000
 00052,-0.00000111,0.00000151,0.00000103,0.00000168,-0.00000007,-0.0000
 0274,0.00000068,-0.00000119,-0.00000084,-0.00000217,-0.00000472,0.0000
 0274,-0.00000062,-0.00000041,-0.00000415,0.00000128,-0.00000156,0.0000
 0114,0.00000178,0.00000447,-0.00000217,0.00000226,-0.00000022,0.000001
 22,-0.00000156,0.00000037,0.00000105,-0.00000073,-0.00000039,-0.000003
 60,0.00000275,-0.00000013,-0.00000185,-0.00000117,-0.00000079,-0.00000
 352,0.00000128,0.00000031,0.00000152,-0.00000055,-0.00000084,0.0000025
 0,0.00000131,0.00000046,-0.00000950,0.00001162,-0.00001338,-0.00000891
 ,-0.00000489,0.00000104,-0.00000222,-0.00000086,-0.00001026,0.00000541
 ,0.00000051,0.00000339,-0.00001287,0.00003603,0.00003514,0.00005925,-0
 .00002140,-0.00002024,-0.00003318,-0.00001625,-0.00001245,0.00001125,0
 .00002863,0.00000807,-0.00001269,0.00000083,-0.00000258,-0.00000906,-0
 .00000446,-0.00000640,0.00000041,-0.00000154,-0.00000135,0.00000386,-0
 .00000226,0.00000540,-0.00000495,0.00000076,0.00000192,-0.00000484,0.0
 0000706,0.00000099,-0.00000552,-0.00000417,-0.00000086,0.00000912,-0.0
 0000246,-0.00000721,0.00000059,0.00000458,-0.00000080,-0.00000014,-0.0
 0000170,0.00000368,0.00000035,0.00000501,-0.00000096,-0.00000041,-0.00
 000389,-0.00000152,-0.00000116,0.00000367,0.00000035,-0.00000038,0.000
 00369,0.00000096,-0.00000153,-0.00000117,-0.00000049,0.00000309,-0.000
 00191,0.00000021,-0.00000068,0.00000173,0.00000259,0.00000018,-0.00000
 168,-0.00000028,0.00000087,-0.00000078,-0.00000278,-0.00000080,0.00000
 425,0.00000253,-0.00000063,0.00000222,0.00000069,-0.00000005,-0.000001
 29,-0.00000001,-0.00000062,-0.00000082,-0.00000095,0.00000044,0.000003
 73,0.00000118,-0.00000071,-0.00000382,0.00000684,-0.00112855,-0.002015
 36,0.00276335,-0.00015721,0.00072462,-0.00165440,0.00714729,-0.0010555
 2,0.00617393,0.00035034,0.00037974,-0.00055580,0.00024862,0.00036488,-
 0.00055315,-0.00003300,0.00002920,-0.00004997,0.00002549,0.00001340,-0
 .00002013,0.00002606,0.00001639,-0.00001728,0.00062201,0.00017298,0.00
 000647,-0.00002014,0.00001194,-0.00002595,0.00000030,0.00001386,-0.000
 01791,-0.00001998,-0.00002000,-0.00001151,0.00001723,0.00000407,-0.000
 01717,-0.23552686,0.01408151,-0.12514284,-0.01626363,-0.00061962,-0.01
 305212,-0.00679669,0.00196435,-0.00329233,-0.00011599,-0.00005536,-0.0
 0006617,0.00004807,0.00000668,0.00002316,0.00001997,0.00000310,0.00002
 625,0.00003986,0.00003985,0.00003281,0.00006216,0.00000696,-0.00007020
 ,-0.00001575,-0.00000011,0.00001624,-0.00001506,-0.00001414,0.00003611
 ,-0.00002399,0.00000752,0.00001130,-0.00001424,-0.00000633,-0.00001983
 ,0.25114105,0.00011324,0.00000736,0.00009367,-0.00005296,-0.00001298,-
 0.00000735,-0.00001784,-0.00003065,0.00009311,0.00002394,0.00011546,-0
 .00002868,-0.00011190,0.00001890,-0.00001346,-0.00003618,0.00001301,0.
 00000315,0.00000246,-0.00000166,-0.00000048,-0.00000273,-0.00000162,0.
 00000763,-0.00000483,0.00000126,-0.00000389,-0.00001227,-0.00000798,-0
 .00000687,-0.00000743,0.00000579,-0.00000070,-0.00002995,-0.00008998,-
 0.00004513,0.00005133,-0.00001472,-0.00003631,0.00000089,-0.00000068,0
 .00000081,0.00000052,0.00000048,-0.00000065,-0.00000016,0.00000960,0.0
 0002624,0.00003501,0.00002714,-0.00011820,-0.00001362,0.00000054,0.000
 00092,-0.00001420,0.00000358,-0.00000283,0.00006530,0.00013077,-0.0000
 1830,-0.00000673,0.00000546,-0.00000700,-0.00019209,-0.00012307,0.0000
 5240,0.00002723,-0.00002004,0.00000564,0.00001656,-0.00000954,0.000015
 79,-0.00001057,0.00000250,-0.00000734,-0.00001620,0.00000441,-0.000012
 18,0.00000587,-0.00000081,0.00000005,0.00000648,0.00000045,0.00000363,
 0.00000293,-0.00000214,0.00000192,0.00000203,-0.00000327,0.00000003,-0
 .00003485,-0.00003910,0.00006656,-0.00001645,-0.00003093,-0.00001792,0
 .00007928,0.00002198,-0.00002466,-0.00000054,0.00000034,-0.00000027,0.
 00000041,0.,0.00000013,0.00000032,-0.00000027,0.00000022,-0.00000101,0
 .00000017,-0.00000038,-0.00000076,-0.00000036,-0.00000039,0.00000065,-
 0.00000001,-0.00000037,-0.00000122,0.00000004,-0.00000041,0.00000040,0
 .00000017,0.00000073,-0.00000126,0.00000028,0.00000075,0.00000051,-0.0
 0000054,-0.00000007,0.00000030,0.00000006,-0.00000046,-0.00000068,0.00
 000082,-0.00000009,-0.00000052,0.00000011,0.00000012,-0.00000072,0.000
 00002,-0.00000024,0.00000020,0.00000044,-0.00000074,0.,-0.00000039,0.0
 0000041,0.00000564,0.00000928,-0.00001587,0.00000151,0.00000309,0.0000
 0162,-0.00000476,-0.00000235,-0.00000845,0.00000084,0.00000350,0.00000
 468,0.00000968,-0.00000436,-0.00000753,0.00004537,-0.00004473,-0.00001
 363,-0.00002460,0.00000559,-0.00001489,0.00002039,0.00005372,0.0000306
 1,-0.00000316,0.00001418,0.00000700,0.00000308,-0.00000088,0.00000018,
 -0.00000153,0.00000193,-0.00000151,-0.00000044,-0.00000316,-0.00000450
 ,0.00000200,0.00000751,0.00000420,-0.00000042,0.00000157,-0.00000146,0
 .00000375,-0.00000068,-0.00000138,0.00000149,-0.00000296,-0.00000542,0
 .00000275,-0.00000112,0.00000345,0.00000039,-0.00000078,0.00000007,-0.
 00000045,0.00000101,0.00000010,-0.00000223,0.00000078,-0.00000261,0.00
 000194,-0.00000030,0.00000111,-0.00000010,0.00000103,-0.00000049,0.000
 00019,-0.00000053,0.00000027,-0.00000181,-0.00000039,-0.00000098,-0.00
 000081,0.00000002,-0.00000060,-0.00000113,0.00000019,-0.00000070,0.000
 00087,0.00000032,-0.00000006,0.00000030,0.00000001,0.00000037,-0.00000
 106,0.00000004,-0.00000042,0.00000067,-0.00000013,0.00000074,-0.000001
 30,0.00000029,-0.00000054,0.00000047,-0.00000010,0.00000010,0.00000553
 ,0.00000196,-0.00001768,-0.00247322,-0.00198827,0.00301860,-0.00011048
 ,0.00065441,-0.00040867,0.01543816,-0.00215868,0.00976703,-0.00023727,
 0.00052116,-0.00064151,0.00050043,0.00037599,-0.00067931,-0.00009428,-
 0.00016059,0.00010903,0.00005206,0.00000881,0.00007082,0.00006389,-0.0
 0001116,0.00005211,0.00118943,0.00019147,0.00052822,0.00021113,0.00011
 207,-0.00009045,-0.00001588,-0.00002429,0.00001613,-0.00001849,0.00002
 164,-0.00001700,-0.00002525,-0.00000977,0.00001356,0.01350519,-0.04893
 003,0.00815358,0.01117129,-0.00149954,0.00905138,-0.02482068,0.0045461
 4,-0.01620486,0.00017641,-0.00011321,0.00009790,-0.00010022,0.00008474
 ,-0.00003364,-0.00002870,0.00003458,-0.00006813,-0.00002993,0.00001401
 ,-0.00001514,0.00001834,0.00000629,-0.00000729,-0.00000611,-0.00000300
 ,-0.00000013,-0.00000389,-0.00000329,0.00000486,-0.00000612,0.00000060
 ,0.00000100,-0.00002822,0.00002212,0.00001758,-0.01423886,0.04828384,0
 .00003496,-0.00000123,-0.00000554,-0.00004884,-0.00003547,-0.00003316,
 -0.00000713,0.00001757,0.00005152,-0.00000178,0.00005200,-0.00008792,-
 0.00005025,-0.00001426,0.00003978,-0.00001623,0.00002423,-0.00000170,0
 .00000702,-0.00000353,0.00000495,-0.00000111,0.00000371,0.00000276,-0.
 00000082,-0.00001663,0.00001366,-0.00002613,-0.00000867,-0.00001867,0.
 00000433,-0.00002023,-0.00000099,-0.00001262,0.00001072,0.00001295,0.0
 0001214,0.00000649,0.00000556,-0.00000009,0.00000118,-0.00000388,0.000
 00067,-0.00000065,-0.00000014,0.00000298,0.00000779,0.00006404,-0.0000
 0958,0.00006102,-0.00004082,0.00000822,-0.00000281,-0.00001294,-0.0000
 2350,0.00000612,0.00000642,-0.00023027,-0.00018586,-0.00001995,-0.0000
 0349,0.00003224,0.00000628,0.00060205,0.00016176,0.00013196,0.00002474
 ,-0.00000341,0.00000149,-0.00000717,-0.00003414,-0.00001562,0.00000584
 ,0.00002960,0.00001476,-0.00001766,0.00001258,0.00000262,0.00001415,-0
 .00000762,0.00000065,0.00000680,-0.00000283,0.00000276,0.00000104,-0.0
 0001236,-0.00000848,-0.00000089,-0.00001224,0.00000006,0.00014250,0.00
 006341,-0.00006381,0.00006078,0.00006482,0.00002140,-0.00028465,0.0000
 1802,0.00006572,0.00000006,0.00000070,0.00000017,-0.00000007,-0.000000
 50,0.00000115,0.00000049,0.00000084,-0.00000006,-0.00000124,0.00000022
 ,-0.00000064,0.00000046,-0.00000156,-0.00000369,0.00000069,-0.00000028
 ,0.00000069,-0.00000209,0.00000071,-0.00000049,0.00000068,0.00000112,0
 .00000199,-0.00000059,0.00000129,-0.00000035,0.00000080,-0.00000059,0.
 00000006,0.00000083,-0.00000075,0.00000031,-0.00000222,0.00000135,0.00
 000005,-0.00000122,-0.00000128,-0.00000055,-0.00000219,0.00000112,0.00
 000051,0.00000119,-0.00000073,0.00000020,0.00000184,0.00000096,-0.0000
 0015,-0.00001679,-0.00000515,0.00001259,-0.00001073,-0.00000798,-0.000
 00191,0.00000449,0.00000367,0.00000254,0.00000480,-0.00000235,-0.00000
 123,-0.00002075,-0.00002426,0.00001347,-0.00000452,0.00000117,-0.00002
 214,-0.00001343,-0.00000715,0.00000959,0.00000809,0.00001170,-0.000002
 22,-0.00000609,-0.00001172,-0.00001022,-0.00001117,-0.00000345,-0.0000
 0377,0.00000243,-0.00000268,0.00000026,0.00000467,0.00000235,0.0000122
 6,-0.00000907,-0.00000118,-0.00000968,-0.00000380,0.00000455,0.0000029
 2,-0.00000721,-0.00000281,0.00000382,0.00000175,-0.00000207,0.00000387
 ,-0.00000081,0.00000108,-0.00000285,0.00000017,-0.00000090,0.00000198,
 0.00000016,0.00000264,0.00000013,0.00000008,-0.00000185,-0.00000005,-0
 .00000013,0.00000108,0.00000030,-0.00000032,0.00000192,0.00000021,-0.0
 0000026,-0.00000047,0.00000015,0.00000067,-0.00000099,0.00000048,-0.00
 000047,0.00000103,0.00000118,0.00000002,-0.00000089,-0.00000039,0.0000
 0049,-0.00000034,-0.00000117,-0.00000034,0.00000193,0.00000147,0.00000
 007,0.00000135,0.00000009,-0.00000030,-0.00000109,-0.00000004,-0.00000
 031,-0.00000060,-0.00000062,0.00000017,0.00000194,0.00000098,-0.000007
 69,-0.00000470,0.00003678,0.00359165,0.00313189,-0.00344818,0.00000128
 ,0.00003965,0.00039304,-0.02310861,0.00113687,-0.01505883,-0.00013076,
 -0.00086094,0.00066115,-0.00000460,-0.00023564,0.00118873,0.00022121,0
 .00016509,-0.00026940,-0.00007330,0.00000387,-0.00010975,-0.00011972,0
 .00003659,-0.00009458,-0.00185542,0.00003779,-0.00082907,-0.00038762,-
 0.00023211,0.00015672,0.00003960,0.00004606,-0.00003791,0.00000584,-0.
 00001644,0.00006232,0.00004282,0.00001700,-0.00005756,-0.12375463,0.00
 832553,-0.12983374,0.01497072,-0.00010141,0.01109439,-0.00468751,0.001
 10565,-0.00423145,-0.00012378,-0.00000561,-0.00008087,0.00007333,-0.00
 001947,0.00002435,0.00002471,-0.00000904,0.00004692,0.00003042,0.00001
 524,0.00001979,0.00000485,-0.00000442,-0.00001966,0.00000048,0.0000045
 7,0.00000813,-0.00000162,-0.00000321,0.00000968,-0.00000184,0.00000127
 ,0.00000296,0.00000920,-0.00003654,-0.00003850,0.13513600,-0.01270999,
 0.14025756\\0.00000461,0.00000401,-0.00000067,-0.00000230,0.00000266,-
 0.00000608,-0.00000631,-0.00000382,0.00000526,0.00000617,0.00000580,-0
 .00000829,-0.00000269,0.00000069,-0.00000181,0.00000371,0.00000312,0.0
 0000190,-0.00000557,-0.00000471,0.00000731,0.00000680,0.00000682,-0.00
 000494,-0.00000491,0.00000006,0.00000633,0.00000654,0.00000314,-0.0000
 0310,0.00000036,0.00000070,0.00000092,-0.00000119,0.00000378,-0.000002
 78,0.00000073,0.00000505,0.00000109,-0.00000096,0.00000576,0.00000188,
 0.00000312,0.00000425,-0.00000080,0.00000265,0.00000470,0.00000220,0.0
 0000079,-0.00000506,-0.00000167,0.00000005,-0.00000102,-0.00000195,0.0
 0000375,-0.00000490,-0.00000035,0.00000892,0.00000870,0.00000681,0.000
 00235,-0.00000009,-0.00000132,-0.00000314,0.00000478,0.00000212,-0.000
 00615,0.00000107,0.00000024,-0.00000802,-0.00000466,-0.00000183,0.0000
 0315,0.00000334,0.00000021,-0.00000523,-0.00000214,-0.00000060,0.00000
 675,0.00000220,0.00000447,0.00000133,-0.00000249,0.00000034,-0.0000062
 2,0.00000286,0.00000094,-0.00000079,0.00000452,-0.00000715,-0.00000611
 ,-0.00000768,0.00000488,0.00000165,-0.00000104,0.00000588,0.00000167,0
 .00000066,0.00000086,-0.00001093,-0.00000835,-0.00000202,0.00000069,-0
 .00000128,-0.00000163,0.00000328,0.00000239,-0.00000125,0.00000173,-0.
 00000290,0.00000243,-0.00000507,0.00000082,0.00000381,0.00000180,-0.00
 000262,0.00000213,0.00000057,-0.00000390,0.00000181,0.00000137,-0.0000
 0405,-0.00000182,0.00000034,-0.00000832,-0.00000280,-0.00000202,-0.000
 00261,-0.00000285,-0.00000274,-0.00000442,-0.00000025,-0.00000607,-0.0
 0000151,-0.00000124,-0.00000414,-0.00000771,0.00000218,-0.00000256,-0.
 00000394,0.00000071,-0.00000053,-0.00000386,-0.00000270,-0.00000041,-0
 .00000541,0.00000173,-0.00000286,0.00000373,-0.00000006,0.00000600,-0.
 00000053,0.00000375,0.00000120,-0.00000534,0.00000873,0.00000427,-0.00
 000509,0.00000443,0.00000214,0.00000554,0.00000537,0.00000159,0.000000
 26,0.00000376,-0.00000030,-0.00000040,0.00000441,0.00000504,-0.0000014
 6,0.00000332,-0.00000284,-0.00000322,-0.00000157,0.00000260,-0.0000017
 7,0.00000422,-0.00000068,-0.00000200,0.00000211,0.00000066,-0.00000322
 ,0.00000185,0.00000048,-0.00001171,0.00000118,0.00000472,0.00000283,0.
 00000883,0.00000401,0.00000094,0.00000355,0.00000142,0.00000093,-0.000
 00037,-0.00000556,0.00000457,-0.00000225,-0.00000114,-0.00000159,-0.00
 000542,-0.00000225,-0.00000019,-0.00000398,0.00000271,-0.00000088,-0.0
 0000293,0.00000542,-0.00000134,-0.00000204,-0.00000199,0.00000223,-0.0
 0000478,-0.00000197,0.00000217,-0.00000227,-0.00000578,0.00000420,-0.0
 0000596,-0.00000071,-0.00000360,-0.00000387,-0.00000302,-0.00000021,-0
 .00000228,-0.00000116,0.00000002,-0.00000239,-0.00000243,0.00000094,-0
 .00000477,0.00000358,0.00000061,-0.00000675,-0.00000493,-0.00000084,-0
 .00000278,-0.00000509,-0.00000158,-0.00000543,-0.00000343,-0.00000085,
 -0.00000443,0.00000160,-0.00000343,-0.00000023,0.00000002,0.00000654,0
 .00000560,0.00000366,-0.00000830,-0.00000746,-0.00000013,0.00001105,-0
 .00000681,0.00000258,0.00000119,0.00000034,0.00000029,-0.00000089,0.00
 000209,0.00000097,-0.00000016,0.00000324,0.00000017,-0.00000179,-0.000
 00024,-0.00000040,-0.00000200,-0.00000115,-0.00000499,0.00000017,0.000
 00333,-0.00000262,-0.00000346,-0.00000781,-0.00000163,0.00000029,0.000
 00020,0.00000168,-0.00000292,-0.00000151,0.00000227,0.00000132,0.00000
 375,-0.00000102,-0.00000351,0.00000656,0.00000144,0.00000520,0.0000011
 7,0.00000261,0.00000435,-0.00000026,0.00000719,0.00000205,-0.00000492,
 -0.00000130,0.00000265,-0.00000035,-0.00000513,0.00000639,-0.00000360,
 -0.00000156,0.00000646,-0.00000186,-0.00000259,0.00000296,-0.00000265,
 0.00000266,0.00000096,0.00000574,0.00000111,0.00000281,0.00000225,0.00
 000441,-0.00000271,0.00000374,0.00000371,0.00000350,-0.00000103,0.0000
 0450,0.00000471,0.00000213\\\@
 The archive entry for this job was punched.


 WHAT, THEN, IS TIME?  IF NO ONE ASKS ME, I KNOW WHAT IT IS.
 IF I WISH TO EXPLAIN WHAT IT IS TO HIM WHO ASKS ME, I DO NOT KNOW.
                                   -- ST. AUGUSTINE (FIFTH CENTURY)
 Job cpu time:       2 days  1 hours 19 minutes 50.6 seconds.
 Elapsed time:       0 days  3 hours  8 minutes 31.0 seconds.
 File lengths (MBytes):  RWF=   9700 Int=      0 D2E=      0 Chk=     55 Scr=      1
 Normal termination of Gaussian 16 at Sat Dec  7 22:01:51 2024.
